<LesHouchesEvents version="3.0">
<header>
<!--
#*********************************************************************
#                                                                    *
#                        MadGraph5_aMC@NLO                           *
#                                                                    *
#                           Going Beyond                             *
#                                                                    *
#                   http://madgraph.hep.uiuc.edu                     *
#                   http://madgraph.phys.ucl.ac.be                   *
#                   http://amcatnlo.cern.ch                          *
#                                                                    *
#                     The MadGraph5_aMC@NLO team                     *
#                                                                    *
#....................................................................*
#                                                                    *
# This file contains all the information necessary to reproduce      *
# the events generated:                                              *
#                                                                    *
# 1. software version                                                *
# 2. proc_card          : code generation info including model       *
# 3. param_card         : model primary parameters in the LH format  *
# 4. run_card           : running parameters (collider and cuts)     *
# 5. pythia_card        : present only if pythia has been run        *
# 6. pgs_card           : present only if pgs has been run           *
# 7. delphes_cards      : present only if delphes has been run       *
#                                                                    *
#                                                                    *
#*********************************************************************
-->
<MGVersion>
#5.2.2.3
</MGVersion>
<MG5ProcCard>
#************************************************************
#*                     MadGraph5_aMC@NLO                    *
#*                                                          *
#*                *                       *                 *
#*                  *        * *        *                   *
#*                    * * * * 5 * * * *                     *
#*                  *        * *        *                   *
#*                *                       *                 *
#*                                                          *
#*                                                          *
#*         VERSION 2.2.3                 2015-02-10         *
#*                                                          *
#*    The MadGraph5_aMC@NLO Development Team - Find us at   *
#*    https://server06.fynu.ucl.ac.be/projects/madgraph     *
#*                                                          *
#************************************************************
#*                                                          *
#*               Command File for MadGraph5_aMC@NLO         *
#*                                                          *
#*     run as ./bin/mg5_aMC  filename                       *
#*                                                          *
#************************************************************
set group_subprocesses Auto
set ignore_six_quark_processes False
set loop_optimized_output True
set gauge unitary
set complex_mass_scheme False
import model sm
define p = g u c d s u~ c~ d~ s~
define j = g u c d s u~ c~ d~ s~
define l+ = e+ mu+
define l- = e- mu-
define vl = ve vm vt
define vl~ = ve~ vm~ vt~
import model Zprime_UFO
generate p p > zph, zph > j j
add process p p > zph, zph > b b~
output Dijet_signal
</MG5ProcCard>
<MGProcCard>
#*********************************************************************
#                        MadGraph/MadEvent                           *
#                   http://madgraph.hep.uiuc.edu                     *
#                                                                    *
#                          proc_card.dat                             *
#*********************************************************************
#                                                                    *
#            This Files is generated by MADGRAPH 5                   *
#                                                                    *
# WARNING: This Files is generated for MADEVENT (compatibility issue)*
#          This files is NOT a valid MG4 proc_card.dat               *
#          Running this in MG4 will NEVER reproduce the result of MG5*
#                                                                    *
#*********************************************************************
#*********************************************************************
# Process(es) requested : mg2 input                                  *
#*********************************************************************
# Begin PROCESS # This is TAG. Do not modify this line
p p > zph , zph > j j           #Process
# Be carefull the coupling are here in MG5 convention
          
end_coup           # End the couplings input

done               # this tells MG there are no more procs
# End PROCESS  # This is TAG. Do not modify this line
#*********************************************************************
# Model information                                                  *
#*********************************************************************
# Begin MODEL  # This is TAG. Do not modify this line
Zprime_UFO
# End   MODEL  # This is TAG. Do not modify this line
#*********************************************************************
# Start multiparticle definitions                                    *
#*********************************************************************
# Begin MULTIPARTICLES # This is TAG. Do not modify this line

# End  MULTIPARTICLES # This is TAG. Do not modify this line
</MGProcCard>
<MGRunCard>
#*********************************************************************
#                       MadGraph5_aMC@NLO                            *
#                                                                    *
#                     run_card.dat MadEvent                          *
#                                                                    *
#  This file is used to set the parameters of the run.               *
#                                                                    *
#  Some notation/conventions:                                        *
#                                                                    *
#   Lines starting with a '# ' are info or comments                  *
#                                                                    *
#   mind the format:   value    = variable     ! comment             *
#*********************************************************************
#
#*******************                                                 
# Running parameters
#*******************                                                 
#                                                                    
#*********************************************************************
# Tag name for the run (one word)                                    *
#*********************************************************************
  tag_1     = run_tag ! name of the run 
#*********************************************************************
# Run to generate the grid pack                                      *
#*********************************************************************
  .false.     = gridpack  !True = setting up the grid pack
#*********************************************************************
# Number of events and rnd seed                                      *
# Warning: Do not generate more than 1M events in a single run       *
# If you want to run Pythia, avoid more than 50k events in a run.    *
#*********************************************************************
  2000 = nevents ! Number of unweighted events requested 
 552 = iseed   ! rnd seed (0=assigned automatically=default))
#*********************************************************************
# Collider type and energy                                           *
# lpp: 0=No PDF, 1=proton, -1=antiproton, 2=photon from proton,      *
#                                         3=photon from electron     *
#*********************************************************************
        1     = lpp1    ! beam 1 type 
        1     = lpp2    ! beam 2 type
     4000     = ebeam1  ! beam 1 total energy in GeV
     4000     = ebeam2  ! beam 2 total energy in GeV
#*********************************************************************
# Beam polarization from -100 (left-handed) to 100 (right-handed)    *
#*********************************************************************
        0     = polbeam1 ! beam polarization for beam 1
        0     = polbeam2 ! beam polarization for beam 2
#*********************************************************************
# PDF CHOICE: this automatically fixes also alpha_s and its evol.    *
#*********************************************************************
 'nn23lo1'    = pdlabel     ! PDF set                                     
 230000    = lhaid     ! if pdlabel=lhapdf, this is the lhapdf number
#*********************************************************************
# Renormalization and factorization scales                           *
#*********************************************************************
 F        = fixed_ren_scale  ! if .true. use fixed ren scale
 F        = fixed_fac_scale  ! if .true. use fixed fac scale
 91.1880  = scale            ! fixed ren scale
 91.1880  = dsqrt_q2fact1    ! fixed fact scale for pdf1
 91.1880  = dsqrt_q2fact2    ! fixed fact scale for pdf2
 1        = scalefact        ! scale factor for event-by-event scales
#*********************************************************************
# Matching - Warning! ickkw > 1 is still beta
#*********************************************************************
 0        = ickkw            ! 0 no matching, 1 MLM, 2 CKKW matching
 1        = highestmult      ! for ickkw=2, highest mult group
 1        = ktscheme         ! for ickkw=1, 1 Durham kT, 2 Pythia pTE
 1        = alpsfact         ! scale factor for QCD emission vx
 F        = chcluster        ! cluster only according to channel diag
 T        = pdfwgt           ! for ickkw=1, perform pdf reweighting
 5        = asrwgtflavor     ! highest quark flavor for a_s reweight
 T        = clusinfo         ! include clustering tag in output
 3.0      = lhe_version       ! Change the way clustering information pass to shower.        
#*********************************************************************
#**********************************************************
#
#**********************************************************
# Automatic ptj and mjj cuts if xqcut > 0
# (turn off for VBF and single top processes)
#**********************************************************
   T  = auto_ptj_mjj  ! Automatic setting of ptj and mjj
#**********************************************************
#                                                                    
#**********************************
# BW cutoff (M+/-bwcutoff*Gamma)
#**********************************
  15  = bwcutoff      ! (M+/-bwcutoff*Gamma)
#**********************************************************
# Apply pt/E/eta/dr/mij cuts on decay products or not
# (note that etmiss/ptll/ptheavy/ht/sorted cuts always apply)
#**********************************************************
   T  = cut_decays    ! Cut decay products 
#*************************************************************
# Number of helicities to sum per event (0 = all helicities)
# 0 gives more stable result, but longer run time (needed for
# long decay chains e.g.).
# Use >=2 if most helicities contribute, e.g. pure QCD.
#*************************************************************
   0  = nhel          ! Number of helicities used per event
#*******************                                                 
# Standard Cuts
#*******************                                                 
#                                                                    
#*********************************************************************
# Minimum and maximum pt's (for max, -1 means no cut)                *
#*********************************************************************
 20  = ptj       ! minimum pt for the jets 
  0  = ptb       ! minimum pt for the b 
 10  = pta       ! minimum pt for the photons 
 10  = ptl       ! minimum pt for the charged leptons 
  0  = misset    ! minimum missing Et (sum of neutrino's momenta)
  0  = ptheavy   ! minimum pt for one heavy final state
 1.0 = ptonium   ! minimum pt for the quarkonium states
 -1  = ptjmax    ! maximum pt for the jets
 -1  = ptbmax    ! maximum pt for the b
 -1  = ptamax    ! maximum pt for the photons
 -1  = ptlmax    ! maximum pt for the charged leptons
 -1  = missetmax ! maximum missing Et (sum of neutrino's momenta)
#*********************************************************************
# Minimum and maximum E's (in the center of mass frame)              *
#*********************************************************************
  0  = ej     ! minimum E for the jets 
  0  = eb     ! minimum E for the b 
  0  = ea     ! minimum E for the photons 
  0  = el     ! minimum E for the charged leptons 
 -1   = ejmax ! maximum E for the jets
 -1   = ebmax ! maximum E for the b
 -1   = eamax ! maximum E for the photons
 -1   = elmax ! maximum E for the charged leptons
#*********************************************************************
# Maximum and minimum absolute rapidity (for max, -1 means no cut)   *
#*********************************************************************
   5  = etaj    ! max rap for the jets 
  -1  = etab    ! max rap for the b
 2.5  = etaa    ! max rap for the photons 
 2.5  = etal    ! max rap for the charged leptons 
 0.6  = etaonium ! max rap for the quarkonium states
   0  = etajmin ! min rap for the jets
   0  = etabmin ! min rap for the b
   0  = etaamin ! min rap for the photons
   0  = etalmin ! main rap for the charged leptons
#*********************************************************************
# Minimum and maximum DeltaR distance                                *
#*********************************************************************
 0.4 = drjj    ! min distance between jets 
 0   = drbb    ! min distance between b's 
 0.4 = drll    ! min distance between leptons 
 0.4 = draa    ! min distance between gammas 
 0   = drbj    ! min distance between b and jet 
 0.4 = draj    ! min distance between gamma and jet 
 0.4 = drjl    ! min distance between jet and lepton 
 0   = drab    ! min distance between gamma and b 
 0   = drbl    ! min distance between b and lepton 
 0.4 = dral    ! min distance between gamma and lepton 
 -1  = drjjmax ! max distance between jets
 -1  = drbbmax ! max distance between b's
 -1  = drllmax ! max distance between leptons
 -1  = draamax ! max distance between gammas
 -1  = drbjmax ! max distance between b and jet
 -1  = drajmax ! max distance between gamma and jet
 -1  = drjlmax ! max distance between jet and lepton
 -1  = drabmax ! max distance between gamma and b
 -1  = drblmax ! max distance between b and lepton
 -1  = dralmax ! maxdistance between gamma and lepton
#*********************************************************************
# Minimum and maximum invariant mass for pairs                       *
# WARNING: for four lepton final state mmll cut require to have      *
#          different lepton masses for each flavor!                  *           
#*********************************************************************
 0   = mmjj    ! min invariant mass of a jet pair 
 0   = mmbb    ! min invariant mass of a b pair 
 0   = mmaa    ! min invariant mass of gamma gamma pair
 0   = mmll    ! min invariant mass of l+l- (same flavour) lepton pair
 -1  = mmjjmax ! max invariant mass of a jet pair
 -1  = mmbbmax ! max invariant mass of a b pair
 -1  = mmaamax ! max invariant mass of gamma gamma pair
 -1  = mmllmax ! max invariant mass of l+l- (same flavour) lepton pair
#*********************************************************************
# Minimum and maximum invariant mass for all letpons                 *
#*********************************************************************
 0   = mmnl    ! min invariant mass for all letpons (l+- and vl) 
 -1  = mmnlmax ! max invariant mass for all letpons (l+- and vl) 
#*********************************************************************
# Minimum and maximum pt for 4-momenta sum of leptons                *
#*********************************************************************
 0   = ptllmin  ! Minimum pt for 4-momenta sum of leptons(l and vl)
 -1  = ptllmax  ! Maximum pt for 4-momenta sum of leptons(l and vl)
#*********************************************************************
# Inclusive cuts                                                     *
#*********************************************************************
 0  = xptj ! minimum pt for at least one jet  
 0  = xptb ! minimum pt for at least one b 
 0  = xpta ! minimum pt for at least one photon 
 0  = xptl ! minimum pt for at least one charged lepton 
#*********************************************************************
# Control the pt's of the jets sorted by pt                          *
#*********************************************************************
 0   = ptj1min ! minimum pt for the leading jet in pt
 0   = ptj2min ! minimum pt for the second jet in pt
 0   = ptj3min ! minimum pt for the third jet in pt
 0   = ptj4min ! minimum pt for the fourth jet in pt
 -1  = ptj1max ! maximum pt for the leading jet in pt 
 -1  = ptj2max ! maximum pt for the second jet in pt
 -1  = ptj3max ! maximum pt for the third jet in pt
 -1  = ptj4max ! maximum pt for the fourth jet in pt
 0   = cutuse  ! reject event if fails any (0) / all (1) jet pt cuts
#*********************************************************************
# Control the pt's of leptons sorted by pt                           *
#*********************************************************************
 0   = ptl1min ! minimum pt for the leading lepton in pt
 0   = ptl2min ! minimum pt for the second lepton in pt
 0   = ptl3min ! minimum pt for the third lepton in pt
 0   = ptl4min ! minimum pt for the fourth lepton in pt
 -1  = ptl1max ! maximum pt for the leading lepton in pt 
 -1  = ptl2max ! maximum pt for the second lepton in pt
 -1  = ptl3max ! maximum pt for the third lepton in pt
 -1  = ptl4max ! maximum pt for the fourth lepton in pt
#*********************************************************************
# Control the Ht(k)=Sum of k leading jets                            *
#*********************************************************************
 0   = htjmin ! minimum jet HT=Sum(jet pt)
 -1  = htjmax ! maximum jet HT=Sum(jet pt)
 0   = ihtmin  !inclusive Ht for all partons (including b)
 -1  = ihtmax  !inclusive Ht for all partons (including b)
 0   = ht2min ! minimum Ht for the two leading jets
 0   = ht3min ! minimum Ht for the three leading jets
 0   = ht4min ! minimum Ht for the four leading jets
 -1  = ht2max ! maximum Ht for the two leading jets
 -1  = ht3max ! maximum Ht for the three leading jets
 -1  = ht4max ! maximum Ht for the four leading jets
#***********************************************************************
# Photon-isolation cuts, according to hep-ph/9801442                   *
# When ptgmin=0, all the other parameters are ignored                  *
# When ptgmin>0, pta and draj are not going to be used                 *
#***********************************************************************
   0 = ptgmin ! Min photon transverse momentum
 0.4 = R0gamma ! Radius of isolation code
 1.0 = xn ! n parameter of eq.(3.4) in hep-ph/9801442
 1.0 = epsgamma ! epsilon_gamma parameter of eq.(3.4) in hep-ph/9801442
 .true. = isoEM ! isolate photons from EM energy (photons and leptons)
#*********************************************************************
# WBF cuts                                                           *
#*********************************************************************
 0   = xetamin ! minimum rapidity for two jets in the WBF case  
 0   = deltaeta ! minimum rapidity for two jets in the WBF case 
#*********************************************************************
# KT DURHAM CUT                                                      *
#*********************************************************************
 -1    =  ktdurham        
 0.4  =  dparameter 
#*********************************************************************
# maximal pdg code for quark to be considered as a light jet         *
# (otherwise b cuts are applied)                                     *
#*********************************************************************
 4 = maxjetflavor    ! Maximum jet pdg code
#*********************************************************************
# Jet measure cuts                                                   *
#*********************************************************************
 0   = xqcut   ! minimum kt jet measure between partons
#*********************************************************************
#
#*********************************************************************
# Store info for systematics studies                                 *
# WARNING: If use_syst is T, matched Pythia output is                *
#          meaningful ONLY if plotted taking matchscale              *
#          reweighting into account!                                 *
#*********************************************************************
   F  = use_syst      ! Enable systematics studies
#
#**************************************
# Parameter of the systematics study
#  will be used by SysCalc (if installed)
#**************************************                                  
#
0.5 1 2 = sys_scalefact  # factorization/renormalization scale factor
0.5 1 2 = sys_alpsfact  # \alpha_s emission scale factors
30 50 = sys_matchscale # variation of merging scale
# PDF sets and number of members (0 or none for all members).
CT10nlo.LHgrid = sys_pdf # matching scales
# MSTW2008nlo68cl.LHgrid 1  = sys_pdf
</MGRunCard>
<slha>
######################################################################
## PARAM_CARD AUTOMATICALY GENERATED BY MG5 FOLLOWING UFO MODEL   ####
######################################################################
##                                                                  ##
##  Width set on Auto will be computed following the information    ##
##        present in the decay.py files of the model.               ##
##        See  arXiv:1402.1178 for more details.                    ##
##                                                                  ##
######################################################################

###################################
## INFORMATION FOR CKMBLOCK
###################################
Block ckmblock 
    1 2.277360e-01 # cabi 

###################################
## INFORMATION FOR FRBLOCK
###################################
Block frblock 
    1 2.000000e-01 # gz 

###################################
## INFORMATION FOR MASS
###################################
Block mass 
    1 5.040000e-03 # MD 
    2 2.550000e-03 # MU 
    3 1.010000e-01 # MS 
    4 1.270000e+00 # MC 
    5 4.700000e+00 # MB 
    6 1.720000e+02 # MT 
   11 5.110000e-04 # Me 
   13 1.056600e-01 # MM 
   15 1.777000e+00 # MTA 
   23 9.118760e+01 # MZ 
   25 1.200000e+02 # MH 
  10030 1.100000e+03 # MZph 
  10031 3.000000e+02 # MZpl 
## Dependent parameters, given by model restrictions.
## Those values should be edited following the 
## analytical expression. MG5 ignores those values 
## but they are important for interfacing the output of MG5
## to external program such as Pythia.
  12 0.000000 # ve : 0.0 
  14 0.000000 # vm : 0.0 
  16 0.000000 # vt : 0.0 
  21 0.000000 # g : 0.0 
  22 0.000000 # a : 0.0 
  24 79.824360 # w+ : cmath.sqrt(MZ__exp__2/2. + cmath.sqrt(MZ__exp__4/4. - (aEW*cmath.pi*MZ__exp__2)/(Gf*sqrt__2))) 

###################################
## INFORMATION FOR SMINPUTS
###################################
Block sminputs 
    1 1.279000e+02 # aEWM1 
    2 1.166370e-05 # Gf 
    3 1.184000e-01 # aS 

###################################
## INFORMATION FOR YUKAWA
###################################
Block yukawa 
    1 5.040000e-03 # ymdo 
    2 2.550000e-03 # ymup 
    3 1.010000e-01 # yms 
    4 1.270000e+00 # ymc 
    5 4.700000e+00 # ymb 
    6 1.720000e+02 # ymt 
   11 5.110000e-04 # yme 
   13 1.056600e-01 # ymm 
   15 1.777000e+00 # ymtau 

###################################
## INFORMATION FOR DECAY
###################################
DECAY   6 1.508336e+00 # WT 
DECAY  23 2.495200e+00 # WZ 
DECAY  24 2.085000e+00 # WW 
DECAY  25 5.753088e-03 # WH 
## Dependent parameters, given by model restrictions.
## Those values should be edited following the 
## analytical expression. MG5 ignores those values 
## but they are important for interfacing the output of MG5
## to external program such as Pythia.
DECAY  1 0.000000 # d : 0.0 
DECAY  2 0.000000 # u : 0.0 
DECAY  3 0.000000 # s : 0.0 
DECAY  4 0.000000 # c : 0.0 
DECAY  5 0.000000 # b : 0.0 
DECAY  11 0.000000 # e- : 0.0 
DECAY  12 0.000000 # ve : 0.0 
DECAY  13 0.000000 # mu- : 0.0 
DECAY  14 0.000000 # vm : 0.0 
DECAY  15 0.000000 # ta- : 0.0 
DECAY  16 0.000000 # vt : 0.0 
DECAY  21 0.000000 # g : 0.0 
DECAY  22 0.000000 # a : 0.0 
DECAY  10030 0.308725 # zph : (gz__exp__2*MZph*(5 + cmath.sqrt(1 - (4*MT__exp__2)/MZph__exp__2)))/(144.*cmath.pi) 
DECAY  10031 0.132629 # zpl : (5*gz__exp__2*MZpl)/(144.*cmath.pi) 
#===========================================================
# QUANTUM NUMBERS OF NEW STATE(S) (NON SM PDG CODE)
#===========================================================

Block QNUMBERS 10030  # zph 
        1 0  # 3 times electric charge
        2 3  # number of spin states (2S+1)
        3 1  # colour rep (1: singlet, 3: triplet, 8: octet)
        4 0  # Particle/Antiparticle distinction (0=own anti)
Block QNUMBERS 10031  # zpl 
        1 0  # 3 times electric charge
        2 3  # number of spin states (2S+1)
        3 1  # colour rep (1: singlet, 3: triplet, 8: octet)
        4 0  # Particle/Antiparticle distinction (0=own anti)
</slha>
## END BANNER##
<MGGenerationInfo>
#  Number of Events        :         4088
#  Integrated weight (pb)  :  0.48081E-01
#  Max wgt                 :  0.15741E-04
#  Average wgt             :  0.11761E-04
</MGGenerationInfo>
</header>
<init>
     2212     2212  0.40000000000E+04  0.40000000000E+04 0 0  247000  247000 2   1
  0.48086936623E-01  0.90753204032E-04  0.15741010000E-04   0
</init>
<event>
 5   0  0.1553937E-04  0.1100436E+04  0.7818609E-02  0.9204767E-01
       -2   -1    0    0    0  501  0.00000000000E+00  0.00000000000E+00  0.19880954608E+03  0.19880954610E+03  0.25500000920E-02 0.  1.
        2   -1    0    0  501    0  0.00000000000E+00  0.00000000000E+00 -0.15227636643E+04  0.15227636643E+04  0.25500000920E-02 0. -1.
    10030    2    1    2    0    0  0.00000000000E+00  0.00000000000E+00 -0.13239541183E+04  0.17215732104E+04  0.11004361915E+04 0.  0.
        1    1    3    3  502    0 -0.39220605536E+03  0.35153629091E+03 -0.41295673654E+03  0.66928067354E+03  0.50400001928E-02 0.  1.
       -1    1    3    3    0  502  0.39220605536E+03 -0.35153629091E+03 -0.91099738171E+03  0.10522925369E+04  0.50400001928E-02 0. -1.
</event>
<event>
 5   0  0.6010125E-05  0.1102830E+04  0.7818609E-02  0.9202438E-01
       -3   -1    0    0    0  501  0.00000000000E+00  0.00000000000E+00  0.89546390529E+03  0.89546391098E+03  0.10100000352E+00 0.  1.
        3   -1    0    0  501    0  0.00000000000E+00  0.00000000000E+00 -0.33955422376E+03  0.33955423878E+03  0.10100000352E+00 0. -1.
    10030    2    1    2    0    0  0.00000000000E+00  0.00000000000E+00  0.55590968152E+03  0.12350181498E+04  0.11028301121E+04 0.  0.
        5    1    3    3  502    0 -0.22862047107E+03  0.18095893108E+03  0.80204934456E+03  0.85341589840E+03  0.46999998093E+01 0.  1.
       -5    1    3    3    0  502  0.22862047107E+03 -0.18095893108E+03 -0.24613966304E+03  0.38160225137E+03  0.46999998093E+01 0. -1.
</event>
<event>
 5   0  0.1553937E-04  0.1100101E+04  0.7818609E-02  0.9205093E-01
       -2   -1    0    0    0  501  0.00000000000E+00  0.00000000000E+00  0.25557271869E+03  0.25557271870E+03  0.25500000920E-02 0.  1.
        2   -1    0    0  501    0  0.00000000000E+00  0.00000000000E+00 -0.11838340592E+04  0.11838340592E+04  0.25500000920E-02 0. -1.
    10030    2    1    2    0    0  0.00000000000E+00  0.00000000000E+00 -0.92826134051E+03  0.14394067779E+04  0.11001012481E+04 0.  0.
        1    1    3    3  502    0  0.29138284141E+03 -0.31097633216E+03 -0.90947797825E+01  0.42625456535E+03  0.50400001928E-02 0.  1.
       -1    1    3    3    0  502 -0.29138284141E+03  0.31097633216E+03 -0.91916656073E+03  0.10131522126E+04  0.50400001928E-02 0. -1.
</event>
<event>
 5   0  0.1464205E-04  0.1099987E+04  0.7818609E-02  0.9205204E-01
        2   -1    0    0  501    0  0.00000000000E+00  0.00000000000E+00  0.84401802003E+03  0.84401802003E+03  0.25500000920E-02 0.  1.
       -2   -1    0    0    0  501  0.00000000000E+00  0.00000000000E+00 -0.35839633403E+03  0.35839633404E+03  0.25500000920E-02 0. -1.
    10030    2    1    2    0    0  0.00000000000E+00  0.00000000000E+00  0.48562168600E+03  0.12024143541E+04  0.10999872076E+04 0.  0.
        3    1    3    3  502    0 -0.54277318337E+03  0.61983713455E+02  0.31236128540E+03  0.62929666465E+03  0.10100000352E+00 0. -1.
       -3    1    3    3    0  502  0.54277318337E+03 -0.61983713455E+02  0.17326040059E+03  0.57311768942E+03  0.10100000352E+00 0.  1.
</event>
<event>
 5   0  0.1553937E-04  0.1100155E+04  0.7818609E-02  0.9205041E-01
        2   -1    0    0  501    0  0.00000000000E+00  0.00000000000E+00  0.72079534209E+03  0.72079534209E+03  0.25500000920E-02 0.  1.
       -2   -1    0    0    0  501  0.00000000000E+00  0.00000000000E+00 -0.41979355227E+03  0.41979355228E+03  0.25500000920E-02 0. -1.
    10030    2    1    2    0    0  0.00000000000E+00  0.00000000000E+00  0.30100178982E+03  0.11405888944E+04  0.11001549657E+04 0.  0.
        1    1    3    3  502    0 -0.44415905874E+03 -0.13834499528E+03  0.45483447095E+03  0.65060817945E+03  0.50400001928E-02 0.  1.
       -1    1    3    3    0  502  0.44415905874E+03  0.13834499528E+03 -0.15383268113E+03  0.48998071492E+03  0.50400001928E-02 0. -1.
</event>
<event>
 5   0  0.1464205E-04  0.1099488E+04  0.7818609E-02  0.9205691E-01
       -2   -1    0    0    0  501  0.00000000000E+00  0.00000000000E+00  0.15608039109E+03  0.15608039111E+03  0.25500000920E-02 0.  1.
        2   -1    0    0  501    0  0.00000000000E+00  0.00000000000E+00 -0.19362997635E+04  0.19362997635E+04  0.25500000920E-02 0. -1.
    10030    2    1    2    0    0  0.00000000000E+00  0.00000000000E+00 -0.17802193724E+04  0.20923801546E+04  0.10994879251E+04 0.  0.
        3    1    3    3  502    0  0.88611983454E+02  0.54205071099E+03 -0.93463280443E+03  0.10840708216E+04  0.10100000352E+00 0.  1.
       -3    1    3    3    0  502 -0.88611983454E+02 -0.54205071099E+03 -0.84558656797E+03  0.10083093330E+04  0.10100000352E+00 0. -1.
</event>
<event>
 5   0  0.8657442E-05  0.1100278E+04  0.7818609E-02  0.9204921E-01
       -1   -1    0    0    0  501  0.00000000000E+00  0.00000000000E+00  0.20524275903E+03  0.20524275909E+03  0.50400001928E-02 0. -1.
        1   -1    0    0  501    0  0.00000000000E+00  0.00000000000E+00 -0.14746100355E+04  0.14746100355E+04  0.50400001928E-02 0.  1.
    10030    2    1    2    0    0  0.00000000000E+00  0.00000000000E+00 -0.12693672765E+04  0.16798527946E+04  0.11002782052E+04 0.  0.
        1    1    3    3  502    0 -0.12711810326E+03 -0.87251588942E+02 -0.14409495892E+04  0.14491747895E+04  0.50400001928E-02 0.  1.
       -1    1    3    3    0  502  0.12711810326E+03  0.87251588942E+02  0.17158231274E+03  0.23067800506E+03  0.50400001928E-02 0. -1.
</event>
<event>
 5   0  0.8921459E-05  0.1100061E+04  0.7818609E-02  0.9205133E-01
       -1   -1    0    0    0  501  0.00000000000E+00  0.00000000000E+00  0.17714818598E+03  0.17714818606E+03  0.50400001928E-02 0. -1.
        1   -1    0    0  501    0  0.00000000000E+00  0.00000000000E+00 -0.17077988646E+04  0.17077988646E+04  0.50400001928E-02 0.  1.
    10030    2    1    2    0    0  0.00000000000E+00  0.00000000000E+00 -0.15306506786E+04  0.18849470507E+04  0.11000608546E+04 0.  0.
        3    1    3    3  502    0 -0.69064397118E+02 -0.46178946992E+03 -0.26719050245E+03  0.53796856812E+03  0.10100000352E+00 0. -1.
       -3    1    3    3    0  502  0.69064397118E+02  0.46178946992E+03 -0.12634601762E+04  0.13469784826E+04  0.10100000352E+00 0.  1.
</event>
<event>
 5   0  0.1553937E-04  0.1100080E+04  0.7818609E-02  0.9205114E-01
        2   -1    0    0  501    0  0.00000000000E+00  0.00000000000E+00  0.17166983588E+04  0.17166983588E+04  0.25500000920E-02 0. -1.
       -2   -1    0    0    0  501  0.00000000000E+00  0.00000000000E+00 -0.17623586806E+03  0.17623586807E+03  0.25500000920E-02 0.  1.
    10030    2    1    2    0    0  0.00000000000E+00  0.00000000000E+00  0.15404624908E+04  0.18929342269E+04  0.11000796798E+04 0.  0.
        1    1    3    3  502    0 -0.52109717602E+03  0.16361593571E+03  0.65829967149E+03  0.85537763519E+03  0.50400001928E-02 0.  1.
       -1    1    3    3    0  502  0.52109717602E+03 -0.16361593571E+03  0.88216281930E+03  0.10375565917E+04  0.50400001928E-02 0. -1.
</event>
<event>
 5   0  0.6010125E-05  0.1098592E+04  0.7818609E-02  0.9206565E-01
        4   -1    0    0  501    0  0.00000000000E+00  0.00000000000E+00  0.39375406961E+03  0.39375611771E+03  0.12699999809E+01 0.  1.
       -4   -1    0    0    0  501  0.00000000000E+00  0.00000000000E+00 -0.76627579609E+03  0.76627684851E+03  0.12699999809E+01 0. -1.
    10030    2    1    2    0    0  0.00000000000E+00  0.00000000000E+00 -0.37252172648E+03  0.11600329662E+04  0.10985918469E+04 0.  0.
        1    1    3    3  502    0 -0.22672229579E+03  0.43482673426E+03  0.75065051812E+02  0.49609681541E+03  0.50400001928E-02 0. -1.
       -1    1    3    3    0  502  0.22672229579E+03 -0.43482673426E+03 -0.44758677829E+03  0.66393615081E+03  0.50400001928E-02 0.  1.
</event>
<event>
 5   0  0.1553937E-04  0.1099772E+04  0.7818609E-02  0.9205414E-01
        2   -1    0    0  501    0  0.00000000000E+00  0.00000000000E+00  0.86670415676E+03  0.86670415677E+03  0.25500000920E-02 0.  1.
       -2   -1    0    0    0  501  0.00000000000E+00  0.00000000000E+00 -0.34887848494E+03  0.34887848495E+03  0.25500000920E-02 0. -1.
    10030    2    1    2    0    0  0.00000000000E+00  0.00000000000E+00  0.51782567182E+03  0.12155826417E+04  0.10997716729E+04 0.  0.
        1    1    3    3  502    0  0.30424041105E+03 -0.19749399066E+03  0.71572376171E+03  0.80238806519E+03  0.50400001928E-02 0.  1.
       -1    1    3    3    0  502 -0.30424041105E+03  0.19749399066E+03 -0.19789808989E+03  0.41319457652E+03  0.50400001928E-02 0. -1.
</event>
<event>
 5   0  0.1503277E-04  0.1101169E+04  0.7818609E-02  0.9204053E-01
       -2   -1    0    0    0  501  0.00000000000E+00  0.00000000000E+00  0.80501456752E+03  0.80501456753E+03  0.25500000920E-02 0. -1.
        2   -1    0    0  501    0  0.00000000000E+00  0.00000000000E+00 -0.37656888094E+03  0.37656888095E+03  0.25500000920E-02 0.  1.
    10030    2    1    2    0    0  0.00000000000E+00  0.00000000000E+00  0.42844568658E+03  0.11815834485E+04  0.11011692601E+04 0.  0.
        5    1    3    3  502    0 -0.30286102647E+03  0.12820558957E+03  0.68800961745E+03  0.76258822326E+03  0.46999998093E+01 0. -1.
       -5    1    3    3    0  502  0.30286102647E+03 -0.12820558957E+03 -0.25956393087E+03  0.41899522522E+03  0.46999998093E+01 0.  1.
</event>
<event>
 5   0  0.1503277E-04  0.1102680E+04  0.7818609E-02  0.9202584E-01
        2   -1    0    0  501    0  0.00000000000E+00  0.00000000000E+00  0.93598310728E+03  0.93598310728E+03  0.25500000920E-02 0.  1.
       -2   -1    0    0    0  501  0.00000000000E+00  0.00000000000E+00 -0.32476627352E+03  0.32476627353E+03  0.25500000920E-02 0. -1.
    10030    2    1    2    0    0  0.00000000000E+00  0.00000000000E+00  0.61121683375E+03  0.12607493808E+04  0.11026799098E+04 0.  0.
        5    1    3    3  502    0  0.40207970084E+03  0.33069888469E+02  0.73522820194E+03  0.83865624798E+03  0.46999998093E+01 0.  1.
       -5    1    3    3    0  502 -0.40207970084E+03 -0.33069888469E+02 -0.12401136818E+03  0.42209313284E+03  0.46999998093E+01 0. -1.
</event>
<event>
 5   0  0.9346836E-05  0.1099985E+04  0.7818609E-02  0.9205207E-01
       -1   -1    0    0    0  501  0.00000000000E+00  0.00000000000E+00  0.10189894445E+04  0.10189894445E+04  0.50400001928E-02 0.  1.
        1   -1    0    0  501    0  0.00000000000E+00  0.00000000000E+00 -0.29685463474E+03  0.29685463478E+03  0.50400001928E-02 0. -1.
    10030    2    1    2    0    0  0.00000000000E+00  0.00000000000E+00  0.72213480978E+03  0.13158440793E+04  0.10999849806E+04 0.  0.
        5    1    3    3  502    0 -0.32892937176E+03 -0.12050101461E+03  0.86824225558E+03  0.93625943547E+03  0.46999998093E+01 0.  1.
       -5    1    3    3    0  502  0.32892937176E+03  0.12050101461E+03 -0.14610744580E+03  0.37958464385E+03  0.46999998093E+01 0. -1.
</event>
<event>
 5   0  0.6010125E-05  0.1100232E+04  0.7818609E-02  0.9204966E-01
       -3   -1    0    0    0  501  0.00000000000E+00  0.00000000000E+00  0.10613754084E+04  0.10613754132E+04  0.10100000352E+00 0.  1.
        3   -1    0    0  501    0  0.00000000000E+00  0.00000000000E+00 -0.28512782863E+03  0.28512784652E+03  0.10100000352E+00 0. -1.
    10030    2    1    2    0    0  0.00000000000E+00  0.00000000000E+00  0.77624757972E+03  0.13465032597E+04  0.11002321225E+04 0.  0.
        2    1    3    3  502    0 -0.31741595270E+03  0.44805437835E+03  0.34712862442E+03  0.64961826859E+03  0.25500000920E-02 0. -1.
       -2    1    3    3    0  502  0.31741595270E+03 -0.44805437835E+03  0.42911895531E+03  0.69688499108E+03  0.25500000920E-02 0.  1.
</event>
<event>
 5   0  0.8657442E-05  0.1100059E+04  0.7818609E-02  0.9205135E-01
        1   -1    0    0  501    0  0.00000000000E+00  0.00000000000E+00  0.55748047991E+03  0.55748047993E+03  0.50400001928E-02 0.  1.
       -1   -1    0    0    0  501  0.00000000000E+00  0.00000000000E+00 -0.54267779336E+03  0.54267779339E+03  0.50400001928E-02 0. -1.
    10030    2    1    2    0    0  0.00000000000E+00  0.00000000000E+00  0.14802686550E+02  0.11001582733E+04  0.11000586834E+04 0.  0.
        1    1    3    3  502    0  0.19921158915E+03 -0.41416709173E+03 -0.29480582680E+03  0.54601292353E+03  0.50400001928E-02 0. -1.
       -1    1    3    3    0  502 -0.19921158915E+03  0.41416709173E+03  0.30960851335E+03  0.55414534979E+03  0.50400001928E-02 0.  1.
</event>
<event>
 5   0  0.8921459E-05  0.1097643E+04  0.7818609E-02  0.9207492E-01
        1   -1    0    0  501    0  0.00000000000E+00  0.00000000000E+00  0.64863991571E+03  0.64863991573E+03  0.50400001928E-02 0. -1.
       -1   -1    0    0    0  501  0.00000000000E+00  0.00000000000E+00 -0.46436405395E+03  0.46436405398E+03  0.50400001928E-02 0.  1.
    10030    2    1    2    0    0  0.00000000000E+00  0.00000000000E+00  0.18427586175E+03  0.11130039697E+04  0.10976430400E+04 0.  0.
        3    1    3    3  502    0 -0.38878874438E+03 -0.72195271455E+02  0.47803737662E+03  0.62039389795E+03  0.10100000352E+00 0. -1.
       -3    1    3    3    0  502  0.38878874438E+03  0.72195271455E+02 -0.29376151486E+03  0.49261007175E+03  0.10100000352E+00 0.  1.
</event>
<event>
 5   0  0.8921459E-05  0.1099992E+04  0.7818609E-02  0.9205200E-01
       -1   -1    0    0    0  501  0.00000000000E+00  0.00000000000E+00  0.39401220177E+03  0.39401220181E+03  0.50400001928E-02 0. -1.
        1   -1    0    0  501    0  0.00000000000E+00  0.00000000000E+00 -0.76773128808E+03  0.76773128810E+03  0.50400001928E-02 0.  1.
    10030    2    1    2    0    0  0.00000000000E+00  0.00000000000E+00 -0.37371908631E+03  0.11617434899E+04  0.10999918095E+04 0.  0.
        3    1    3    3  502    0 -0.26904707602E+03 -0.35162814538E+02 -0.69212292349E+03  0.74340897497E+03  0.10100000352E+00 0.  1.
       -3    1    3    3    0  502  0.26904707602E+03  0.35162814538E+02  0.31840383719E+03  0.41833451493E+03  0.10100000352E+00 0. -1.
</event>
<event>
 5   0  0.1553937E-04  0.1099369E+04  0.7818609E-02  0.9205808E-01
       -2   -1    0    0    0  501  0.00000000000E+00  0.00000000000E+00  0.32836523119E+03  0.32836523120E+03  0.25500000920E-02 0. -1.
        2   -1    0    0  501    0  0.00000000000E+00  0.00000000000E+00 -0.92017298580E+03  0.92017298580E+03  0.25500000920E-02 0.  1.
    10030    2    1    2    0    0  0.00000000000E+00  0.00000000000E+00 -0.59180775461E+03  0.12485382170E+04  0.10993685737E+04 0.  0.
        1    1    3    3  502    0  0.54129077665E+03  0.84326904794E+02 -0.34727513428E+03  0.64861911063E+03  0.50400001928E-02 0. -1.
       -1    1    3    3    0  502 -0.54129077665E+03 -0.84326904794E+02 -0.24453262033E+03  0.59991910637E+03  0.50400001928E-02 0.  1.
</event>
<event>
 5   0  0.9016738E-05  0.1099884E+04  0.7818609E-02  0.9205304E-01
       -1   -1    0    0    0  501  0.00000000000E+00  0.00000000000E+00  0.36214791347E+03  0.36214791351E+03  0.50400001928E-02 0.  1.
        1   -1    0    0  501    0  0.00000000000E+00  0.00000000000E+00 -0.83511863061E+03  0.83511863062E+03  0.50400001928E-02 0. -1.
    10030    2    1    2    0    0  0.00000000000E+00  0.00000000000E+00 -0.47297071714E+03  0.11972665441E+04  0.10998844841E+04 0.  0.
        4    1    3    3  502    0  0.17289234573E+03 -0.25548745721E+03  0.25909172112E+03  0.40285945050E+03  0.12699999809E+01 0.  1.
       -4    1    3    3    0  502 -0.17289234573E+03  0.25548745721E+03 -0.73206243826E+03  0.79440709363E+03  0.12699999809E+01 0. -1.
</event>
<event>
 5   0  0.8657442E-05  0.1100106E+04  0.7818609E-02  0.9205089E-01
        1   -1    0    0  501    0  0.00000000000E+00  0.00000000000E+00  0.10753110390E+04  0.10753110390E+04  0.50400001928E-02 0.  1.
       -1   -1    0    0    0  501  0.00000000000E+00  0.00000000000E+00 -0.28136791800E+03  0.28136791805E+03  0.50400001928E-02 0. -1.
    10030    2    1    2    0    0  0.00000000000E+00  0.00000000000E+00  0.79394312095E+03  0.13566789570E+04  0.11001055009E+04 0.  0.
        1    1    3    3  502    0 -0.20088013548E+03 -0.11488732531E+03  0.10123577525E+04  0.10384700985E+04  0.50400001928E-02 0.  1.
       -1    1    3    3    0  502  0.20088013548E+03  0.11488732531E+03 -0.21841463156E+03  0.31820885853E+03  0.50400001928E-02 0. -1.
</event>
<event>
 5   0  0.1540772E-04  0.1100264E+04  0.7818609E-02  0.9204935E-01
        2   -1    0    0  501    0  0.00000000000E+00  0.00000000000E+00  0.12026459851E+04  0.12026459851E+04  0.25500000920E-02 0.  1.
       -2   -1    0    0    0  501  0.00000000000E+00  0.00000000000E+00 -0.25164933376E+03  0.25164933377E+03  0.25500000920E-02 0. -1.
    10030    2    1    2    0    0  0.00000000000E+00  0.00000000000E+00  0.95099665133E+03  0.14542953189E+04  0.11002637155E+04 0.  0.
        2    1    3    3  502    0  0.10884489606E+03 -0.17374811237E+03 -0.19926409745E+03  0.28590522641E+03  0.25500000920E-02 0. -1.
       -2    1    3    3    0  502 -0.10884489606E+03  0.17374811237E+03  0.11502607488E+04  0.11683900925E+04  0.25500000920E-02 0.  1.
</event>
<event>
 5   0  0.8921459E-05  0.1097242E+04  0.7818609E-02  0.9207884E-01
        1   -1    0    0  501    0  0.00000000000E+00  0.00000000000E+00  0.64973425632E+03  0.64973425634E+03  0.50400001928E-02 0. -1.
       -1   -1    0    0    0  501  0.00000000000E+00  0.00000000000E+00 -0.46324312500E+03  0.46324312503E+03  0.50400001928E-02 0.  1.
    10030    2    1    2    0    0  0.00000000000E+00  0.00000000000E+00  0.18649113132E+03  0.11129773814E+04  0.10972418646E+04 0.  0.
        3    1    3    3  502    0  0.68708419659E+02  0.18374484242E+02 -0.45854701918E+03  0.46403000723E+03  0.10100000352E+00 0.  1.
       -3    1    3    3    0  502 -0.68708419659E+02 -0.18374484242E+02  0.64503815050E+03  0.64894737414E+03  0.10100000352E+00 0. -1.
</event>
<event>
 5   0  0.6010125E-05  0.1100042E+04  0.7818609E-02  0.9205151E-01
        3   -1    0    0  501    0  0.00000000000E+00  0.00000000000E+00  0.13915252959E+04  0.13915252996E+04  0.10100000352E+00 0.  1.
       -3   -1    0    0    0  501  0.00000000000E+00  0.00000000000E+00 -0.21740408440E+03  0.21740410786E+03  0.10100000352E+00 0. -1.
    10030    2    1    2    0    0  0.00000000000E+00  0.00000000000E+00  0.11741212115E+04  0.16089294074E+04  0.11000423714E+04 0.  0.
        4    1    3    3  502    0 -0.22563948392E+03 -0.49766083555E+03  0.49522790958E+03  0.73744950964E+03  0.12699999809E+01 0. -1.
       -4    1    3    3    0  502  0.22563948392E+03  0.49766083555E+03  0.67889330192E+03  0.87147989778E+03  0.12699999809E+01 0.  1.
</event>
<event>
 5   0  0.1464205E-04  0.1099778E+04  0.7818609E-02  0.9205408E-01
        2   -1    0    0  501    0  0.00000000000E+00  0.00000000000E+00  0.64854443543E+03  0.64854443543E+03  0.25500000920E-02 0.  1.
       -2   -1    0    0    0  501  0.00000000000E+00  0.00000000000E+00 -0.46624089758E+03  0.46624089758E+03  0.25500000920E-02 0. -1.
    10030    2    1    2    0    0  0.00000000000E+00  0.00000000000E+00  0.18230353785E+03  0.11147853330E+04  0.10997780498E+04 0.  0.
        3    1    3    3  502    0  0.11319804449E+03  0.52497196404E+03 -0.28649704772E+02  0.53780124218E+03  0.10100000352E+00 0. -1.
       -3    1    3    3    0  502 -0.11319804449E+03 -0.52497196404E+03  0.21095324262E+03  0.57698409084E+03  0.10100000352E+00 0.  1.
</event>
<event>
 5   0  0.9016738E-05  0.1099687E+04  0.7818609E-02  0.9205497E-01
        1   -1    0    0  501    0  0.00000000000E+00  0.00000000000E+00  0.36935511785E+03  0.36935511788E+03  0.50400001928E-02 0. -1.
       -1   -1    0    0    0  501  0.00000000000E+00  0.00000000000E+00 -0.81852880919E+03  0.81852880921E+03  0.50400001928E-02 0.  1.
    10030    2    1    2    0    0  0.00000000000E+00  0.00000000000E+00 -0.44917369134E+03  0.11878839271E+04  0.10996868733E+04 0.  0.
        4    1    3    3  502    0 -0.49865273598E+03  0.19115085604E+03 -0.83195913073E+02  0.54047791233E+03  0.12699999809E+01 0. -1.
       -4    1    3    3    0  502  0.49865273598E+03 -0.19115085604E+03 -0.36597777827E+03  0.64740601476E+03  0.12699999809E+01 0.  1.
</event>
<event>
 5   0  0.1540772E-04  0.1102664E+04  0.7818609E-02  0.9202599E-01
       -2   -1    0    0    0  501  0.00000000000E+00  0.00000000000E+00  0.48449699154E+03  0.48449699155E+03  0.25500000920E-02 0. -1.
        2   -1    0    0  501    0  0.00000000000E+00  0.00000000000E+00 -0.62738667324E+03  0.62738667325E+03  0.25500000920E-02 0.  1.
    10030    2    1    2    0    0  0.00000000000E+00  0.00000000000E+00 -0.14288968170E+03  0.11118836648E+04  0.11026639664E+04 0.  0.
        2    1    3    3  502    0 -0.60528446449E+02 -0.54769016344E+03 -0.52885848943E+02  0.55355679111E+03  0.25500000920E-02 0. -1.
       -2    1    3    3    0  502  0.60528446449E+02  0.54769016344E+03 -0.90003832761E+02  0.55832687368E+03  0.25500000920E-02 0.  1.
</event>
<event>
 5   0  0.8621738E-05  0.1100073E+04  0.7818609E-02  0.9205120E-01
        1   -1    0    0  501    0  0.00000000000E+00  0.00000000000E+00  0.98414281540E+03  0.98414281541E+03  0.50400001928E-02 0.  1.
       -1   -1    0    0    0  501  0.00000000000E+00  0.00000000000E+00 -0.30741513148E+03  0.30741513152E+03  0.50400001928E-02 0. -1.
    10030    2    1    2    0    0  0.00000000000E+00  0.00000000000E+00  0.67672768392E+03  0.12915579469E+04  0.11000734394E+04 0.  0.
        2    1    3    3  502    0  0.84144398732E+02  0.48953274379E+03  0.60981636028E+02  0.50044115241E+03  0.25500000920E-02 0. -1.
       -2    1    3    3    0  502 -0.84144398732E+02 -0.48953274379E+03  0.61574604789E+03  0.79111679453E+03  0.25500000920E-02 0.  1.
</event>
<event>
 5   0  0.1464205E-04  0.1099470E+04  0.7818609E-02  0.9205709E-01
       -2   -1    0    0    0  501  0.00000000000E+00  0.00000000000E+00  0.47312864111E+03  0.47312864112E+03  0.25500000920E-02 0. -1.
        2   -1    0    0  501    0  0.00000000000E+00  0.00000000000E+00 -0.63874484708E+03  0.63874484708E+03  0.25500000920E-02 0.  1.
    10030    2    1    2    0    0  0.00000000000E+00  0.00000000000E+00 -0.16561620597E+03  0.11118734882E+04  0.10994698386E+04 0.  0.
        3    1    3    3  502    0  0.78150627507E+02 -0.21549483151E+03 -0.58810785484E+03  0.63120234641E+03  0.10100000352E+00 0.  1.
       -3    1    3    3    0  502 -0.78150627507E+02  0.21549483151E+03  0.42249164887E+03  0.48067114179E+03  0.10100000352E+00 0. -1.
</event>
<event>
 5   0  0.1503277E-04  0.1100665E+04  0.7818609E-02  0.9204544E-01
        2   -1    0    0  501    0  0.00000000000E+00  0.00000000000E+00  0.12729385568E+04  0.12729385568E+04  0.25500000920E-02 0.  1.
       -2   -1    0    0    0  501  0.00000000000E+00  0.00000000000E+00 -0.23792668555E+03  0.23792668556E+03  0.25500000920E-02 0. -1.
    10030    2    1    2    0    0  0.00000000000E+00  0.00000000000E+00  0.10350118713E+04  0.15108652424E+04  0.11006653474E+04 0.  0.
        5    1    3    3  502    0  0.98976922641E+02  0.37824312366E+03 -0.14096097687E+02  0.39126088711E+03  0.46999998093E+01 0. -1.
       -5    1    3    3    0  502 -0.98976922641E+02 -0.37824312366E+03  0.10491079690E+04  0.11196043553E+04  0.46999998093E+01 0.  1.
</event>
<event>
 5   0  0.8621738E-05  0.1099883E+04  0.7818609E-02  0.9205306E-01
       -1   -1    0    0    0  501  0.00000000000E+00  0.00000000000E+00  0.41872727576E+03  0.41872727579E+03  0.50400001928E-02 0. -1.
        1   -1    0    0  501    0  0.00000000000E+00  0.00000000000E+00 -0.72227348873E+03  0.72227348875E+03  0.50400001928E-02 0.  1.
    10030    2    1    2    0    0  0.00000000000E+00  0.00000000000E+00 -0.30354621297E+03  0.11410007645E+04  0.10998829216E+04 0.  0.
        2    1    3    3  502    0  0.24388208184E+03  0.22488978571E+03  0.30323735693E+03  0.44945164390E+03  0.25500000920E-02 0. -1.
       -2    1    3    3    0  502 -0.24388208184E+03 -0.22488978571E+03 -0.60678356990E+03  0.69154912065E+03  0.25500000920E-02 0.  1.
</event>
<event>
 5   0  0.1464205E-04  0.1098757E+04  0.7818609E-02  0.9206404E-01
       -2   -1    0    0    0  501  0.00000000000E+00  0.00000000000E+00  0.48972374201E+03  0.48972374201E+03  0.25500000920E-02 0.  1.
        2   -1    0    0  501    0  0.00000000000E+00  0.00000000000E+00 -0.61630035930E+03  0.61630035931E+03  0.25500000920E-02 0. -1.
    10030    2    1    2    0    0  0.00000000000E+00  0.00000000000E+00 -0.12657661730E+03  0.11060241013E+04  0.10987573311E+04 0.  0.
        3    1    3    3  502    0 -0.11938782624E+03 -0.53169502547E+03  0.69142766291E+01  0.54497786247E+03  0.10100000352E+00 0.  1.
       -3    1    3    3    0  502  0.11938782624E+03  0.53169502547E+03 -0.13349089393E+03  0.56104623885E+03  0.10100000352E+00 0. -1.
</event>
<event>
 5   0  0.1553937E-04  0.1099662E+04  0.7818609E-02  0.9205521E-01
        2   -1    0    0  501    0  0.00000000000E+00  0.00000000000E+00  0.86184448986E+03  0.86184448987E+03  0.25500000920E-02 0. -1.
       -2   -1    0    0    0  501  0.00000000000E+00  0.00000000000E+00 -0.35077601323E+03  0.35077601324E+03  0.25500000920E-02 0.  1.
    10030    2    1    2    0    0  0.00000000000E+00  0.00000000000E+00  0.51106847663E+03  0.12126205031E+04  0.10996624467E+04 0.  0.
        1    1    3    3  502    0  0.69679338028E+02  0.31092886466E+03 -0.23858110397E+03  0.39806144278E+03  0.50400001928E-02 0.  1.
       -1    1    3    3    0  502 -0.69679338028E+02 -0.31092886466E+03  0.74964958061E+03  0.81455906033E+03  0.50400001928E-02 0. -1.
</event>
<event>
 5   0  0.8921459E-05  0.1100118E+04  0.7818609E-02  0.9205077E-01
       -1   -1    0    0    0  501  0.00000000000E+00  0.00000000000E+00  0.54648698789E+03  0.54648698791E+03  0.50400001928E-02 0.  1.
        1   -1    0    0  501    0  0.00000000000E+00  0.00000000000E+00 -0.55365419601E+03  0.55365419603E+03  0.50400001928E-02 0. -1.
    10030    2    1    2    0    0  0.00000000000E+00  0.00000000000E+00 -0.71672081168E+01  0.11001411839E+04  0.11001178372E+04 0.  0.
        3    1    3    3  502    0 -0.46746712449E+03  0.28609489583E+03 -0.50371366841E+02  0.55037540524E+03  0.10100000352E+00 0.  1.
       -3    1    3    3    0  502  0.46746712449E+03 -0.28609489583E+03  0.43204158724E+02  0.54976577870E+03  0.10100000352E+00 0. -1.
</event>
<event>
 5   0  0.1464205E-04  0.1099903E+04  0.7818609E-02  0.9205286E-01
        2   -1    0    0  501    0  0.00000000000E+00  0.00000000000E+00  0.13493402334E+04  0.13493402334E+04  0.25500000920E-02 0. -1.
       -2   -1    0    0    0  501  0.00000000000E+00  0.00000000000E+00 -0.22414422500E+03  0.22414422502E+03  0.25500000920E-02 0.  1.
    10030    2    1    2    0    0  0.00000000000E+00  0.00000000000E+00  0.11251960084E+04  0.15734844584E+04  0.10999033065E+04 0.  0.
        3    1    3    3  502    0 -0.14462547932E+03  0.19732447658E+03 -0.14200968817E+03  0.28287848992E+03  0.10100000352E+00 0.  1.
       -3    1    3    3    0  502  0.14462547932E+03 -0.19732447658E+03  0.12672056966E+04  0.12906059685E+04  0.10100000352E+00 0. -1.
</event>
<event>
 5   0  0.9016738E-05  0.1100193E+04  0.7818609E-02  0.9205004E-01
        1   -1    0    0  501    0  0.00000000000E+00  0.00000000000E+00  0.37179027954E+03  0.37179027958E+03  0.50400001928E-02 0.  1.
       -1   -1    0    0    0  501  0.00000000000E+00  0.00000000000E+00 -0.81391616726E+03  0.81391616728E+03  0.50400001928E-02 0. -1.
    10030    2    1    2    0    0  0.00000000000E+00  0.00000000000E+00 -0.44212588772E+03  0.11857064469E+04  0.11001929274E+04 0.  0.
        4    1    3    3  502    0 -0.57319510448E+02  0.34871812324E+03 -0.67539141003E+03  0.76226309461E+03  0.12699999809E+01 0. -1.
       -4    1    3    3    0  502  0.57319510448E+02 -0.34871812324E+03  0.23326552232E+03  0.42344335224E+03  0.12699999809E+01 0.  1.
</event>
<event>
 5   0  0.9016738E-05  0.1100103E+04  0.7818609E-02  0.9205091E-01
       -1   -1    0    0    0  501  0.00000000000E+00  0.00000000000E+00  0.24160141770E+03  0.24160141775E+03  0.50400001928E-02 0. -1.
        1   -1    0    0  501    0  0.00000000000E+00  0.00000000000E+00 -0.12522972447E+04  0.12522972447E+04  0.50400001928E-02 0.  1.
    10030    2    1    2    0    0  0.00000000000E+00  0.00000000000E+00 -0.10106958270E+04  0.14938986625E+04  0.11001032492E+04 0.  0.
        4    1    3    3  502    0  0.24871899202E+03 -0.48983648615E+03 -0.54264262723E+03  0.77218103703E+03  0.12699999809E+01 0.  1.
       -4    1    3    3    0  502 -0.24871899202E+03  0.48983648615E+03 -0.46805319980E+03  0.72171762546E+03  0.12699999809E+01 0. -1.
</event>
<event>
 5   0  0.8921459E-05  0.1100108E+04  0.7818609E-02  0.9205087E-01
        1   -1    0    0  501    0  0.00000000000E+00  0.00000000000E+00  0.51809069854E+03  0.51809069857E+03  0.50400001928E-02 0.  1.
       -1   -1    0    0    0  501  0.00000000000E+00  0.00000000000E+00 -0.58398934825E+03  0.58398934827E+03  0.50400001928E-02 0. -1.
    10030    2    1    2    0    0  0.00000000000E+00  0.00000000000E+00 -0.65898649705E+02  0.11020800468E+04  0.11001080845E+04 0.  0.
        3    1    3    3  502    0 -0.51633591868E+03 -0.17320836559E+03 -0.11025967502E+03  0.55566277990E+03  0.10100000352E+00 0.  1.
       -3    1    3    3    0  502  0.51633591868E+03  0.17320836559E+03  0.44361025312E+02  0.54641726693E+03  0.10100000352E+00 0. -1.
</event>
<event>
 5   0  0.1574101E-04  0.1100061E+04  0.7818609E-02  0.9205132E-01
        2   -1    0    0  501    0  0.00000000000E+00  0.00000000000E+00  0.76908323735E+03  0.76908323735E+03  0.25500000920E-02 0. -1.
       -2   -1    0    0    0  501  0.00000000000E+00  0.00000000000E+00 -0.39336899670E+03  0.39336899671E+03  0.25500000920E-02 0.  1.
    10030    2    1    2    0    0  0.00000000000E+00  0.00000000000E+00  0.37571424064E+03  0.11624522341E+04  0.11000609101E+04 0.  0.
        4    1    3    3  502    0 -0.29726708866E+03 -0.19536039164E+03  0.63117255003E+03  0.72450935497E+03  0.12699999809E+01 0. -1.
       -4    1    3    3    0  502  0.29726708866E+03  0.19536039164E+03 -0.25545830938E+03  0.43794287910E+03  0.12699999809E+01 0.  1.
</event>
<event>
 5   0  0.1574101E-04  0.1100067E+04  0.7818609E-02  0.9205127E-01
        2   -1    0    0  501    0  0.00000000000E+00  0.00000000000E+00  0.95110124582E+03  0.95110124582E+03  0.25500000920E-02 0.  1.
       -2   -1    0    0    0  501  0.00000000000E+00  0.00000000000E+00 -0.31809107653E+03  0.31809107654E+03  0.25500000920E-02 0. -1.
    10030    2    1    2    0    0  0.00000000000E+00  0.00000000000E+00  0.63301016928E+03  0.12691923224E+04  0.11000669419E+04 0.  0.
        4    1    3    3  502    0  0.40912402505E+01  0.99933080357E+02 -0.30750972861E+03  0.32336852798E+03  0.12699999809E+01 0. -1.
       -4    1    3    3    0  502 -0.40912402505E+01 -0.99933080357E+02  0.94051989789E+03  0.94582379439E+03  0.12699999809E+01 0.  1.
</event>
<event>
 5   0  0.6010125E-05  0.1100629E+04  0.7818609E-02  0.9204579E-01
        4   -1    0    0  501    0  0.00000000000E+00  0.00000000000E+00  0.51043597678E+03  0.51043755670E+03  0.12699999809E+01 0.  1.
       -4   -1    0    0    0  501  0.00000000000E+00  0.00000000000E+00 -0.59330551502E+03  0.59330687426E+03  0.12699999809E+01 0. -1.
    10030    2    1    2    0    0  0.00000000000E+00  0.00000000000E+00 -0.82869538233E+02  0.11037444310E+04  0.11006290967E+04 0.  0.
        2    1    3    3  502    0 -0.54925243615E+02  0.38918999253E+03 -0.42770090492E+03  0.58087321917E+03  0.25500000920E-02 0. -1.
       -2    1    3    3    0  502  0.54925243615E+02 -0.38918999253E+03  0.34483136669E+03  0.52287121180E+03  0.25500000920E-02 0.  1.
</event>
<event>
 5   0  0.8921459E-05  0.1099951E+04  0.7818609E-02  0.9205239E-01
        1   -1    0    0  501    0  0.00000000000E+00  0.00000000000E+00  0.77774473212E+03  0.77774473214E+03  0.50400001928E-02 0.  1.
       -1   -1    0    0    0  501  0.00000000000E+00  0.00000000000E+00 -0.38891056515E+03  0.38891056518E+03  0.50400001928E-02 0. -1.
    10030    2    1    2    0    0  0.00000000000E+00  0.00000000000E+00  0.38883416697E+03  0.11666552973E+04  0.10999511686E+04 0.  0.
        3    1    3    3  502    0  0.11391775075E+03  0.16617227168E+03  0.73719543759E+03  0.76423007087E+03  0.10100000352E+00 0.  1.
       -3    1    3    3    0  502 -0.11391775075E+03 -0.16617227168E+03 -0.34836127062E+03  0.40242522645E+03  0.10100000352E+00 0. -1.
</event>
<event>
 5   0  0.9346836E-05  0.1100341E+04  0.7818609E-02  0.9204860E-01
       -1   -1    0    0    0  501  0.00000000000E+00  0.00000000000E+00  0.34349194155E+03  0.34349194159E+03  0.50400001928E-02 0. -1.
        1   -1    0    0  501    0  0.00000000000E+00  0.00000000000E+00 -0.88120648284E+03  0.88120648285E+03  0.50400001928E-02 0.  1.
    10030    2    1    2    0    0  0.00000000000E+00  0.00000000000E+00 -0.53771454128E+03  0.12246984244E+04  0.11003405395E+04 0.  0.
        5    1    3    3  502    0 -0.42272949723E+03  0.32851644531E+03 -0.12788598321E+03  0.55045453705E+03  0.46999998093E+01 0. -1.
       -5    1    3    3    0  502  0.42272949723E+03 -0.32851644531E+03 -0.40982855808E+03  0.67424388739E+03  0.46999998093E+01 0.  1.
</event>
<event>
 5   0  0.1540772E-04  0.1099460E+04  0.7818609E-02  0.9205718E-01
       -2   -1    0    0    0  501  0.00000000000E+00  0.00000000000E+00  0.17861266914E+03  0.17861266916E+03  0.25500000920E-02 0.  1.
        2   -1    0    0  501    0  0.00000000000E+00  0.00000000000E+00 -0.16919460881E+04  0.16919460881E+04  0.25500000920E-02 0. -1.
    10030    2    1    2    0    0  0.00000000000E+00  0.00000000000E+00 -0.15133334190E+04  0.18705587572E+04  0.10994598799E+04 0.  0.
        2    1    3    3  502    0  0.30979288021E+02  0.32041902873E+03 -0.15148150429E+04  0.15486422068E+04  0.25500000920E-02 0. -1.
       -2    1    3    3    0  502 -0.30979288021E+02 -0.32041902873E+03  0.14816239911E+01  0.32191655048E+03  0.25500000920E-02 0.  1.
</event>
<event>
 5   0  0.1464205E-04  0.1108546E+04  0.7818609E-02  0.9196903E-01
        2   -1    0    0  501    0  0.00000000000E+00  0.00000000000E+00  0.33962938249E+03  0.33962938250E+03  0.25500000920E-02 0.  1.
       -2   -1    0    0    0  501  0.00000000000E+00  0.00000000000E+00 -0.90456939180E+03  0.90456939180E+03  0.25500000920E-02 0. -1.
    10030    2    1    2    0    0  0.00000000000E+00  0.00000000000E+00 -0.56494000931E+03  0.12441987743E+04  0.11085456129E+04 0.  0.
        3    1    3    3  502    0 -0.43710447831E+03 -0.18390589610E+03 -0.60452700670E+03  0.76833236012E+03  0.10100000352E+00 0. -1.
       -3    1    3    3    0  502  0.43710447831E+03  0.18390589610E+03  0.39586997387E+02  0.47586641418E+03  0.10100000352E+00 0.  1.
</event>
<event>
 5   0  0.1553937E-04  0.1098383E+04  0.7818609E-02  0.9206770E-01
       -2   -1    0    0    0  501  0.00000000000E+00  0.00000000000E+00  0.22598453907E+03  0.22598453909E+03  0.25500000920E-02 0.  1.
        2   -1    0    0  501    0  0.00000000000E+00  0.00000000000E+00 -0.13346539731E+04  0.13346539731E+04  0.25500000920E-02 0. -1.
    10030    2    1    2    0    0  0.00000000000E+00  0.00000000000E+00 -0.11086694340E+04  0.15606385122E+04  0.10983827438E+04 0.  0.
        1    1    3    3  502    0 -0.26150926890E+03 -0.48194561200E+03 -0.51048373247E+03  0.74916774610E+03  0.50400001928E-02 0. -1.
       -1    1    3    3    0  502  0.26150926890E+03  0.48194561200E+03 -0.59818570155E+03  0.81147076609E+03  0.50400001928E-02 0.  1.
</event>
<event>
 5   0  0.1540772E-04  0.1099605E+04  0.7818609E-02  0.9205577E-01
        2   -1    0    0  501    0  0.00000000000E+00  0.00000000000E+00  0.68014772773E+03  0.68014772774E+03  0.25500000920E-02 0.  1.
       -2   -1    0    0    0  501  0.00000000000E+00  0.00000000000E+00 -0.44443665058E+03  0.44443665059E+03  0.25500000920E-02 0. -1.
    10030    2    1    2    0    0  0.00000000000E+00  0.00000000000E+00  0.23571107715E+03  0.11245843783E+04  0.10996046163E+04 0.  0.
        2    1    3    3  502    0  0.12034105581E+03 -0.18353680656E+03 -0.39769413200E+03  0.45423380732E+03  0.25500000920E-02 0. -1.
       -2    1    3    3    0  502 -0.12034105581E+03  0.18353680656E+03  0.63340520915E+03  0.67035057101E+03  0.25500000920E-02 0.  1.
</event>
<event>
 5   0  0.1464205E-04  0.1099263E+04  0.7818609E-02  0.9205911E-01
        2   -1    0    0  501    0  0.00000000000E+00  0.00000000000E+00  0.23119384326E+04  0.23119384326E+04  0.25500000920E-02 0. -1.
       -2   -1    0    0    0  501  0.00000000000E+00  0.00000000000E+00 -0.13066722530E+03  0.13066722533E+03  0.25500000920E-02 0.  1.
    10030    2    1    2    0    0  0.00000000000E+00  0.00000000000E+00  0.21812712073E+04  0.24426056579E+04  0.10992626257E+04 0.  0.
        3    1    3    3  502    0  0.18075435399E+03  0.20618057008E+03  0.32160533307E+02  0.27607403729E+03  0.10100000352E+00 0.  1.
       -3    1    3    3    0  502 -0.18075435399E+03 -0.20618057008E+03  0.21491106740E+04  0.21665316206E+04  0.10100000352E+00 0. -1.
</event>
<event>
 5   0  0.8921459E-05  0.1099851E+04  0.7818609E-02  0.9205337E-01
        1   -1    0    0  501    0  0.00000000000E+00  0.00000000000E+00  0.11319169410E+04  0.11319169410E+04  0.50400001928E-02 0. -1.
       -1   -1    0    0    0  501  0.00000000000E+00  0.00000000000E+00 -0.26717359448E+03  0.26717359453E+03  0.50400001928E-02 0.  1.
    10030    2    1    2    0    0  0.00000000000E+00  0.00000000000E+00  0.86474334650E+03  0.13990905355E+04  0.10998514769E+04 0.  0.
        3    1    3    3  502    0 -0.33545099381E+02 -0.79033087527E+01  0.11305418595E+04  0.11310670371E+04  0.10100000352E+00 0. -1.
       -3    1    3    3    0  502  0.33545099381E+02  0.79033087527E+01 -0.26579851304E+03  0.26802349844E+03  0.10100000352E+00 0.  1.
</event>
<event>
 5   0  0.1503277E-04  0.1101105E+04  0.7818609E-02  0.9204115E-01
        2   -1    0    0  501    0  0.00000000000E+00  0.00000000000E+00  0.21087572226E+04  0.21087572226E+04  0.25500000920E-02 0. -1.
       -2   -1    0    0    0  501  0.00000000000E+00  0.00000000000E+00 -0.14373784107E+03  0.14373784110E+03  0.25500000920E-02 0.  1.
    10030    2    1    2    0    0  0.00000000000E+00  0.00000000000E+00  0.19650193816E+04  0.22524950637E+04  0.11011052821E+04 0.  0.
        5    1    3    3  502    0 -0.39566121269E+03 -0.32748481860E+03  0.13880062507E+04  0.14799924134E+04  0.46999998093E+01 0. -1.
       -5    1    3    3    0  502  0.39566121269E+03  0.32748481860E+03  0.57701313086E+03  0.77250265037E+03  0.46999998093E+01 0.  1.
</event>
<event>
 5   0  0.9346836E-05  0.1099970E+04  0.7818609E-02  0.9205221E-01
       -1   -1    0    0    0  501  0.00000000000E+00  0.00000000000E+00  0.13302281529E+04  0.13302281530E+04  0.50400001928E-02 0.  1.
        1   -1    0    0  501    0  0.00000000000E+00  0.00000000000E+00 -0.22739211806E+03  0.22739211812E+03  0.50400001928E-02 0. -1.
    10030    2    1    2    0    0  0.00000000000E+00  0.00000000000E+00  0.11028360349E+04  0.15576202711E+04  0.10999698128E+04 0.  0.
        5    1    3    3  502    0 -0.45672223700E+03 -0.17107544783E+03  0.91132868452E+03  0.10336363344E+04  0.46999998093E+01 0.  1.
       -5    1    3    3    0  502  0.45672223700E+03  0.17107544783E+03  0.19150735037E+03  0.52398393665E+03  0.46999998093E+01 0. -1.
</event>
<event>
 5   0  0.8921459E-05  0.1099816E+04  0.7818609E-02  0.9205371E-01
       -1   -1    0    0    0  501  0.00000000000E+00  0.00000000000E+00  0.32557015338E+03  0.32557015342E+03  0.50400001928E-02 0. -1.
        1   -1    0    0  501    0  0.00000000000E+00  0.00000000000E+00 -0.92882899107E+03  0.92882899108E+03  0.50400001928E-02 0.  1.
    10030    2    1    2    0    0  0.00000000000E+00  0.00000000000E+00 -0.60325883768E+03  0.12543991445E+04  0.10998163431E+04 0.  0.
        3    1    3    3  502    0  0.36972962168E+03  0.26277184908E+03  0.52952344179E+02  0.45667603263E+03  0.10100000352E+00 0. -1.
       -3    1    3    3    0  502 -0.36972962168E+03 -0.26277184908E+03 -0.65621118186E+03  0.79772311188E+03  0.10100000352E+00 0.  1.
</event>
<event>
 5   0  0.1464205E-04  0.1099935E+04  0.7818609E-02  0.9205255E-01
        2   -1    0    0  501    0  0.00000000000E+00  0.00000000000E+00  0.13749448185E+04  0.13749448185E+04  0.25500000920E-02 0.  1.
       -2   -1    0    0    0  501  0.00000000000E+00  0.00000000000E+00 -0.21998288618E+03  0.21998288620E+03  0.25500000920E-02 0. -1.
    10030    2    1    2    0    0  0.00000000000E+00  0.00000000000E+00  0.11549619323E+04  0.15949277047E+04  0.10999351427E+04 0.  0.
        3    1    3    3  502    0 -0.21718411206E+03 -0.90517655758E+02  0.12982763507E+04  0.13194255862E+04  0.10100000352E+00 0.  1.
       -3    1    3    3    0  502  0.21718411206E+03  0.90517655758E+02 -0.14331441844E+03  0.27550211845E+03  0.10100000352E+00 0. -1.
</event>
<event>
 5   0  0.8657442E-05  0.1100657E+04  0.7818609E-02  0.9204552E-01
        1   -1    0    0  501    0  0.00000000000E+00  0.00000000000E+00  0.43265376721E+03  0.43265376724E+03  0.50400001928E-02 0. -1.
       -1   -1    0    0    0  501  0.00000000000E+00  0.00000000000E+00 -0.70000849197E+03  0.70000849198E+03  0.50400001928E-02 0.  1.
    10030    2    1    2    0    0  0.00000000000E+00  0.00000000000E+00 -0.26735472475E+03  0.11326622592E+04  0.11006567333E+04 0.  0.
        1    1    3    3  502    0  0.53996798418E+03  0.49097026469E+02 -0.23068060981E+03  0.58922787249E+03  0.50400001928E-02 0.  1.
       -1    1    3    3    0  502 -0.53996798418E+03 -0.49097026469E+02 -0.36674114944E+02  0.54343438673E+03  0.50400001928E-02 0. -1.
</event>
<event>
 5   0  0.8921459E-05  0.1099632E+04  0.7818609E-02  0.9205551E-01
        1   -1    0    0  501    0  0.00000000000E+00  0.00000000000E+00  0.89787558279E+03  0.89787558281E+03  0.50400001928E-02 0.  1.
       -1   -1    0    0    0  501  0.00000000000E+00  0.00000000000E+00 -0.33668081026E+03  0.33668081029E+03  0.50400001928E-02 0. -1.
    10030    2    1    2    0    0  0.00000000000E+00  0.00000000000E+00  0.56119477254E+03  0.12345563931E+04  0.10996317179E+04 0.  0.
        3    1    3    3  502    0 -0.17183664817E+03 -0.16350930317E+03 -0.27628251113E+03  0.36413618611E+03  0.10100000352E+00 0. -1.
       -3    1    3    3    0  502  0.17183664817E+03  0.16350930317E+03  0.83747728367E+03  0.87042020699E+03  0.10100000352E+00 0.  1.
</event>
<event>
 5   0  0.8621738E-05  0.1100050E+04  0.7818609E-02  0.9205144E-01
       -1   -1    0    0    0  501  0.00000000000E+00  0.00000000000E+00  0.41838194012E+03  0.41838194015E+03  0.50400001928E-02 0.  1.
        1   -1    0    0  501    0  0.00000000000E+00  0.00000000000E+00 -0.72308871809E+03  0.72308871811E+03  0.50400001928E-02 0. -1.
    10030    2    1    2    0    0  0.00000000000E+00  0.00000000000E+00 -0.30470677797E+03  0.11414706583E+04  0.11000495639E+04 0.  0.
        2    1    3    3  502    0 -0.43263888942E+03 -0.21132499007E+03  0.12353884685E+03  0.49708802716E+03  0.25500000920E-02 0. -1.
       -2    1    3    3    0  502  0.43263888942E+03  0.21132499007E+03 -0.42824562482E+03  0.64438263109E+03  0.25500000920E-02 0.  1.
</event>
<event>
 5   0  0.9346836E-05  0.1100387E+04  0.7818609E-02  0.9204815E-01
        1   -1    0    0  501    0  0.00000000000E+00  0.00000000000E+00  0.69937762357E+03  0.69937762359E+03  0.50400001928E-02 0.  1.
       -1   -1    0    0    0  501  0.00000000000E+00  0.00000000000E+00 -0.43283189912E+03  0.43283189915E+03  0.50400001928E-02 0. -1.
    10030    2    1    2    0    0  0.00000000000E+00  0.00000000000E+00  0.26654572445E+03  0.11322095227E+04  0.11003871047E+04 0.  0.
        5    1    3    3  502    0 -0.28158232952E+03 -0.40883547932E+03  0.37731507504E+03  0.62355738573E+03  0.46999998093E+01 0.  1.
       -5    1    3    3    0  502  0.28158232952E+03  0.40883547932E+03 -0.11076935058E+03  0.50865213701E+03  0.46999998093E+01 0. -1.
</event>
<event>
 5   0  0.1574101E-04  0.1100159E+04  0.7818609E-02  0.9205037E-01
       -2   -1    0    0    0  501  0.00000000000E+00  0.00000000000E+00  0.52155837127E+03  0.52155837128E+03  0.25500000920E-02 0. -1.
        2   -1    0    0  501    0  0.00000000000E+00  0.00000000000E+00 -0.58016054619E+03  0.58016054620E+03  0.25500000920E-02 0.  1.
    10030    2    1    2    0    0  0.00000000000E+00  0.00000000000E+00 -0.58602174922E+02  0.11017189175E+04  0.11001592422E+04 0.  0.
        4    1    3    3  502    0  0.22601205998E+02  0.72885025611E+02  0.51623072847E+03  0.52184175704E+03  0.12699999809E+01 0. -1.
       -4    1    3    3    0  502 -0.22601205998E+02 -0.72885025611E+02 -0.57483290339E+03  0.57987716044E+03  0.12699999809E+01 0.  1.
</event>
<event>
 5   0  0.1553937E-04  0.1100729E+04  0.7818609E-02  0.9204482E-01
        2   -1    0    0  501    0  0.00000000000E+00  0.00000000000E+00  0.71821933473E+03  0.71821933473E+03  0.25500000920E-02 0.  1.
       -2   -1    0    0    0  501  0.00000000000E+00  0.00000000000E+00 -0.42173894470E+03  0.42173894470E+03  0.25500000920E-02 0. -1.
    10030    2    1    2    0    0  0.00000000000E+00  0.00000000000E+00  0.29648039003E+03  0.11399582794E+04  0.11007289663E+04 0.  0.
        1    1    3    3  502    0 -0.10901883960E+03 -0.10449446531E+03  0.69634383312E+03  0.71252995349E+03  0.50400001928E-02 0.  1.
       -1    1    3    3    0  502  0.10901883960E+03  0.10449446531E+03 -0.39986344309E+03  0.42742832594E+03  0.50400001928E-02 0. -1.
</event>
<event>
 5   0  0.9016738E-05  0.1100372E+04  0.7818609E-02  0.9204830E-01
        1   -1    0    0  501    0  0.00000000000E+00  0.00000000000E+00  0.81506094478E+03  0.81506094479E+03  0.50400001928E-02 0. -1.
       -1   -1    0    0    0  501  0.00000000000E+00  0.00000000000E+00 -0.37138875547E+03  0.37138875551E+03  0.50400001928E-02 0.  1.
    10030    2    1    2    0    0  0.00000000000E+00  0.00000000000E+00  0.44367218930E+03  0.11864497003E+04  0.11003717007E+04 0.  0.
        4    1    3    3  502    0  0.46802924279E+03 -0.28908507838E+03  0.21211396051E+03  0.58958926363E+03  0.12699999809E+01 0.  1.
       -4    1    3    3    0  502 -0.46802924279E+03  0.28908507838E+03  0.23155822880E+03  0.59686043667E+03  0.12699999809E+01 0. -1.
</event>
<event>
 5   0  0.1540772E-04  0.1100055E+04  0.7818609E-02  0.9205138E-01
        2   -1    0    0  501    0  0.00000000000E+00  0.00000000000E+00  0.21909360970E+04  0.21909360970E+04  0.25500000920E-02 0.  1.
       -2   -1    0    0    0  501  0.00000000000E+00  0.00000000000E+00 -0.13808274195E+03  0.13808274197E+03  0.25500000920E-02 0. -1.
    10030    2    1    2    0    0  0.00000000000E+00  0.00000000000E+00  0.20528533551E+04  0.23290188390E+04  0.11000553872E+04 0.  0.
        2    1    3    3  502    0 -0.15953872962E+03  0.95665086915E+02  0.21223140402E+04  0.21304509617E+04  0.25500000920E-02 0.  1.
       -2    1    3    3    0  502  0.15953872962E+03 -0.95665086915E+02 -0.69460685117E+02  0.19856787728E+03  0.25500000920E-02 0. -1.
</event>
<event>
 5   0  0.8921459E-05  0.1100093E+04  0.7818609E-02  0.9205102E-01
       -1   -1    0    0    0  501  0.00000000000E+00  0.00000000000E+00  0.28499408261E+03  0.28499408265E+03  0.50400001928E-02 0. -1.
        1   -1    0    0  501    0  0.00000000000E+00  0.00000000000E+00 -0.10616043487E+04  0.10616043487E+04  0.50400001928E-02 0.  1.
    10030    2    1    2    0    0  0.00000000000E+00  0.00000000000E+00 -0.77661026609E+03  0.13465984314E+04  0.11000926461E+04 0.  0.
        3    1    3    3  502    0 -0.41605163592E+03 -0.35900456706E+03 -0.41747066887E+03  0.69011956391E+03  0.10100000352E+00 0.  1.
       -3    1    3    3    0  502  0.41605163592E+03  0.35900456706E+03 -0.35913959722E+03  0.65647886745E+03  0.10100000352E+00 0. -1.
</event>
<event>
 5   0  0.1540772E-04  0.1100606E+04  0.7818609E-02  0.9204601E-01
        2   -1    0    0  501    0  0.00000000000E+00  0.00000000000E+00  0.10451673164E+04  0.10451673164E+04  0.25500000920E-02 0. -1.
       -2   -1    0    0    0  501  0.00000000000E+00  0.00000000000E+00 -0.28974634775E+03  0.28974634776E+03  0.25500000920E-02 0.  1.
    10030    2    1    2    0    0  0.00000000000E+00  0.00000000000E+00  0.75542096865E+03  0.13349136642E+04  0.11006060380E+04 0.  0.
        2    1    3    3  502    0 -0.36471795546E+03  0.17888130588E+03 -0.72557057727E+02  0.41265268115E+03  0.25500000920E-02 0.  1.
       -2    1    3    3    0  502  0.36471795546E+03 -0.17888130588E+03  0.82797802638E+03  0.92226098302E+03  0.25500000920E-02 0. -1.
</event>
<event>
 5   0  0.8621738E-05  0.1100401E+04  0.7818609E-02  0.9204801E-01
        1   -1    0    0  501    0  0.00000000000E+00  0.00000000000E+00  0.49469724331E+03  0.49469724334E+03  0.50400001928E-02 0.  1.
       -1   -1    0    0    0  501  0.00000000000E+00  0.00000000000E+00 -0.61193155090E+03  0.61193155092E+03  0.50400001928E-02 0. -1.
    10030    2    1    2    0    0  0.00000000000E+00  0.00000000000E+00 -0.11723430758E+03  0.11066287943E+04  0.11004014746E+04 0.  0.
        2    1    3    3  502    0  0.37713849363E+03  0.39987089722E+03 -0.83058468080E+02  0.55590366696E+03  0.25500000920E-02 0.  1.
       -2    1    3    3    0  502 -0.37713849363E+03 -0.39987089722E+03 -0.34175839504E+02  0.55072512729E+03  0.25500000920E-02 0. -1.
</event>
<event>
 5   0  0.8621738E-05  0.1100276E+04  0.7818609E-02  0.9204923E-01
       -1   -1    0    0    0  501  0.00000000000E+00  0.00000000000E+00  0.53518372486E+03  0.53518372489E+03  0.50400001928E-02 0. -1.
        1   -1    0    0  501    0  0.00000000000E+00  0.00000000000E+00 -0.56551029651E+03  0.56551029653E+03  0.50400001928E-02 0.  1.
    10030    2    1    2    0    0  0.00000000000E+00  0.00000000000E+00 -0.30326571649E+02  0.11006940214E+04  0.11002761598E+04 0.  0.
        2    1    3    3  502    0 -0.45864172191E+03 -0.75022869766E+02 -0.30967490054E+03  0.55846146160E+03  0.25500000920E-02 0.  1.
       -2    1    3    3    0  502  0.45864172191E+03  0.75022869766E+02  0.27934832889E+03  0.54223255982E+03  0.25500000920E-02 0. -1.
</event>
<event>
 5   0  0.8621738E-05  0.1099638E+04  0.7818609E-02  0.9205544E-01
        1   -1    0    0  501    0  0.00000000000E+00  0.00000000000E+00  0.96348339745E+03  0.96348339746E+03  0.50400001928E-02 0. -1.
       -1   -1    0    0    0  501  0.00000000000E+00  0.00000000000E+00 -0.31375857043E+03  0.31375857047E+03  0.50400001928E-02 0.  1.
    10030    2    1    2    0    0  0.00000000000E+00  0.00000000000E+00  0.64972482702E+03  0.12772419679E+04  0.10996384378E+04 0.  0.
        2    1    3    3  502    0  0.15728403716E+03  0.49914954966E+03  0.12907759959E+03  0.53902650027E+03  0.25500000920E-02 0. -1.
       -2    1    3    3    0  502 -0.15728403716E+03 -0.49914954966E+03  0.52064722743E+03  0.73821546767E+03  0.25500000920E-02 0.  1.
</event>
<event>
 5   0  0.1540772E-04  0.1100199E+04  0.7818609E-02  0.9204998E-01
        2   -1    0    0  501    0  0.00000000000E+00  0.00000000000E+00  0.12099279737E+04  0.12099279737E+04  0.25500000920E-02 0.  1.
       -2   -1    0    0    0  501  0.00000000000E+00  0.00000000000E+00 -0.25010523107E+03  0.25010523108E+03  0.25500000920E-02 0. -1.
    10030    2    1    2    0    0  0.00000000000E+00  0.00000000000E+00  0.95982274263E+03  0.14600332048E+04  0.11001987374E+04 0.  0.
        2    1    3    3  502    0  0.17377373080E+03  0.50172008709E+03  0.28903115347E+03  0.60453235066E+03  0.25500000920E-02 0. -1.
       -2    1    3    3    0  502 -0.17377373080E+03 -0.50172008709E+03  0.67079158917E+03  0.85550085413E+03  0.25500000920E-02 0.  1.
</event>
<event>
 5   0  0.9346836E-05  0.1099800E+04  0.7818609E-02  0.9205387E-01
       -1   -1    0    0    0  501  0.00000000000E+00  0.00000000000E+00  0.23998616520E+03  0.23998616525E+03  0.50400001928E-02 0.  1.
        1   -1    0    0  501    0  0.00000000000E+00  0.00000000000E+00 -0.12600311826E+04  0.12600311826E+04  0.50400001928E-02 0. -1.
    10030    2    1    2    0    0  0.00000000000E+00  0.00000000000E+00 -0.10200450174E+04  0.15000173479E+04  0.10998000756E+04 0.  0.
        5    1    3    3  502    0  0.40154945315E+03  0.37461262113E+03 -0.47165392917E+03  0.72391719011E+03  0.46999998093E+01 0.  1.
       -5    1    3    3    0  502 -0.40154945315E+03 -0.37461262113E+03 -0.54839108827E+03  0.77610015779E+03  0.46999998093E+01 0. -1.
</event>
<event>
 5   0  0.1503277E-04  0.1100276E+04  0.7818609E-02  0.9204923E-01
       -2   -1    0    0    0  501  0.00000000000E+00  0.00000000000E+00  0.85061048189E+03  0.85061048190E+03  0.25500000920E-02 0. -1.
        2   -1    0    0  501    0  0.00000000000E+00  0.00000000000E+00 -0.35580516756E+03  0.35580516756E+03  0.25500000920E-02 0.  1.
    10030    2    1    2    0    0  0.00000000000E+00  0.00000000000E+00  0.49480531434E+03  0.12064156495E+04  0.11002756110E+04 0.  0.
        5    1    3    3  502    0 -0.24707915704E+03  0.42723394025E+03  0.51385212722E+03  0.71249073551E+03  0.46999998093E+01 0. -1.
       -5    1    3    3    0  502  0.24707915704E+03 -0.42723394025E+03 -0.19046812881E+02  0.49392491395E+03  0.46999998093E+01 0.  1.
</event>
<event>
 5   0  0.1503277E-04  0.1099838E+04  0.7818609E-02  0.9205350E-01
        2   -1    0    0  501    0  0.00000000000E+00  0.00000000000E+00  0.17763642312E+04  0.17763642312E+04  0.25500000920E-02 0.  1.
       -2   -1    0    0    0  501  0.00000000000E+00  0.00000000000E+00 -0.17024157223E+03  0.17024157225E+03  0.25500000920E-02 0. -1.
    10030    2    1    2    0    0  0.00000000000E+00  0.00000000000E+00  0.16061226589E+04  0.19466058034E+04  0.10998382419E+04 0.  0.
        5    1    3    3  502    0  0.23003776802E+03  0.16842171017E+03  0.16353024482E+04  0.16599757330E+04  0.46999998093E+01 0.  1.
       -5    1    3    3    0  502 -0.23003776802E+03 -0.16842171017E+03 -0.29179789236E+02  0.28663007042E+03  0.46999998093E+01 0. -1.
</event>
<event>
 5   0  0.1574101E-04  0.1101001E+04  0.7818609E-02  0.9204216E-01
       -2   -1    0    0    0  501  0.00000000000E+00  0.00000000000E+00  0.24839121118E+03  0.24839121120E+03  0.25500000920E-02 0.  1.
        2   -1    0    0  501    0  0.00000000000E+00  0.00000000000E+00 -0.12200551817E+04  0.12200551817E+04  0.25500000920E-02 0. -1.
    10030    2    1    2    0    0  0.00000000000E+00  0.00000000000E+00 -0.97166397051E+03  0.14684463929E+04  0.11010013339E+04 0.  0.
        4    1    3    3  502    0  0.61859077393E+02  0.47016389664E+03 -0.85872718869E+03  0.98096617304E+03  0.12699999809E+01 0. -1.
       -4    1    3    3    0  502 -0.61859077393E+02 -0.47016389664E+03 -0.11293678182E+03  0.48748021985E+03  0.12699999809E+01 0.  1.
</event>
<event>
 5   0  0.9016738E-05  0.1099884E+04  0.7818609E-02  0.9205305E-01
       -1   -1    0    0    0  501  0.00000000000E+00  0.00000000000E+00  0.23689324204E+03  0.23689324209E+03  0.50400001928E-02 0. -1.
        1   -1    0    0  501    0  0.00000000000E+00  0.00000000000E+00 -0.12766763568E+04  0.12766763568E+04  0.50400001928E-02 0.  1.
    10030    2    1    2    0    0  0.00000000000E+00  0.00000000000E+00 -0.10397831147E+04  0.15135695989E+04  0.10998836325E+04 0.  0.
        4    1    3    3  502    0 -0.10176519916E+03  0.15481022150E+03 -0.12324390325E+04  0.12462864607E+04  0.12699999809E+01 0.  1.
       -4    1    3    3    0  502  0.10176519916E+03 -0.15481022150E+03  0.19265591772E+03  0.26728313821E+03  0.12699999809E+01 0. -1.
</event>
<event>
 5   0  0.6010125E-05  0.1099224E+04  0.7818609E-02  0.9205948E-01
       -4   -1    0    0    0  501  0.00000000000E+00  0.00000000000E+00  0.33744682501E+03  0.33744921486E+03  0.12699999809E+01 0.  1.
        4   -1    0    0  501    0  0.00000000000E+00  0.00000000000E+00 -0.89516767522E+03  0.89516857611E+03  0.12699999809E+01 0. -1.
    10030    2    1    2    0    0  0.00000000000E+00  0.00000000000E+00 -0.55772085021E+03  0.12326177910E+04  0.10992243046E+04 0.  0.
        5    1    3    3  502    0  0.26170043583E+03 -0.16434580125E+03 -0.78849598238E+03  0.84690298425E+03  0.46999998093E+01 0. -1.
       -5    1    3    3    0  502 -0.26170043583E+03  0.16434580125E+03  0.23077513217E+03  0.38571480673E+03  0.46999998093E+01 0.  1.
</event>
<event>
 5   0  0.6010125E-05  0.1101066E+04  0.7818609E-02  0.9204154E-01
        3   -1    0    0  501    0  0.00000000000E+00  0.00000000000E+00  0.56302321129E+03  0.56302322034E+03  0.10100000352E+00 0.  1.
       -3   -1    0    0    0  501  0.00000000000E+00  0.00000000000E+00 -0.53831945988E+03  0.53831946936E+03  0.10100000352E+00 0. -1.
    10030    2    1    2    0    0  0.00000000000E+00  0.00000000000E+00  0.24703751403E+02  0.11013426897E+04  0.11010655952E+04 0.  0.
        1    1    3    3  502    0 -0.40636608207E+03 -0.16130980144E+03  0.34699864668E+03  0.55817766483E+03  0.50400001928E-02 0.  1.
       -1    1    3    3    0  502  0.40636608207E+03  0.16130980144E+03 -0.32229489528E+03  0.54316502487E+03  0.50400001928E-02 0. -1.
</event>
<event>
 5   0  0.1540772E-04  0.1100334E+04  0.7818609E-02  0.9204867E-01
       -2   -1    0    0    0  501  0.00000000000E+00  0.00000000000E+00  0.33305792708E+03  0.33305792709E+03  0.25500000920E-02 0.  1.
        2   -1    0    0  501    0  0.00000000000E+00  0.00000000000E+00 -0.90880177756E+03  0.90880177757E+03  0.25500000920E-02 0. -1.
    10030    2    1    2    0    0  0.00000000000E+00  0.00000000000E+00 -0.57574385048E+03  0.12418597047E+04  0.11003338333E+04 0.  0.
        2    1    3    3  502    0 -0.53104989203E+03  0.96976307983E+02 -0.40766131997E+03  0.67646592223E+03  0.25500000920E-02 0. -1.
       -2    1    3    3    0  502  0.53104989203E+03 -0.96976307983E+02 -0.16808253051E+03  0.56539378243E+03  0.25500000920E-02 0.  1.
</event>
<event>
 5   0  0.8621738E-05  0.1099751E+04  0.7818609E-02  0.9205435E-01
        1   -1    0    0  501    0  0.00000000000E+00  0.00000000000E+00  0.35586205812E+03  0.35586205816E+03  0.50400001928E-02 0.  1.
       -1   -1    0    0    0  501  0.00000000000E+00  0.00000000000E+00 -0.84966351411E+03  0.84966351413E+03  0.50400001928E-02 0. -1.
    10030    2    1    2    0    0  0.00000000000E+00  0.00000000000E+00 -0.49380145599E+03  0.12055255723E+04  0.10997508934E+04 0.  0.
        2    1    3    3  502    0 -0.34854362826E+03  0.29152781708E+03 -0.58634854167E+03  0.74180573013E+03  0.25500000920E-02 0. -1.
       -2    1    3    3    0  502  0.34854362826E+03 -0.29152781708E+03  0.92547085683E+02  0.46371984215E+03  0.25500000920E-02 0.  1.
</event>
<event>
 5   0  0.1464205E-04  0.1099882E+04  0.7818609E-02  0.9205307E-01
       -2   -1    0    0    0  501  0.00000000000E+00  0.00000000000E+00  0.10973503218E+04  0.10973503218E+04  0.25500000920E-02 0. -1.
        2   -1    0    0  501    0  0.00000000000E+00  0.00000000000E+00 -0.27560463963E+03  0.27560463965E+03  0.25500000920E-02 0.  1.
    10030    2    1    2    0    0  0.00000000000E+00  0.00000000000E+00  0.82174568217E+03  0.13729549615E+04  0.10998815209E+04 0.  0.
        3    1    3    3  502    0  0.42050118516E+03  0.14564696009E+03  0.81420399651E+03  0.92788061831E+03  0.10100000352E+00 0. -1.
       -3    1    3    3    0  502 -0.42050118516E+03 -0.14564696009E+03  0.75416856618E+01  0.44507434314E+03  0.10100000352E+00 0.  1.
</event>
<event>
 5   0  0.1503277E-04  0.1100206E+04  0.7818609E-02  0.9204992E-01
       -2   -1    0    0    0  501  0.00000000000E+00  0.00000000000E+00  0.27756016929E+03  0.27756016930E+03  0.25500000920E-02 0.  1.
        2   -1    0    0  501    0  0.00000000000E+00  0.00000000000E+00 -0.10902611804E+04  0.10902611804E+04  0.25500000920E-02 0. -1.
    10030    2    1    2    0    0  0.00000000000E+00  0.00000000000E+00 -0.81270101112E+03  0.13678213497E+04  0.11002055768E+04 0.  0.
        5    1    3    3  502    0  0.45962604037E+01  0.52460366267E+03 -0.61199657006E+03  0.80609678095E+03  0.46999998093E+01 0. -1.
       -5    1    3    3    0  502 -0.45962604037E+01 -0.52460366267E+03 -0.20070444107E+03  0.56172456877E+03  0.46999998093E+01 0.  1.
</event>
<event>
 5   0  0.9346836E-05  0.1100193E+04  0.7818609E-02  0.9205004E-01
       -1   -1    0    0    0  501  0.00000000000E+00  0.00000000000E+00  0.40392822767E+03  0.40392822770E+03  0.50400001928E-02 0.  1.
        1   -1    0    0  501    0  0.00000000000E+00  0.00000000000E+00 -0.74915832134E+03  0.74915832135E+03  0.50400001928E-02 0. -1.
    10030    2    1    2    0    0  0.00000000000E+00  0.00000000000E+00 -0.34523009367E+03  0.11530865491E+04  0.11001930613E+04 0.  0.
        5    1    3    3  502    0  0.94054255822E+02  0.51756303286E+03 -0.34117758328E+03  0.62701031041E+03  0.46999998093E+01 0. -1.
       -5    1    3    3    0  502 -0.94054255822E+02 -0.51756303286E+03 -0.40525103841E+01  0.52607623864E+03  0.46999998093E+01 0.  1.
</event>
<event>
 5   0  0.8921459E-05  0.1100543E+04  0.7818609E-02  0.9204663E-01
       -1   -1    0    0    0  501  0.00000000000E+00  0.00000000000E+00  0.18331161574E+03  0.18331161581E+03  0.50400001928E-02 0. -1.
        1   -1    0    0  501    0  0.00000000000E+00  0.00000000000E+00 -0.16518259286E+04  0.16518259286E+04  0.50400001928E-02 0.  1.
    10030    2    1    2    0    0  0.00000000000E+00  0.00000000000E+00 -0.14685143129E+04  0.18351375445E+04  0.11005432840E+04 0.  0.
        3    1    3    3  502    0 -0.35510612965E+03 -0.20360586926E+03 -0.13474811536E+04  0.14082830620E+04  0.10100000352E+00 0.  1.
       -3    1    3    3    0  502  0.35510612965E+03  0.20360586926E+03 -0.12103315930E+03  0.42685448242E+03  0.10100000352E+00 0. -1.
</event>
<event>
 5   0  0.1464205E-04  0.1099956E+04  0.7818609E-02  0.9205235E-01
       -2   -1    0    0    0  501  0.00000000000E+00  0.00000000000E+00  0.37508971969E+03  0.37508971970E+03  0.25500000920E-02 0. -1.
        2   -1    0    0  501    0  0.00000000000E+00  0.00000000000E+00 -0.80640860979E+03  0.80640860979E+03  0.25500000920E-02 0.  1.
    10030    2    1    2    0    0  0.00000000000E+00  0.00000000000E+00 -0.43131889010E+03  0.11814983295E+04  0.10999555980E+04 0.  0.
        3    1    3    3  502    0 -0.90682082628E+02 -0.12134804171E+03  0.35223788292E+03  0.38343203270E+03  0.10100000352E+00 0. -1.
       -3    1    3    3    0  502  0.90682082628E+02  0.12134804171E+03 -0.78355677302E+03  0.79806629679E+03  0.10100000352E+00 0.  1.
</event>
<event>
 5   0  0.1553937E-04  0.1099660E+04  0.7818609E-02  0.9205524E-01
       -2   -1    0    0    0  501  0.00000000000E+00  0.00000000000E+00  0.40994534290E+03  0.40994534291E+03  0.25500000920E-02 0.  1.
        2   -1    0    0  501    0  0.00000000000E+00  0.00000000000E+00 -0.73744689785E+03  0.73744689785E+03  0.25500000920E-02 0. -1.
    10030    2    1    2    0    0  0.00000000000E+00  0.00000000000E+00 -0.32750155495E+03  0.11473922408E+04  0.10996598045E+04 0.  0.
        1    1    3    3  502    0  0.50266029711E+01  0.32986111934E+03 -0.62270651962E+03  0.70469641292E+03  0.50400001928E-02 0. -1.
       -1    1    3    3    0  502 -0.50266029711E+01 -0.32986111934E+03  0.29520496467E+03  0.44269582783E+03  0.50400001928E-02 0.  1.
</event>
<event>
 5   0  0.1553937E-04  0.1100589E+04  0.7818609E-02  0.9204618E-01
        2   -1    0    0  501    0  0.00000000000E+00  0.00000000000E+00  0.13489643740E+04  0.13489643740E+04  0.25500000920E-02 0.  1.
       -2   -1    0    0    0  501  0.00000000000E+00  0.00000000000E+00 -0.22448649009E+03  0.22448649011E+03  0.25500000920E-02 0. -1.
    10030    2    1    2    0    0  0.00000000000E+00  0.00000000000E+00  0.11244778839E+04  0.15734508641E+04  0.11005894377E+04 0.  0.
        1    1    3    3  502    0  0.48306144167E+02 -0.78635781919E+02 -0.21334408068E+03  0.23244949247E+03  0.50400001928E-02 0. -1.
       -1    1    3    3    0  502 -0.48306144167E+02  0.78635781919E+02  0.13378219646E+04  0.13410013716E+04  0.50400001928E-02 0.  1.
</event>
<event>
 5   0  0.1540772E-04  0.1099820E+04  0.7818609E-02  0.9205367E-01
       -2   -1    0    0    0  501  0.00000000000E+00  0.00000000000E+00  0.10935094599E+03  0.10935094602E+03  0.25500000920E-02 0.  1.
        2   -1    0    0  501    0  0.00000000000E+00  0.00000000000E+00 -0.27654198717E+04  0.27654198717E+04  0.25500000920E-02 0. -1.
    10030    2    1    2    0    0  0.00000000000E+00  0.00000000000E+00 -0.26560689257E+04  0.28747708177E+04  0.10998204928E+04 0.  0.
        2    1    3    3  502    0 -0.14512633795E+03 -0.31910922052E+03 -0.22058364105E+03  0.41418533447E+03  0.25500000920E-02 0.  1.
       -2    1    3    3    0  502  0.14512633795E+03  0.31910922052E+03 -0.24354852847E+04  0.24605854832E+04  0.25500000920E-02 0. -1.
</event>
<event>
 5   0  0.8657442E-05  0.1102656E+04  0.7818609E-02  0.9202607E-01
        1   -1    0    0  501    0  0.00000000000E+00  0.00000000000E+00  0.48927567029E+03  0.48927567031E+03  0.50400001928E-02 0. -1.
       -1   -1    0    0    0  501  0.00000000000E+00  0.00000000000E+00 -0.62124956874E+03  0.62124956876E+03  0.50400001928E-02 0.  1.
    10030    2    1    2    0    0  0.00000000000E+00  0.00000000000E+00 -0.13197389846E+03  0.11105252391E+04  0.11026555204E+04 0.  0.
        1    1    3    3  502    0  0.35233437732E+03  0.35921892257E+03  0.16097569752E+03  0.52829056682E+03  0.50400001928E-02 0.  1.
       -1    1    3    3    0  502 -0.35233437732E+03 -0.35921892257E+03 -0.29294959598E+03  0.58223467226E+03  0.50400001928E-02 0. -1.
</event>
<event>
 5   0  0.1553937E-04  0.1101875E+04  0.7818609E-02  0.9203366E-01
        2   -1    0    0  501    0  0.00000000000E+00  0.00000000000E+00  0.11256582111E+04  0.11256582111E+04  0.25500000920E-02 0. -1.
       -2   -1    0    0    0  501  0.00000000000E+00  0.00000000000E+00 -0.26964862424E+03  0.26964862425E+03  0.25500000920E-02 0.  1.
    10030    2    1    2    0    0  0.00000000000E+00  0.00000000000E+00  0.85600958688E+03  0.13953068354E+04  0.11018751073E+04 0.  0.
        1    1    3    3  502    0  0.42373879661E+03 -0.20911406879E+03  0.69283658080E+02  0.47758086941E+03  0.50400001928E-02 0.  1.
       -1    1    3    3    0  502 -0.42373879661E+03  0.20911406879E+03  0.78672592880E+03  0.91772596596E+03  0.50400001928E-02 0. -1.
</event>
<event>
 5   0  0.1574101E-04  0.1099031E+04  0.7818609E-02  0.9206137E-01
       -2   -1    0    0    0  501  0.00000000000E+00  0.00000000000E+00  0.49781672508E+03  0.49781672508E+03  0.25500000920E-02 0.  1.
        2   -1    0    0  501    0  0.00000000000E+00  0.00000000000E+00 -0.60658346306E+03  0.60658346307E+03  0.25500000920E-02 0. -1.
    10030    2    1    2    0    0  0.00000000000E+00  0.00000000000E+00 -0.10876673799E+03  0.11044001881E+04  0.10990311971E+04 0.  0.
        4    1    3    3  502    0 -0.16033673611E+03  0.19961074062E+03 -0.54298234694E+03  0.60031971374E+03  0.12699999809E+01 0. -1.
       -4    1    3    3    0  502  0.16033673611E+03 -0.19961074062E+03  0.43421560896E+03  0.50408047441E+03  0.12699999809E+01 0.  1.
</event>
<event>
 5   0  0.1464205E-04  0.1099973E+04  0.7818609E-02  0.9205218E-01
        2   -1    0    0  501    0  0.00000000000E+00  0.00000000000E+00  0.11421738490E+04  0.11421738490E+04  0.25500000920E-02 0. -1.
       -2   -1    0    0    0  501  0.00000000000E+00  0.00000000000E+00 -0.26483295671E+03  0.26483295672E+03  0.25500000920E-02 0.  1.
    10030    2    1    2    0    0  0.00000000000E+00  0.00000000000E+00  0.87734089233E+03  0.14070068058E+04  0.10999732315E+04 0.  0.
        3    1    3    3  502    0  0.35797019536E+03 -0.27268267162E+03  0.34201349569E+02  0.45129618066E+03  0.10100000352E+00 0.  1.
       -3    1    3    3    0  502 -0.35797019536E+03  0.27268267162E+03  0.84313954276E+03  0.95571062510E+03  0.10100000352E+00 0. -1.
</event>
<event>
 5   0  0.8921459E-05  0.1100822E+04  0.7818609E-02  0.9204391E-01
        1   -1    0    0  501    0  0.00000000000E+00  0.00000000000E+00  0.21183510409E+03  0.21183510415E+03  0.50400001928E-02 0. -1.
       -1   -1    0    0    0  501  0.00000000000E+00  0.00000000000E+00 -0.14301321321E+04  0.14301321322E+04  0.50400001928E-02 0.  1.
    10030    2    1    2    0    0  0.00000000000E+00  0.00000000000E+00 -0.12182970281E+04  0.16419672363E+04  0.11008218550E+04 0.  0.
        3    1    3    3  502    0 -0.24705632189E+03 -0.10158990378E+02  0.12432848753E+03  0.27676274005E+03  0.10100000352E+00 0. -1.
       -3    1    3    3    0  502  0.24705632189E+03  0.10158990378E+02 -0.13426255156E+04  0.13652044963E+04  0.10100000352E+00 0.  1.
</event>
<event>
 5   0  0.6010125E-05  0.1100109E+04  0.7818609E-02  0.9205086E-01
       -4   -1    0    0    0  501  0.00000000000E+00  0.00000000000E+00  0.25944660094E+03  0.25944970927E+03  0.12699999809E+01 0. -1.
        4   -1    0    0  501    0  0.00000000000E+00  0.00000000000E+00 -0.11661628229E+04  0.11661635145E+04  0.12699999809E+01 0.  1.
    10030    2    1    2    0    0  0.00000000000E+00  0.00000000000E+00 -0.90671622197E+03  0.14256132237E+04  0.11001085203E+04 0.  0.
        4    1    3    3  502    0  0.44872814723E+02  0.20054631109E+02 -0.11633114455E+04  0.11643499860E+04  0.12699999809E+01 0.  1.
       -4    1    3    3    0  502 -0.44872814723E+02 -0.20054631109E+02  0.25659522355E+03  0.26126323771E+03  0.12699999809E+01 0. -1.
</event>
<event>
 5   0  0.1553937E-04  0.1100414E+04  0.7818609E-02  0.9204789E-01
        2   -1    0    0  501    0  0.00000000000E+00  0.00000000000E+00  0.45141215302E+03  0.45141215302E+03  0.25500000920E-02 0.  1.
       -2   -1    0    0    0  501  0.00000000000E+00  0.00000000000E+00 -0.67062330144E+03  0.67062330145E+03  0.25500000920E-02 0. -1.
    10030    2    1    2    0    0  0.00000000000E+00  0.00000000000E+00 -0.21921114843E+03  0.11220354545E+04  0.11004135738E+04 0.  0.
        1    1    3    3  502    0 -0.39236374304E+03 -0.28645713722E+03 -0.37298407428E+03  0.61247376924E+03  0.50400001928E-02 0. -1.
       -1    1    3    3    0  502  0.39236374304E+03  0.28645713722E+03  0.15377292585E+03  0.50956168524E+03  0.50400001928E-02 0.  1.
</event>
<event>
 5   0  0.1574101E-04  0.1098533E+04  0.7818609E-02  0.9206622E-01
       -2   -1    0    0    0  501  0.00000000000E+00  0.00000000000E+00  0.14966084170E+04  0.14966084170E+04  0.25500000920E-02 0.  1.
        2   -1    0    0  501    0  0.00000000000E+00  0.00000000000E+00 -0.20158507146E+03  0.20158507148E+03  0.25500000920E-02 0. -1.
    10030    2    1    2    0    0  0.00000000000E+00  0.00000000000E+00  0.12950233455E+04  0.16981934885E+04  0.10985334127E+04 0.  0.
        4    1    3    3  502    0  0.44325768301E+03 -0.31456708960E+03  0.76984558991E+03  0.94238722010E+03  0.12699999809E+01 0.  1.
       -4    1    3    3    0  502 -0.44325768301E+03  0.31456708960E+03  0.52517775561E+03  0.75580626837E+03  0.12699999809E+01 0. -1.
</event>
<event>
 5   0  0.1464205E-04  0.1100008E+04  0.7818609E-02  0.9205185E-01
        2   -1    0    0  501    0  0.00000000000E+00  0.00000000000E+00  0.96130258136E+03  0.96130258137E+03  0.25500000920E-02 0.  1.
       -2   -1    0    0    0  501  0.00000000000E+00  0.00000000000E+00 -0.31468151244E+03  0.31468151245E+03  0.25500000920E-02 0. -1.
    10030    2    1    2    0    0  0.00000000000E+00  0.00000000000E+00  0.64662106892E+03  0.12759840938E+04  0.11000075458E+04 0.  0.
        3    1    3    3  502    0  0.18437049152E+03 -0.19160308210E+03 -0.23516768177E+03  0.35497615126E+03  0.10100000352E+00 0. -1.
       -3    1    3    3    0  502 -0.18437049152E+03  0.19160308210E+03  0.88178875069E+03  0.92100794256E+03  0.10100000352E+00 0.  1.
</event>
<event>
 5   0  0.8657442E-05  0.1099640E+04  0.7818609E-02  0.9205543E-01
       -1   -1    0    0    0  501  0.00000000000E+00  0.00000000000E+00  0.56509793577E+03  0.56509793580E+03  0.50400001928E-02 0.  1.
        1   -1    0    0  501    0  0.00000000000E+00  0.00000000000E+00 -0.53495475425E+03  0.53495475427E+03  0.50400001928E-02 0. -1.
    10030    2    1    2    0    0  0.00000000000E+00  0.00000000000E+00  0.30143181529E+02  0.11000526901E+04  0.10996396271E+04 0.  0.
        1    1    3    3  502    0  0.22503222144E+03  0.18101641885E+03 -0.45296672297E+03  0.53720135585E+03  0.50400001928E-02 0. -1.
       -1    1    3    3    0  502 -0.22503222144E+03 -0.18101641885E+03  0.48310990450E+03  0.56285133422E+03  0.50400001928E-02 0.  1.
</event>
<event>
 5   0  0.1540772E-04  0.1100605E+04  0.7818609E-02  0.9204603E-01
       -2   -1    0    0    0  501  0.00000000000E+00  0.00000000000E+00  0.34612928735E+03  0.34612928736E+03  0.25500000920E-02 0. -1.
        2   -1    0    0  501    0  0.00000000000E+00  0.00000000000E+00 -0.87491204491E+03  0.87491204491E+03  0.25500000920E-02 0.  1.
    10030    2    1    2    0    0  0.00000000000E+00  0.00000000000E+00 -0.52878275756E+03  0.12210413323E+04  0.11006047112E+04 0.  0.
        2    1    3    3  502    0  0.78475778442E+02  0.40991346923E+02 -0.86695866233E+03  0.87146776218E+03  0.25500000920E-02 0.  1.
       -2    1    3    3    0  502 -0.78475778442E+02 -0.40991346923E+02  0.33817590477E+03  0.34957357008E+03  0.25500000920E-02 0. -1.
</event>
<event>
 5   0  0.9016738E-05  0.1100159E+04  0.7818609E-02  0.9205037E-01
       -1   -1    0    0    0  501  0.00000000000E+00  0.00000000000E+00  0.62486810093E+03  0.62486810095E+03  0.50400001928E-02 0.  1.
        1   -1    0    0  501    0  0.00000000000E+00  0.00000000000E+00 -0.48424227814E+03  0.48424227816E+03  0.50400001928E-02 0. -1.
    10030    2    1    2    0    0  0.00000000000E+00  0.00000000000E+00  0.14062582280E+03  0.11091103791E+04  0.11001591753E+04 0.  0.
        4    1    3    3  502    0 -0.26730856996E+03 -0.40147246309E+03 -0.19632327796E+03  0.52074797413E+03  0.12699999809E+01 0. -1.
       -4    1    3    3    0  502  0.26730856996E+03  0.40147246309E+03  0.33694910076E+03  0.58836240498E+03  0.12699999809E+01 0.  1.
</event>
<event>
 5   0  0.8621738E-05  0.1102851E+04  0.7818609E-02  0.9202418E-01
       -1   -1    0    0    0  501  0.00000000000E+00  0.00000000000E+00  0.17260282515E+03  0.17260282523E+03  0.50400001928E-02 0.  1.
        1   -1    0    0  501    0  0.00000000000E+00  0.00000000000E+00 -0.17616740602E+04  0.17616740602E+04  0.50400001928E-02 0. -1.
    10030    2    1    2    0    0  0.00000000000E+00  0.00000000000E+00 -0.15890712350E+04  0.19342768854E+04  0.11028507059E+04 0.  0.
        2    1    3    3  502    0  0.36963202934E+03  0.33231474334E+03 -0.37576750395E+03  0.62310684701E+03  0.25500000920E-02 0. -1.
       -2    1    3    3    0  502 -0.36963202934E+03 -0.33231474334E+03 -0.12133037311E+04  0.13111700384E+04  0.25500000920E-02 0.  1.
</event>
<event>
 5   0  0.1503277E-04  0.1100345E+04  0.7818609E-02  0.9204856E-01
       -2   -1    0    0    0  501  0.00000000000E+00  0.00000000000E+00  0.29593656332E+03  0.29593656333E+03  0.25500000920E-02 0. -1.
        2   -1    0    0  501    0  0.00000000000E+00  0.00000000000E+00 -0.10228201294E+04  0.10228201294E+04  0.25500000920E-02 0.  1.
    10030    2    1    2    0    0  0.00000000000E+00  0.00000000000E+00 -0.72688356604E+03  0.13187566927E+04  0.11003451713E+04 0.  0.
        5    1    3    3  502    0  0.98709317021E+02 -0.49485050877E+03 -0.62614773128E+03  0.80417885242E+03  0.46999998093E+01 0.  1.
       -5    1    3    3    0  502 -0.98709317021E+02  0.49485050877E+03 -0.10073583476E+03  0.51457784028E+03  0.46999998093E+01 0. -1.
</event>
<event>
 5   0  0.8657442E-05  0.1100214E+04  0.7818609E-02  0.9204984E-01
        1   -1    0    0  501    0  0.00000000000E+00  0.00000000000E+00  0.63786887811E+03  0.63786887813E+03  0.50400001928E-02 0.  1.
       -1   -1    0    0    0  501  0.00000000000E+00  0.00000000000E+00 -0.47441952917E+03  0.47441952920E+03  0.50400001928E-02 0. -1.
    10030    2    1    2    0    0  0.00000000000E+00  0.00000000000E+00  0.16344934894E+03  0.11122884073E+04  0.11002135299E+04 0.  0.
        1    1    3    3  502    0 -0.18097189962E+03  0.43484065908E+03 -0.20561325656E+03  0.51392026476E+03  0.50400001928E-02 0. -1.
       -1    1    3    3    0  502  0.18097189962E+03 -0.43484065908E+03  0.36906260550E+03  0.59836814257E+03  0.50400001928E-02 0.  1.
</event>
<event>
 5   0  0.1574101E-04  0.1097471E+04  0.7818609E-02  0.9207660E-01
        2   -1    0    0  501    0  0.00000000000E+00  0.00000000000E+00  0.82545025261E+03  0.82545025261E+03  0.25500000920E-02 0. -1.
       -2   -1    0    0    0  501  0.00000000000E+00  0.00000000000E+00 -0.36478379182E+03  0.36478379183E+03  0.25500000920E-02 0.  1.
    10030    2    1    2    0    0  0.00000000000E+00  0.00000000000E+00  0.46066646079E+03  0.11902340444E+04  0.10974714085E+04 0.  0.
        4    1    3    3  502    0  0.33494831509E+03 -0.96891500883E+02 -0.22919139107E+03  0.41726327824E+03  0.12699999809E+01 0.  1.
       -4    1    3    3    0  502 -0.33494831509E+03  0.96891500883E+02  0.68985785186E+03  0.77297076620E+03  0.12699999809E+01 0. -1.
</event>
<event>
 5   0  0.9346836E-05  0.1098915E+04  0.7818609E-02  0.9206250E-01
        1   -1    0    0  501    0  0.00000000000E+00  0.00000000000E+00  0.59398112764E+03  0.59398112766E+03  0.50400001928E-02 0. -1.
       -1   -1    0    0    0  501  0.00000000000E+00  0.00000000000E+00 -0.50827087624E+03  0.50827087627E+03  0.50400001928E-02 0.  1.
    10030    2    1    2    0    0  0.00000000000E+00  0.00000000000E+00  0.85710251400E+02  0.11022520039E+04  0.10989145704E+04 0.  0.
        5    1    3    3  502    0  0.28548275899E+03 -0.31393078741E+03  0.39295423818E+03  0.57834943439E+03  0.46999998093E+01 0. -1.
       -5    1    3    3    0  502 -0.28548275899E+03  0.31393078741E+03 -0.30724398678E+03  0.52390256954E+03  0.46999998093E+01 0.  1.
</event>
<event>
 5   0  0.1464205E-04  0.1100330E+04  0.7818609E-02  0.9204870E-01
        2   -1    0    0  501    0  0.00000000000E+00  0.00000000000E+00  0.20945490060E+04  0.20945490060E+04  0.25500000920E-02 0.  1.
       -2   -1    0    0    0  501  0.00000000000E+00  0.00000000000E+00 -0.14450923114E+03  0.14450923117E+03  0.25500000920E-02 0. -1.
    10030    2    1    2    0    0  0.00000000000E+00  0.00000000000E+00  0.19500397749E+04  0.22390582372E+04  0.11003302531E+04 0.  0.
        3    1    3    3  502    0 -0.25901906053E+03  0.29627872301E+03  0.19268300562E+03  0.43817656976E+03  0.10100000352E+00 0. -1.
       -3    1    3    3    0  502  0.25901906053E+03 -0.29627872301E+03  0.17573567692E+04  0.18008816674E+04  0.10100000352E+00 0.  1.
</event>
<event>
 5   0  0.1464205E-04  0.1100117E+04  0.7818609E-02  0.9205078E-01
        2   -1    0    0  501    0  0.00000000000E+00  0.00000000000E+00  0.37853098215E+03  0.37853098216E+03  0.25500000920E-02 0. -1.
       -2   -1    0    0    0  501  0.00000000000E+00  0.00000000000E+00 -0.79931193912E+03  0.79931193912E+03  0.25500000920E-02 0.  1.
    10030    2    1    2    0    0  0.00000000000E+00  0.00000000000E+00 -0.42078095697E+03  0.11778429213E+04  0.11001169635E+04 0.  0.
        3    1    3    3  502    0  0.12647147433E+02  0.54748834543E+03 -0.15516219787E+03  0.56919131807E+03  0.10100000352E+00 0. -1.
       -3    1    3    3    0  502 -0.12647147433E+02 -0.54748834543E+03 -0.26561875910E+03  0.60865160322E+03  0.10100000352E+00 0.  1.
</event>
<event>
 5   0  0.8921459E-05  0.1100511E+04  0.7818609E-02  0.9204694E-01
        1   -1    0    0  501    0  0.00000000000E+00  0.00000000000E+00  0.45976846892E+03  0.45976846895E+03  0.50400001928E-02 0.  1.
       -1   -1    0    0    0  501  0.00000000000E+00  0.00000000000E+00 -0.65855182133E+03  0.65855182135E+03  0.50400001928E-02 0. -1.
    10030    2    1    2    0    0  0.00000000000E+00  0.00000000000E+00 -0.19878335241E+03  0.11183202903E+04  0.11005114495E+04 0.  0.
        3    1    3    3  502    0  0.86290247008E+02 -0.34154148301E+03  0.33015997942E+03  0.48280660057E+03  0.10100000352E+00 0.  1.
       -3    1    3    3    0  502 -0.86290247008E+02  0.34154148301E+03 -0.52894333183E+03  0.63551368973E+03  0.10100000352E+00 0. -1.
</event>
<event>
 5   0  0.1540772E-04  0.1100084E+04  0.7818609E-02  0.9205110E-01
        2   -1    0    0  501    0  0.00000000000E+00  0.00000000000E+00  0.81022188013E+03  0.81022188013E+03  0.25500000920E-02 0. -1.
       -2   -1    0    0    0  501  0.00000000000E+00  0.00000000000E+00 -0.37341163211E+03  0.37341163212E+03  0.25500000920E-02 0.  1.
    10030    2    1    2    0    0  0.00000000000E+00  0.00000000000E+00  0.43681024802E+03  0.11836335123E+04  0.11000841325E+04 0.  0.
        2    1    3    3  502    0 -0.42935444979E+03 -0.81962291620E+02 -0.14084430982E+03  0.45923869656E+03  0.25500000920E-02 0.  1.
       -2    1    3    3    0  502  0.42935444979E+03  0.81962291620E+02  0.57765455784E+03  0.72439481569E+03  0.25500000920E-02 0. -1.
</event>
<event>
 5   0  0.1574101E-04  0.1099612E+04  0.7818609E-02  0.9205571E-01
       -2   -1    0    0    0  501  0.00000000000E+00  0.00000000000E+00  0.26612659954E+03  0.26612659955E+03  0.25500000920E-02 0. -1.
        2   -1    0    0  501    0  0.00000000000E+00  0.00000000000E+00 -0.11358744963E+04  0.11358744963E+04  0.25500000920E-02 0.  1.
    10030    2    1    2    0    0  0.00000000000E+00  0.00000000000E+00 -0.86974789675E+03  0.14020010958E+04  0.10996115991E+04 0.  0.
        4    1    3    3  502    0  0.34206690070E+03  0.32265853097E+03 -0.71630756829E+02  0.47565835469E+03  0.12699999809E+01 0. -1.
       -4    1    3    3    0  502 -0.34206690070E+03 -0.32265853097E+03 -0.79811713992E+03  0.92634274116E+03  0.12699999809E+01 0.  1.
</event>
<event>
 5   0  0.1574101E-04  0.1100441E+04  0.7818609E-02  0.9204762E-01
        2   -1    0    0  501    0  0.00000000000E+00  0.00000000000E+00  0.56423636029E+03  0.56423636030E+03  0.25500000920E-02 0.  1.
       -2   -1    0    0    0  501  0.00000000000E+00  0.00000000000E+00 -0.53655278799E+03  0.53655278800E+03  0.25500000920E-02 0. -1.
    10030    2    1    2    0    0  0.00000000000E+00  0.00000000000E+00  0.27683572299E+02  0.11007891483E+04  0.11004409883E+04 0.  0.
        4    1    3    3  502    0 -0.30892417893E+03  0.28290743115E+03 -0.34302059795E+03  0.54141989846E+03  0.12699999809E+01 0. -1.
       -4    1    3    3    0  502  0.30892417893E+03 -0.28290743115E+03  0.37070417025E+03  0.55936924984E+03  0.12699999809E+01 0.  1.
</event>
<event>
 5   0  0.8621738E-05  0.1097833E+04  0.7818609E-02  0.9207307E-01
       -1   -1    0    0    0  501  0.00000000000E+00  0.00000000000E+00  0.33050418505E+03  0.33050418509E+03  0.50400001928E-02 0. -1.
        1   -1    0    0  501    0  0.00000000000E+00  0.00000000000E+00 -0.91166547898E+03  0.91166547900E+03  0.50400001928E-02 0.  1.
    10030    2    1    2    0    0  0.00000000000E+00  0.00000000000E+00 -0.58116129394E+03  0.12421696641E+04  0.10978328765E+04 0.  0.
        2    1    3    3  502    0 -0.52943799179E+03 -0.51720729833E+02 -0.44376753608E+03  0.69275482469E+03  0.25500000920E-02 0. -1.
       -2    1    3    3    0  502  0.52943799179E+03  0.51720729833E+02 -0.13739375785E+03  0.54941483939E+03  0.25500000920E-02 0.  1.
</event>
<event>
 5   0  0.8921459E-05  0.1100194E+04  0.7818609E-02  0.9205003E-01
        1   -1    0    0  501    0  0.00000000000E+00  0.00000000000E+00  0.11882723053E+04  0.11882723053E+04  0.50400001928E-02 0.  1.
       -1   -1    0    0    0  501  0.00000000000E+00  0.00000000000E+00 -0.25466094330E+03  0.25466094335E+03  0.50400001928E-02 0. -1.
    10030    2    1    2    0    0  0.00000000000E+00  0.00000000000E+00  0.93361136203E+03  0.14429332487E+04  0.11001937033E+04 0.  0.
        3    1    3    3  502    0  0.54808597740E+02  0.29984484030E+03  0.10673869329E+04  0.11100566586E+04  0.10100000352E+00 0.  1.
       -3    1    3    3    0  502 -0.54808597740E+02 -0.29984484030E+03 -0.13377557087E+03  0.33287659005E+03  0.10100000352E+00 0. -1.
</event>
<event>
 5   0  0.8657442E-05  0.1100322E+04  0.7818609E-02  0.9204878E-01
       -1   -1    0    0    0  501  0.00000000000E+00  0.00000000000E+00  0.80960007648E+03  0.80960007650E+03  0.50400001928E-02 0. -1.
        1   -1    0    0  501    0  0.00000000000E+00  0.00000000000E+00 -0.37386020728E+03  0.37386020731E+03  0.50400001928E-02 0.  1.
    10030    2    1    2    0    0  0.00000000000E+00  0.00000000000E+00  0.43573986920E+03  0.11834602838E+04  0.11003222300E+04 0.  0.
        1    1    3    3  502    0  0.12611043921E+03  0.29860059965E+03 -0.26025287083E+03  0.41568944873E+03  0.50400001928E-02 0.  1.
       -1    1    3    3    0  502 -0.12611043921E+03 -0.29860059965E+03  0.69599274003E+03  0.76777083507E+03  0.50400001928E-02 0. -1.
</event>
<event>
 5   0  0.8621738E-05  0.1100083E+04  0.7818609E-02  0.9205111E-01
       -1   -1    0    0    0  501  0.00000000000E+00  0.00000000000E+00  0.78682686005E+03  0.78682686007E+03  0.50400001928E-02 0. -1.
        1   -1    0    0  501    0  0.00000000000E+00  0.00000000000E+00 -0.38451353657E+03  0.38451353661E+03  0.50400001928E-02 0.  1.
    10030    2    1    2    0    0  0.00000000000E+00  0.00000000000E+00  0.40231332348E+03  0.11713403967E+04  0.11000828672E+04 0.  0.
        2    1    3    3  502    0  0.14112830784E+03  0.53161117879E+03  0.20566582341E+03  0.58721893329E+03  0.25500000920E-02 0. -1.
       -2    1    3    3    0  502 -0.14112830784E+03 -0.53161117879E+03  0.19664750006E+03  0.58412146338E+03  0.25500000920E-02 0.  1.
</event>
<event>
 5   0  0.8657442E-05  0.1099303E+04  0.7818609E-02  0.9205871E-01
        1   -1    0    0  501    0  0.00000000000E+00  0.00000000000E+00  0.10672165971E+04  0.10672165971E+04  0.50400001928E-02 0.  1.
       -1   -1    0    0    0  501  0.00000000000E+00  0.00000000000E+00 -0.28308862791E+03  0.28308862795E+03  0.50400001928E-02 0. -1.
    10030    2    1    2    0    0  0.00000000000E+00  0.00000000000E+00  0.78412796917E+03  0.13503052250E+04  0.10993032015E+04 0.  0.
        1    1    3    3  502    0 -0.38998389790E+03  0.30097877468E+03  0.69153742235E+03  0.84905810753E+03  0.50400001928E-02 0.  1.
       -1    1    3    3    0  502  0.38998389790E+03 -0.30097877468E+03  0.92590546820E+02  0.50124711751E+03  0.50400001928E-02 0. -1.
</event>
<event>
 5   0  0.1540772E-04  0.1102374E+04  0.7818609E-02  0.9202881E-01
       -2   -1    0    0    0  501  0.00000000000E+00  0.00000000000E+00  0.51708418706E+03  0.51708418707E+03  0.25500000920E-02 0. -1.
        2   -1    0    0  501    0  0.00000000000E+00  0.00000000000E+00 -0.58753865939E+03  0.58753865940E+03  0.25500000920E-02 0.  1.
    10030    2    1    2    0    0  0.00000000000E+00  0.00000000000E+00 -0.70454472333E+02  0.11046228465E+04  0.11023737117E+04 0.  0.
        2    1    3    3  502    0 -0.27930515203E+03 -0.31184210945E+02 -0.51034981044E+03  0.58261544091E+03  0.25500000920E-02 0.  1.
       -2    1    3    3    0  502  0.27930515203E+03  0.31184210945E+02  0.43989533811E+03  0.52200740556E+03  0.25500000920E-02 0. -1.
</event>
<event>
 5   0  0.9016738E-05  0.1099550E+04  0.7818609E-02  0.9205631E-01
       -1   -1    0    0    0  501  0.00000000000E+00  0.00000000000E+00  0.45049234068E+03  0.45049234071E+03  0.50400001928E-02 0. -1.
        1   -1    0    0  501    0  0.00000000000E+00  0.00000000000E+00 -0.67093808336E+03  0.67093808338E+03  0.50400001928E-02 0.  1.
    10030    2    1    2    0    0  0.00000000000E+00  0.00000000000E+00 -0.22044574267E+03  0.11214304241E+04  0.10995498491E+04 0.  0.
        4    1    3    3  502    0  0.31296157153E+03 -0.31919362483E+03 -0.43662473992E+03  0.62487782150E+03  0.12699999809E+01 0.  1.
       -4    1    3    3    0  502 -0.31296157153E+03  0.31919362483E+03  0.21617899725E+03  0.49655260259E+03  0.12699999809E+01 0. -1.
</event>
<event>
 5   0  0.1540772E-04  0.1099737E+04  0.7818609E-02  0.9205448E-01
       -2   -1    0    0    0  501  0.00000000000E+00  0.00000000000E+00  0.33551815696E+03  0.33551815697E+03  0.25500000920E-02 0. -1.
        2   -1    0    0  501    0  0.00000000000E+00  0.00000000000E+00 -0.90115917294E+03  0.90115917295E+03  0.25500000920E-02 0.  1.
    10030    2    1    2    0    0  0.00000000000E+00  0.00000000000E+00 -0.56564101598E+03  0.12366773299E+04  0.10997368137E+04 0.  0.
        2    1    3    3  502    0 -0.39782626249E+03  0.16127206816E+03 -0.66923852830E+03  0.79508151964E+03  0.25500000920E-02 0.  1.
       -2    1    3    3    0  502  0.39782626249E+03 -0.16127206816E+03  0.10359751233E+03  0.44159581028E+03  0.25500000920E-02 0. -1.
</event>
<event>
 5   0  0.9016738E-05  0.1099495E+04  0.7818609E-02  0.9205684E-01
        1   -1    0    0  501    0  0.00000000000E+00  0.00000000000E+00  0.21546034029E+03  0.21546034035E+03  0.50400001928E-02 0.  1.
       -1   -1    0    0    0  501  0.00000000000E+00  0.00000000000E+00 -0.14026817726E+04  0.14026817726E+04  0.50400001928E-02 0. -1.
    10030    2    1    2    0    0  0.00000000000E+00  0.00000000000E+00 -0.11872214323E+04  0.16181421130E+04  0.10994949606E+04 0.  0.
        4    1    3    3  502    0 -0.19544919928E+03  0.17321931405E+03 -0.13055543298E+04  0.13314199342E+04  0.12699999809E+01 0. -1.
       -4    1    3    3    0  502  0.19544919928E+03 -0.17321931405E+03  0.11833289748E+03  0.28672217875E+03  0.12699999809E+01 0.  1.
</event>
<event>
 5   0  0.8921459E-05  0.1100083E+04  0.7818609E-02  0.9205111E-01
        1   -1    0    0  501    0  0.00000000000E+00  0.00000000000E+00  0.25374836375E+04  0.25374836375E+04  0.50400001928E-02 0.  1.
       -1   -1    0    0    0  501  0.00000000000E+00  0.00000000000E+00 -0.11923057537E+03  0.11923057547E+03  0.50400001928E-02 0. -1.
    10030    2    1    2    0    0  0.00000000000E+00  0.00000000000E+00  0.24182530621E+04  0.26567142130E+04  0.11000829682E+04 0.  0.
        3    1    3    3  502    0 -0.43375777290E+03 -0.28321531736E+03  0.16556681865E+04  0.17348181103E+04  0.10100000352E+00 0.  1.
       -3    1    3    3    0  502  0.43375777290E+03  0.28321531736E+03  0.76258487560E+03  0.92189610273E+03  0.10100000352E+00 0. -1.
</event>
<event>
 5   0  0.1540772E-04  0.1099322E+04  0.7818609E-02  0.9205853E-01
       -2   -1    0    0    0  501  0.00000000000E+00  0.00000000000E+00  0.43981166053E+03  0.43981166053E+03  0.25500000920E-02 0. -1.
        2   -1    0    0  501    0  0.00000000000E+00  0.00000000000E+00 -0.68694733140E+03  0.68694733141E+03  0.25500000920E-02 0.  1.
    10030    2    1    2    0    0  0.00000000000E+00  0.00000000000E+00 -0.24713567088E+03  0.11267589919E+04  0.10993224214E+04 0.  0.
        2    1    3    3  502    0  0.36781413695E+03  0.39504027129E+03 -0.17133040447E+02  0.54003481033E+03  0.25500000920E-02 0. -1.
       -2    1    3    3    0  502 -0.36781413695E+03 -0.39504027129E+03 -0.23000263043E+03  0.58672418162E+03  0.25500000920E-02 0.  1.
</event>
<event>
 5   0  0.1553937E-04  0.1100011E+04  0.7818609E-02  0.9205181E-01
       -2   -1    0    0    0  501  0.00000000000E+00  0.00000000000E+00  0.23882760858E+03  0.23882760859E+03  0.25500000920E-02 0. -1.
        2   -1    0    0  501    0  0.00000000000E+00  0.00000000000E+00 -0.12666298120E+04  0.12666298120E+04  0.25500000920E-02 0.  1.
    10030    2    1    2    0    0  0.00000000000E+00  0.00000000000E+00 -0.10278022034E+04  0.15054574206E+04  0.11000112163E+04 0.  0.
        1    1    3    3  502    0 -0.30327661967E+03 -0.42817280239E+03 -0.73960338543E+03  0.90681962071E+03  0.50400001928E-02 0.  1.
       -1    1    3    3    0  502  0.30327661967E+03  0.42817280239E+03 -0.28819881800E+03  0.59863779990E+03  0.50400001928E-02 0. -1.
</event>
<event>
 5   0  0.1503277E-04  0.1103685E+04  0.7818609E-02  0.9201607E-01
        2   -1    0    0  501    0  0.00000000000E+00  0.00000000000E+00  0.39414459813E+03  0.39414459814E+03  0.25500000920E-02 0. -1.
       -2   -1    0    0    0  501  0.00000000000E+00  0.00000000000E+00 -0.77263603178E+03  0.77263603178E+03  0.25500000920E-02 0.  1.
    10030    2    1    2    0    0  0.00000000000E+00  0.00000000000E+00 -0.37849143365E+03  0.11667806299E+04  0.11036853143E+04 0.  0.
        5    1    3    3  502    0 -0.54683956835E+03 -0.23295291752E+02 -0.26348904351E+03  0.60747407366E+03  0.46999998093E+01 0.  1.
       -5    1    3    3    0  502  0.54683956835E+03  0.23295291752E+02 -0.11500239014E+03  0.55930655625E+03  0.46999998093E+01 0. -1.
</event>
<event>
 5   0  0.9016738E-05  0.1100089E+04  0.7818609E-02  0.9205105E-01
       -1   -1    0    0    0  501  0.00000000000E+00  0.00000000000E+00  0.21588137066E+03  0.21588137072E+03  0.50400001928E-02 0. -1.
        1   -1    0    0  501    0  0.00000000000E+00  0.00000000000E+00 -0.14014593835E+04  0.14014593835E+04  0.50400001928E-02 0.  1.
    10030    2    1    2    0    0  0.00000000000E+00  0.00000000000E+00 -0.11855780129E+04  0.16173407543E+04  0.11000890377E+04 0.  0.
        4    1    3    3  502    0 -0.35969124653E+03 -0.38244004240E+03 -0.35161864592E+03  0.63188247635E+03  0.12699999809E+01 0. -1.
       -4    1    3    3    0  502  0.35969124653E+03  0.38244004240E+03 -0.83395936696E+03  0.98545827791E+03  0.12699999809E+01 0.  1.
</event>
<event>
 5   0  0.8657442E-05  0.1100438E+04  0.7818609E-02  0.9204765E-01
       -1   -1    0    0    0  501  0.00000000000E+00  0.00000000000E+00  0.33682409197E+03  0.33682409201E+03  0.50400001928E-02 0. -1.
        1   -1    0    0  501    0  0.00000000000E+00  0.00000000000E+00 -0.89881069122E+03  0.89881069123E+03  0.50400001928E-02 0.  1.
    10030    2    1    2    0    0  0.00000000000E+00  0.00000000000E+00 -0.56198659925E+03  0.12356347832E+04  0.11004382672E+04 0.  0.
        1    1    3    3  502    0  0.30273562676E+03  0.45903211691E+03 -0.25905441942E+03  0.60783923558E+03  0.50400001928E-02 0. -1.
       -1    1    3    3    0  502 -0.30273562676E+03 -0.45903211691E+03 -0.30293217983E+03  0.62779554766E+03  0.50400001928E-02 0.  1.
</event>
<event>
 5   0  0.8921459E-05  0.1101387E+04  0.7818609E-02  0.9203841E-01
       -1   -1    0    0    0  501  0.00000000000E+00  0.00000000000E+00  0.17264894313E+03  0.17264894321E+03  0.50400001928E-02 0.  1.
        1   -1    0    0  501    0  0.00000000000E+00  0.00000000000E+00 -0.17565328001E+04  0.17565328001E+04  0.50400001928E-02 0. -1.
    10030    2    1    2    0    0  0.00000000000E+00  0.00000000000E+00 -0.15838838570E+04  0.19291817433E+04  0.11013873644E+04 0.  0.
        3    1    3    3  502    0  0.89427969082E+02  0.38371141846E+03 -0.14658651595E+04  0.15178908031E+04  0.10100000352E+00 0. -1.
       -3    1    3    3    0  502 -0.89427969082E+02 -0.38371141846E+03 -0.11801869750E+03  0.41129094018E+03  0.10100000352E+00 0.  1.
</event>
<event>
 5   0  0.1464205E-04  0.1099645E+04  0.7818609E-02  0.9205538E-01
       -2   -1    0    0    0  501  0.00000000000E+00  0.00000000000E+00  0.29642061099E+03  0.29642061101E+03  0.25500000920E-02 0. -1.
        2   -1    0    0  501    0  0.00000000000E+00  0.00000000000E+00 -0.10198508821E+04  0.10198508821E+04  0.25500000920E-02 0.  1.
    10030    2    1    2    0    0  0.00000000000E+00  0.00000000000E+00 -0.72343027106E+03  0.13162714931E+04  0.10996450729E+04 0.  0.
        3    1    3    3  502    0 -0.43137909268E+03  0.26769146599E+03 -0.61438684023E+03  0.79700554716E+03  0.10100000352E+00 0.  1.
       -3    1    3    3    0  502  0.43137909268E+03 -0.26769146599E+03 -0.10904343083E+03  0.51926594590E+03  0.10100000352E+00 0. -1.
</event>
<event>
 5   0  0.1540772E-04  0.1099985E+04  0.7818609E-02  0.9205207E-01
       -2   -1    0    0    0  501  0.00000000000E+00  0.00000000000E+00  0.10297608126E+03  0.10297608129E+03  0.25500000920E-02 0.  1.
        2   -1    0    0  501    0  0.00000000000E+00  0.00000000000E+00 -0.29374941891E+04  0.29374941891E+04  0.25500000920E-02 0. -1.
    10030    2    1    2    0    0  0.00000000000E+00  0.00000000000E+00 -0.28345181079E+04  0.30404702704E+04  0.10999848006E+04 0.  0.
        2    1    3    3  502    0 -0.47730006355E+03 -0.21617041908E+03 -0.18793408656E+04  0.19510169374E+04  0.25500000920E-02 0. -1.
       -2    1    3    3    0  502  0.47730006355E+03  0.21617041908E+03 -0.95517724224E+03  0.10894533330E+04  0.25500000920E-02 0.  1.
</event>
<event>
 5   0  0.6010125E-05  0.1099757E+04  0.7818609E-02  0.9205428E-01
       -4   -1    0    0    0  501  0.00000000000E+00  0.00000000000E+00  0.20416516021E+03  0.20416911016E+03  0.12699999809E+01 0. -1.
        4   -1    0    0  501    0  0.00000000000E+00  0.00000000000E+00 -0.14809712144E+04  0.14809717589E+04  0.12699999809E+01 0.  1.
    10030    2    1    2    0    0  0.00000000000E+00  0.00000000000E+00 -0.12768060541E+04  0.16851408691E+04  0.10997572681E+04 0.  0.
        4    1    3    3  502    0  0.11195995501E+03  0.32487347503E+03  0.19386311738E+02  0.34417328236E+03  0.12699999809E+01 0. -1.
       -4    1    3    3    0  502 -0.11195995501E+03 -0.32487347503E+03 -0.12961923659E+04  0.13409675867E+04  0.12699999809E+01 0.  1.
</event>
<event>
 5   0  0.8621738E-05  0.1100996E+04  0.7818609E-02  0.9204221E-01
        1   -1    0    0  501    0  0.00000000000E+00  0.00000000000E+00  0.69653356530E+03  0.69653356532E+03  0.50400001928E-02 0. -1.
       -1   -1    0    0    0  501  0.00000000000E+00  0.00000000000E+00 -0.43508047014E+03  0.43508047017E+03  0.50400001928E-02 0.  1.
    10030    2    1    2    0    0  0.00000000000E+00  0.00000000000E+00  0.26145309516E+03  0.11316140355E+04  0.11009961873E+04 0.  0.
        2    1    3    3  502    0  0.14603958789E+03  0.36331564212E+03  0.52842674335E+03  0.65769342412E+03  0.25500000920E-02 0. -1.
       -2    1    3    3    0  502 -0.14603958789E+03 -0.36331564212E+03 -0.26697364819E+03  0.47392061136E+03  0.25500000920E-02 0.  1.
</event>
<event>
 5   0  0.1553937E-04  0.1100051E+04  0.7818609E-02  0.9205142E-01
       -2   -1    0    0    0  501  0.00000000000E+00  0.00000000000E+00  0.14898031056E+03  0.14898031058E+03  0.25500000920E-02 0. -1.
        2   -1    0    0  501    0  0.00000000000E+00  0.00000000000E+00 -0.20306572951E+04  0.20306572951E+04  0.25500000920E-02 0.  1.
    10030    2    1    2    0    0  0.00000000000E+00  0.00000000000E+00 -0.18816769845E+04  0.21796376057E+04  0.11000508252E+04 0.  0.
        1    1    3    3  502    0  0.24023429873E+03  0.43488996844E+03 -0.14084068828E+04  0.14934697019E+04  0.50400001928E-02 0.  1.
       -1    1    3    3    0  502 -0.24023429873E+03 -0.43488996844E+03 -0.47327010172E+03  0.68616790376E+03  0.50400001928E-02 0. -1.
</event>
<event>
 5   0  0.8921459E-05  0.1099322E+04  0.7818609E-02  0.9205853E-01
       -1   -1    0    0    0  501  0.00000000000E+00  0.00000000000E+00  0.59255091522E+03  0.59255091524E+03  0.50400001928E-02 0. -1.
        1   -1    0    0  501    0  0.00000000000E+00  0.00000000000E+00 -0.50987555036E+03  0.50987555039E+03  0.50400001928E-02 0.  1.
    10030    2    1    2    0    0  0.00000000000E+00  0.00000000000E+00  0.82675364858E+02  0.11024264656E+04  0.10993220166E+04 0.  0.
        3    1    3    3  502    0  0.41872359224E+03  0.35235030346E+03 -0.10256911847E+02  0.54734394807E+03  0.10100000352E+00 0. -1.
       -3    1    3    3    0  502 -0.41872359224E+03 -0.35235030346E+03  0.92932276705E+02  0.55508251756E+03  0.10100000352E+00 0.  1.
</event>
<event>
 5   0  0.1553937E-04  0.1100480E+04  0.7818609E-02  0.9204724E-01
        2   -1    0    0  501    0  0.00000000000E+00  0.00000000000E+00  0.69714249436E+03  0.69714249436E+03  0.25500000920E-02 0.  1.
       -2   -1    0    0    0  501  0.00000000000E+00  0.00000000000E+00 -0.43429292980E+03  0.43429292980E+03  0.25500000920E-02 0. -1.
    10030    2    1    2    0    0  0.00000000000E+00  0.00000000000E+00  0.26284956456E+03  0.11314354242E+04  0.11004799978E+04 0.  0.
        1    1    3    3  502    0  0.12138752513E+03  0.21241054352E+03  0.63814835468E+03  0.68343726330E+03  0.50400001928E-02 0.  1.
       -1    1    3    3    0  502 -0.12138752513E+03 -0.21241054352E+03 -0.37529879012E+03  0.44799816087E+03  0.50400001928E-02 0. -1.
</event>
<event>
 5   0  0.6010125E-05  0.1100312E+04  0.7818609E-02  0.9204888E-01
       -4   -1    0    0    0  501  0.00000000000E+00  0.00000000000E+00  0.56868692095E+03  0.56868833903E+03  0.12699999809E+01 0. -1.
        4   -1    0    0  501    0  0.00000000000E+00  0.00000000000E+00 -0.53222637776E+03  0.53222789300E+03  0.12699999809E+01 0.  1.
    10030    2    1    2    0    0  0.00000000000E+00  0.00000000000E+00  0.36460543184E+02  0.11009162320E+04  0.11003123096E+04 0.  0.
        4    1    3    3  502    0  0.36875202575E+03  0.14782560585E+03  0.39901729073E+03  0.56306915867E+03  0.12699999809E+01 0. -1.
       -4    1    3    3    0  502 -0.36875202575E+03 -0.14782560585E+03 -0.36255674754E+03  0.53784707337E+03  0.12699999809E+01 0.  1.
</event>
<event>
 5   0  0.8621738E-05  0.1099854E+04  0.7818609E-02  0.9205334E-01
       -1   -1    0    0    0  501  0.00000000000E+00  0.00000000000E+00  0.31799375238E+03  0.31799375242E+03  0.50400001928E-02 0. -1.
        1   -1    0    0  501    0  0.00000000000E+00  0.00000000000E+00 -0.95102471660E+03  0.95102471661E+03  0.50400001928E-02 0.  1.
    10030    2    1    2    0    0  0.00000000000E+00  0.00000000000E+00 -0.63303096422E+03  0.12690184690E+04  0.10998543872E+04 0.  0.
        2    1    3    3  502    0  0.31596675056E+03  0.41069261368E+03 -0.52900539387E+03  0.74050666246E+03  0.25500000920E-02 0. -1.
       -2    1    3    3    0  502 -0.31596675056E+03 -0.41069261368E+03 -0.10402557035E+03  0.52851180658E+03  0.25500000920E-02 0.  1.
</event>
<event>
 5   0  0.1574101E-04  0.1100169E+04  0.7818609E-02  0.9205027E-01
        2   -1    0    0  501    0  0.00000000000E+00  0.00000000000E+00  0.24877031086E+04  0.24877031086E+04  0.25500000920E-02 0.  1.
       -2   -1    0    0    0  501  0.00000000000E+00  0.00000000000E+00 -0.12163556923E+03  0.12163556926E+03  0.25500000920E-02 0. -1.
    10030    2    1    2    0    0  0.00000000000E+00  0.00000000000E+00  0.23660675394E+04  0.26093386779E+04  0.11001694119E+04 0.  0.
        4    1    3    3  502    0 -0.38044394100E+03 -0.38937021264E+03  0.99560739184E+03  0.11347169014E+04  0.12699999809E+01 0. -1.
       -4    1    3    3    0  502  0.38044394100E+03  0.38937021264E+03  0.13704601476E+04  0.14746217765E+04  0.12699999809E+01 0.  1.
</event>
<event>
 5   0  0.1540772E-04  0.1099753E+04  0.7818609E-02  0.9205433E-01
       -2   -1    0    0    0  501  0.00000000000E+00  0.00000000000E+00  0.13262710491E+03  0.13262710493E+03  0.25500000920E-02 0. -1.
        2   -1    0    0  501    0  0.00000000000E+00  0.00000000000E+00 -0.22798071924E+04  0.22798071924E+04  0.25500000920E-02 0.  1.
    10030    2    1    2    0    0  0.00000000000E+00  0.00000000000E+00 -0.21471800875E+04  0.24124342973E+04  0.10997531136E+04 0.  0.
        2    1    3    3  502    0 -0.12712013138E+03 -0.38359837032E+03 -0.18915964530E+04  0.19342813597E+04  0.25500000920E-02 0.  1.
       -2    1    3    3    0  502  0.12712013138E+03  0.38359837032E+03 -0.25558363447E+03  0.47815293760E+03  0.25500000920E-02 0. -1.
</event>
<event>
 5   0  0.9346836E-05  0.1100289E+04  0.7818609E-02  0.9204910E-01
       -1   -1    0    0    0  501  0.00000000000E+00  0.00000000000E+00  0.64030287949E+03  0.64030287951E+03  0.50400001928E-02 0. -1.
        1   -1    0    0  501    0  0.00000000000E+00  0.00000000000E+00 -0.47268088693E+03  0.47268088696E+03  0.50400001928E-02 0.  1.
    10030    2    1    2    0    0  0.00000000000E+00  0.00000000000E+00  0.16762199256E+03  0.11129837665E+04  0.11002889312E+04 0.  0.
        5    1    3    3  502    0  0.27381695042E+03  0.37076957997E+03 -0.21997222397E+03  0.51074031864E+03  0.46999998093E+01 0.  1.
       -5    1    3    3    0  502 -0.27381695042E+03 -0.37076957997E+03  0.38759421654E+03  0.60224344783E+03  0.46999998093E+01 0. -1.
</event>
<event>
 5   0  0.1503277E-04  0.1101570E+04  0.7818609E-02  0.9203663E-01
       -2   -1    0    0    0  501  0.00000000000E+00  0.00000000000E+00  0.31534967308E+03  0.31534967309E+03  0.25500000920E-02 0.  1.
        2   -1    0    0  501    0  0.00000000000E+00  0.00000000000E+00 -0.96199321230E+03  0.96199321230E+03  0.25500000920E-02 0. -1.
    10030    2    1    2    0    0  0.00000000000E+00  0.00000000000E+00 -0.64664353922E+03  0.12773428854E+04  0.11015702338E+04 0.  0.
        5    1    3    3  502    0  0.36494604301E+01 -0.49653529936E+03 -0.59963320429E+03  0.77855166287E+03  0.46999998093E+01 0. -1.
       -5    1    3    3    0  502 -0.36494604301E+01  0.49653529936E+03 -0.47010334921E+02  0.49879122252E+03  0.46999998093E+01 0.  1.
</event>
<event>
 5   0  0.1540772E-04  0.1100004E+04  0.7818609E-02  0.9205188E-01
       -2   -1    0    0    0  501  0.00000000000E+00  0.00000000000E+00  0.94899453989E+03  0.94899453990E+03  0.25500000920E-02 0. -1.
        2   -1    0    0  501    0  0.00000000000E+00  0.00000000000E+00 -0.31876061433E+03  0.31876061434E+03  0.25500000920E-02 0.  1.
    10030    2    1    2    0    0  0.00000000000E+00  0.00000000000E+00  0.63023392556E+03  0.12677551542E+04  0.11000037864E+04 0.  0.
        2    1    3    3  502    0 -0.10877925931E+02 -0.54295763888E+03  0.41546235940E+03  0.68376187301E+03  0.25500000920E-02 0.  1.
       -2    1    3    3    0  502  0.10877925931E+02  0.54295763888E+03  0.21477156616E+03  0.58399328124E+03  0.25500000920E-02 0. -1.
</event>
<event>
 5   0  0.1503277E-04  0.1099882E+04  0.7818609E-02  0.9205307E-01
        2   -1    0    0  501    0  0.00000000000E+00  0.00000000000E+00  0.28553671285E+04  0.28553671285E+04  0.25500000920E-02 0. -1.
       -2   -1    0    0    0  501  0.00000000000E+00  0.00000000000E+00 -0.10591813676E+03  0.10591813679E+03  0.25500000920E-02 0.  1.
    10030    2    1    2    0    0  0.00000000000E+00  0.00000000000E+00  0.27494489917E+04  0.29612852653E+04  0.10998821138E+04 0.  0.
        5    1    3    3  502    0 -0.29291056257E+02 -0.42677153423E+03  0.23051353381E+04  0.23444963053E+04  0.46999998093E+01 0. -1.
       -5    1    3    3    0  502  0.29291056257E+02  0.42677153423E+03  0.44431365361E+03  0.61678896001E+03  0.46999998093E+01 0.  1.
</event>
<event>
 5   0  0.8921459E-05  0.1100014E+04  0.7818609E-02  0.9205178E-01
        1   -1    0    0  501    0  0.00000000000E+00  0.00000000000E+00  0.10240334387E+04  0.10240334387E+04  0.50400001928E-02 0. -1.
       -1   -1    0    0    0  501  0.00000000000E+00  0.00000000000E+00 -0.29540828378E+03  0.29540828382E+03  0.50400001928E-02 0.  1.
    10030    2    1    2    0    0  0.00000000000E+00  0.00000000000E+00  0.72862515493E+03  0.13194417225E+04  0.11000144739E+04 0.  0.
        3    1    3    3  502    0 -0.40298603594E+02  0.45805375056E+03  0.72628979161E+03  0.85961275436E+03  0.10100000352E+00 0. -1.
       -3    1    3    3    0  502  0.40298603594E+02 -0.45805375056E+03  0.23353633193E+01  0.45982896818E+03  0.10100000352E+00 0.  1.
</event>
<event>
 5   0  0.1553937E-04  0.1100241E+04  0.7818609E-02  0.9204957E-01
       -2   -1    0    0    0  501  0.00000000000E+00  0.00000000000E+00  0.38789729607E+03  0.38789729608E+03  0.25500000920E-02 0.  1.
        2   -1    0    0  501    0  0.00000000000E+00  0.00000000000E+00 -0.78018703181E+03  0.78018703181E+03  0.25500000920E-02 0. -1.
    10030    2    1    2    0    0  0.00000000000E+00  0.00000000000E+00 -0.39228973573E+03  0.11680843279E+04  0.11002407738E+04 0.  0.
        1    1    3    3  502    0 -0.23221250589E+03  0.27676119017E+03 -0.63659155130E+03  0.73196188937E+03  0.50400001928E-02 0. -1.
       -1    1    3    3    0  502  0.23221250589E+03 -0.27676119017E+03  0.24430181556E+03  0.43612243853E+03  0.50400001928E-02 0.  1.
</event>
<event>
 5   0  0.8921459E-05  0.1099767E+04  0.7818609E-02  0.9205419E-01
        1   -1    0    0  501    0  0.00000000000E+00  0.00000000000E+00  0.80474768949E+03  0.80474768950E+03  0.50400001928E-02 0. -1.
       -1   -1    0    0    0  501  0.00000000000E+00  0.00000000000E+00 -0.37573465296E+03  0.37573465299E+03  0.50400001928E-02 0.  1.
    10030    2    1    2    0    0  0.00000000000E+00  0.00000000000E+00  0.42901303653E+03  0.11804823425E+04  0.10997665095E+04 0.  0.
        3    1    3    3  502    0  0.88972721711E+01 -0.37486861988E+03  0.64622689562E+03  0.74713777474E+03  0.10100000352E+00 0. -1.
       -3    1    3    3    0  502 -0.88972721711E+01  0.37486861988E+03 -0.21721385909E+03  0.43334456776E+03  0.10100000352E+00 0.  1.
</event>
<event>
 5   0  0.1540772E-04  0.1099486E+04  0.7818609E-02  0.9205693E-01
       -2   -1    0    0    0  501  0.00000000000E+00  0.00000000000E+00  0.64175888368E+03  0.64175888368E+03  0.25500000920E-02 0.  1.
        2   -1    0    0  501    0  0.00000000000E+00  0.00000000000E+00 -0.47092050303E+03  0.47092050303E+03  0.25500000920E-02 0. -1.
    10030    2    1    2    0    0  0.00000000000E+00  0.00000000000E+00  0.17083838065E+03  0.11126793867E+04  0.10994860915E+04 0.  0.
        2    1    3    3  502    0  0.12432934228E+03  0.42781454912E+03  0.41136213287E+03  0.60638426608E+03  0.25500000920E-02 0.  1.
       -2    1    3    3    0  502 -0.12432934228E+03 -0.42781454912E+03 -0.24052375222E+03  0.50629512063E+03  0.25500000920E-02 0. -1.
</event>
<event>
 5   0  0.1464205E-04  0.1099826E+04  0.7818609E-02  0.9205362E-01
        2   -1    0    0  501    0  0.00000000000E+00  0.00000000000E+00  0.11858364580E+04  0.11858364580E+04  0.25500000920E-02 0.  1.
       -2   -1    0    0    0  501  0.00000000000E+00  0.00000000000E+00 -0.25501333497E+03  0.25501333498E+03  0.25500000920E-02 0. -1.
    10030    2    1    2    0    0  0.00000000000E+00  0.00000000000E+00  0.93082312306E+03  0.14408497930E+04  0.10998256405E+04 0.  0.
        3    1    3    3  502    0 -0.38182967227E+03  0.19111259396E+03  0.91939643078E+03  0.10137098842E+04  0.10100000352E+00 0.  1.
       -3    1    3    3    0  502  0.38182967227E+03 -0.19111259396E+03  0.11426692274E+02  0.42713990880E+03  0.10100000352E+00 0. -1.
</event>
<event>
 5   0  0.1553937E-04  0.1100678E+04  0.7818609E-02  0.9204531E-01
       -2   -1    0    0    0  501  0.00000000000E+00  0.00000000000E+00  0.40731552724E+03  0.40731552724E+03  0.25500000920E-02 0. -1.
        2   -1    0    0  501    0  0.00000000000E+00  0.00000000000E+00 -0.74358317654E+03  0.74358317654E+03  0.25500000920E-02 0.  1.
    10030    2    1    2    0    0  0.00000000000E+00  0.00000000000E+00 -0.33626764930E+03  0.11508987038E+04  0.11006779249E+04 0.  0.
        1    1    3    3  502    0 -0.52788551590E+03 -0.15497427396E+03 -0.15361390403E+03  0.57120694588E+03  0.50400001928E-02 0. -1.
       -1    1    3    3    0  502  0.52788551590E+03  0.15497427396E+03 -0.18265374527E+03  0.57969175790E+03  0.50400001928E-02 0.  1.
</event>
<event>
 5   0  0.1503277E-04  0.1101826E+04  0.7818609E-02  0.9203414E-01
        2   -1    0    0  501    0  0.00000000000E+00  0.00000000000E+00  0.84560764545E+03  0.84560764545E+03  0.25500000920E-02 0.  1.
       -2   -1    0    0    0  501  0.00000000000E+00  0.00000000000E+00 -0.35891927824E+03  0.35891927825E+03  0.25500000920E-02 0. -1.
    10030    2    1    2    0    0  0.00000000000E+00  0.00000000000E+00  0.48668836721E+03  0.12045269237E+04  0.11018255502E+04 0.  0.
        5    1    3    3  502    0  0.47777563708E+03 -0.27402650355E+03  0.25545425617E+03  0.60715652927E+03  0.46999998093E+01 0.  1.
       -5    1    3    3    0  502 -0.47777563708E+03  0.27402650355E+03  0.23123411103E+03  0.59737039443E+03  0.46999998093E+01 0. -1.
</event>
<event>
 5   0  0.9016738E-05  0.1097492E+04  0.7818609E-02  0.9207639E-01
       -1   -1    0    0    0  501  0.00000000000E+00  0.00000000000E+00  0.14061035854E+03  0.14061035863E+03  0.50400001928E-02 0. -1.
        1   -1    0    0  501    0  0.00000000000E+00  0.00000000000E+00 -0.21415378597E+04  0.21415378598E+04  0.50400001928E-02 0.  1.
    10030    2    1    2    0    0  0.00000000000E+00  0.00000000000E+00 -0.20009275012E+04  0.22821482184E+04  0.10974924262E+04 0.  0.
        4    1    3    3  502    0 -0.50070359138E+03 -0.74246485083E+02 -0.55982200895E+03  0.75473102598E+03  0.12699999809E+01 0. -1.
       -4    1    3    3    0  502  0.50070359138E+03  0.74246485083E+02 -0.14411054923E+04  0.15274171924E+04  0.12699999809E+01 0.  1.
</event>
<event>
 5   0  0.8921459E-05  0.1100727E+04  0.7818609E-02  0.9204484E-01
       -1   -1    0    0    0  501  0.00000000000E+00  0.00000000000E+00  0.39787495882E+03  0.39787495885E+03  0.50400001928E-02 0.  1.
        1   -1    0    0  501    0  0.00000000000E+00  0.00000000000E+00 -0.76129418181E+03  0.76129418183E+03  0.50400001928E-02 0. -1.
    10030    2    1    2    0    0  0.00000000000E+00  0.00000000000E+00 -0.36341922300E+03  0.11591691407E+04  0.11007268349E+04 0.  0.
        3    1    3    3  502    0 -0.38905266007E+03 -0.34293802697E+03  0.12275439694E+02  0.51876696046E+03  0.10100000352E+00 0.  1.
       -3    1    3    3    0  502  0.38905266007E+03  0.34293802697E+03 -0.37569466269E+03  0.64040218021E+03  0.10100000352E+00 0. -1.
</event>
<event>
 5   0  0.6010125E-05  0.1099999E+04  0.7818609E-02  0.9205193E-01
       -3   -1    0    0    0  501  0.00000000000E+00  0.00000000000E+00  0.56292371434E+03  0.56292372340E+03  0.10100000352E+00 0. -1.
        3   -1    0    0  501    0  0.00000000000E+00  0.00000000000E+00 -0.53737214752E+03  0.53737215701E+03  0.10100000352E+00 0.  1.
    10030    2    1    2    0    0  0.00000000000E+00  0.00000000000E+00  0.25551566821E+02  0.11002958804E+04  0.10999991554E+04 0.  0.
        4    1    3    3  502    0  0.24323218532E+03 -0.34449279438E+02  0.50499517656E+03  0.56157848079E+03  0.12699999809E+01 0. -1.
       -4    1    3    3    0  502 -0.24323218532E+03  0.34449279438E+02 -0.47944360974E+03  0.53871739962E+03  0.12699999809E+01 0.  1.
</event>
<event>
 5   0  0.1574101E-04  0.1098358E+04  0.7818609E-02  0.9206793E-01
       -2   -1    0    0    0  501  0.00000000000E+00  0.00000000000E+00  0.42525367856E+03  0.42525367857E+03  0.25500000920E-02 0. -1.
        2   -1    0    0  501    0  0.00000000000E+00  0.00000000000E+00 -0.70921854200E+03  0.70921854200E+03  0.25500000920E-02 0.  1.
    10030    2    1    2    0    0  0.00000000000E+00  0.00000000000E+00 -0.28396486344E+03  0.11344722206E+04  0.10983584003E+04 0.  0.
        4    1    3    3  502    0 -0.11635958064E+03 -0.17534483836E+02  0.41207761013E+03  0.42855172360E+03  0.12699999809E+01 0. -1.
       -4    1    3    3    0  502  0.11635958064E+03  0.17534483836E+02 -0.69604247357E+03  0.70592049697E+03  0.12699999809E+01 0.  1.
</event>
<event>
 5   0  0.9016738E-05  0.1098996E+04  0.7818609E-02  0.9206171E-01
        1   -1    0    0  501    0  0.00000000000E+00  0.00000000000E+00  0.11581973768E+04  0.11581973768E+04  0.50400001928E-02 0.  1.
       -1   -1    0    0    0  501  0.00000000000E+00  0.00000000000E+00 -0.26070505636E+03  0.26070505641E+03  0.50400001928E-02 0. -1.
    10030    2    1    2    0    0  0.00000000000E+00  0.00000000000E+00  0.89749232044E+03  0.14189024332E+04  0.10989957460E+04 0.  0.
        4    1    3    3  502    0  0.38268461884E+03 -0.38759859169E+03  0.35505434771E+03  0.65018873299E+03  0.12699999809E+01 0.  1.
       -4    1    3    3    0  502 -0.38268461884E+03  0.38759859169E+03  0.54243797273E+03  0.76871370024E+03  0.12699999809E+01 0. -1.
</event>
<event>
 5   0  0.6010125E-05  0.1100090E+04  0.7818609E-02  0.9205105E-01
        3   -1    0    0  501    0  0.00000000000E+00  0.00000000000E+00  0.24002218271E+03  0.24002220396E+03  0.10100000352E+00 0.  1.
       -3   -1    0    0    0  501  0.00000000000E+00  0.00000000000E+00 -0.12605054776E+04  0.12605054817E+04  0.10100000352E+00 0. -1.
    10030    2    1    2    0    0  0.00000000000E+00  0.00000000000E+00 -0.10204832949E+04  0.15005276856E+04  0.11000896237E+04 0.  0.
        1    1    3    3  502    0  0.41092460524E+03  0.23091883351E+03 -0.89692383260E+03  0.10132398040E+04  0.50400001928E-02 0. -1.
       -1    1    3    3    0  502 -0.41092460524E+03 -0.23091883351E+03 -0.12355946233E+03  0.48728788166E+03  0.50400001928E-02 0.  1.
</event>
<event>
 5   0  0.8657442E-05  0.1103031E+04  0.7818609E-02  0.9202243E-01
       -1   -1    0    0    0  501  0.00000000000E+00  0.00000000000E+00  0.42573922448E+03  0.42573922451E+03  0.50400001928E-02 0. -1.
        1   -1    0    0  501    0  0.00000000000E+00  0.00000000000E+00 -0.71444928717E+03  0.71444928719E+03  0.50400001928E-02 0.  1.
    10030    2    1    2    0    0  0.00000000000E+00  0.00000000000E+00 -0.28871006269E+03  0.11401885117E+04  0.11030305263E+04 0.  0.
        1    1    3    3  502    0 -0.34718799934E+03 -0.29494931378E+03 -0.46568792735E+03  0.65145978409E+03  0.50400001928E-02 0.  1.
       -1    1    3    3    0  502  0.34718799934E+03  0.29494931378E+03  0.17697786466E+03  0.48872872761E+03  0.50400001928E-02 0. -1.
</event>
<event>
 5   0  0.1553937E-04  0.1103163E+04  0.7818609E-02  0.9202115E-01
        2   -1    0    0  501    0  0.00000000000E+00  0.00000000000E+00  0.16820998101E+04  0.16820998101E+04  0.25500000920E-02 0. -1.
       -2   -1    0    0    0  501  0.00000000000E+00  0.00000000000E+00 -0.18087034558E+03  0.18087034559E+03  0.25500000920E-02 0.  1.
    10030    2    1    2    0    0  0.00000000000E+00  0.00000000000E+00  0.15012294645E+04  0.18629701557E+04  0.11031626788E+04 0.  0.
        1    1    3    3  502    0 -0.67608178829E+02 -0.12949566605E+02  0.16748174208E+04  0.16762314727E+04  0.50400001928E-02 0. -1.
       -1    1    3    3    0  502  0.67608178829E+02  0.12949566605E+02 -0.17358795629E+03  0.18673868296E+03  0.50400001928E-02 0.  1.
</event>
<event>
 5   0  0.9346836E-05  0.1097879E+04  0.7818609E-02  0.9207262E-01
        1   -1    0    0  501    0  0.00000000000E+00  0.00000000000E+00  0.74224688064E+03  0.74224688066E+03  0.50400001928E-02 0. -1.
       -1   -1    0    0    0  501  0.00000000000E+00  0.00000000000E+00 -0.40597617232E+03  0.40597617235E+03  0.50400001928E-02 0.  1.
    10030    2    1    2    0    0  0.00000000000E+00  0.00000000000E+00  0.33627070832E+03  0.11482230530E+04  0.10978789506E+04 0.  0.
        5    1    3    3  502    0  0.37182294981E+03 -0.40324799756E+03  0.19035096586E+03  0.58061763127E+03  0.46999998093E+01 0. -1.
       -5    1    3    3    0  502 -0.37182294981E+03  0.40324799756E+03  0.14591974246E+03  0.56760542173E+03  0.46999998093E+01 0.  1.
</event>
<event>
 5   0  0.1574101E-04  0.1100129E+04  0.7818609E-02  0.9205066E-01
        2   -1    0    0  501    0  0.00000000000E+00  0.00000000000E+00  0.15419204549E+04  0.15419204549E+04  0.25500000920E-02 0. -1.
       -2   -1    0    0    0  501  0.00000000000E+00  0.00000000000E+00 -0.19623004949E+03  0.19623004951E+03  0.25500000920E-02 0.  1.
    10030    2    1    2    0    0  0.00000000000E+00  0.00000000000E+00  0.13456904054E+04  0.17381505044E+04  0.11001293146E+04 0.  0.
        4    1    3    3  502    0  0.39493818749E+03 -0.29359568440E+03  0.28456626393E+03  0.56846650675E+03  0.12699999809E+01 0.  1.
       -4    1    3    3    0  502 -0.39493818749E+03  0.29359568440E+03  0.10611241414E+04  0.11696839976E+04  0.12699999809E+01 0. -1.
</event>
<event>
 5   0  0.1553937E-04  0.1098978E+04  0.7818609E-02  0.9206189E-01
       -2   -1    0    0    0  501  0.00000000000E+00  0.00000000000E+00  0.22316120911E+03  0.22316120912E+03  0.25500000920E-02 0. -1.
        2   -1    0    0  501    0  0.00000000000E+00  0.00000000000E+00 -0.13530035656E+04  0.13530035656E+04  0.25500000920E-02 0.  1.
    10030    2    1    2    0    0  0.00000000000E+00  0.00000000000E+00 -0.11298423565E+04  0.15761647747E+04  0.10989775460E+04 0.  0.
        1    1    3    3  502    0 -0.84659384408E+02  0.18520961493E+02 -0.13431406847E+04  0.13459335556E+04  0.50400001928E-02 0.  1.
       -1    1    3    3    0  502  0.84659384408E+02 -0.18520961493E+02  0.21329832820E+03  0.23023121905E+03  0.50400001928E-02 0. -1.
</event>
<event>
 5   0  0.1464205E-04  0.1096365E+04  0.7818609E-02  0.9208742E-01
        2   -1    0    0  501    0  0.00000000000E+00  0.00000000000E+00  0.13695498513E+04  0.13695498513E+04  0.25500000920E-02 0.  1.
       -2   -1    0    0    0  501  0.00000000000E+00  0.00000000000E+00 -0.21941821441E+03  0.21941821442E+03  0.25500000920E-02 0. -1.
    10030    2    1    2    0    0  0.00000000000E+00  0.00000000000E+00  0.11501316369E+04  0.15889680658E+04  0.10963652365E+04 0.  0.
        3    1    3    3  502    0  0.51537998714E+03 -0.82854184770E+02  0.81767982789E+03  0.97009363374E+03  0.10100000352E+00 0.  1.
       -3    1    3    3    0  502 -0.51537998714E+03  0.82854184770E+02  0.33245180903E+03  0.61887443202E+03  0.10100000352E+00 0. -1.
</event>
<event>
 5   0  0.1540772E-04  0.1099263E+04  0.7818609E-02  0.9205911E-01
       -2   -1    0    0    0  501  0.00000000000E+00  0.00000000000E+00  0.71264838678E+03  0.71264838679E+03  0.25500000920E-02 0. -1.
        2   -1    0    0  501    0  0.00000000000E+00  0.00000000000E+00 -0.42390430050E+03  0.42390430051E+03  0.25500000920E-02 0.  1.
    10030    2    1    2    0    0  0.00000000000E+00  0.00000000000E+00  0.28874408628E+03  0.11365526873E+04  0.10992628729E+04 0.  0.
        2    1    3    3  502    0 -0.61406841426E+02  0.51328603016E+03  0.33741778180E+03  0.61732010206E+03  0.25500000920E-02 0. -1.
       -2    1    3    3    0  502  0.61406841426E+02 -0.51328603016E+03 -0.48673695526E+02  0.51923258523E+03  0.25500000920E-02 0.  1.
</event>
<event>
 5   0  0.1553937E-04  0.1099948E+04  0.7818609E-02  0.9205243E-01
        2   -1    0    0  501    0  0.00000000000E+00  0.00000000000E+00  0.33458161041E+03  0.33458161042E+03  0.25500000920E-02 0.  1.
       -2   -1    0    0    0  501  0.00000000000E+00  0.00000000000E+00 -0.90402809789E+03  0.90402809789E+03  0.25500000920E-02 0. -1.
    10030    2    1    2    0    0  0.00000000000E+00  0.00000000000E+00 -0.56944648748E+03  0.12386097083E+04  0.10999475930E+04 0.  0.
        1    1    3    3  502    0 -0.26287909839E+03 -0.36857467606E+03  0.66922943979E+02  0.45763674750E+03  0.50400001928E-02 0.  1.
       -1    1    3    3    0  502  0.26287909839E+03  0.36857467606E+03 -0.63636943146E+03  0.78097296082E+03  0.50400001928E-02 0. -1.
</event>
<event>
 5   0  0.1464205E-04  0.1100475E+04  0.7818609E-02  0.9204729E-01
       -2   -1    0    0    0  501  0.00000000000E+00  0.00000000000E+00  0.65961162089E+03  0.65961162089E+03  0.25500000920E-02 0. -1.
        2   -1    0    0  501    0  0.00000000000E+00  0.00000000000E+00 -0.45899946031E+03  0.45899946032E+03  0.25500000920E-02 0.  1.
    10030    2    1    2    0    0  0.00000000000E+00  0.00000000000E+00  0.20061216058E+03  0.11186110812E+04  0.11004751301E+04 0.  0.
        3    1    3    3  502    0 -0.20143115702E+03 -0.87925620259E+02 -0.41244334641E+03  0.46734885248E+03  0.10100000352E+00 0.  1.
       -3    1    3    3    0  502  0.20143115702E+03  0.87925620259E+02  0.61305550699E+03  0.65126222873E+03  0.10100000352E+00 0. -1.
</event>
<event>
 5   0  0.1540772E-04  0.1100038E+04  0.7818609E-02  0.9205155E-01
       -2   -1    0    0    0  501  0.00000000000E+00  0.00000000000E+00  0.36578497191E+03  0.36578497192E+03  0.25500000920E-02 0. -1.
        2   -1    0    0  501    0  0.00000000000E+00  0.00000000000E+00 -0.82704599488E+03  0.82704599489E+03  0.25500000920E-02 0.  1.
    10030    2    1    2    0    0  0.00000000000E+00  0.00000000000E+00 -0.46126102297E+03  0.11928309668E+04  0.11000381739E+04 0.  0.
        2    1    3    3  502    0  0.21507235426E+03 -0.30566432807E+03  0.20693587974E+03  0.42721102204E+03  0.25500000920E-02 0. -1.
       -2    1    3    3    0  502 -0.21507235426E+03  0.30566432807E+03 -0.66819690271E+03  0.76561994476E+03  0.25500000920E-02 0.  1.
</event>
<event>
 5   0  0.8921459E-05  0.1100682E+04  0.7818609E-02  0.9204527E-01
        1   -1    0    0  501    0  0.00000000000E+00  0.00000000000E+00  0.41527937941E+03  0.41527937944E+03  0.50400001928E-02 0. -1.
       -1   -1    0    0    0  501  0.00000000000E+00  0.00000000000E+00 -0.72932889341E+03  0.72932889342E+03  0.50400001928E-02 0.  1.
    10030    2    1    2    0    0  0.00000000000E+00  0.00000000000E+00 -0.31404951399E+03  0.11446082729E+04  0.11006820618E+04 0.  0.
        3    1    3    3  502    0  0.33375162358E+03 -0.15914234859E+03 -0.58091817601E+03  0.68860901154E+03  0.10100000352E+00 0.  1.
       -3    1    3    3    0  502 -0.33375162358E+03  0.15914234859E+03  0.26686866202E+03  0.45599926132E+03  0.10100000352E+00 0. -1.
</event>
<event>
 5   0  0.8657442E-05  0.1101137E+04  0.7818609E-02  0.9204085E-01
       -1   -1    0    0    0  501  0.00000000000E+00  0.00000000000E+00  0.17148051832E+04  0.17148051832E+04  0.50400001928E-02 0. -1.
        1   -1    0    0  501    0  0.00000000000E+00  0.00000000000E+00 -0.17676962783E+03  0.17676962790E+03  0.50400001928E-02 0.  1.
    10030    2    1    2    0    0  0.00000000000E+00  0.00000000000E+00  0.15380355554E+04  0.18915748111E+04  0.11011366384E+04 0.  0.
        1    1    3    3  502    0 -0.50595557895E+02 -0.30012370866E+03  0.15571505883E+04  0.15866165591E+04  0.50400001928E-02 0. -1.
       -1    1    3    3    0  502  0.50595557895E+02  0.30012370866E+03 -0.19115032897E+02  0.30495825204E+03  0.50400001928E-02 0.  1.
</event>
<event>
 5   0  0.1540772E-04  0.1100299E+04  0.7818609E-02  0.9204901E-01
       -2   -1    0    0    0  501  0.00000000000E+00  0.00000000000E+00  0.54752758360E+03  0.54752758361E+03  0.25500000920E-02 0.  1.
        2   -1    0    0  501    0  0.00000000000E+00  0.00000000000E+00 -0.55278381589E+03  0.55278381590E+03  0.25500000920E-02 0. -1.
    10030    2    1    2    0    0  0.00000000000E+00  0.00000000000E+00 -0.52562322879E+01  0.11003113995E+04  0.11002988448E+04 0.  0.
        2    1    3    3  502    0  0.28297373486E+01  0.22654914964E+03 -0.50396392965E+03  0.55255060131E+03  0.25500000920E-02 0. -1.
       -2    1    3    3    0  502 -0.28297373486E+01 -0.22654914964E+03  0.49870769736E+03  0.54776079819E+03  0.25500000920E-02 0.  1.
</event>
<event>
 5   0  0.1503277E-04  0.1100591E+04  0.7818609E-02  0.9204616E-01
       -2   -1    0    0    0  501  0.00000000000E+00  0.00000000000E+00  0.69904986996E+03  0.69904986997E+03  0.25500000920E-02 0.  1.
        2   -1    0    0  501    0  0.00000000000E+00  0.00000000000E+00 -0.43319560779E+03  0.43319560780E+03  0.25500000920E-02 0. -1.
    10030    2    1    2    0    0  0.00000000000E+00  0.00000000000E+00  0.26585426217E+03  0.11322454778E+04  0.11005913561E+04 0.  0.
        5    1    3    3  502    0  0.40635998863E+03 -0.37031317233E+03  0.15689874932E+03  0.57175133887E+03  0.46999998093E+01 0. -1.
       -5    1    3    3    0  502 -0.40635998863E+03  0.37031317233E+03  0.10895551285E+03  0.56049413890E+03  0.46999998093E+01 0.  1.
</event>
<event>
 5   0  0.1503277E-04  0.1099430E+04  0.7818609E-02  0.9205747E-01
        2   -1    0    0  501    0  0.00000000000E+00  0.00000000000E+00  0.59088506854E+03  0.59088506855E+03  0.25500000920E-02 0. -1.
       -2   -1    0    0    0  501  0.00000000000E+00  0.00000000000E+00 -0.51141379030E+03  0.51141379031E+03  0.25500000920E-02 0.  1.
    10030    2    1    2    0    0  0.00000000000E+00  0.00000000000E+00  0.79471278240E+02  0.11022988589E+04  0.10994303480E+04 0.  0.
        5    1    3    3  502    0  0.13102381455E+03  0.52661254006E+03  0.12758087642E+03  0.55748271485E+03  0.46999998093E+01 0. -1.
       -5    1    3    3    0  502 -0.13102381455E+03 -0.52661254006E+03 -0.48109598183E+02  0.54481614400E+03  0.46999998093E+01 0.  1.
</event>
<event>
 5   0  0.9016738E-05  0.1099760E+04  0.7818609E-02  0.9205426E-01
        1   -1    0    0  501    0  0.00000000000E+00  0.00000000000E+00  0.33672325190E+03  0.33672325194E+03  0.50400001928E-02 0.  1.
       -1   -1    0    0    0  501  0.00000000000E+00  0.00000000000E+00 -0.89797211872E+03  0.89797211874E+03  0.50400001928E-02 0. -1.
    10030    2    1    2    0    0  0.00000000000E+00  0.00000000000E+00 -0.56124886682E+03  0.12346953707E+04  0.10997601411E+04 0.  0.
        4    1    3    3  502    0  0.11141779517E+03 -0.11739781278E+03 -0.87062215734E+03  0.88553979316E+03  0.12699999809E+01 0. -1.
       -4    1    3    3    0  502 -0.11141779517E+03  0.11739781278E+03  0.30937329051E+03  0.34915557751E+03  0.12699999809E+01 0.  1.
</event>
<event>
 5   0  0.9346836E-05  0.1100936E+04  0.7818609E-02  0.9204280E-01
        1   -1    0    0  501    0  0.00000000000E+00  0.00000000000E+00  0.13960196634E+04  0.13960196634E+04  0.50400001928E-02 0. -1.
       -1   -1    0    0    0  501  0.00000000000E+00  0.00000000000E+00 -0.21705627826E+03  0.21705627832E+03  0.50400001928E-02 0.  1.
    10030    2    1    2    0    0  0.00000000000E+00  0.00000000000E+00  0.11789633851E+04  0.16130759417E+04  0.11009356613E+04 0.  0.
        5    1    3    3  502    0 -0.53019231132E+03 -0.88312761710E+02  0.41556393468E+03  0.67942512808E+03  0.46999998093E+01 0. -1.
       -5    1    3    3    0  502  0.53019231132E+03  0.88312761710E+02  0.76339945042E+03  0.93365081361E+03  0.46999998093E+01 0.  1.
</event>
<event>
 5   0  0.1553937E-04  0.1099592E+04  0.7818609E-02  0.9205590E-01
        2   -1    0    0  501    0  0.00000000000E+00  0.00000000000E+00  0.17097736908E+04  0.17097736909E+04  0.25500000920E-02 0.  1.
       -2   -1    0    0    0  501  0.00000000000E+00  0.00000000000E+00 -0.17679275471E+03  0.17679275473E+03  0.25500000920E-02 0. -1.
    10030    2    1    2    0    0  0.00000000000E+00  0.00000000000E+00  0.15329809361E+04  0.18865664456E+04  0.10995919257E+04 0.  0.
        1    1    3    3  502    0 -0.24909814011E+03  0.24629512167E+03  0.39463166823E+02  0.35251739238E+03  0.50400001928E-02 0. -1.
       -1    1    3    3    0  502  0.24909814011E+03 -0.24629512167E+03  0.14935177693E+04  0.15340490532E+04  0.50400001928E-02 0.  1.
</event>
<event>
 5   0  0.1574101E-04  0.1100885E+04  0.7818609E-02  0.9204330E-01
        2   -1    0    0  501    0  0.00000000000E+00  0.00000000000E+00  0.12788361824E+04  0.12788361824E+04  0.25500000920E-02 0. -1.
       -2   -1    0    0    0  501  0.00000000000E+00  0.00000000000E+00 -0.23692395909E+03  0.23692395911E+03  0.25500000920E-02 0.  1.
    10030    2    1    2    0    0  0.00000000000E+00  0.00000000000E+00  0.10419122233E+04  0.15157601415E+04  0.11008849738E+04 0.  0.
        4    1    3    3  502    0  0.42837551308E+03 -0.32688071416E+03  0.67568396414E+03  0.86423782247E+03  0.12699999809E+01 0. -1.
       -4    1    3    3    0  502 -0.42837551308E+03  0.32688071416E+03  0.36622825919E+03  0.65152231905E+03  0.12699999809E+01 0.  1.
</event>
<event>
 5   0  0.1540772E-04  0.1100190E+04  0.7818609E-02  0.9205007E-01
       -2   -1    0    0    0  501  0.00000000000E+00  0.00000000000E+00  0.31477968243E+03  0.31477968244E+03  0.25500000920E-02 0. -1.
        2   -1    0    0  501    0  0.00000000000E+00  0.00000000000E+00 -0.96132174063E+03  0.96132174063E+03  0.25500000920E-02 0.  1.
    10030    2    1    2    0    0  0.00000000000E+00  0.00000000000E+00 -0.64654205819E+03  0.12761014231E+04  0.11001900786E+04 0.  0.
        2    1    3    3  502    0 -0.22401801774E+03  0.36786597061E+03 -0.72017627941E+03  0.83914439641E+03  0.25500000920E-02 0.  1.
       -2    1    3    3    0  502  0.22401801774E+03 -0.36786597061E+03  0.73634221214E+02  0.43695702666E+03  0.25500000920E-02 0. -1.
</event>
<event>
 5   0  0.1540772E-04  0.1099884E+04  0.7818609E-02  0.9205305E-01
       -2   -1    0    0    0  501  0.00000000000E+00  0.00000000000E+00  0.63017228475E+03  0.63017228476E+03  0.25500000920E-02 0. -1.
        2   -1    0    0  501    0  0.00000000000E+00  0.00000000000E+00 -0.47992649680E+03  0.47992649681E+03  0.25500000920E-02 0.  1.
    10030    2    1    2    0    0  0.00000000000E+00  0.00000000000E+00  0.15024578795E+03  0.11100987816E+04  0.10998843157E+04 0.  0.
        2    1    3    3  502    0 -0.14468480287E+03 -0.31627274288E+03  0.50507700551E+03  0.61324132410E+03  0.25500000920E-02 0. -1.
       -2    1    3    3    0  502  0.14468480287E+03  0.31627274288E+03 -0.35483121756E+03  0.49685745746E+03  0.25500000920E-02 0.  1.
</event>
<event>
 5   0  0.6010125E-05  0.1100402E+04  0.7818609E-02  0.9204800E-01
        4   -1    0    0  501    0  0.00000000000E+00  0.00000000000E+00  0.59887019100E+03  0.59887153762E+03  0.12699999809E+01 0.  1.
       -4   -1    0    0    0  501  0.00000000000E+00  0.00000000000E+00 -0.50548432273E+03  0.50548591813E+03  0.12699999809E+01 0. -1.
    10030    2    1    2    0    0  0.00000000000E+00  0.00000000000E+00  0.93385868272E+02  0.11043574557E+04  0.11004019582E+04 0.  0.
        2    1    3    3  502    0  0.28155368731E+03 -0.17937076845E+03  0.48561473522E+03  0.58929451252E+03  0.25500000920E-02 0.  1.
       -2    1    3    3    0  502 -0.28155368731E+03  0.17937076845E+03 -0.39222886695E+03  0.51506294323E+03  0.25500000920E-02 0. -1.
</event>
<event>
 5   0  0.8657442E-05  0.1101337E+04  0.7818609E-02  0.9203890E-01
        1   -1    0    0  501    0  0.00000000000E+00  0.00000000000E+00  0.53271327095E+03  0.53271327097E+03  0.50400001928E-02 0.  1.
       -1   -1    0    0    0  501  0.00000000000E+00  0.00000000000E+00 -0.56922849506E+03  0.56922849509E+03  0.50400001928E-02 0. -1.
    10030    2    1    2    0    0  0.00000000000E+00  0.00000000000E+00 -0.36515224114E+02  0.11019417661E+04  0.11013365944E+04 0.  0.
        1    1    3    3  502    0  0.82565908786E+02  0.51469386087E+03 -0.19586197750E+03  0.55685618787E+03  0.50400001928E-02 0.  1.
       -1    1    3    3    0  502 -0.82565908786E+02 -0.51469386087E+03  0.15934675339E+03  0.54508557819E+03  0.50400001928E-02 0. -1.
</event>
<event>
 5   0  0.1503277E-04  0.1099729E+04  0.7818609E-02  0.9205456E-01
        2   -1    0    0  501    0  0.00000000000E+00  0.00000000000E+00  0.24172715753E+04  0.24172715753E+04  0.25500000920E-02 0. -1.
       -2   -1    0    0    0  501  0.00000000000E+00  0.00000000000E+00 -0.12507948891E+03  0.12507948893E+03  0.25500000920E-02 0.  1.
    10030    2    1    2    0    0  0.00000000000E+00  0.00000000000E+00  0.22921920864E+04  0.25423510642E+04  0.10997292271E+04 0.  0.
        5    1    3    3  502    0 -0.20904276029E+03  0.25110931625E+03  0.12373197454E+03  0.34940872322E+03  0.46999998093E+01 0.  1.
       -5    1    3    3    0  502  0.20904276029E+03 -0.25110931625E+03  0.21684601119E+04  0.21929423410E+04  0.46999998093E+01 0. -1.
</event>
<event>
 5   0  0.1553937E-04  0.1100851E+04  0.7818609E-02  0.9204363E-01
       -2   -1    0    0    0  501  0.00000000000E+00  0.00000000000E+00  0.28740657611E+03  0.28740657612E+03  0.25500000920E-02 0.  1.
        2   -1    0    0  501    0  0.00000000000E+00  0.00000000000E+00 -0.10541441655E+04  0.10541441655E+04  0.25500000920E-02 0. -1.
    10030    2    1    2    0    0  0.00000000000E+00  0.00000000000E+00 -0.76673758936E+03  0.13415507416E+04  0.11008505172E+04 0.  0.
        1    1    3    3  502    0  0.18571601216E+03  0.10948781757E+03  0.23381416374E+03  0.31803629126E+03  0.50400001928E-02 0.  1.
       -1    1    3    3    0  502 -0.18571601216E+03 -0.10948781757E+03 -0.10005517531E+04  0.10235144503E+04  0.50400001928E-02 0. -1.
</event>
<event>
 5   0  0.9016738E-05  0.1100775E+04  0.7818609E-02  0.9204436E-01
        1   -1    0    0  501    0  0.00000000000E+00  0.00000000000E+00  0.13567115951E+04  0.13567115951E+04  0.50400001928E-02 0. -1.
       -1   -1    0    0    0  501  0.00000000000E+00  0.00000000000E+00 -0.22328001978E+03  0.22328001984E+03  0.50400001928E-02 0.  1.
    10030    2    1    2    0    0  0.00000000000E+00  0.00000000000E+00  0.11334315753E+04  0.15799916149E+04  0.11007753483E+04 0.  0.
        4    1    3    3  502    0  0.35391569569E+03  0.38942204625E+03  0.33518834978E+03  0.62390599651E+03  0.12699999809E+01 0.  1.
       -4    1    3    3    0  502 -0.35391569569E+03 -0.38942204625E+03  0.79824322554E+03  0.95608561843E+03  0.12699999809E+01 0. -1.
</event>
<event>
 5   0  0.8921459E-05  0.1097828E+04  0.7818609E-02  0.9207311E-01
        1   -1    0    0  501    0  0.00000000000E+00  0.00000000000E+00  0.37765934195E+03  0.37765934198E+03  0.50400001928E-02 0.  1.
       -1   -1    0    0    0  501  0.00000000000E+00  0.00000000000E+00 -0.79782678956E+03  0.79782678957E+03  0.50400001928E-02 0. -1.
    10030    2    1    2    0    0  0.00000000000E+00  0.00000000000E+00 -0.42016744761E+03  0.11754861316E+04  0.10978282932E+04 0.  0.
        3    1    3    3  502    0 -0.31513783403E+03 -0.44109161230E+02 -0.68899114003E+03  0.75892441902E+03  0.10100000352E+00 0.  1.
       -3    1    3    3    0  502  0.31513783403E+03  0.44109161230E+02  0.26882369243E+03  0.41656171253E+03  0.10100000352E+00 0. -1.
</event>
<event>
 5   0  0.1503277E-04  0.1100401E+04  0.7818609E-02  0.9204801E-01
       -2   -1    0    0    0  501  0.00000000000E+00  0.00000000000E+00  0.25212072087E+03  0.25212072088E+03  0.25500000920E-02 0.  1.
        2   -1    0    0  501    0  0.00000000000E+00  0.00000000000E+00 -0.12006966469E+04  0.12006966469E+04  0.25500000920E-02 0. -1.
    10030    2    1    2    0    0  0.00000000000E+00  0.00000000000E+00 -0.94857592602E+03  0.14528173678E+04  0.11004008436E+04 0.  0.
        5    1    3    3  502    0  0.33650794129E+03 -0.22236307655E+03  0.19736139578E+02  0.40384964723E+03  0.46999998093E+01 0.  1.
       -5    1    3    3    0  502 -0.33650794129E+03  0.22236307655E+03 -0.96831206560E+03  0.10489677205E+04  0.46999998093E+01 0. -1.
</event>
<event>
 5   0  0.1503277E-04  0.1099684E+04  0.7818609E-02  0.9205500E-01
        2   -1    0    0  501    0  0.00000000000E+00  0.00000000000E+00  0.10604798468E+04  0.10604798468E+04  0.25500000920E-02 0. -1.
       -2   -1    0    0    0  501  0.00000000000E+00  0.00000000000E+00 -0.28508410994E+03  0.28508410995E+03  0.25500000920E-02 0.  1.
    10030    2    1    2    0    0  0.00000000000E+00  0.00000000000E+00  0.77539573688E+03  0.13455639568E+04  0.10996835058E+04 0.  0.
        5    1    3    3  502    0  0.54962304084E+03 -0.14511437920E+02  0.39111394733E+03  0.67475053068E+03  0.46999998093E+01 0. -1.
       -5    1    3    3    0  502 -0.54962304084E+03  0.14511437920E+02  0.38428178955E+03  0.67081342610E+03  0.46999998093E+01 0.  1.
</event>
<event>
 5   0  0.1540772E-04  0.1097199E+04  0.7818609E-02  0.9207926E-01
        2   -1    0    0  501    0  0.00000000000E+00  0.00000000000E+00  0.11876420717E+04  0.11876420717E+04  0.25500000920E-02 0.  1.
       -2   -1    0    0    0  501  0.00000000000E+00  0.00000000000E+00 -0.25341087418E+03  0.25341087420E+03  0.25500000920E-02 0. -1.
    10030    2    1    2    0    0  0.00000000000E+00  0.00000000000E+00  0.93423119752E+03  0.14410529459E+04  0.10971990077E+04 0.  0.
        2    1    3    3  502    0  0.50944552982E+03  0.12000276286E+03  0.25119928601E+03  0.58054844092E+03  0.25500000920E-02 0. -1.
       -2    1    3    3    0  502 -0.50944552982E+03 -0.12000276286E+03  0.68303191151E+03  0.86050450498E+03  0.25500000920E-02 0.  1.
</event>
<event>
 5   0  0.1574101E-04  0.1100217E+04  0.7818609E-02  0.9204980E-01
       -2   -1    0    0    0  501  0.00000000000E+00  0.00000000000E+00  0.30012512343E+03  0.30012512344E+03  0.25500000920E-02 0.  1.
        2   -1    0    0  501    0  0.00000000000E+00  0.00000000000E+00 -0.10083112532E+04  0.10083112532E+04  0.25500000920E-02 0. -1.
    10030    2    1    2    0    0  0.00000000000E+00  0.00000000000E+00 -0.70818612974E+03  0.13084363766E+04  0.11002173228E+04 0.  0.
        4    1    3    3  502    0  0.48637004625E+03 -0.10118407050E+03 -0.63507873569E+03  0.80630059620E+03  0.12699999809E+01 0. -1.
       -4    1    3    3    0  502 -0.48637004625E+03  0.10118407050E+03 -0.73107394053E+02  0.50213578042E+03  0.12699999809E+01 0.  1.
</event>
<event>
 5   0  0.8657442E-05  0.1100175E+04  0.7818609E-02  0.9205022E-01
        1   -1    0    0  501    0  0.00000000000E+00  0.00000000000E+00  0.35887193592E+03  0.35887193596E+03  0.50400001928E-02 0.  1.
       -1   -1    0    0    0  501  0.00000000000E+00  0.00000000000E+00 -0.84318689058E+03  0.84318689059E+03  0.50400001928E-02 0. -1.
    10030    2    1    2    0    0  0.00000000000E+00  0.00000000000E+00 -0.48431495466E+03  0.12020588266E+04  0.11001747348E+04 0.  0.
        1    1    3    3  502    0 -0.16971158978E+03 -0.52235051206E+03 -0.27572792206E+03  0.61455509776E+03  0.50400001928E-02 0. -1.
       -1    1    3    3    0  502  0.16971158978E+03  0.52235051206E+03 -0.20858703260E+03  0.58750372879E+03  0.50400001928E-02 0.  1.
</event>
<event>
 5   0  0.8657442E-05  0.1098264E+04  0.7818609E-02  0.9206885E-01
       -1   -1    0    0    0  501  0.00000000000E+00  0.00000000000E+00  0.92475614388E+03  0.92475614390E+03  0.50400001928E-02 0. -1.
        1   -1    0    0  501    0  0.00000000000E+00  0.00000000000E+00 -0.32608184553E+03  0.32608184557E+03  0.50400001928E-02 0.  1.
    10030    2    1    2    0    0  0.00000000000E+00  0.00000000000E+00  0.59867429835E+03  0.12508379895E+04  0.10982644310E+04 0.  0.
        1    1    3    3  502    0 -0.31390940031E+03 -0.14732710171E+03  0.78428518707E+03  0.85752413446E+03  0.50400001928E-02 0. -1.
       -1    1    3    3    0  502  0.31390940031E+03  0.14732710171E+03 -0.18561088872E+03  0.39331385501E+03  0.50400001928E-02 0.  1.
</event>
<event>
 5   0  0.8921459E-05  0.1100288E+04  0.7818609E-02  0.9204911E-01
        1   -1    0    0  501    0  0.00000000000E+00  0.00000000000E+00  0.79303038169E+03  0.79303038171E+03  0.50400001928E-02 0.  1.
       -1   -1    0    0    0  501  0.00000000000E+00  0.00000000000E+00 -0.38164824062E+03  0.38164824066E+03  0.50400001928E-02 0. -1.
    10030    2    1    2    0    0  0.00000000000E+00  0.00000000000E+00  0.41138214107E+03  0.11746786224E+04  0.11002884167E+04 0.  0.
        3    1    3    3  502    0 -0.10921672424E+03 -0.42339059031E+03 -0.15075431395E+03  0.46250919795E+03  0.10100000352E+00 0. -1.
       -3    1    3    3    0  502  0.10921672424E+03  0.42339059031E+03  0.56213645502E+03  0.71216942442E+03  0.10100000352E+00 0.  1.
</event>
<event>
 5   0  0.1553937E-04  0.1100032E+04  0.7818609E-02  0.9205161E-01
       -2   -1    0    0    0  501  0.00000000000E+00  0.00000000000E+00  0.13013335368E+04  0.13013335368E+04  0.25500000920E-02 0. -1.
        2   -1    0    0  501    0  0.00000000000E+00  0.00000000000E+00 -0.23246741622E+03  0.23246741624E+03  0.25500000920E-02 0.  1.
    10030    2    1    2    0    0  0.00000000000E+00  0.00000000000E+00  0.10688661206E+04  0.15338009531E+04  0.11000320813E+04 0.  0.
        1    1    3    3  502    0  0.34009986712E+03  0.36878130653E+03  0.84885253931E+03  0.98601126017E+03  0.50400001928E-02 0. -1.
       -1    1    3    3    0  502 -0.34009986712E+03 -0.36878130653E+03  0.22001358129E+03  0.54778969289E+03  0.50400001928E-02 0.  1.
</event>
<event>
 5   0  0.9346836E-05  0.1101670E+04  0.7818609E-02  0.9203566E-01
        1   -1    0    0  501    0  0.00000000000E+00  0.00000000000E+00  0.32536859064E+03  0.32536859068E+03  0.50400001928E-02 0.  1.
       -1   -1    0    0    0  501  0.00000000000E+00  0.00000000000E+00 -0.93253956767E+03  0.93253956769E+03  0.50400001928E-02 0. -1.
    10030    2    1    2    0    0  0.00000000000E+00  0.00000000000E+00 -0.60717097703E+03  0.12579081584E+04  0.11016697961E+04 0.  0.
        5    1    3    3  502    0 -0.29616482521E+03  0.11957012251E+03 -0.81598951704E+03  0.87628283094E+03  0.46999998093E+01 0. -1.
       -5    1    3    3    0  502  0.29616482521E+03 -0.11957012251E+03  0.20881854001E+03  0.38162532743E+03  0.46999998093E+01 0.  1.
</event>
<event>
 5   0  0.1574101E-04  0.1100371E+04  0.7818609E-02  0.9204831E-01
        2   -1    0    0  501    0  0.00000000000E+00  0.00000000000E+00  0.99145384414E+03  0.99145384414E+03  0.25500000920E-02 0.  1.
       -2   -1    0    0    0  501  0.00000000000E+00  0.00000000000E+00 -0.30531323536E+03  0.30531323537E+03  0.25500000920E-02 0. -1.
    10030    2    1    2    0    0  0.00000000000E+00  0.00000000000E+00  0.68614060877E+03  0.12967670795E+04  0.11003708118E+04 0.  0.
        4    1    3    3  502    0 -0.35308449618E+03  0.30817893993E+03  0.34313979682E+01  0.46867505572E+03  0.12699999809E+01 0. -1.
       -4    1    3    3    0  502  0.35308449618E+03 -0.30817893993E+03  0.68270921080E+03  0.82809202380E+03  0.12699999809E+01 0.  1.
</event>
<event>
 5   0  0.9016738E-05  0.1098722E+04  0.7818609E-02  0.9206439E-01
       -1   -1    0    0    0  501  0.00000000000E+00  0.00000000000E+00  0.17009490694E+03  0.17009490702E+03  0.50400001928E-02 0.  1.
        1   -1    0    0  501    0  0.00000000000E+00  0.00000000000E+00 -0.17742883542E+04  0.17742883542E+04  0.50400001928E-02 0. -1.
    10030    2    1    2    0    0  0.00000000000E+00  0.00000000000E+00 -0.16041934472E+04  0.19443832612E+04  0.10987218257E+04 0.  0.
        4    1    3    3  502    0 -0.14564644521E+02 -0.20151808089E+03  0.10195411717E+03  0.22631376604E+03  0.12699999809E+01 0.  1.
       -4    1    3    3    0  502  0.14564644521E+02  0.20151808089E+03 -0.17061475644E+04  0.17180694952E+04  0.12699999809E+01 0. -1.
</event>
<event>
 5   0  0.9346836E-05  0.1099719E+04  0.7818609E-02  0.9205466E-01
        1   -1    0    0  501    0  0.00000000000E+00  0.00000000000E+00  0.58174496548E+03  0.58174496550E+03  0.50400001928E-02 0.  1.
       -1   -1    0    0    0  501  0.00000000000E+00  0.00000000000E+00 -0.51972168449E+03  0.51972168452E+03  0.50400001928E-02 0. -1.
    10030    2    1    2    0    0  0.00000000000E+00  0.00000000000E+00  0.62023280990E+02  0.11014666500E+04  0.10997190067E+04 0.  0.
        5    1    3    3  502    0 -0.42192256017E+03 -0.30756429544E+03 -0.14162509117E+03  0.54101219862E+03  0.46999998093E+01 0. -1.
       -5    1    3    3    0  502  0.42192256017E+03  0.30756429544E+03  0.20364837216E+03  0.56045445140E+03  0.46999998093E+01 0.  1.
</event>
<event>
 5   0  0.1553937E-04  0.1100242E+04  0.7818609E-02  0.9204956E-01
        2   -1    0    0  501    0  0.00000000000E+00  0.00000000000E+00  0.18616432544E+03  0.18616432545E+03  0.25500000920E-02 0. -1.
       -2   -1    0    0    0  501  0.00000000000E+00  0.00000000000E+00 -0.16256222627E+04  0.16256222627E+04  0.25500000920E-02 0.  1.
    10030    2    1    2    0    0  0.00000000000E+00  0.00000000000E+00 -0.14394579372E+04  0.18117865881E+04  0.11002415589E+04 0.  0.
        1    1    3    3  502    0 -0.17706428273E+03  0.96814304577E+02 -0.15624686854E+04  0.15754469724E+04  0.50400001928E-02 0.  1.
       -1    1    3    3    0  502  0.17706428273E+03 -0.96814304577E+02  0.12301074818E+03  0.23633961577E+03  0.50400001928E-02 0. -1.
</event>
<event>
 5   0  0.8921459E-05  0.1100589E+04  0.7818609E-02  0.9204618E-01
        1   -1    0    0  501    0  0.00000000000E+00  0.00000000000E+00  0.11579273466E+04  0.11579273466E+04  0.50400001928E-02 0. -1.
       -1   -1    0    0    0  501  0.00000000000E+00  0.00000000000E+00 -0.26152229452E+03  0.26152229457E+03  0.50400001928E-02 0.  1.
    10030    2    1    2    0    0  0.00000000000E+00  0.00000000000E+00  0.89640505207E+03  0.14194496412E+04  0.11005886000E+04 0.  0.
        3    1    3    3  502    0 -0.48002299555E+03 -0.25633198724E+03  0.34266884005E+03  0.64307861734E+03  0.10100000352E+00 0.  1.
       -3    1    3    3    0  502  0.48002299555E+03  0.25633198724E+03  0.55373621202E+03  0.77637102383E+03  0.10100000352E+00 0. -1.
</event>
<event>
 5   0  0.1540772E-04  0.1100705E+04  0.7818609E-02  0.9204505E-01
        2   -1    0    0  501    0  0.00000000000E+00  0.00000000000E+00  0.77655100995E+03  0.77655100995E+03  0.25500000920E-02 0. -1.
       -2   -1    0    0    0  501  0.00000000000E+00  0.00000000000E+00 -0.39004231378E+03  0.39004231379E+03  0.25500000920E-02 0.  1.
    10030    2    1    2    0    0  0.00000000000E+00  0.00000000000E+00  0.38650869617E+03  0.11665933237E+04  0.11007047791E+04 0.  0.
        2    1    3    3  502    0 -0.13709423419E+03  0.41518839147E+03 -0.16098567001E+03  0.46593198582E+03  0.25500000920E-02 0.  1.
       -2    1    3    3    0  502  0.13709423419E+03 -0.41518839147E+03  0.54749436617E+03  0.70066133792E+03  0.25500000920E-02 0. -1.
</event>
<event>
 5   0  0.1540772E-04  0.1099677E+04  0.7818609E-02  0.9205507E-01
        2   -1    0    0  501    0  0.00000000000E+00  0.00000000000E+00  0.88270766783E+03  0.88270766784E+03  0.25500000920E-02 0. -1.
       -2   -1    0    0    0  501  0.00000000000E+00  0.00000000000E+00 -0.34249426518E+03  0.34249426519E+03  0.25500000920E-02 0.  1.
    10030    2    1    2    0    0  0.00000000000E+00  0.00000000000E+00  0.54021340265E+03  0.12252019330E+04  0.10996768872E+04 0.  0.
        2    1    3    3  502    0  0.37764781123E+03 -0.34921901810E+02  0.71365051747E+03  0.80816735250E+03  0.25500000920E-02 0. -1.
       -2    1    3    3    0  502 -0.37764781123E+03  0.34921901810E+02 -0.17343711482E+03  0.41703458053E+03  0.25500000920E-02 0.  1.
</event>
<event>
 5   0  0.1574101E-04  0.1100862E+04  0.7818609E-02  0.9204353E-01
       -2   -1    0    0    0  501  0.00000000000E+00  0.00000000000E+00  0.65445246630E+03  0.65445246630E+03  0.25500000920E-02 0.  1.
        2   -1    0    0  501    0  0.00000000000E+00  0.00000000000E+00 -0.46294278944E+03  0.46294278945E+03  0.25500000920E-02 0. -1.
    10030    2    1    2    0    0  0.00000000000E+00  0.00000000000E+00  0.19150967686E+03  0.11173952558E+04  0.11008615722E+04 0.  0.
        4    1    3    3  502    0  0.43989154888E+02  0.12220046803E+03 -0.44716587080E+03  0.46564678571E+03  0.12699999809E+01 0. -1.
       -4    1    3    3    0  502 -0.43989154888E+02 -0.12220046803E+03  0.63867554765E+03  0.65174847004E+03  0.12699999809E+01 0.  1.
</event>
<event>
 5   0  0.1464205E-04  0.1100257E+04  0.7818609E-02  0.9204942E-01
        2   -1    0    0  501    0  0.00000000000E+00  0.00000000000E+00  0.10194456539E+04  0.10194456539E+04  0.25500000920E-02 0.  1.
       -2   -1    0    0    0  501  0.00000000000E+00  0.00000000000E+00 -0.29686842156E+03  0.29686842157E+03  0.25500000920E-02 0. -1.
    10030    2    1    2    0    0  0.00000000000E+00  0.00000000000E+00  0.72257723230E+03  0.13163140754E+04  0.11002567375E+04 0.  0.
        3    1    3    3  502    0  0.24924123496E+03 -0.40410184321E+03  0.69374541680E+03  0.84065581924E+03  0.10100000352E+00 0.  1.
       -3    1    3    3    0  502 -0.24924123496E+03  0.40410184321E+03  0.28831815491E+02  0.47565825618E+03  0.10100000352E+00 0. -1.
</event>
<event>
 5   0  0.1553937E-04  0.1100019E+04  0.7818609E-02  0.9205174E-01
        2   -1    0    0  501    0  0.00000000000E+00  0.00000000000E+00  0.10944176817E+04  0.10944176817E+04  0.25500000920E-02 0.  1.
       -2   -1    0    0    0  501  0.00000000000E+00  0.00000000000E+00 -0.27641205601E+03  0.27641205602E+03  0.25500000920E-02 0. -1.
    10030    2    1    2    0    0  0.00000000000E+00  0.00000000000E+00  0.81800562565E+03  0.13708297377E+04  0.11000186208E+04 0.  0.
        1    1    3    3  502    0  0.85079231562E+02  0.59103501226E+02  0.10821501857E+04  0.10870973847E+04  0.50400001928E-02 0.  1.
       -1    1    3    3    0  502 -0.85079231562E+02 -0.59103501226E+02 -0.26414456002E+03  0.28373235296E+03  0.50400001928E-02 0. -1.
</event>
<event>
 5   0  0.1503277E-04  0.1099795E+04  0.7818609E-02  0.9205391E-01
        2   -1    0    0  501    0  0.00000000000E+00  0.00000000000E+00  0.66530790835E+03  0.66530790836E+03  0.25500000920E-02 0. -1.
       -2   -1    0    0    0  501  0.00000000000E+00  0.00000000000E+00 -0.45450758482E+03  0.45450758483E+03  0.25500000920E-02 0.  1.
    10030    2    1    2    0    0  0.00000000000E+00  0.00000000000E+00  0.21080032353E+03  0.11198154932E+04  0.10997954184E+04 0.  0.
        5    1    3    3  502    0  0.51613096874E+03  0.18919814155E+03  0.91804688649E+02  0.55734845879E+03  0.46999998093E+01 0. -1.
       -5    1    3    3    0  502 -0.51613096874E+03 -0.18919814155E+03  0.11899563488E+03  0.56246703439E+03  0.46999998093E+01 0.  1.
</event>
<event>
 5   0  0.9016738E-05  0.1100078E+04  0.7818609E-02  0.9205116E-01
        1   -1    0    0  501    0  0.00000000000E+00  0.00000000000E+00  0.39763917099E+03  0.39763917102E+03  0.50400001928E-02 0. -1.
       -1   -1    0    0    0  501  0.00000000000E+00  0.00000000000E+00 -0.76084719589E+03  0.76084719590E+03  0.50400001928E-02 0.  1.
    10030    2    1    2    0    0  0.00000000000E+00  0.00000000000E+00 -0.36320802489E+03  0.11584863669E+04  0.11000775395E+04 0.  0.
        4    1    3    3  502    0  0.50526035883E+03 -0.21737661072E+03 -0.18228181625E+03  0.57945568815E+03  0.12699999809E+01 0.  1.
       -4    1    3    3    0  502 -0.50526035883E+03  0.21737661072E+03 -0.18092620864E+03  0.57903067878E+03  0.12699999809E+01 0. -1.
</event>
<event>
 5   0  0.8921459E-05  0.1100371E+04  0.7818609E-02  0.9204830E-01
        1   -1    0    0  501    0  0.00000000000E+00  0.00000000000E+00  0.94677892714E+03  0.94677892715E+03  0.50400001928E-02 0. -1.
       -1   -1    0    0    0  501  0.00000000000E+00  0.00000000000E+00 -0.31972010762E+03  0.31972010765E+03  0.50400001928E-02 0.  1.
    10030    2    1    2    0    0  0.00000000000E+00  0.00000000000E+00  0.62705881952E+03  0.12664990348E+04  0.11003713201E+04 0.  0.
        3    1    3    3  502    0  0.36633432625E+03 -0.39856600183E+03  0.42658621638E+03  0.68922529452E+03  0.10100000352E+00 0. -1.
       -3    1    3    3    0  502 -0.36633432625E+03  0.39856600183E+03  0.20047260314E+03  0.57727374028E+03  0.10100000352E+00 0.  1.
</event>
<event>
 5   0  0.1574101E-04  0.1100023E+04  0.7818609E-02  0.9205169E-01
       -2   -1    0    0    0  501  0.00000000000E+00  0.00000000000E+00  0.74695477781E+03  0.74695477782E+03  0.25500000920E-02 0.  1.
        2   -1    0    0  501    0  0.00000000000E+00  0.00000000000E+00 -0.40499484114E+03  0.40499484115E+03  0.25500000920E-02 0. -1.
    10030    2    1    2    0    0  0.00000000000E+00  0.00000000000E+00  0.34195993667E+03  0.11519496190E+04  0.11000233299E+04 0.  0.
        4    1    3    3  502    0  0.42129847025E+03 -0.31654646812E+03  0.60089890058E+01  0.52700264550E+03  0.12699999809E+01 0. -1.
       -4    1    3    3    0  502 -0.42129847025E+03  0.31654646812E+03  0.33595094766E+03  0.62494697347E+03  0.12699999809E+01 0.  1.
</event>
<event>
 5   0  0.1540772E-04  0.1100318E+04  0.7818609E-02  0.9204882E-01
        2   -1    0    0  501    0  0.00000000000E+00  0.00000000000E+00  0.48825168888E+03  0.48825168889E+03  0.25500000920E-02 0.  1.
       -2   -1    0    0    0  501  0.00000000000E+00  0.00000000000E+00 -0.61991555591E+03  0.61991555592E+03  0.25500000920E-02 0. -1.
    10030    2    1    2    0    0  0.00000000000E+00  0.00000000000E+00 -0.13166386703E+03  0.11081672448E+04  0.11003178034E+04 0.  0.
        2    1    3    3  502    0  0.15771573083E+03 -0.49713488563E+03 -0.24217375859E+03  0.57503519512E+03  0.25500000920E-02 0. -1.
       -2    1    3    3    0  502 -0.15771573083E+03  0.49713488563E+03  0.11050989157E+03  0.53313204969E+03  0.25500000920E-02 0.  1.
</event>
<event>
 5   0  0.9346836E-05  0.1100892E+04  0.7818609E-02  0.9204323E-01
        1   -1    0    0  501    0  0.00000000000E+00  0.00000000000E+00  0.18975351560E+04  0.18975351560E+04  0.50400001928E-02 0.  1.
       -1   -1    0    0    0  501  0.00000000000E+00  0.00000000000E+00 -0.15967596647E+03  0.15967596655E+03  0.50400001928E-02 0. -1.
    10030    2    1    2    0    0  0.00000000000E+00  0.00000000000E+00  0.17378591895E+04  0.20572111226E+04  0.11008919294E+04 0.  0.
        5    1    3    3  502    0  0.19816139087E+03 -0.17809557884E+03 -0.31110741672E+02  0.26828332091E+03  0.46999998093E+01 0. -1.
       -5    1    3    3    0  502 -0.19816139087E+03  0.17809557884E+03  0.17689699312E+04  0.17889278017E+04  0.46999998093E+01 0.  1.
</event>
<event>
 5   0  0.8621738E-05  0.1100341E+04  0.7818609E-02  0.9204859E-01
       -1   -1    0    0    0  501  0.00000000000E+00  0.00000000000E+00  0.23533224473E+03  0.23533224479E+03  0.50400001928E-02 0. -1.
        1   -1    0    0  501    0  0.00000000000E+00  0.00000000000E+00 -0.12862144331E+04  0.12862144331E+04  0.50400001928E-02 0.  1.
    10030    2    1    2    0    0  0.00000000000E+00  0.00000000000E+00 -0.10508821884E+04  0.15215466779E+04  0.11003412740E+04 0.  0.
        2    1    3    3  502    0 -0.20259549248E+03 -0.39161260088E+03 -0.70414534597E+02  0.44650147753E+03  0.25500000920E-02 0. -1.
       -2    1    3    3    0  502  0.20259549248E+03  0.39161260088E+03 -0.98046765376E+03  0.10750452004E+04  0.25500000920E-02 0.  1.
</event>
<event>
 5   0  0.1503277E-04  0.1100455E+04  0.7818609E-02  0.9204749E-01
       -2   -1    0    0    0  501  0.00000000000E+00  0.00000000000E+00  0.18297221386E+03  0.18297221388E+03  0.25500000920E-02 0.  1.
        2   -1    0    0  501    0  0.00000000000E+00  0.00000000000E+00 -0.16546241438E+04  0.16546241438E+04  0.25500000920E-02 0. -1.
    10030    2    1    2    0    0  0.00000000000E+00  0.00000000000E+00 -0.14716519299E+04  0.18375963577E+04  0.11004548927E+04 0.  0.
        5    1    3    3  502    0 -0.19651799954E+03 -0.46450995956E+03 -0.11029629789E+04  0.12128224311E+04  0.46999998093E+01 0.  1.
       -5    1    3    3    0  502  0.19651799954E+03  0.46450995956E+03 -0.36868895107E+03  0.62477392656E+03  0.46999998093E+01 0. -1.
</event>
<event>
 5   0  0.8621738E-05  0.1097827E+04  0.7818609E-02  0.9207312E-01
        1   -1    0    0  501    0  0.00000000000E+00  0.00000000000E+00  0.51911288399E+03  0.51911288402E+03  0.50400001928E-02 0. -1.
       -1   -1    0    0    0  501  0.00000000000E+00  0.00000000000E+00 -0.58042485524E+03  0.58042485526E+03  0.50400001928E-02 0.  1.
    10030    2    1    2    0    0  0.00000000000E+00  0.00000000000E+00 -0.61311971248E+02  0.10995377393E+04  0.10978269819E+04 0.  0.
        2    1    3    3  502    0 -0.69045333091E+02  0.98559045438E+02 -0.56705089528E+03  0.57967910201E+03  0.25500000920E-02 0.  1.
       -2    1    3    3    0  502  0.69045333091E+02 -0.98559045438E+02  0.50573892403E+03  0.51985863727E+03  0.25500000920E-02 0. -1.
</event>
<event>
 5   0  0.8657442E-05  0.1100664E+04  0.7818609E-02  0.9204545E-01
       -1   -1    0    0    0  501  0.00000000000E+00  0.00000000000E+00  0.47101176462E+03  0.47101176465E+03  0.50400001928E-02 0.  1.
        1   -1    0    0  501    0  0.00000000000E+00  0.00000000000E+00 -0.64300977370E+03  0.64300977372E+03  0.50400001928E-02 0. -1.
    10030    2    1    2    0    0  0.00000000000E+00  0.00000000000E+00 -0.17199800907E+03  0.11140215384E+04  0.11006637419E+04 0.  0.
        1    1    3    3  502    0 -0.97505874489E+02  0.12085918083E+03  0.44837707907E+03  0.47450641957E+03  0.50400001928E-02 0.  1.
       -1    1    3    3    0  502  0.97505874489E+02 -0.12085918083E+03 -0.62037508815E+03  0.63951511880E+03  0.50400001928E-02 0. -1.
</event>
<event>
 5   0  0.8657442E-05  0.1099962E+04  0.7818609E-02  0.9205229E-01
       -1   -1    0    0    0  501  0.00000000000E+00  0.00000000000E+00  0.26659354414E+03  0.26659354419E+03  0.50400001928E-02 0.  1.
        1   -1    0    0  501    0  0.00000000000E+00  0.00000000000E+00 -0.11346084916E+04  0.11346084916E+04  0.50400001928E-02 0. -1.
    10030    2    1    2    0    0  0.00000000000E+00  0.00000000000E+00 -0.86801494748E+03  0.14012020358E+04  0.10999623612E+04 0.  0.
        1    1    3    3  502    0 -0.25304908630E+03  0.13561446044E+03  0.16356109120E+03  0.33041996389E+03  0.50400001928E-02 0.  1.
       -1    1    3    3    0  502  0.25304908630E+03 -0.13561446044E+03 -0.10315760387E+04  0.10707820719E+04  0.50400001928E-02 0. -1.
</event>
<event>
 5   0  0.1553937E-04  0.1101135E+04  0.7818609E-02  0.9204086E-01
        2   -1    0    0  501    0  0.00000000000E+00  0.00000000000E+00  0.11006102256E+04  0.11006102256E+04  0.25500000920E-02 0.  1.
       -2   -1    0    0    0  501  0.00000000000E+00  0.00000000000E+00 -0.27541505624E+03  0.27541505625E+03  0.25500000920E-02 0. -1.
    10030    2    1    2    0    0  0.00000000000E+00  0.00000000000E+00  0.82519516939E+03  0.13760252819E+04  0.11011351002E+04 0.  0.
        1    1    3    3  502    0  0.40250317580E+03  0.94662625592E+02 -0.41686257979E+02  0.41558099492E+03  0.50400001928E-02 0. -1.
       -1    1    3    3    0  502 -0.40250317580E+03 -0.94662625592E+02  0.86688142737E+03  0.96044428696E+03  0.50400001928E-02 0.  1.
</event>
<event>
 5   0  0.6010125E-05  0.1101693E+04  0.7818609E-02  0.9203543E-01
        3   -1    0    0  501    0  0.00000000000E+00  0.00000000000E+00  0.36637083488E+03  0.36637084880E+03  0.10100000352E+00 0. -1.
       -3   -1    0    0    0  501  0.00000000000E+00  0.00000000000E+00 -0.82820974293E+03  0.82820974909E+03  0.10100000352E+00 0.  1.
    10030    2    1    2    0    0  0.00000000000E+00  0.00000000000E+00 -0.46183890805E+03  0.11945805979E+04  0.11016930733E+04 0.  0.
        2    1    3    3  502    0 -0.48649522609E+03  0.25465475022E+03 -0.27824896082E+03  0.61558844289E+03  0.25500000920E-02 0.  1.
       -2    1    3    3    0  502  0.48649522609E+03 -0.25465475022E+03 -0.18358994723E+03  0.57899215499E+03  0.25500000920E-02 0. -1.
</event>
<event>
 5   0  0.1464205E-04  0.1099918E+04  0.7818609E-02  0.9205272E-01
       -2   -1    0    0    0  501  0.00000000000E+00  0.00000000000E+00  0.27863755034E+03  0.27863755035E+03  0.25500000920E-02 0.  1.
        2   -1    0    0  501    0  0.00000000000E+00  0.00000000000E+00 -0.10854774163E+04  0.10854774163E+04  0.25500000920E-02 0. -1.
    10030    2    1    2    0    0  0.00000000000E+00  0.00000000000E+00 -0.80683986595E+03  0.13641149666E+04  0.10999177574E+04 0.  0.
        3    1    3    3  502    0 -0.38169853611E+03  0.37257653942E+03 -0.56956798586E+03  0.78032989877E+03  0.10100000352E+00 0. -1.
       -3    1    3    3    0  502  0.38169853611E+03 -0.37257653942E+03 -0.23727188010E+03  0.58378506788E+03  0.10100000352E+00 0.  1.
</event>
<event>
 5   0  0.1503277E-04  0.1099690E+04  0.7818609E-02  0.9205494E-01
        2   -1    0    0  501    0  0.00000000000E+00  0.00000000000E+00  0.75918296275E+03  0.75918296275E+03  0.25500000920E-02 0.  1.
       -2   -1    0    0    0  501  0.00000000000E+00  0.00000000000E+00 -0.39823019045E+03  0.39823019046E+03  0.25500000920E-02 0. -1.
    10030    2    1    2    0    0  0.00000000000E+00  0.00000000000E+00  0.36095277230E+03  0.11574131532E+04  0.10996900943E+04 0.  0.
        5    1    3    3  502    0  0.24327292251E+03 -0.48861153309E+03  0.11078483092E+03  0.55697245341E+03  0.46999998093E+01 0.  1.
       -5    1    3    3    0  502 -0.24327292251E+03  0.48861153309E+03  0.25016794138E+03  0.60044069981E+03  0.46999998093E+01 0. -1.
</event>
<event>
 5   0  0.1574101E-04  0.1100134E+04  0.7818609E-02  0.9205061E-01
        2   -1    0    0  501    0  0.00000000000E+00  0.00000000000E+00  0.21201540595E+04  0.21201540595E+04  0.25500000920E-02 0. -1.
       -2   -1    0    0    0  501  0.00000000000E+00  0.00000000000E+00 -0.14271310179E+03  0.14271310181E+03  0.25500000920E-02 0.  1.
    10030    2    1    2    0    0  0.00000000000E+00  0.00000000000E+00  0.19774409577E+04  0.22628671613E+04  0.11001341048E+04 0.  0.
        4    1    3    3  502    0  0.56397925841E+02  0.25733922980E+03  0.19819459612E+04  0.19993788064E+04  0.12699999809E+01 0. -1.
       -4    1    3    3    0  502 -0.56397925841E+02 -0.25733922980E+03 -0.45050035142E+01  0.26348835495E+03  0.12699999809E+01 0.  1.
</event>
<event>
 5   0  0.1553937E-04  0.1099826E+04  0.7818609E-02  0.9205361E-01
       -2   -1    0    0    0  501  0.00000000000E+00  0.00000000000E+00  0.64420141574E+03  0.64420141574E+03  0.25500000920E-02 0.  1.
        2   -1    0    0  501    0  0.00000000000E+00  0.00000000000E+00 -0.46942509857E+03  0.46942509858E+03  0.25500000920E-02 0. -1.
    10030    2    1    2    0    0  0.00000000000E+00  0.00000000000E+00  0.17477631717E+03  0.11136265143E+04  0.10998260100E+04 0.  0.
        1    1    3    3  502    0  0.38607801835E+03 -0.37860955074E+03  0.18865755279E+03  0.57270681890E+03  0.50400001928E-02 0.  1.
       -1    1    3    3    0  502 -0.38607801835E+03  0.37860955074E+03 -0.13881235627E+02  0.54091969542E+03  0.50400001928E-02 0. -1.
</event>
<event>
 5   0  0.8621738E-05  0.1100119E+04  0.7818609E-02  0.9205076E-01
       -1   -1    0    0    0  501  0.00000000000E+00  0.00000000000E+00  0.17179889322E+03  0.17179889330E+03  0.50400001928E-02 0. -1.
        1   -1    0    0  501    0  0.00000000000E+00  0.00000000000E+00 -0.17611619110E+04  0.17611619110E+04  0.50400001928E-02 0.  1.
    10030    2    1    2    0    0  0.00000000000E+00  0.00000000000E+00 -0.15893630178E+04  0.19329608043E+04  0.11001193884E+04 0.  0.
        2    1    3    3  502    0 -0.58812174468E+02 -0.37222878355E+03 -0.90650475500E+02  0.38759598538E+03  0.25500000920E-02 0. -1.
       -2    1    3    3    0  502  0.58812174468E+02  0.37222878355E+03 -0.14987125423E+04  0.15453648189E+04  0.25500000920E-02 0.  1.
</event>
<event>
 5   0  0.8921459E-05  0.1100101E+04  0.7818609E-02  0.9205093E-01
        1   -1    0    0  501    0  0.00000000000E+00  0.00000000000E+00  0.12888013720E+04  0.12888013720E+04  0.50400001928E-02 0.  1.
       -1   -1    0    0    0  501  0.00000000000E+00  0.00000000000E+00 -0.23475742179E+03  0.23475742185E+03  0.50400001928E-02 0. -1.
    10030    2    1    2    0    0  0.00000000000E+00  0.00000000000E+00  0.10540439502E+04  0.15235587938E+04  0.11001012450E+04 0.  0.
        3    1    3    3  502    0 -0.13720466507E+02 -0.38332866415E+03 -0.18973673056E+02  0.38404313095E+03  0.10100000352E+00 0. -1.
       -3    1    3    3    0  502  0.13720466507E+02  0.38332866415E+03  0.10730176232E+04  0.11395156629E+04  0.10100000352E+00 0.  1.
</event>
<event>
 5   0  0.6010125E-05  0.1098065E+04  0.7818609E-02  0.9207080E-01
        3   -1    0    0  501    0  0.00000000000E+00  0.00000000000E+00  0.25174002610E+03  0.25174004636E+03  0.10100000352E+00 0. -1.
       -3   -1    0    0    0  501  0.00000000000E+00  0.00000000000E+00 -0.11974133344E+04  0.11974133387E+04  0.10100000352E+00 0.  1.
    10030    2    1    2    0    0  0.00000000000E+00  0.00000000000E+00 -0.94567330833E+03  0.14491533850E+04  0.10980653566E+04 0.  0.
        1    1    3    3  502    0 -0.30538618790E+03  0.27781827255E+03  0.48141180316E+01  0.41287636416E+03  0.50400001928E-02 0. -1.
       -1    1    3    3    0  502  0.30538618790E+03 -0.27781827255E+03 -0.95048742636E+03  0.10362770209E+04  0.50400001928E-02 0.  1.
</event>
<event>
 5   0  0.1464205E-04  0.1100156E+04  0.7818609E-02  0.9205039E-01
        2   -1    0    0  501    0  0.00000000000E+00  0.00000000000E+00  0.10414362899E+04  0.10414362899E+04  0.25500000920E-02 0. -1.
       -2   -1    0    0    0  501  0.00000000000E+00  0.00000000000E+00 -0.29054687598E+03  0.29054687600E+03  0.25500000920E-02 0.  1.
    10030    2    1    2    0    0  0.00000000000E+00  0.00000000000E+00  0.75088941394E+03  0.13319831659E+04  0.11001564627E+04 0.  0.
        3    1    3    3  502    0 -0.33558117813E+03 -0.17934191084E+03  0.85640421830E+03  0.93712669550E+03  0.10100000352E+00 0. -1.
       -3    1    3    3    0  502  0.33558117813E+03  0.17934191084E+03 -0.10551480435E+03  0.39485647043E+03  0.10100000352E+00 0.  1.
</event>
<event>
 5   0  0.1464205E-04  0.1100118E+04  0.7818609E-02  0.9205077E-01
       -2   -1    0    0    0  501  0.00000000000E+00  0.00000000000E+00  0.17018642701E+03  0.17018642703E+03  0.25500000920E-02 0.  1.
        2   -1    0    0  501    0  0.00000000000E+00  0.00000000000E+00 -0.17778429950E+04  0.17778429950E+04  0.25500000920E-02 0. -1.
    10030    2    1    2    0    0  0.00000000000E+00  0.00000000000E+00 -0.16076565680E+04  0.19480294221E+04  0.11001177157E+04 0.  0.
        3    1    3    3  502    0  0.11788662685E+03 -0.36361405366E+03 -0.10342636107E+03  0.39599174129E+03  0.10100000352E+00 0.  1.
       -3    1    3    3    0  502 -0.11788662685E+03  0.36361405366E+03 -0.15042302070E+04  0.15520376808E+04  0.10100000352E+00 0. -1.
</event>
<event>
 5   0  0.8621738E-05  0.1099993E+04  0.7818609E-02  0.9205199E-01
       -1   -1    0    0    0  501  0.00000000000E+00  0.00000000000E+00  0.21663211964E+03  0.21663211970E+03  0.50400001928E-02 0.  1.
        1   -1    0    0  501    0  0.00000000000E+00  0.00000000000E+00 -0.13963590013E+04  0.13963590013E+04  0.50400001928E-02 0. -1.
    10030    2    1    2    0    0  0.00000000000E+00  0.00000000000E+00 -0.11797268817E+04  0.16129911210E+04  0.10999931096E+04 0.  0.
        2    1    3    3  502    0 -0.15084885492E+02  0.40218200992E+03 -0.11395415430E+04  0.12085250726E+04  0.25500000920E-02 0. -1.
       -2    1    3    3    0  502  0.15084885492E+02 -0.40218200992E+03 -0.40185338672E+02  0.40446604842E+03  0.25500000920E-02 0.  1.
</event>
<event>
 5   0  0.8657442E-05  0.1099024E+04  0.7818609E-02  0.9206143E-01
        1   -1    0    0  501    0  0.00000000000E+00  0.00000000000E+00  0.90557574816E+03  0.90557574817E+03  0.50400001928E-02 0.  1.
       -1   -1    0    0    0  501  0.00000000000E+00  0.00000000000E+00 -0.33344927571E+03  0.33344927574E+03  0.50400001928E-02 0. -1.
    10030    2    1    2    0    0  0.00000000000E+00  0.00000000000E+00  0.57212647245E+03  0.12390250239E+04  0.10990242533E+04 0.  0.
        1    1    3    3  502    0  0.25774263660E+03  0.70583725674E+02 -0.25525866470E+03  0.36955421115E+03  0.50400001928E-02 0. -1.
       -1    1    3    3    0  502 -0.25774263660E+03 -0.70583725674E+02  0.82738513715E+03  0.86947081277E+03  0.50400001928E-02 0.  1.
</event>
<event>
 5   0  0.1503277E-04  0.1099818E+04  0.7818609E-02  0.9205370E-01
        2   -1    0    0  501    0  0.00000000000E+00  0.00000000000E+00  0.15452570781E+04  0.15452570781E+04  0.25500000920E-02 0. -1.
       -2   -1    0    0    0  501  0.00000000000E+00  0.00000000000E+00 -0.19569542696E+03  0.19569542698E+03  0.25500000920E-02 0.  1.
    10030    2    1    2    0    0  0.00000000000E+00  0.00000000000E+00  0.13495616511E+04  0.17409525051E+04  0.10998177007E+04 0.  0.
        5    1    3    3  502    0 -0.27369296114E+02  0.54707274102E+03  0.59820823446E+03  0.81111826765E+03  0.46999998093E+01 0.  1.
       -5    1    3    3    0  502  0.27369296114E+02 -0.54707274102E+03  0.75135341666E+03  0.92983423741E+03  0.46999998093E+01 0. -1.
</event>
<event>
 5   0  0.9016738E-05  0.1100178E+04  0.7818609E-02  0.9205019E-01
        1   -1    0    0  501    0  0.00000000000E+00  0.00000000000E+00  0.59180479426E+03  0.59180479428E+03  0.50400001928E-02 0.  1.
       -1   -1    0    0    0  501  0.00000000000E+00  0.00000000000E+00 -0.51131334133E+03  0.51131334136E+03  0.50400001928E-02 0. -1.
    10030    2    1    2    0    0  0.00000000000E+00  0.00000000000E+00  0.80491452930E+02  0.11031181356E+04  0.11001775980E+04 0.  0.
        4    1    3    3  502    0 -0.46011216043E+03  0.29887071118E+03  0.79964375049E+02  0.55445722680E+03  0.12699999809E+01 0.  1.
       -4    1    3    3    0  502  0.46011216043E+03 -0.29887071118E+03  0.52707788122E+00  0.54866090884E+03  0.12699999809E+01 0. -1.
</event>
<event>
 5   0  0.9016738E-05  0.1099614E+04  0.7818609E-02  0.9205568E-01
        1   -1    0    0  501    0  0.00000000000E+00  0.00000000000E+00  0.44692456294E+03  0.44692456297E+03  0.50400001928E-02 0. -1.
       -1   -1    0    0    0  501  0.00000000000E+00  0.00000000000E+00 -0.67637363825E+03  0.67637363826E+03  0.50400001928E-02 0.  1.
    10030    2    1    2    0    0  0.00000000000E+00  0.00000000000E+00 -0.22944907531E+03  0.11232982012E+04  0.10996144646E+04 0.  0.
        4    1    3    3  502    0  0.11419309665E+03 -0.11902236195E+02 -0.66398983402E+03  0.67384407628E+03  0.12699999809E+01 0.  1.
       -4    1    3    3    0  502 -0.11419309665E+03  0.11902236195E+02  0.43454075872E+03  0.44945412495E+03  0.12699999809E+01 0. -1.
</event>
<event>
 5   0  0.1574101E-04  0.1098742E+04  0.7818609E-02  0.9206419E-01
       -2   -1    0    0    0  501  0.00000000000E+00  0.00000000000E+00  0.18971941147E+03  0.18971941149E+03  0.25500000920E-02 0.  1.
        2   -1    0    0  501    0  0.00000000000E+00  0.00000000000E+00 -0.15908148431E+04  0.15908148431E+04  0.25500000920E-02 0. -1.
    10030    2    1    2    0    0  0.00000000000E+00  0.00000000000E+00 -0.14010954316E+04  0.17805342546E+04  0.10987419275E+04 0.  0.
        4    1    3    3  502    0  0.49230493377E+03 -0.23815937693E+03 -0.61598809869E+03  0.82372749575E+03  0.12699999809E+01 0.  1.
       -4    1    3    3    0  502 -0.49230493377E+03  0.23815937693E+03 -0.78510733295E+03  0.95680675885E+03  0.12699999809E+01 0. -1.
</event>
<event>
 5   0  0.8657442E-05  0.1099993E+04  0.7818609E-02  0.9205199E-01
        1   -1    0    0  501    0  0.00000000000E+00  0.00000000000E+00  0.50955835198E+03  0.50955835200E+03  0.50400001928E-02 0.  1.
       -1   -1    0    0    0  501  0.00000000000E+00  0.00000000000E+00 -0.59364382242E+03  0.59364382244E+03  0.50400001928E-02 0. -1.
    10030    2    1    2    0    0  0.00000000000E+00  0.00000000000E+00 -0.84085470446E+02  0.11032021744E+04  0.10999930324E+04 0.  0.
        1    1    3    3  502    0 -0.64586072957E+02 -0.26987095789E+03 -0.51829069234E+03  0.58790044780E+03  0.50400001928E-02 0. -1.
       -1    1    3    3    0  502  0.64586072957E+02  0.26987095789E+03  0.43420522190E+03  0.51530172664E+03  0.50400001928E-02 0.  1.
</event>
<event>
 5   0  0.8657442E-05  0.1101479E+04  0.7818609E-02  0.9203752E-01
        1   -1    0    0  501    0  0.00000000000E+00  0.00000000000E+00  0.15995157387E+04  0.15995157387E+04  0.50400001928E-02 0.  1.
       -1   -1    0    0    0  501  0.00000000000E+00  0.00000000000E+00 -0.18962847752E+03  0.18962847758E+03  0.50400001928E-02 0. -1.
    10030    2    1    2    0    0  0.00000000000E+00  0.00000000000E+00  0.14098872612E+04  0.17891442163E+04  0.11014785234E+04 0.  0.
        1    1    3    3  502    0 -0.31171206105E+03 -0.37727025703E+03  0.29461130385E+03  0.57122068960E+03  0.50400001928E-02 0. -1.
       -1    1    3    3    0  502  0.31171206105E+03  0.37727025703E+03  0.11152759574E+04  0.12179235267E+04  0.50400001928E-02 0.  1.
</event>
<event>
 5   0  0.8657442E-05  0.1100403E+04  0.7818609E-02  0.9204799E-01
        1   -1    0    0  501    0  0.00000000000E+00  0.00000000000E+00  0.68801926103E+03  0.68801926105E+03  0.50400001928E-02 0. -1.
       -1   -1    0    0    0  501  0.00000000000E+00  0.00000000000E+00 -0.43999007276E+03  0.43999007279E+03  0.50400001928E-02 0.  1.
    10030    2    1    2    0    0  0.00000000000E+00  0.00000000000E+00  0.24802918827E+03  0.11280093338E+04  0.11004029167E+04 0.  0.
        1    1    3    3  502    0  0.31842767524E+03 -0.28159907481E+03 -0.23407333174E+03  0.48526750143E+03  0.50400001928E-02 0.  1.
       -1    1    3    3    0  502 -0.31842767524E+03  0.28159907481E+03  0.48210252001E+03  0.64274183240E+03  0.50400001928E-02 0. -1.
</event>
<event>
 5   0  0.9346836E-05  0.1099906E+04  0.7818609E-02  0.9205283E-01
       -1   -1    0    0    0  501  0.00000000000E+00  0.00000000000E+00  0.99149575177E+03  0.99149575179E+03  0.50400001928E-02 0.  1.
        1   -1    0    0  501    0  0.00000000000E+00  0.00000000000E+00 -0.30504254914E+03  0.30504254919E+03  0.50400001928E-02 0. -1.
    10030    2    1    2    0    0  0.00000000000E+00  0.00000000000E+00  0.68645320263E+03  0.12965383010E+04  0.10999061626E+04 0.  0.
        5    1    3    3  502    0 -0.32383739227E+03 -0.42725484419E+03  0.19881410639E+03  0.57180984376E+03  0.46999998093E+01 0. -1.
       -5    1    3    3    0  502  0.32383739227E+03  0.42725484419E+03  0.48763909624E+03  0.72472845722E+03  0.46999998093E+01 0.  1.
</event>
<event>
 5   0  0.8921459E-05  0.1099410E+04  0.7818609E-02  0.9205768E-01
        1   -1    0    0  501    0  0.00000000000E+00  0.00000000000E+00  0.62745748022E+03  0.62745748024E+03  0.50400001928E-02 0. -1.
       -1   -1    0    0    0  501  0.00000000000E+00  0.00000000000E+00 -0.48158692975E+03  0.48158692978E+03  0.50400001928E-02 0.  1.
    10030    2    1    2    0    0  0.00000000000E+00  0.00000000000E+00  0.14587055047E+03  0.11090444100E+04  0.10994095169E+04 0.  0.
        3    1    3    3  502    0 -0.49681422629E+03  0.11517255636E+03 -0.13401184901E+03  0.52730283429E+03  0.10100000352E+00 0.  1.
       -3    1    3    3    0  502  0.49681422629E+03 -0.11517255636E+03  0.27988239948E+03  0.58174157572E+03  0.10100000352E+00 0. -1.
</event>
<event>
 5   0  0.8621738E-05  0.1099961E+04  0.7818609E-02  0.9205230E-01
        1   -1    0    0  501    0  0.00000000000E+00  0.00000000000E+00  0.37491363326E+03  0.37491363330E+03  0.50400001928E-02 0. -1.
       -1   -1    0    0    0  501  0.00000000000E+00  0.00000000000E+00 -0.80679543118E+03  0.80679543120E+03  0.50400001928E-02 0.  1.
    10030    2    1    2    0    0  0.00000000000E+00  0.00000000000E+00 -0.43188179792E+03  0.11817090645E+04  0.10999611019E+04 0.  0.
        2    1    3    3  502    0 -0.31123054614E+03  0.13121136295E+03 -0.68224697497E+03  0.76127643434E+03  0.25500000920E-02 0.  1.
       -2    1    3    3    0  502  0.31123054614E+03 -0.13121136295E+03  0.25036517705E+03  0.42043263016E+03  0.25500000920E-02 0. -1.
</event>
<event>
 5   0  0.8621738E-05  0.1100200E+04  0.7818609E-02  0.9204997E-01
        1   -1    0    0  501    0  0.00000000000E+00  0.00000000000E+00  0.36681300093E+03  0.36681300097E+03  0.50400001928E-02 0. -1.
       -1   -1    0    0    0  501  0.00000000000E+00  0.00000000000E+00 -0.82497023145E+03  0.82497023147E+03  0.50400001928E-02 0.  1.
    10030    2    1    2    0    0  0.00000000000E+00  0.00000000000E+00 -0.45815723052E+03  0.11917832324E+04  0.11001996297E+04 0.  0.
        2    1    3    3  502    0  0.20780257290E+03 -0.48636470964E+03 -0.65235634854E+02  0.53290545892E+03  0.25500000920E-02 0.  1.
       -2    1    3    3    0  502 -0.20780257290E+03  0.48636470964E+03 -0.39292159567E+03  0.65887777352E+03  0.25500000920E-02 0. -1.
</event>
<event>
 5   0  0.8621738E-05  0.1100503E+04  0.7818609E-02  0.9204701E-01
       -1   -1    0    0    0  501  0.00000000000E+00  0.00000000000E+00  0.17128933173E+03  0.17128933180E+03  0.50400001928E-02 0. -1.
        1   -1    0    0  501    0  0.00000000000E+00  0.00000000000E+00 -0.17676340865E+04  0.17676340865E+04  0.50400001928E-02 0.  1.
    10030    2    1    2    0    0  0.00000000000E+00  0.00000000000E+00 -0.15963447548E+04  0.19389234183E+04  0.11005032694E+04 0.  0.
        2    1    3    3  502    0  0.32345893462E+03 -0.30458496589E+03 -0.13701074396E+04  0.14403444310E+04  0.25500000920E-02 0.  1.
       -2    1    3    3    0  502 -0.32345893462E+03  0.30458496589E+03 -0.22623731520E+03  0.49857898735E+03  0.25500000920E-02 0. -1.
</event>
<event>
 5   0  0.1503277E-04  0.1100969E+04  0.7818609E-02  0.9204248E-01
       -2   -1    0    0    0  501  0.00000000000E+00  0.00000000000E+00  0.50017871717E+03  0.50017871717E+03  0.25500000920E-02 0.  1.
        2   -1    0    0  501    0  0.00000000000E+00  0.00000000000E+00 -0.60584946457E+03  0.60584946457E+03  0.25500000920E-02 0. -1.
    10030    2    1    2    0    0  0.00000000000E+00  0.00000000000E+00 -0.10567074740E+03  0.11060281817E+04  0.11009686789E+04 0.  0.
        5    1    3    3  502    0  0.12854086094E+03  0.53283058956E+03 -0.18109417797E+01  0.54813917905E+03  0.46999998093E+01 0. -1.
       -5    1    3    3    0  502 -0.12854086094E+03 -0.53283058956E+03 -0.10385980562E+03  0.55788900269E+03  0.46999998093E+01 0.  1.
</event>
<event>
 5   0  0.8657442E-05  0.1099887E+04  0.7818609E-02  0.9205302E-01
        1   -1    0    0  501    0  0.00000000000E+00  0.00000000000E+00  0.10472433919E+04  0.10472433919E+04  0.50400001928E-02 0. -1.
       -1   -1    0    0    0  501  0.00000000000E+00  0.00000000000E+00 -0.28879403491E+03  0.28879403496E+03  0.50400001928E-02 0.  1.
    10030    2    1    2    0    0  0.00000000000E+00  0.00000000000E+00  0.75844935695E+03  0.13360374268E+04  0.10998866209E+04 0.  0.
        1    1    3    3  502    0 -0.41511288198E+03  0.32590491035E+03  0.56703282944E+03  0.77463471718E+03  0.50400001928E-02 0. -1.
       -1    1    3    3    0  502  0.41511288198E+03 -0.32590491035E+03  0.19141652751E+03  0.56140270965E+03  0.50400001928E-02 0.  1.
</event>
<event>
 5   0  0.9346836E-05  0.1100373E+04  0.7818609E-02  0.9204828E-01
        1   -1    0    0  501    0  0.00000000000E+00  0.00000000000E+00  0.16555724872E+04  0.16555724872E+04  0.50400001928E-02 0. -1.
       -1   -1    0    0    0  501  0.00000000000E+00  0.00000000000E+00 -0.18284016369E+03  0.18284016376E+03  0.50400001928E-02 0.  1.
    10030    2    1    2    0    0  0.00000000000E+00  0.00000000000E+00  0.14727323235E+04  0.18384126510E+04  0.11003729270E+04 0.  0.
        5    1    3    3  502    0  0.20508870752E+02 -0.14856286726E+03  0.16207292207E+04  0.16276599265E+04  0.46999998093E+01 0. -1.
       -5    1    3    3    0  502 -0.20508870752E+02  0.14856286726E+03 -0.14799689720E+03  0.21075272451E+03  0.46999998093E+01 0.  1.
</event>
<event>
 5   0  0.1464205E-04  0.1097357E+04  0.7818609E-02  0.9207771E-01
        2   -1    0    0  501    0  0.00000000000E+00  0.00000000000E+00  0.78102479288E+03  0.78102479288E+03  0.25500000920E-02 0.  1.
       -2   -1    0    0    0  501  0.00000000000E+00  0.00000000000E+00 -0.38545286538E+03  0.38545286538E+03  0.25500000920E-02 0. -1.
    10030    2    1    2    0    0  0.00000000000E+00  0.00000000000E+00  0.39557192750E+03  0.11664776583E+04  0.10973572697E+04 0.  0.
        3    1    3    3  502    0 -0.14311480901E+03  0.27072051750E+02 -0.36452716594E+03  0.39254911725E+03  0.10100000352E+00 0. -1.
       -3    1    3    3    0  502  0.14311480901E+03 -0.27072051750E+02  0.76009909344E+03  0.77392854101E+03  0.10100000352E+00 0.  1.
</event>
<event>
 5   0  0.9016738E-05  0.1099964E+04  0.7818609E-02  0.9205227E-01
       -1   -1    0    0    0  501  0.00000000000E+00  0.00000000000E+00  0.91862299608E+03  0.91862299610E+03  0.50400001928E-02 0.  1.
        1   -1    0    0  501    0  0.00000000000E+00  0.00000000000E+00 -0.32927545130E+03  0.32927545133E+03  0.50400001928E-02 0. -1.
    10030    2    1    2    0    0  0.00000000000E+00  0.00000000000E+00  0.58934754479E+03  0.12478984474E+04  0.10999636387E+04 0.  0.
        4    1    3    3  502    0 -0.36516003783E+03  0.25262427599E+03  0.66284615506E+03  0.79782674574E+03  0.12699999809E+01 0.  1.
       -4    1    3    3    0  502  0.36516003783E+03 -0.25262427599E+03 -0.73498610274E+02  0.45007170169E+03  0.12699999809E+01 0. -1.
</event>
<event>
 5   0  0.1574101E-04  0.1099502E+04  0.7818609E-02  0.9205678E-01
        2   -1    0    0  501    0  0.00000000000E+00  0.00000000000E+00  0.89602179089E+03  0.89602179089E+03  0.25500000920E-02 0.  1.
       -2   -1    0    0    0  501  0.00000000000E+00  0.00000000000E+00 -0.33729765121E+03  0.33729765122E+03  0.25500000920E-02 0. -1.
    10030    2    1    2    0    0  0.00000000000E+00  0.00000000000E+00  0.55872413968E+03  0.12333194421E+04  0.10995017881E+04 0.  0.
        4    1    3    3  502    0 -0.44109222883E+03  0.32779558576E+03  0.29569947069E+03  0.62406096677E+03  0.12699999809E+01 0.  1.
       -4    1    3    3    0  502  0.44109222883E+03 -0.32779558576E+03  0.26302466899E+03  0.60925847534E+03  0.12699999809E+01 0. -1.
</event>
<event>
 5   0  0.1553937E-04  0.1099307E+04  0.7818609E-02  0.9205868E-01
       -2   -1    0    0    0  501  0.00000000000E+00  0.00000000000E+00  0.71962717750E+03  0.71962717751E+03  0.25500000920E-02 0. -1.
        2   -1    0    0  501    0  0.00000000000E+00  0.00000000000E+00 -0.41982679966E+03  0.41982679967E+03  0.25500000920E-02 0.  1.
    10030    2    1    2    0    0  0.00000000000E+00  0.00000000000E+00  0.29980037784E+03  0.11394539772E+04  0.10993066449E+04 0.  0.
        1    1    3    3  502    0  0.21796305415E+03 -0.36485159335E+03 -0.21138961258E+03  0.47466845953E+03  0.50400001928E-02 0.  1.
       -1    1    3    3    0  502 -0.21796305415E+03  0.36485159335E+03  0.51118999042E+03  0.66478551764E+03  0.50400001928E-02 0. -1.
</event>
<event>
 5   0  0.8921459E-05  0.1100392E+04  0.7818609E-02  0.9204810E-01
        1   -1    0    0  501    0  0.00000000000E+00  0.00000000000E+00  0.96783487257E+03  0.96783487259E+03  0.50400001928E-02 0. -1.
       -1   -1    0    0    0  501  0.00000000000E+00  0.00000000000E+00 -0.31277588374E+03  0.31277588378E+03  0.50400001928E-02 0.  1.
    10030    2    1    2    0    0  0.00000000000E+00  0.00000000000E+00  0.65505898884E+03  0.12806107564E+04  0.11003915805E+04 0.  0.
        3    1    3    3  502    0 -0.41349809367E+03 -0.33478019796E+03  0.16436416742E+03  0.55684292592E+03  0.10100000352E+00 0.  1.
       -3    1    3    3    0  502  0.41349809367E+03  0.33478019796E+03  0.49069482142E+03  0.72376783045E+03  0.10100000352E+00 0. -1.
</event>
<event>
 5   0  0.1464205E-04  0.1099648E+04  0.7818609E-02  0.9205535E-01
        2   -1    0    0  501    0  0.00000000000E+00  0.00000000000E+00  0.13931684707E+04  0.13931684707E+04  0.25500000920E-02 0. -1.
       -2   -1    0    0    0  501  0.00000000000E+00  0.00000000000E+00 -0.21699212087E+03  0.21699212088E+03  0.25500000920E-02 0.  1.
    10030    2    1    2    0    0  0.00000000000E+00  0.00000000000E+00  0.11761763498E+04  0.16101605916E+04  0.10996482732E+04 0.  0.
        3    1    3    3  502    0  0.42668885648E+03  0.24076140291E+03  0.95349757746E+03  0.10720014337E+04  0.10100000352E+00 0. -1.
       -3    1    3    3    0  502 -0.42668885648E+03 -0.24076140291E+03  0.22267877236E+03  0.53815915791E+03  0.10100000352E+00 0.  1.
</event>
<event>
 5   0  0.9016738E-05  0.1100407E+04  0.7818609E-02  0.9204796E-01
        1   -1    0    0  501    0  0.00000000000E+00  0.00000000000E+00  0.22834289966E+04  0.22834289966E+04  0.50400001928E-02 0.  1.
       -1   -1    0    0    0  501  0.00000000000E+00  0.00000000000E+00 -0.13257414718E+03  0.13257414728E+03  0.50400001928E-02 0. -1.
    10030    2    1    2    0    0  0.00000000000E+00  0.00000000000E+00  0.21508548494E+04  0.24160031439E+04  0.11004065649E+04 0.  0.
        4    1    3    3  502    0 -0.23982097660E+02  0.23937365214E+03 -0.10977814871E+02  0.24082568730E+03  0.12699999809E+01 0. -1.
       -4    1    3    3    0  502  0.23982097660E+02 -0.23937365214E+03  0.21618326643E+04  0.21751774566E+04  0.12699999809E+01 0.  1.
</event>
<event>
 5   0  0.1540772E-04  0.1099850E+04  0.7818609E-02  0.9205338E-01
        2   -1    0    0  501    0  0.00000000000E+00  0.00000000000E+00  0.65025393290E+03  0.65025393291E+03  0.25500000920E-02 0.  1.
       -2   -1    0    0    0  501  0.00000000000E+00  0.00000000000E+00 -0.46507574868E+03  0.46507574869E+03  0.25500000920E-02 0. -1.
    10030    2    1    2    0    0  0.00000000000E+00  0.00000000000E+00  0.18517818422E+03  0.11153296816E+04  0.10998496892E+04 0.  0.
        2    1    3    3  502    0  0.10820405012E+03  0.53352508932E+03  0.13646150604E+02  0.54455794442E+03  0.25500000920E-02 0. -1.
       -2    1    3    3    0  502 -0.10820405012E+03 -0.53352508932E+03  0.17153203362E+03  0.57077173718E+03  0.25500000920E-02 0.  1.
</event>
<event>
 5   0  0.9016738E-05  0.1098947E+04  0.7818609E-02  0.9206219E-01
       -1   -1    0    0    0  501  0.00000000000E+00  0.00000000000E+00  0.10770222812E+04  0.10770222812E+04  0.50400001928E-02 0.  1.
        1   -1    0    0  501    0  0.00000000000E+00  0.00000000000E+00 -0.28032928784E+03  0.28032928789E+03  0.50400001928E-02 0. -1.
    10030    2    1    2    0    0  0.00000000000E+00  0.00000000000E+00  0.79669299334E+03  0.13573515691E+04  0.10989465667E+04 0.  0.
        4    1    3    3  502    0  0.34530344063E+03 -0.38408487905E+03  0.62995928547E+03  0.81462014134E+03  0.12699999809E+01 0. -1.
       -4    1    3    3    0  502 -0.34530344063E+03  0.38408487905E+03  0.16673370787E+03  0.54273142775E+03  0.12699999809E+01 0.  1.
</event>
<event>
 5   0  0.9016738E-05  0.1100037E+04  0.7818609E-02  0.9205156E-01
       -1   -1    0    0    0  501  0.00000000000E+00  0.00000000000E+00  0.17968594136E+03  0.17968594143E+03  0.50400001928E-02 0. -1.
        1   -1    0    0  501    0  0.00000000000E+00  0.00000000000E+00 -0.16836054204E+04  0.16836054205E+04  0.50400001928E-02 0.  1.
    10030    2    1    2    0    0  0.00000000000E+00  0.00000000000E+00 -0.15039194791E+04  0.18632913619E+04  0.11000367720E+04 0.  0.
        4    1    3    3  502    0 -0.21290849434E+03 -0.42111133572E+02  0.10408599767E+03  0.24070496950E+03  0.12699999809E+01 0. -1.
       -4    1    3    3    0  502  0.21290849434E+03  0.42111133572E+02 -0.16080054768E+04  0.16225863924E+04  0.12699999809E+01 0.  1.
</event>
<event>
 5   0  0.8621738E-05  0.1100136E+04  0.7818609E-02  0.9205059E-01
        1   -1    0    0  501    0  0.00000000000E+00  0.00000000000E+00  0.35938356584E+03  0.35938356587E+03  0.50400001928E-02 0. -1.
       -1   -1    0    0    0  501  0.00000000000E+00  0.00000000000E+00 -0.84192752084E+03  0.84192752086E+03  0.50400001928E-02 0.  1.
    10030    2    1    2    0    0  0.00000000000E+00  0.00000000000E+00 -0.48254395501E+03  0.12013110867E+04  0.11001362000E+04 0.  0.
        2    1    3    3  502    0 -0.28335865331E+02 -0.13892712324E+03  0.33908626112E+03  0.36753660950E+03  0.25500000920E-02 0. -1.
       -2    1    3    3    0  502  0.28335865331E+02  0.13892712324E+03 -0.82163021613E+03  0.83377447724E+03  0.25500000920E-02 0.  1.
</event>
<event>
 5   0  0.1540772E-04  0.1099766E+04  0.7818609E-02  0.9205420E-01
        2   -1    0    0  501    0  0.00000000000E+00  0.00000000000E+00  0.60188062968E+03  0.60188062969E+03  0.25500000920E-02 0. -1.
       -2   -1    0    0    0  501  0.00000000000E+00  0.00000000000E+00 -0.50237709297E+03  0.50237709298E+03  0.25500000920E-02 0.  1.
    10030    2    1    2    0    0  0.00000000000E+00  0.00000000000E+00  0.99503536710E+02  0.11042577227E+04  0.10997655042E+04 0.  0.
        2    1    3    3  502    0  0.49571912171E+03 -0.71886386833E+02  0.27753948963E+03  0.57265458048E+03  0.25500000920E-02 0. -1.
       -2    1    3    3    0  502 -0.49571912171E+03  0.71886386833E+02 -0.17803595292E+03  0.53160314218E+03  0.25500000920E-02 0.  1.
</event>
<event>
 5   0  0.1553937E-04  0.1099978E+04  0.7818609E-02  0.9205213E-01
        2   -1    0    0  501    0  0.00000000000E+00  0.00000000000E+00  0.81939370690E+03  0.81939370691E+03  0.25500000920E-02 0.  1.
       -2   -1    0    0    0  501  0.00000000000E+00  0.00000000000E+00 -0.36916059991E+03  0.36916059992E+03  0.25500000920E-02 0. -1.
    10030    2    1    2    0    0  0.00000000000E+00  0.00000000000E+00  0.45023310700E+03  0.11885543068E+04  0.10999779496E+04 0.  0.
        1    1    3    3  502    0 -0.46749902852E+03 -0.27847663625E+03  0.13878740305E+03  0.56157503672E+03  0.50400001928E-02 0. -1.
       -1    1    3    3    0  502  0.46749902852E+03  0.27847663625E+03  0.31144570395E+03  0.62697927010E+03  0.50400001928E-02 0.  1.
</event>
<event>
 5   0  0.1503277E-04  0.1099936E+04  0.7818609E-02  0.9205255E-01
        2   -1    0    0  501    0  0.00000000000E+00  0.00000000000E+00  0.77162488633E+03  0.77162488633E+03  0.25500000920E-02 0.  1.
       -2   -1    0    0    0  501  0.00000000000E+00  0.00000000000E+00 -0.39198401544E+03  0.39198401545E+03  0.25500000920E-02 0. -1.
    10030    2    1    2    0    0  0.00000000000E+00  0.00000000000E+00  0.37964087088E+03  0.11636089018E+04  0.10999356733E+04 0.  0.
        5    1    3    3  502    0  0.32529340474E+03  0.16887176103E+03 -0.24392539019E+03  0.44028985546E+03  0.46999998093E+01 0. -1.
       -5    1    3    3    0  502 -0.32529340474E+03 -0.16887176103E+03  0.62356626107E+03  0.72331904633E+03  0.46999998093E+01 0.  1.
</event>
<event>
 5   0  0.1553937E-04  0.1099116E+04  0.7818609E-02  0.9206054E-01
       -2   -1    0    0    0  501  0.00000000000E+00  0.00000000000E+00  0.63495006097E+03  0.63495006098E+03  0.25500000920E-02 0.  1.
        2   -1    0    0  501    0  0.00000000000E+00  0.00000000000E+00 -0.47565023961E+03  0.47565023962E+03  0.25500000920E-02 0. -1.
    10030    2    1    2    0    0  0.00000000000E+00  0.00000000000E+00  0.15929982136E+03  0.11106003006E+04  0.10991162789E+04 0.  0.
        1    1    3    3  502    0  0.31308644177E+03 -0.23641825566E+03  0.46850511676E+03  0.61107590043E+03  0.50400001928E-02 0.  1.
       -1    1    3    3    0  502 -0.31308644177E+03  0.23641825566E+03 -0.30920529540E+03  0.49952440017E+03  0.50400001928E-02 0. -1.
</event>
<event>
 5   0  0.8657442E-05  0.1100022E+04  0.7818609E-02  0.9205170E-01
        1   -1    0    0  501    0  0.00000000000E+00  0.00000000000E+00  0.11815604121E+04  0.11815604121E+04  0.50400001928E-02 0.  1.
       -1   -1    0    0    0  501  0.00000000000E+00  0.00000000000E+00 -0.25602777155E+03  0.25602777160E+03  0.50400001928E-02 0. -1.
    10030    2    1    2    0    0  0.00000000000E+00  0.00000000000E+00  0.92553264058E+03  0.14375881837E+04  0.11000223258E+04 0.  0.
        1    1    3    3  502    0 -0.99312065260E+02 -0.97799807172E+02  0.11580965482E+04  0.11664541583E+04  0.50400001928E-02 0.  1.
       -1    1    3    3    0  502  0.99312065260E+02  0.97799807172E+02 -0.23256390760E+03  0.27113402540E+03  0.50400001928E-02 0. -1.
</event>
<event>
 5   0  0.1503277E-04  0.1100350E+04  0.7818609E-02  0.9204851E-01
        2   -1    0    0  501    0  0.00000000000E+00  0.00000000000E+00  0.14762497657E+04  0.14762497657E+04  0.25500000920E-02 0. -1.
       -2   -1    0    0    0  501  0.00000000000E+00  0.00000000000E+00 -0.20504143598E+03  0.20504143599E+03  0.25500000920E-02 0.  1.
    10030    2    1    2    0    0  0.00000000000E+00  0.00000000000E+00  0.12712083297E+04  0.16812912017E+04  0.11003497114E+04 0.  0.
        5    1    3    3  502    0 -0.46116972475E+03  0.29998554875E+03  0.63377230042E+03  0.83926054552E+03  0.46999998093E+01 0.  1.
       -5    1    3    3    0  502  0.46116972475E+03 -0.29998554875E+03  0.63743602930E+03  0.84203065617E+03  0.46999998093E+01 0. -1.
</event>
<event>
 5   0  0.9346836E-05  0.1099715E+04  0.7818609E-02  0.9205469E-01
       -1   -1    0    0    0  501  0.00000000000E+00  0.00000000000E+00  0.31234008115E+03  0.31234008119E+03  0.50400001928E-02 0.  1.
        1   -1    0    0  501    0  0.00000000000E+00  0.00000000000E+00 -0.96799460339E+03  0.96799460341E+03  0.50400001928E-02 0. -1.
    10030    2    1    2    0    0  0.00000000000E+00  0.00000000000E+00 -0.65565452225E+03  0.12803346846E+04  0.10997154414E+04 0.  0.
        5    1    3    3  502    0  0.36527475023E+03 -0.35546140266E+03 -0.56796316363E+03  0.76314002462E+03  0.46999998093E+01 0.  1.
       -5    1    3    3    0  502 -0.36527475023E+03  0.35546140266E+03 -0.87691358618E+02  0.51719465998E+03  0.46999998093E+01 0. -1.
</event>
<event>
 5   0  0.1574101E-04  0.1099761E+04  0.7818609E-02  0.9205425E-01
       -2   -1    0    0    0  501  0.00000000000E+00  0.00000000000E+00  0.63523103061E+03  0.63523103062E+03  0.25500000920E-02 0. -1.
        2   -1    0    0  501    0  0.00000000000E+00  0.00000000000E+00 -0.47599774222E+03  0.47599774223E+03  0.25500000920E-02 0.  1.
    10030    2    1    2    0    0  0.00000000000E+00  0.00000000000E+00  0.15923328839E+03  0.11112287728E+04  0.10997609492E+04 0.  0.
        4    1    3    3  502    0  0.75771511663E+02 -0.19986722585E+03 -0.43230099404E+03  0.48225925838E+03  0.12699999809E+01 0.  1.
       -4    1    3    3    0  502 -0.75771511663E+02  0.19986722585E+03  0.59153428243E+03  0.62896951447E+03  0.12699999809E+01 0. -1.
</event>
<event>
 5   0  0.1574101E-04  0.1100193E+04  0.7818609E-02  0.9205004E-01
        2   -1    0    0  501    0  0.00000000000E+00  0.00000000000E+00  0.16078307411E+04  0.16078307411E+04  0.25500000920E-02 0. -1.
       -2   -1    0    0    0  501  0.00000000000E+00  0.00000000000E+00 -0.18820758904E+03  0.18820758906E+03  0.25500000920E-02 0.  1.
    10030    2    1    2    0    0  0.00000000000E+00  0.00000000000E+00  0.14196231521E+04  0.17960383302E+04  0.11001926148E+04 0.  0.
        4    1    3    3  502    0 -0.69913045425E+02 -0.32963682428E+02 -0.17929605042E+03  0.19525144014E+03  0.12699999809E+01 0.  1.
       -4    1    3    3    0  502  0.69913045425E+02  0.32963682428E+02  0.15989192025E+04  0.16007868901E+04  0.12699999809E+01 0. -1.
</event>
<event>
 5   0  0.6010125E-05  0.1099977E+04  0.7818609E-02  0.9205215E-01
       -4   -1    0    0    0  501  0.00000000000E+00  0.00000000000E+00  0.35072683285E+03  0.35072913221E+03  0.12699999809E+01 0.  1.
        4   -1    0    0  501    0  0.00000000000E+00  0.00000000000E+00 -0.86245256147E+03  0.86245349654E+03  0.12699999809E+01 0. -1.
    10030    2    1    2    0    0  0.00000000000E+00  0.00000000000E+00 -0.51172572863E+03  0.12131826287E+04  0.10999767586E+04 0.  0.
        5    1    3    3  502    0  0.27654597037E+03 -0.12598921729E+02 -0.77998470954E+03  0.82766819660E+03  0.46999998093E+01 0. -1.
       -5    1    3    3    0  502 -0.27654597037E+03  0.12598921729E+02  0.26825898091E+03  0.38551443215E+03  0.46999998093E+01 0.  1.
</event>
<event>
 5   0  0.8657442E-05  0.1099623E+04  0.7818609E-02  0.9205559E-01
        1   -1    0    0  501    0  0.00000000000E+00  0.00000000000E+00  0.10160282616E+04  0.10160282616E+04  0.50400001928E-02 0. -1.
       -1   -1    0    0    0  501  0.00000000000E+00  0.00000000000E+00 -0.29752408635E+03  0.29752408640E+03  0.50400001928E-02 0.  1.
    10030    2    1    2    0    0  0.00000000000E+00  0.00000000000E+00  0.71850417520E+03  0.13135523480E+04  0.10996233542E+04 0.  0.
        1    1    3    3  502    0  0.33816005187E+03  0.42706996192E+03  0.44825916246E+03  0.70546243686E+03  0.50400001928E-02 0. -1.
       -1    1    3    3    0  502 -0.33816005187E+03 -0.42706996192E+03  0.27024501274E+03  0.60808991111E+03  0.50400001928E-02 0.  1.
</event>
<event>
 5   0  0.9346836E-05  0.1100064E+04  0.7818609E-02  0.9205129E-01
        1   -1    0    0  501    0  0.00000000000E+00  0.00000000000E+00  0.57098659390E+03  0.57098659392E+03  0.50400001928E-02 0.  1.
       -1   -1    0    0    0  501  0.00000000000E+00  0.00000000000E+00 -0.52984666801E+03  0.52984666803E+03  0.50400001928E-02 0. -1.
    10030    2    1    2    0    0  0.00000000000E+00  0.00000000000E+00  0.41139925892E+02  0.11008332619E+04  0.11000642604E+04 0.  0.
        5    1    3    3  502    0  0.46534295680E+02  0.36055473463E+03 -0.39245103452E+03  0.53498136588E+03  0.46999998093E+01 0. -1.
       -5    1    3    3    0  502 -0.46534295680E+02 -0.36055473463E+03  0.43359096041E+03  0.56585189607E+03  0.46999998093E+01 0.  1.
</event>
<event>
 5   0  0.1574101E-04  0.1100218E+04  0.7818609E-02  0.9204980E-01
       -2   -1    0    0    0  501  0.00000000000E+00  0.00000000000E+00  0.21992471371E+03  0.21992471372E+03  0.25500000920E-02 0. -1.
        2   -1    0    0  501    0  0.00000000000E+00  0.00000000000E+00 -0.13760156998E+04  0.13760156998E+04  0.25500000920E-02 0.  1.
    10030    2    1    2    0    0  0.00000000000E+00  0.00000000000E+00 -0.11560909861E+04  0.15959404135E+04  0.11002179036E+04 0.  0.
        4    1    3    3  502    0 -0.36974768837E+03 -0.17221663661E+03 -0.11134726066E+04  0.11858308402E+04  0.12699999809E+01 0.  1.
       -4    1    3    3    0  502  0.36974768837E+03  0.17221663661E+03 -0.42618379486E+02  0.41010957334E+03  0.12699999809E+01 0. -1.
</event>
<event>
 5   0  0.1503277E-04  0.1100246E+04  0.7818609E-02  0.9204953E-01
       -2   -1    0    0    0  501  0.00000000000E+00  0.00000000000E+00  0.33380875752E+03  0.33380875753E+03  0.25500000920E-02 0.  1.
        2   -1    0    0  501    0  0.00000000000E+00  0.00000000000E+00 -0.90661213107E+03  0.90661213107E+03  0.25500000920E-02 0. -1.
    10030    2    1    2    0    0  0.00000000000E+00  0.00000000000E+00 -0.57280337355E+03  0.12404208886E+04  0.11002455527E+04 0.  0.
        5    1    3    3  502    0  0.45993319489E+03  0.79890736898E+02  0.41693909527E+02  0.46870197961E+03  0.46999998093E+01 0.  1.
       -5    1    3    3    0  502 -0.45993319489E+03 -0.79890736898E+02 -0.61449728307E+03  0.77171890900E+03  0.46999998093E+01 0. -1.
</event>
<event>
 5   0  0.1553937E-04  0.1099845E+04  0.7818609E-02  0.9205343E-01
        2   -1    0    0  501    0  0.00000000000E+00  0.00000000000E+00  0.79217643544E+03  0.79217643545E+03  0.25500000920E-02 0. -1.
       -2   -1    0    0    0  501  0.00000000000E+00  0.00000000000E+00 -0.38175152447E+03  0.38175152447E+03  0.25500000920E-02 0.  1.
    10030    2    1    2    0    0  0.00000000000E+00  0.00000000000E+00  0.41042491098E+03  0.11739279599E+04  0.10998446470E+04 0.  0.
        1    1    3    3  502    0 -0.89157214478E+02  0.28619112781E+03  0.69730985187E+03  0.75900948616E+03  0.50400001928E-02 0. -1.
       -1    1    3    3    0  502  0.89157214478E+02 -0.28619112781E+03 -0.28688494090E+03  0.41491847376E+03  0.50400001928E-02 0.  1.
</event>
<event>
 5   0  0.1553937E-04  0.1099972E+04  0.7818609E-02  0.9205219E-01
        2   -1    0    0  501    0  0.00000000000E+00  0.00000000000E+00  0.15553609349E+04  0.15553609349E+04  0.25500000920E-02 0.  1.
       -2   -1    0    0    0  501  0.00000000000E+00  0.00000000000E+00 -0.19447882932E+03  0.19447882933E+03  0.25500000920E-02 0. -1.
    10030    2    1    2    0    0  0.00000000000E+00  0.00000000000E+00  0.13608821055E+04  0.17498397642E+04  0.10999723156E+04 0.  0.
        1    1    3    3  502    0  0.28380929240E+03  0.30433535519E+03  0.10837731092E+03  0.43001553975E+03  0.50400001928E-02 0. -1.
       -1    1    3    3    0  502 -0.28380929240E+03 -0.30433535519E+03  0.12525047946E+04  0.13198242245E+04  0.50400001928E-02 0.  1.
</event>
<event>
 5   0  0.9346836E-05  0.1100195E+04  0.7818609E-02  0.9205002E-01
        1   -1    0    0  501    0  0.00000000000E+00  0.00000000000E+00  0.18280445121E+04  0.18280445121E+04  0.50400001928E-02 0.  1.
       -1   -1    0    0    0  501  0.00000000000E+00  0.00000000000E+00 -0.16553596878E+03  0.16553596886E+03  0.50400001928E-02 0. -1.
    10030    2    1    2    0    0  0.00000000000E+00  0.00000000000E+00  0.16625085434E+04  0.19935804810E+04  0.11001947453E+04 0.  0.
        5    1    3    3  502    0 -0.38522188530E+03  0.50373976891E+02  0.12560695917E+03  0.40832907887E+03  0.46999998093E+01 0. -1.
       -5    1    3    3    0  502  0.38522188530E+03 -0.50373976891E+02  0.15369015842E+04  0.15852514021E+04  0.46999998093E+01 0.  1.
</event>
<event>
 5   0  0.9346836E-05  0.1099797E+04  0.7818609E-02  0.9205390E-01
        1   -1    0    0  501    0  0.00000000000E+00  0.00000000000E+00  0.41679963516E+03  0.41679963519E+03  0.50400001928E-02 0. -1.
       -1   -1    0    0    0  501  0.00000000000E+00  0.00000000000E+00 -0.72550080536E+03  0.72550080538E+03  0.50400001928E-02 0.  1.
    10030    2    1    2    0    0  0.00000000000E+00  0.00000000000E+00 -0.30870117020E+03  0.11423004406E+04  0.10997972013E+04 0.  0.
        5    1    3    3  502    0  0.71573522535E+02  0.34766145029E+03 -0.59055133204E+03  0.68903136279E+03  0.46999998093E+01 0.  1.
       -5    1    3    3    0  502 -0.71573522535E+02 -0.34766145029E+03  0.28185016183E+03  0.45326907777E+03  0.46999998093E+01 0. -1.
</event>
<event>
 5   0  0.1574101E-04  0.1101907E+04  0.7818609E-02  0.9203335E-01
        2   -1    0    0  501    0  0.00000000000E+00  0.00000000000E+00  0.22350393663E+04  0.22350393663E+04  0.25500000920E-02 0. -1.
       -2   -1    0    0    0  501  0.00000000000E+00  0.00000000000E+00 -0.13581398229E+03  0.13581398231E+03  0.25500000920E-02 0.  1.
    10030    2    1    2    0    0  0.00000000000E+00  0.00000000000E+00  0.20992253840E+04  0.23708533486E+04  0.11019067056E+04 0.  0.
        4    1    3    3  502    0 -0.23122030803E+03 -0.19308932414E+03  0.57074156991E+02  0.30660298472E+03  0.12699999809E+01 0.  1.
       -4    1    3    3    0  502  0.23122030803E+03  0.19308932414E+03  0.20421512270E+04  0.20642503639E+04  0.12699999809E+01 0. -1.
</event>
<event>
 5   0  0.9016738E-05  0.1099431E+04  0.7818609E-02  0.9205746E-01
        1   -1    0    0  501    0  0.00000000000E+00  0.00000000000E+00  0.99612524634E+03  0.99612524636E+03  0.50400001928E-02 0.  1.
       -1   -1    0    0    0  501  0.00000000000E+00  0.00000000000E+00 -0.30336268516E+03  0.30336268520E+03  0.50400001928E-02 0. -1.
    10030    2    1    2    0    0  0.00000000000E+00  0.00000000000E+00  0.69276256119E+03  0.12994879316E+04  0.10994311793E+04 0.  0.
        4    1    3    3  502    0  0.29642995075E+03  0.17628649072E+03  0.85233633887E+03  0.91947076624E+03  0.12699999809E+01 0.  1.
       -4    1    3    3    0  502 -0.29642995075E+03 -0.17628649072E+03 -0.15957377768E+03  0.38001716532E+03  0.12699999809E+01 0. -1.
</event>
<event>
 5   0  0.1574101E-04  0.1099906E+04  0.7818609E-02  0.9205284E-01
        2   -1    0    0  501    0  0.00000000000E+00  0.00000000000E+00  0.65553933304E+03  0.65553933304E+03  0.25500000920E-02 0. -1.
       -2   -1    0    0    0  501  0.00000000000E+00  0.00000000000E+00 -0.46137307491E+03  0.46137307491E+03  0.25500000920E-02 0.  1.
    10030    2    1    2    0    0  0.00000000000E+00  0.00000000000E+00  0.19416625813E+03  0.11169124080E+04  0.10999058102E+04 0.  0.
        4    1    3    3  502    0 -0.35696154396E+03  0.41568770501E+03  0.14502296392E+03  0.56679015952E+03  0.12699999809E+01 0.  1.
       -4    1    3    3    0  502  0.35696154396E+03 -0.41568770501E+03  0.49143294208E+02  0.55012224844E+03  0.12699999809E+01 0. -1.
</event>
<event>
 5   0  0.8921459E-05  0.1099991E+04  0.7818609E-02  0.9205201E-01
       -1   -1    0    0    0  501  0.00000000000E+00  0.00000000000E+00  0.80378162769E+03  0.80378162770E+03  0.50400001928E-02 0.  1.
        1   -1    0    0  501    0  0.00000000000E+00  0.00000000000E+00 -0.37633976942E+03  0.37633976945E+03  0.50400001928E-02 0. -1.
    10030    2    1    2    0    0  0.00000000000E+00  0.00000000000E+00  0.42744185827E+03  0.11801213972E+04  0.10999908953E+04 0.  0.
        3    1    3    3  502    0  0.31956636736E+02  0.46237583454E+03  0.53140370439E+03  0.70512590807E+03  0.10100000352E+00 0.  1.
       -3    1    3    3    0  502 -0.31956636736E+02 -0.46237583454E+03 -0.10396184612E+03  0.47499548908E+03  0.10100000352E+00 0. -1.
</event>
<event>
 5   0  0.9016738E-05  0.1099965E+04  0.7818609E-02  0.9205226E-01
        1   -1    0    0  501    0  0.00000000000E+00  0.00000000000E+00  0.38273875354E+03  0.38273875357E+03  0.50400001928E-02 0. -1.
       -1   -1    0    0    0  501  0.00000000000E+00  0.00000000000E+00 -0.79030635107E+03  0.79030635109E+03  0.50400001928E-02 0.  1.
    10030    2    1    2    0    0  0.00000000000E+00  0.00000000000E+00 -0.40756759753E+03  0.11730451047E+04  0.10999652136E+04 0.  0.
        4    1    3    3  502    0 -0.86724994451E+02  0.60239482069E+02  0.37182549162E+03  0.38653050201E+03  0.12699999809E+01 0. -1.
       -4    1    3    3    0  502  0.86724994451E+02 -0.60239482069E+02 -0.77939308916E+03  0.78651460266E+03  0.12699999809E+01 0.  1.
</event>
<event>
 5   0  0.8621738E-05  0.1100018E+04  0.7818609E-02  0.9205175E-01
       -1   -1    0    0    0  501  0.00000000000E+00  0.00000000000E+00  0.31880804732E+03  0.31880804736E+03  0.50400001928E-02 0.  1.
        1   -1    0    0  501    0  0.00000000000E+00  0.00000000000E+00 -0.94887734454E+03  0.94887734455E+03  0.50400001928E-02 0. -1.
    10030    2    1    2    0    0  0.00000000000E+00  0.00000000000E+00 -0.63006929722E+03  0.12676853919E+04  0.11000176969E+04 0.  0.
        2    1    3    3  502    0 -0.54846446606E+02  0.17212973298E+03  0.28364086642E+03  0.33628695900E+03  0.25500000920E-02 0.  1.
       -2    1    3    3    0  502  0.54846446606E+02 -0.17212973298E+03 -0.91371016364E+03  0.93139843291E+03  0.25500000920E-02 0. -1.
</event>
<event>
 5   0  0.1553937E-04  0.1099940E+04  0.7818609E-02  0.9205250E-01
       -2   -1    0    0    0  501  0.00000000000E+00  0.00000000000E+00  0.19988129709E+04  0.19988129709E+04  0.25500000920E-02 0. -1.
        2   -1    0    0  501    0  0.00000000000E+00  0.00000000000E+00 -0.15132341100E+03  0.15132341102E+03  0.25500000920E-02 0.  1.
    10030    2    1    2    0    0  0.00000000000E+00  0.00000000000E+00  0.18474895599E+04  0.21501363819E+04  0.10999403561E+04 0.  0.
        1    1    3    3  502    0 -0.52632079735E+03  0.90299818239E+02  0.66663750062E+03  0.85415056995E+03  0.50400001928E-02 0.  1.
       -1    1    3    3    0  502  0.52632079735E+03 -0.90299818239E+02  0.11808520593E+04  0.12959858120E+04  0.50400001928E-02 0. -1.
</event>
<event>
 5   0  0.8657442E-05  0.1099963E+04  0.7818609E-02  0.9205228E-01
       -1   -1    0    0    0  501  0.00000000000E+00  0.00000000000E+00  0.69580597813E+03  0.69580597815E+03  0.50400001928E-02 0. -1.
        1   -1    0    0  501    0  0.00000000000E+00  0.00000000000E+00 -0.43471827590E+03  0.43471827593E+03  0.50400001928E-02 0.  1.
    10030    2    1    2    0    0  0.00000000000E+00  0.00000000000E+00  0.26108770223E+03  0.11305242541E+04  0.10999628634E+04 0.  0.
        1    1    3    3  502    0 -0.13667717804E+03 -0.14341114312E+03 -0.39677262563E+03  0.44348159313E+03  0.50400001928E-02 0.  1.
       -1    1    3    3    0  502  0.13667717804E+03  0.14341114312E+03  0.65786032786E+03  0.68704266095E+03  0.50400001928E-02 0. -1.
</event>
<event>
 5   0  0.1553937E-04  0.1099707E+04  0.7818609E-02  0.9205477E-01
       -2   -1    0    0    0  501  0.00000000000E+00  0.00000000000E+00  0.16375172952E+03  0.16375172954E+03  0.25500000920E-02 0.  1.
        2   -1    0    0  501    0  0.00000000000E+00  0.00000000000E+00 -0.18463249964E+04  0.18463249964E+04  0.25500000920E-02 0. -1.
    10030    2    1    2    0    0  0.00000000000E+00  0.00000000000E+00 -0.16825732669E+04  0.20100767260E+04  0.10997070727E+04 0.  0.
        1    1    3    3  502    0 -0.47912175723E+03  0.63191515012E+01 -0.34831014134E+03  0.59238293739E+03  0.50400001928E-02 0.  1.
       -1    1    3    3    0  502  0.47912175723E+03 -0.63191515012E+01 -0.13342631256E+04  0.14176937886E+04  0.50400001928E-02 0. -1.
</event>
<event>
 5   0  0.1540772E-04  0.1100125E+04  0.7818609E-02  0.9205070E-01
       -2   -1    0    0    0  501  0.00000000000E+00  0.00000000000E+00  0.49867082017E+03  0.49867082018E+03  0.25500000920E-02 0.  1.
        2   -1    0    0  501    0  0.00000000000E+00  0.00000000000E+00 -0.60675035159E+03  0.60675035160E+03  0.25500000920E-02 0. -1.
    10030    2    1    2    0    0  0.00000000000E+00  0.00000000000E+00 -0.10807953142E+03  0.11054211718E+04  0.11001248938E+04 0.  0.
        2    1    3    3  502    0  0.12540376184E+03 -0.14135106724E+02  0.48392805422E+03  0.50011225379E+03  0.25500000920E-02 0.  1.
       -2    1    3    3    0  502 -0.12540376184E+03  0.14135106724E+02 -0.59200758564E+03  0.60530891798E+03  0.25500000920E-02 0. -1.
</event>
<event>
 5   0  0.1574101E-04  0.1099538E+04  0.7818609E-02  0.9205643E-01
        2   -1    0    0  501    0  0.00000000000E+00  0.00000000000E+00  0.31630350804E+04  0.31630350804E+04  0.25500000920E-02 0. -1.
       -2   -1    0    0    0  501  0.00000000000E+00  0.00000000000E+00 -0.95555615571E+02  0.95555615605E+02  0.25500000920E-02 0.  1.
    10030    2    1    2    0    0  0.00000000000E+00  0.00000000000E+00  0.30674794648E+04  0.32585906960E+04  0.10995376560E+04 0.  0.
        4    1    3    3  502    0 -0.38286533310E+03  0.37599943417E+03  0.11795588881E+04  0.12958866544E+04  0.12699999809E+01 0. -1.
       -4    1    3    3    0  502  0.38286533310E+03 -0.37599943417E+03  0.18879205768E+04  0.19627040416E+04  0.12699999809E+01 0.  1.
</event>
<event>
 5   0  0.8621738E-05  0.1100361E+04  0.7818609E-02  0.9204840E-01
        1   -1    0    0  501    0  0.00000000000E+00  0.00000000000E+00  0.10434744177E+04  0.10434744177E+04  0.50400001928E-02 0. -1.
       -1   -1    0    0    0  501  0.00000000000E+00  0.00000000000E+00 -0.29008730744E+03  0.29008730749E+03  0.50400001928E-02 0.  1.
    10030    2    1    2    0    0  0.00000000000E+00  0.00000000000E+00  0.75338711022E+03  0.13335617252E+04  0.11003611848E+04 0.  0.
        2    1    3    3  502    0 -0.25486801996E+03  0.22799892516E+03 -0.14564369683E+03  0.37168979527E+03  0.25500000920E-02 0.  1.
       -2    1    3    3    0  502  0.25486801996E+03 -0.22799892516E+03  0.89903080705E+03  0.96187192989E+03  0.25500000920E-02 0. -1.
</event>
<event>
 5   0  0.8657442E-05  0.1100325E+04  0.7818609E-02  0.9204876E-01
        1   -1    0    0  501    0  0.00000000000E+00  0.00000000000E+00  0.36758586836E+03  0.36758586839E+03  0.50400001928E-02 0. -1.
       -1   -1    0    0    0  501  0.00000000000E+00  0.00000000000E+00 -0.82342272349E+03  0.82342272350E+03  0.50400001928E-02 0.  1.
    10030    2    1    2    0    0  0.00000000000E+00  0.00000000000E+00 -0.45583685513E+03  0.11910085919E+04  0.11003246010E+04 0.  0.
        1    1    3    3  502    0 -0.24237536348E+03 -0.29938353681E+02 -0.76153555981E+03  0.79973653832E+03  0.50400001928E-02 0.  1.
       -1    1    3    3    0  502  0.24237536348E+03  0.29938353681E+02  0.30569870468E+03  0.39127205358E+03  0.50400001928E-02 0. -1.
</event>
<event>
 5   0  0.1574101E-04  0.1099995E+04  0.7818609E-02  0.9205196E-01
       -2   -1    0    0    0  501  0.00000000000E+00  0.00000000000E+00  0.27656891417E+03  0.27656891419E+03  0.25500000920E-02 0. -1.
        2   -1    0    0  501    0  0.00000000000E+00  0.00000000000E+00 -0.10937508015E+04  0.10937508015E+04  0.25500000920E-02 0.  1.
    10030    2    1    2    0    0  0.00000000000E+00  0.00000000000E+00 -0.81718188729E+03  0.13703197157E+04  0.10999954028E+04 0.  0.
        4    1    3    3  502    0 -0.43128240449E+03  0.18358782520E+03 -0.50154852387E+02  0.47140865934E+03  0.12699999809E+01 0. -1.
       -4    1    3    3    0  502  0.43128240449E+03 -0.18358782520E+03 -0.76702703491E+03  0.89891105631E+03  0.12699999809E+01 0.  1.
</event>
<event>
 5   0  0.1464205E-04  0.1100325E+04  0.7818609E-02  0.9204875E-01
       -2   -1    0    0    0  501  0.00000000000E+00  0.00000000000E+00  0.27663649868E+03  0.27663649869E+03  0.25500000920E-02 0.  1.
        2   -1    0    0  501    0  0.00000000000E+00  0.00000000000E+00 -0.10941392283E+04  0.10941392284E+04  0.25500000920E-02 0. -1.
    10030    2    1    2    0    0  0.00000000000E+00  0.00000000000E+00 -0.81750272967E+03  0.13707757270E+04  0.11003251251E+04 0.  0.
        3    1    3    3  502    0  0.12893580633E+03 -0.12564424647E+03  0.23890199418E+03  0.29914058877E+03  0.10100000352E+00 0.  1.
       -3    1    3    3    0  502 -0.12893580633E+03  0.12564424647E+03 -0.10564047238E+04  0.10716351383E+04  0.10100000352E+00 0. -1.
</event>
<event>
 5   0  0.6010125E-05  0.1099398E+04  0.7818609E-02  0.9205779E-01
        4   -1    0    0  501    0  0.00000000000E+00  0.00000000000E+00  0.16128563708E+04  0.16128568708E+04  0.12699999809E+01 0. -1.
       -4   -1    0    0    0  501  0.00000000000E+00  0.00000000000E+00 -0.18734748623E+03  0.18735179074E+03  0.12699999809E+01 0.  1.
    10030    2    1    2    0    0  0.00000000000E+00  0.00000000000E+00  0.14255088845E+04  0.18002086615E+04  0.10993978557E+04 0.  0.
        3    1    3    3  502    0  0.21419684417E+03 -0.21932919330E+03 -0.34366524466E+02  0.30849092579E+03  0.10100000352E+00 0.  1.
       -3    1    3    3    0  502 -0.21419684417E+03  0.21932919330E+03  0.14598754090E+04  0.14917177357E+04  0.10100000352E+00 0. -1.
</event>
<event>
 5   0  0.6010125E-05  0.1099949E+04  0.7818609E-02  0.9205241E-01
       -3   -1    0    0    0  501  0.00000000000E+00  0.00000000000E+00  0.58843826880E+03  0.58843827747E+03  0.10100000352E+00 0.  1.
        3   -1    0    0  501    0  0.00000000000E+00  0.00000000000E+00 -0.51402518831E+03  0.51402519823E+03  0.10100000352E+00 0. -1.
    10030    2    1    2    0    0  0.00000000000E+00  0.00000000000E+00  0.74413080493E+02  0.11024634757E+04  0.10999492755E+04 0.  0.
        4    1    3    3  502    0 -0.10717976076E+03  0.26121266638E+02 -0.50282057863E+03  0.51478147682E+03  0.12699999809E+01 0. -1.
       -4    1    3    3    0  502  0.10717976076E+03 -0.26121266638E+02  0.57723365912E+03  0.58768199888E+03  0.12699999809E+01 0.  1.
</event>
<event>
 5   0  0.8921459E-05  0.1100044E+04  0.7818609E-02  0.9205149E-01
       -1   -1    0    0    0  501  0.00000000000E+00  0.00000000000E+00  0.21921015124E+03  0.21921015130E+03  0.50400001928E-02 0. -1.
        1   -1    0    0  501    0  0.00000000000E+00  0.00000000000E+00 -0.13800646037E+04  0.13800646037E+04  0.50400001928E-02 0.  1.
    10030    2    1    2    0    0  0.00000000000E+00  0.00000000000E+00 -0.11608544525E+04  0.15992747550E+04  0.11000439456E+04 0.  0.
        3    1    3    3  502    0  0.54719976813E+03 -0.39102015934E+02 -0.63798865545E+03  0.84141909211E+03  0.10100000352E+00 0.  1.
       -3    1    3    3    0  502 -0.54719976813E+03  0.39102015934E+02 -0.52286579700E+03  0.75785566288E+03  0.10100000352E+00 0. -1.
</event>
<event>
 5   0  0.1540772E-04  0.1099984E+04  0.7818609E-02  0.9205208E-01
        2   -1    0    0  501    0  0.00000000000E+00  0.00000000000E+00  0.40849278663E+03  0.40849278664E+03  0.25500000920E-02 0.  1.
       -2   -1    0    0    0  501  0.00000000000E+00  0.00000000000E+00 -0.74050522440E+03  0.74050522441E+03  0.25500000920E-02 0. -1.
    10030    2    1    2    0    0  0.00000000000E+00  0.00000000000E+00 -0.33201243777E+03  0.11489980110E+04  0.10999837138E+04 0.  0.
        2    1    3    3  502    0 -0.37464824810E+03  0.12071522051E+03 -0.56725503748E+03  0.69044315611E+03  0.25500000920E-02 0. -1.
       -2    1    3    3    0  502  0.37464824810E+03 -0.12071522051E+03  0.23524259971E+03  0.45855485494E+03  0.25500000920E-02 0.  1.
</event>
<event>
 5   0  0.1574101E-04  0.1099611E+04  0.7818609E-02  0.9205572E-01
       -2   -1    0    0    0  501  0.00000000000E+00  0.00000000000E+00  0.24790271793E+03  0.24790271794E+03  0.25500000920E-02 0. -1.
        2   -1    0    0  501    0  0.00000000000E+00  0.00000000000E+00 -0.12193728379E+04  0.12193728379E+04  0.25500000920E-02 0.  1.
    10030    2    1    2    0    0  0.00000000000E+00  0.00000000000E+00 -0.97147011994E+03  0.14672755558E+04  0.10996105505E+04 0.  0.
        4    1    3    3  502    0  0.25812994076E+03 -0.16510603720E+03  0.12340128388E+03  0.33033401218E+03  0.12699999809E+01 0. -1.
       -4    1    3    3    0  502 -0.25812994076E+03  0.16510603720E+03 -0.10948714038E+04  0.11369415436E+04  0.12699999809E+01 0.  1.
</event>
<event>
 5   0  0.8657442E-05  0.1099935E+04  0.7818609E-02  0.9205255E-01
       -1   -1    0    0    0  501  0.00000000000E+00  0.00000000000E+00  0.64302682684E+03  0.64302682686E+03  0.50400001928E-02 0. -1.
        1   -1    0    0  501    0  0.00000000000E+00  0.00000000000E+00 -0.47037592034E+03  0.47037592037E+03  0.50400001928E-02 0.  1.
    10030    2    1    2    0    0  0.00000000000E+00  0.00000000000E+00  0.17265090649E+03  0.11134027472E+04  0.10999351535E+04 0.  0.
        1    1    3    3  502    0  0.16274609125E+03 -0.38481850401E+03  0.44832513895E+03  0.61283521561E+03  0.50400001928E-02 0. -1.
       -1    1    3    3    0  502 -0.16274609125E+03  0.38481850401E+03 -0.27567423246E+03  0.50056753162E+03  0.50400001928E-02 0.  1.
</event>
<event>
 5   0  0.8657442E-05  0.1099727E+04  0.7818609E-02  0.9205458E-01
       -1   -1    0    0    0  501  0.00000000000E+00  0.00000000000E+00  0.68110476837E+03  0.68110476839E+03  0.50400001928E-02 0.  1.
        1   -1    0    0  501    0  0.00000000000E+00  0.00000000000E+00 -0.44391099320E+03  0.44391099323E+03  0.50400001928E-02 0. -1.
    10030    2    1    2    0    0  0.00000000000E+00  0.00000000000E+00  0.23719377518E+03  0.11250157616E+04  0.10997270465E+04 0.  0.
        1    1    3    3  502    0  0.31832717051E+01 -0.43946871124E+03  0.45666091795E+03  0.63378393431E+03  0.50400001928E-02 0.  1.
       -1    1    3    3    0  502 -0.31832717051E+01  0.43946871124E+03 -0.21946714277E+03  0.49123182731E+03  0.50400001928E-02 0. -1.
</event>
<event>
 5   0  0.1464205E-04  0.1099635E+04  0.7818609E-02  0.9205548E-01
       -2   -1    0    0    0  501  0.00000000000E+00  0.00000000000E+00  0.38666365465E+03  0.38666365466E+03  0.25500000920E-02 0.  1.
        2   -1    0    0  501    0  0.00000000000E+00  0.00000000000E+00 -0.78181464459E+03  0.78181464459E+03  0.25500000920E-02 0. -1.
    10030    2    1    2    0    0  0.00000000000E+00  0.00000000000E+00 -0.39515098994E+03  0.11684782992E+04  0.10996350444E+04 0.  0.
        3    1    3    3  502    0  0.18106032011E+03 -0.37862703414E+03  0.17984851407E+03  0.45660351369E+03  0.10100000352E+00 0.  1.
       -3    1    3    3    0  502 -0.18106032011E+03  0.37862703414E+03 -0.57499950400E+03  0.71187478555E+03  0.10100000352E+00 0. -1.
</event>
<event>
 5   0  0.9016738E-05  0.1100365E+04  0.7818609E-02  0.9204836E-01
       -1   -1    0    0    0  501  0.00000000000E+00  0.00000000000E+00  0.32859482928E+03  0.32859482932E+03  0.50400001928E-02 0. -1.
        1   -1    0    0  501    0  0.00000000000E+00  0.00000000000E+00 -0.92119769223E+03  0.92119769225E+03  0.50400001928E-02 0.  1.
    10030    2    1    2    0    0  0.00000000000E+00  0.00000000000E+00 -0.59260286295E+03  0.12497925216E+04  0.11003650275E+04 0.  0.
        4    1    3    3  502    0 -0.15065355965E+03  0.81602049684E+02 -0.89012270679E+03  0.90646314630E+03  0.12699999809E+01 0.  1.
       -4    1    3    3    0  502  0.15065355965E+03 -0.81602049684E+02  0.29751984384E+03  0.34332937527E+03  0.12699999809E+01 0. -1.
</event>
<event>
 5   0  0.8657442E-05  0.1098271E+04  0.7818609E-02  0.9206879E-01
        1   -1    0    0  501    0  0.00000000000E+00  0.00000000000E+00  0.12176710547E+04  0.12176710547E+04  0.50400001928E-02 0.  1.
       -1   -1    0    0    0  501  0.00000000000E+00  0.00000000000E+00 -0.24764478390E+03  0.24764478395E+03  0.50400001928E-02 0. -1.
    10030    2    1    2    0    0  0.00000000000E+00  0.00000000000E+00  0.97002627081E+03  0.14653158387E+04  0.10982711601E+04 0.  0.
        1    1    3    3  502    0  0.18719514023E+03 -0.28110957637E+03 -0.92690687801E+02  0.35022304048E+03  0.50400001928E-02 0. -1.
       -1    1    3    3    0  502 -0.18719514023E+03  0.28110957637E+03  0.10627169586E+04  0.11150927982E+04  0.50400001928E-02 0.  1.
</event>
<event>
 5   0  0.6010125E-05  0.1099783E+04  0.7818609E-02  0.9205404E-01
       -3   -1    0    0    0  501  0.00000000000E+00  0.00000000000E+00  0.10596738258E+04  0.10596738306E+04  0.10100000352E+00 0. -1.
        3   -1    0    0  501    0  0.00000000000E+00  0.00000000000E+00 -0.28535243217E+03  0.28535245004E+03  0.10100000352E+00 0.  1.
    10030    2    1    2    0    0  0.00000000000E+00  0.00000000000E+00  0.77432139359E+03  0.13450262806E+04  0.10997827399E+04 0.  0.
        4    1    3    3  502    0 -0.11066808061E+03 -0.17345510508E+03  0.10108208032E+04  0.10315495173E+04  0.12699999809E+01 0. -1.
       -4    1    3    3    0  502  0.11066808061E+03  0.17345510508E+03 -0.23649940957E+03  0.31347676337E+03  0.12699999809E+01 0.  1.
</event>
<event>
 5   0  0.8657442E-05  0.1099965E+04  0.7818609E-02  0.9205226E-01
       -1   -1    0    0    0  501  0.00000000000E+00  0.00000000000E+00  0.47579437057E+03  0.47579437059E+03  0.50400001928E-02 0.  1.
        1   -1    0    0  501    0  0.00000000000E+00  0.00000000000E+00 -0.63573849958E+03  0.63573849960E+03  0.50400001928E-02 0. -1.
    10030    2    1    2    0    0  0.00000000000E+00  0.00000000000E+00 -0.15994412901E+03  0.11115328702E+04  0.10999650890E+04 0.  0.
        1    1    3    3  502    0  0.21811599976E+03 -0.43271412691E+03 -0.34283204448E+03  0.59359069714E+03  0.50400001928E-02 0. -1.
       -1    1    3    3    0  502 -0.21811599976E+03  0.43271412691E+03  0.18288791547E+03  0.51794217305E+03  0.50400001928E-02 0.  1.
</event>
<event>
 5   0  0.8921459E-05  0.1100449E+04  0.7818609E-02  0.9204754E-01
        1   -1    0    0  501    0  0.00000000000E+00  0.00000000000E+00  0.51956077787E+03  0.51956077790E+03  0.50400001928E-02 0.  1.
       -1   -1    0    0    0  501  0.00000000000E+00  0.00000000000E+00 -0.58269840965E+03  0.58269840967E+03  0.50400001928E-02 0. -1.
    10030    2    1    2    0    0  0.00000000000E+00  0.00000000000E+00 -0.63137631775E+02  0.11022591876E+04  0.11004494337E+04 0.  0.
        3    1    3    3  502    0  0.25112586247E+03 -0.21346348885E+03  0.40974214652E+03  0.52585121157E+03  0.10100000352E+00 0.  1.
       -3    1    3    3    0  502 -0.25112586247E+03  0.21346348885E+03 -0.47287977829E+03  0.57640797600E+03  0.10100000352E+00 0. -1.
</event>
<event>
 5   0  0.1503277E-04  0.1099719E+04  0.7818609E-02  0.9205465E-01
        2   -1    0    0  501    0  0.00000000000E+00  0.00000000000E+00  0.77516581551E+03  0.77516581551E+03  0.25500000920E-02 0. -1.
       -2   -1    0    0    0  501  0.00000000000E+00  0.00000000000E+00 -0.39003997342E+03  0.39003997343E+03  0.25500000920E-02 0.  1.
    10030    2    1    2    0    0  0.00000000000E+00  0.00000000000E+00  0.38512584209E+03  0.11652057889E+04  0.10997193353E+04 0.  0.
        5    1    3    3  502    0 -0.48299282949E+03 -0.85851452485E+02  0.45568744921E+03  0.66957127074E+03  0.46999998093E+01 0. -1.
       -5    1    3    3    0  502  0.48299282949E+03  0.85851452485E+02 -0.70561607122E+02  0.49563451820E+03  0.46999998093E+01 0.  1.
</event>
<event>
 5   0  0.9016738E-05  0.1099806E+04  0.7818609E-02  0.9205381E-01
       -1   -1    0    0    0  501  0.00000000000E+00  0.00000000000E+00  0.25075389147E+03  0.25075389153E+03  0.50400001928E-02 0.  1.
        1   -1    0    0  501    0  0.00000000000E+00  0.00000000000E+00 -0.12059364881E+04  0.12059364881E+04  0.50400001928E-02 0. -1.
    10030    2    1    2    0    0  0.00000000000E+00  0.00000000000E+00 -0.95518259662E+03  0.14566903796E+04  0.10998059234E+04 0.  0.
        4    1    3    3  502    0  0.29753074896E+03 -0.45864520276E+03 -0.39910225704E+03  0.67687827049E+03  0.12699999809E+01 0. -1.
       -4    1    3    3    0  502 -0.29753074896E+03  0.45864520276E+03 -0.55608033959E+03  0.77981210914E+03  0.12699999809E+01 0.  1.
</event>
<event>
 5   0  0.8657442E-05  0.1099988E+04  0.7818609E-02  0.9205204E-01
       -1   -1    0    0    0  501  0.00000000000E+00  0.00000000000E+00  0.14232602177E+03  0.14232602186E+03  0.50400001928E-02 0.  1.
        1   -1    0    0  501    0  0.00000000000E+00  0.00000000000E+00 -0.21253551893E+04  0.21253551893E+04  0.50400001928E-02 0. -1.
    10030    2    1    2    0    0  0.00000000000E+00  0.00000000000E+00 -0.19830291675E+04  0.22676812111E+04  0.10999879073E+04 0.  0.
        1    1    3    3  502    0  0.30699796746E+03  0.42364251507E+03 -0.64182413622E+03  0.82804526112E+03  0.50400001928E-02 0.  1.
       -1    1    3    3    0  502 -0.30699796746E+03 -0.42364251507E+03 -0.13412050313E+04  0.14396359500E+04  0.50400001928E-02 0. -1.
</event>
<event>
 5   0  0.8657442E-05  0.1099966E+04  0.7818609E-02  0.9205225E-01
        1   -1    0    0  501    0  0.00000000000E+00  0.00000000000E+00  0.10133110005E+04  0.10133110005E+04  0.50400001928E-02 0. -1.
       -1   -1    0    0    0  501  0.00000000000E+00  0.00000000000E+00 -0.29850772793E+03  0.29850772797E+03  0.50400001928E-02 0.  1.
    10030    2    1    2    0    0  0.00000000000E+00  0.00000000000E+00  0.71480327253E+03  0.13118187284E+04  0.10999657530E+04 0.  0.
        1    1    3    3  502    0 -0.17693617443E+03  0.30868037069E+03  0.85757055268E+03  0.92844883215E+03  0.50400001928E-02 0. -1.
       -1    1    3    3    0  502  0.17693617443E+03 -0.30868037069E+03 -0.14276728015E+03  0.38336989629E+03  0.50400001928E-02 0.  1.
</event>
<event>
 5   0  0.1503277E-04  0.1099287E+04  0.7818609E-02  0.9205887E-01
        2   -1    0    0  501    0  0.00000000000E+00  0.00000000000E+00  0.90876007688E+03  0.90876007689E+03  0.25500000920E-02 0.  1.
       -2   -1    0    0    0  501  0.00000000000E+00  0.00000000000E+00 -0.33243956816E+03  0.33243956817E+03  0.25500000920E-02 0. -1.
    10030    2    1    2    0    0  0.00000000000E+00  0.00000000000E+00  0.57632050873E+03  0.12411996451E+04  0.10992866915E+04 0.  0.
        5    1    3    3  502    0 -0.31261759760E+02  0.40488683890E+03 -0.13002456558E+03  0.42642599309E+03  0.46999998093E+01 0. -1.
       -5    1    3    3    0  502  0.31261759760E+02 -0.40488683890E+03  0.70634507430E+03  0.81477365196E+03  0.46999998093E+01 0.  1.
</event>
<event>
 5   0  0.1574101E-04  0.1100264E+04  0.7818609E-02  0.9204934E-01
       -2   -1    0    0    0  501  0.00000000000E+00  0.00000000000E+00  0.40968553662E+03  0.40968553663E+03  0.25500000920E-02 0.  1.
        2   -1    0    0  501    0  0.00000000000E+00  0.00000000000E+00 -0.73872594740E+03  0.73872594740E+03  0.25500000920E-02 0. -1.
    10030    2    1    2    0    0  0.00000000000E+00  0.00000000000E+00 -0.32904041078E+03  0.11484114840E+04  0.11002642159E+04 0.  0.
        4    1    3    3  502    0 -0.39476964386E+03  0.60134153874E+01 -0.56438303387E+03  0.68877358740E+03  0.12699999809E+01 0. -1.
       -4    1    3    3    0  502  0.39476964386E+03 -0.60134153874E+01  0.23534262309E+03  0.45963789663E+03  0.12699999809E+01 0.  1.
</event>
<event>
 5   0  0.9346836E-05  0.1100191E+04  0.7818609E-02  0.9205006E-01
       -1   -1    0    0    0  501  0.00000000000E+00  0.00000000000E+00  0.20309352405E+03  0.20309352411E+03  0.50400001928E-02 0. -1.
        1   -1    0    0  501    0  0.00000000000E+00  0.00000000000E+00 -0.14899781964E+04  0.14899781964E+04  0.50400001928E-02 0.  1.
    10030    2    1    2    0    0  0.00000000000E+00  0.00000000000E+00 -0.12868846723E+04  0.16930717205E+04  0.11001907520E+04 0.  0.
        5    1    3    3  502    0 -0.35428324185E+03  0.36807058275E+03 -0.32960601738E+03  0.60799242268E+03  0.46999998093E+01 0. -1.
       -5    1    3    3    0  502  0.35428324185E+03 -0.36807058275E+03 -0.95727865492E+03  0.10850792978E+04  0.46999998093E+01 0.  1.
</event>
<event>
 5   0  0.1574101E-04  0.1099456E+04  0.7818609E-02  0.9205722E-01
        2   -1    0    0  501    0  0.00000000000E+00  0.00000000000E+00  0.81572100506E+03  0.81572100507E+03  0.25500000920E-02 0.  1.
       -2   -1    0    0    0  501  0.00000000000E+00  0.00000000000E+00 -0.37047085974E+03  0.37047085975E+03  0.25500000920E-02 0. -1.
    10030    2    1    2    0    0  0.00000000000E+00  0.00000000000E+00  0.44525014532E+03  0.11861918648E+04  0.10994559783E+04 0.  0.
        4    1    3    3  502    0 -0.10663191094E+03 -0.27665796138E+03  0.72205814261E+03  0.78056362087E+03  0.12699999809E+01 0.  1.
       -4    1    3    3    0  502  0.10663191094E+03  0.27665796138E+03 -0.27680799728E+03  0.40562824394E+03  0.12699999809E+01 0. -1.
</event>
<event>
 5   0  0.8921459E-05  0.1100489E+04  0.7818609E-02  0.9204716E-01
       -1   -1    0    0    0  501  0.00000000000E+00  0.00000000000E+00  0.37878687681E+03  0.37878687684E+03  0.50400001928E-02 0. -1.
        1   -1    0    0  501    0  0.00000000000E+00  0.00000000000E+00 -0.79931205737E+03  0.79931205739E+03  0.50400001928E-02 0.  1.
    10030    2    1    2    0    0  0.00000000000E+00  0.00000000000E+00 -0.42052518057E+03  0.11780989342E+04  0.11004888329E+04 0.  0.
        3    1    3    3  502    0  0.49115895448E+03 -0.22861004153E+03 -0.31332923533E+03  0.62583934805E+03  0.10100000352E+00 0.  1.
       -3    1    3    3    0  502 -0.49115895448E+03  0.22861004153E+03 -0.10719594524E+03  0.55225958618E+03  0.10100000352E+00 0. -1.
</event>
<event>
 5   0  0.1540772E-04  0.1100076E+04  0.7818609E-02  0.9205118E-01
       -2   -1    0    0    0  501  0.00000000000E+00  0.00000000000E+00  0.78710811272E+03  0.78710811272E+03  0.25500000920E-02 0. -1.
        2   -1    0    0  501    0  0.00000000000E+00  0.00000000000E+00 -0.38437153786E+03  0.38437153787E+03  0.25500000920E-02 0.  1.
    10030    2    1    2    0    0  0.00000000000E+00  0.00000000000E+00  0.40273657486E+03  0.11714796506E+04  0.11000762805E+04 0.  0.
        2    1    3    3  502    0  0.49314425898E+03  0.21215944202E+03  0.32888655134E+03  0.62957863104E+03  0.25500000920E-02 0. -1.
       -2    1    3    3    0  502 -0.49314425898E+03 -0.21215944202E+03  0.73850023525E+02  0.54190101955E+03  0.25500000920E-02 0.  1.
</event>
<event>
 5   0  0.1553937E-04  0.1099920E+04  0.7818609E-02  0.9205270E-01
       -2   -1    0    0    0  501  0.00000000000E+00  0.00000000000E+00  0.32110547831E+03  0.32110547832E+03  0.25500000920E-02 0. -1.
        2   -1    0    0  501    0  0.00000000000E+00  0.00000000000E+00 -0.94192120796E+03  0.94192120796E+03  0.25500000920E-02 0.  1.
    10030    2    1    2    0    0  0.00000000000E+00  0.00000000000E+00 -0.62081572965E+03  0.12630266863E+04  0.10999201062E+04 0.  0.
        1    1    3    3  502    0  0.34383071845E+03 -0.24814239395E+03 -0.71257459492E+03  0.82919042685E+03  0.50400001928E-02 0.  1.
       -1    1    3    3    0  502 -0.34383071845E+03  0.24814239395E+03  0.91758865277E+02  0.43383625944E+03  0.50400001928E-02 0. -1.
</event>
<event>
 5   0  0.9016738E-05  0.1100209E+04  0.7818609E-02  0.9204988E-01
        1   -1    0    0  501    0  0.00000000000E+00  0.00000000000E+00  0.45675683836E+03  0.45675683838E+03  0.50400001928E-02 0.  1.
       -1   -1    0    0    0  501  0.00000000000E+00  0.00000000000E+00 -0.66252983114E+03  0.66252983116E+03  0.50400001928E-02 0. -1.
    10030    2    1    2    0    0  0.00000000000E+00  0.00000000000E+00 -0.20577299279E+03  0.11192866695E+04  0.11002091274E+04 0.  0.
        4    1    3    3  502    0  0.74764673033E+01  0.38838758691E+03  0.29337047657E+03  0.48679427344E+03  0.12699999809E+01 0.  1.
       -4    1    3    3    0  502 -0.74764673033E+01 -0.38838758691E+03 -0.49914346936E+03  0.63249239611E+03  0.12699999809E+01 0. -1.
</event>
<event>
 5   0  0.1553937E-04  0.1101867E+04  0.7818609E-02  0.9203374E-01
        2   -1    0    0  501    0  0.00000000000E+00  0.00000000000E+00  0.27766220888E+03  0.27766220889E+03  0.25500000920E-02 0. -1.
       -2   -1    0    0    0  501  0.00000000000E+00  0.00000000000E+00 -0.10931552590E+04  0.10931552590E+04  0.25500000920E-02 0.  1.
    10030    2    1    2    0    0  0.00000000000E+00  0.00000000000E+00 -0.81549305016E+03  0.13708174679E+04  0.11018673312E+04 0.  0.
        1    1    3    3  502    0  0.41095847152E+03 -0.19146126964E+03 -0.79717442694E+03  0.91707761399E+03  0.50400001928E-02 0.  1.
       -1    1    3    3    0  502 -0.41095847152E+03  0.19146126964E+03 -0.18318623216E+02  0.45373985395E+03  0.50400001928E-02 0. -1.
</event>
<event>
 5   0  0.6010125E-05  0.1100807E+04  0.7818609E-02  0.9204406E-01
        4   -1    0    0  501    0  0.00000000000E+00  0.00000000000E+00  0.14286405365E+04  0.14286411010E+04  0.12699999809E+01 0. -1.
       -4   -1    0    0    0  501  0.00000000000E+00  0.00000000000E+00 -0.21204804485E+03  0.21205184796E+03  0.12699999809E+01 0.  1.
    10030    2    1    2    0    0  0.00000000000E+00  0.00000000000E+00  0.12165924916E+04  0.16406929489E+04  0.11008070049E+04 0.  0.
        4    1    3    3  502    0  0.26061999869E+03 -0.10430698954E+03  0.13139237362E+04  0.13435772882E+04  0.12699999809E+01 0. -1.
       -4    1    3    3    0  502 -0.26061999869E+03  0.10430698954E+03 -0.97331244600E+02  0.29711566074E+03  0.12699999809E+01 0.  1.
</event>
<event>
 5   0  0.1574101E-04  0.1100221E+04  0.7818609E-02  0.9204977E-01
        2   -1    0    0  501    0  0.00000000000E+00  0.00000000000E+00  0.11730383895E+04  0.11730383895E+04  0.25500000920E-02 0.  1.
       -2   -1    0    0    0  501  0.00000000000E+00  0.00000000000E+00 -0.25798078891E+03  0.25798078892E+03  0.25500000920E-02 0. -1.
    10030    2    1    2    0    0  0.00000000000E+00  0.00000000000E+00  0.91505760056E+03  0.14310191784E+04  0.11002206490E+04 0.  0.
        4    1    3    3  502    0  0.22778584857E+03 -0.39187281256E+03  0.86297167106E+03  0.97476787595E+03  0.12699999809E+01 0.  1.
       -4    1    3    3    0  502 -0.22778584857E+03  0.39187281256E+03  0.52085929502E+02  0.45625130245E+03  0.12699999809E+01 0. -1.
</event>
<event>
 5   0  0.1464205E-04  0.1099139E+04  0.7818609E-02  0.9206032E-01
        2   -1    0    0  501    0  0.00000000000E+00  0.00000000000E+00  0.18064711246E+04  0.18064711246E+04  0.25500000920E-02 0.  1.
       -2   -1    0    0    0  501  0.00000000000E+00  0.00000000000E+00 -0.16719141328E+03  0.16719141330E+03  0.25500000920E-02 0. -1.
    10030    2    1    2    0    0  0.00000000000E+00  0.00000000000E+00  0.16392797113E+04  0.19736625379E+04  0.10991386817E+04 0.  0.
        3    1    3    3  502    0 -0.89781883292E+01 -0.47940337933E+03  0.33742235016E+03  0.58631225518E+03  0.10100000352E+00 0. -1.
       -3    1    3    3    0  502  0.89781883292E+01  0.47940337933E+03  0.13018573611E+04  0.13873502827E+04  0.10100000352E+00 0.  1.
</event>
<event>
 5   0  0.8621738E-05  0.1099956E+04  0.7818609E-02  0.9205234E-01
        1   -1    0    0  501    0  0.00000000000E+00  0.00000000000E+00  0.45312395034E+03  0.45312395037E+03  0.50400001928E-02 0. -1.
       -1   -1    0    0    0  501  0.00000000000E+00  0.00000000000E+00 -0.66753490525E+03  0.66753490527E+03  0.50400001928E-02 0.  1.
    10030    2    1    2    0    0  0.00000000000E+00  0.00000000000E+00 -0.21441095491E+03  0.11206588556E+04  0.10999564597E+04 0.  0.
        2    1    3    3  502    0  0.52426375266E+03  0.12766899712E+03 -0.21562354492E+03  0.58107260158E+03  0.25500000920E-02 0.  1.
       -2    1    3    3    0  502 -0.52426375266E+03 -0.12766899712E+03  0.12125900118E+01  0.53958625405E+03  0.25500000920E-02 0. -1.
</event>
<event>
 5   0  0.9016738E-05  0.1094934E+04  0.7818609E-02  0.9210143E-01
        1   -1    0    0  501    0  0.00000000000E+00  0.00000000000E+00  0.46801917453E+03  0.46801917456E+03  0.50400001928E-02 0.  1.
       -1   -1    0    0    0  501  0.00000000000E+00  0.00000000000E+00 -0.64040156357E+03  0.64040156359E+03  0.50400001928E-02 0. -1.
    10030    2    1    2    0    0  0.00000000000E+00  0.00000000000E+00 -0.17238238904E+03  0.11084207381E+04  0.10949341737E+04 0.  0.
        4    1    3    3  502    0 -0.37003824957E+03 -0.19934220504E+03  0.26891863619E+03  0.49898343323E+03  0.12699999809E+01 0.  1.
       -4    1    3    3    0  502  0.37003824957E+03  0.19934220504E+03 -0.44130102522E+03  0.60943730491E+03  0.12699999809E+01 0. -1.
</event>
<event>
 5   0  0.8921459E-05  0.1097846E+04  0.7818609E-02  0.9207294E-01
        1   -1    0    0  501    0  0.00000000000E+00  0.00000000000E+00  0.12585126767E+04  0.12585126768E+04  0.50400001928E-02 0.  1.
       -1   -1    0    0    0  501  0.00000000000E+00  0.00000000000E+00 -0.23942261581E+03  0.23942261586E+03  0.50400001928E-02 0. -1.
    10030    2    1    2    0    0  0.00000000000E+00  0.00000000000E+00  0.10190900609E+04  0.14979352926E+04  0.10978458856E+04 0.  0.
        3    1    3    3  502    0 -0.12460600755E+03 -0.17862774203E+03 -0.17794674967E+03  0.28124648133E+03  0.10100000352E+00 0. -1.
       -3    1    3    3    0  502  0.12460600755E+03  0.17862774203E+03  0.11970368106E+04  0.12166888113E+04  0.10100000352E+00 0.  1.
</event>
<event>
 5   0  0.8921459E-05  0.1100087E+04  0.7818609E-02  0.9205107E-01
       -1   -1    0    0    0  501  0.00000000000E+00  0.00000000000E+00  0.56910004282E+03  0.56910004285E+03  0.50400001928E-02 0.  1.
        1   -1    0    0  501    0  0.00000000000E+00  0.00000000000E+00 -0.53162501081E+03  0.53162501083E+03  0.50400001928E-02 0. -1.
    10030    2    1    2    0    0  0.00000000000E+00  0.00000000000E+00  0.37475032014E+02  0.11007250537E+04  0.11000869356E+04 0.  0.
        3    1    3    3  502    0 -0.27326470447E+03  0.47565506615E+03 -0.21615340419E+02  0.54898868277E+03  0.10100000352E+00 0. -1.
       -3    1    3    3    0  502  0.27326470447E+03 -0.47565506615E+03  0.59090372433E+02  0.55173637091E+03  0.10100000352E+00 0.  1.
</event>
<event>
 5   0  0.1553937E-04  0.1101586E+04  0.7818609E-02  0.9203648E-01
       -2   -1    0    0    0  501  0.00000000000E+00  0.00000000000E+00  0.43303021272E+03  0.43303021272E+03  0.25500000920E-02 0.  1.
        2   -1    0    0  501    0  0.00000000000E+00  0.00000000000E+00 -0.70058116572E+03  0.70058116572E+03  0.25500000920E-02 0. -1.
    10030    2    1    2    0    0  0.00000000000E+00  0.00000000000E+00 -0.26755095300E+03  0.11336113784E+04  0.11015857864E+04 0.  0.
        1    1    3    3  502    0  0.42542124208E+03 -0.31908866195E+03  0.13823780301E+02  0.53196983403E+03  0.50400001928E-02 0.  1.
       -1    1    3    3    0  502 -0.42542124208E+03  0.31908866195E+03 -0.28137473330E+03  0.60164154441E+03  0.50400001928E-02 0. -1.
</event>
<event>
 5   0  0.1503277E-04  0.1097455E+04  0.7818609E-02  0.9207676E-01
       -2   -1    0    0    0  501  0.00000000000E+00  0.00000000000E+00  0.48342611602E+03  0.48342611603E+03  0.25500000920E-02 0. -1.
        2   -1    0    0  501    0  0.00000000000E+00  0.00000000000E+00 -0.62284934155E+03  0.62284934156E+03  0.25500000920E-02 0.  1.
    10030    2    1    2    0    0  0.00000000000E+00  0.00000000000E+00 -0.13942322553E+03  0.11062754576E+04  0.10974545787E+04 0.  0.
        5    1    3    3  502    0  0.28493497238E+03  0.39135149721E+03 -0.33012035339E+03  0.58595688457E+03  0.46999998093E+01 0.  1.
       -5    1    3    3    0  502 -0.28493497238E+03 -0.39135149721E+03  0.19069712786E+03  0.52031857302E+03  0.46999998093E+01 0. -1.
</event>
<event>
 5   0  0.1540772E-04  0.1099814E+04  0.7818609E-02  0.9205374E-01
       -2   -1    0    0    0  501  0.00000000000E+00  0.00000000000E+00  0.53080533715E+03  0.53080533715E+03  0.25500000920E-02 0. -1.
        2   -1    0    0  501    0  0.00000000000E+00  0.00000000000E+00 -0.56969556203E+03  0.56969556204E+03  0.25500000920E-02 0.  1.
    10030    2    1    2    0    0  0.00000000000E+00  0.00000000000E+00 -0.38890224885E+02  0.11005008992E+04  0.10998135203E+04 0.  0.
        2    1    3    3  502    0 -0.76540675474E+02 -0.49647924878E+01  0.52542650267E+03  0.53099541794E+03  0.25500000920E-02 0. -1.
       -2    1    3    3    0  502  0.76540675474E+02  0.49647924878E+01 -0.56431672755E+03  0.56950548124E+03  0.25500000920E-02 0.  1.
</event>
<event>
 5   0  0.8657442E-05  0.1100740E+04  0.7818609E-02  0.9204470E-01
       -1   -1    0    0    0  501  0.00000000000E+00  0.00000000000E+00  0.12326532006E+04  0.12326532006E+04  0.50400001928E-02 0. -1.
        1   -1    0    0  501    0  0.00000000000E+00  0.00000000000E+00 -0.24573610370E+03  0.24573610375E+03  0.50400001928E-02 0.  1.
    10030    2    1    2    0    0  0.00000000000E+00  0.00000000000E+00  0.98691709687E+03  0.14783893043E+04  0.11007404685E+04 0.  0.
        1    1    3    3  502    0  0.49340752893E+03 -0.16093190137E+03  0.73949393022E+03  0.90343861957E+03  0.50400001928E-02 0. -1.
       -1    1    3    3    0  502 -0.49340752893E+03  0.16093190137E+03  0.24742316665E+03  0.57495068476E+03  0.50400001928E-02 0.  1.
</event>
<event>
 5   0  0.1540772E-04  0.1099967E+04  0.7818609E-02  0.9205224E-01
       -2   -1    0    0    0  501  0.00000000000E+00  0.00000000000E+00  0.13336027595E+04  0.13336027595E+04  0.25500000920E-02 0.  1.
        2   -1    0    0  501    0  0.00000000000E+00  0.00000000000E+00 -0.22681537285E+03  0.22681537286E+03  0.25500000920E-02 0. -1.
    10030    2    1    2    0    0  0.00000000000E+00  0.00000000000E+00  0.11067873867E+04  0.15604181324E+04  0.10999665579E+04 0.  0.
        2    1    3    3  502    0  0.32009525352E+03  0.51585437202E+02 -0.76824028034E+02  0.33320258094E+03  0.25500000920E-02 0. -1.
       -2    1    3    3    0  502 -0.32009525352E+03 -0.51585437202E+02  0.11836114147E+04  0.12272155514E+04  0.25500000920E-02 0.  1.
</event>
<event>
 5   0  0.8657442E-05  0.1099810E+04  0.7818609E-02  0.9205377E-01
       -1   -1    0    0    0  501  0.00000000000E+00  0.00000000000E+00  0.30185007401E+03  0.30185007405E+03  0.50400001928E-02 0. -1.
        1   -1    0    0  501    0  0.00000000000E+00  0.00000000000E+00 -0.10018078263E+04  0.10018078263E+04  0.50400001928E-02 0.  1.
    10030    2    1    2    0    0  0.00000000000E+00  0.00000000000E+00 -0.69995775228E+03  0.13036579003E+04  0.10998104683E+04 0.  0.
        1    1    3    3  502    0 -0.82250390623E+02  0.53787556075E+03 -0.25574170781E+03  0.60123129222E+03  0.50400001928E-02 0. -1.
       -1    1    3    3    0  502  0.82250390623E+02 -0.53787556075E+03 -0.44421604447E+03  0.70242660812E+03  0.50400001928E-02 0.  1.
</event>
<event>
 5   0  0.9346836E-05  0.1100751E+04  0.7818609E-02  0.9204460E-01
       -1   -1    0    0    0  501  0.00000000000E+00  0.00000000000E+00  0.39687980418E+03  0.39687980421E+03  0.50400001928E-02 0.  1.
        1   -1    0    0  501    0  0.00000000000E+00  0.00000000000E+00 -0.76323728732E+03  0.76323728734E+03  0.50400001928E-02 0. -1.
    10030    2    1    2    0    0  0.00000000000E+00  0.00000000000E+00 -0.36635748314E+03  0.11601170915E+04  0.11007514981E+04 0.  0.
        5    1    3    3  502    0 -0.48279583912E+02  0.48099255944E+03 -0.46043818229E+03  0.66761528606E+03  0.46999998093E+01 0. -1.
       -5    1    3    3    0  502  0.48279583912E+02 -0.48099255944E+03  0.94080699155E+02  0.49250180549E+03  0.46999998093E+01 0.  1.
</event>
<event>
 5   0  0.1574101E-04  0.1100142E+04  0.7818609E-02  0.9205053E-01
        2   -1    0    0  501    0  0.00000000000E+00  0.00000000000E+00  0.25616404286E+03  0.25616404288E+03  0.25500000920E-02 0.  1.
       -2   -1    0    0    0  501  0.00000000000E+00  0.00000000000E+00 -0.11811897709E+04  0.11811897709E+04  0.25500000920E-02 0. -1.
    10030    2    1    2    0    0  0.00000000000E+00  0.00000000000E+00 -0.92502572807E+03  0.14373538138E+04  0.11001424401E+04 0.  0.
        4    1    3    3  502    0 -0.41198294507E+03 -0.12167730617E+03 -0.13631081604E+02  0.42979382633E+03  0.12699999809E+01 0.  1.
       -4    1    3    3    0  502  0.41198294507E+03  0.12167730617E+03 -0.91139464647E+03  0.10075599875E+04  0.12699999809E+01 0. -1.
</event>
<event>
 5   0  0.8657442E-05  0.1105039E+04  0.7818609E-02  0.9200294E-01
       -1   -1    0    0    0  501  0.00000000000E+00  0.00000000000E+00  0.23467954757E+03  0.23467954763E+03  0.50400001928E-02 0.  1.
        1   -1    0    0  501    0  0.00000000000E+00  0.00000000000E+00 -0.13008283297E+04  0.13008283297E+04  0.50400001928E-02 0. -1.
    10030    2    1    2    0    0  0.00000000000E+00  0.00000000000E+00 -0.10661487821E+04  0.15355078773E+04  0.11050390110E+04 0.  0.
        1    1    3    3  502    0  0.47833470019E+03  0.26739104525E+03 -0.43505689539E+03  0.69969747658E+03  0.50400001928E-02 0. -1.
       -1    1    3    3    0  502 -0.47833470019E+03 -0.26739104525E+03 -0.63109188674E+03  0.83581040076E+03  0.50400001928E-02 0.  1.
</event>
<event>
 5   0  0.9346836E-05  0.1099195E+04  0.7818609E-02  0.9205977E-01
        1   -1    0    0  501    0  0.00000000000E+00  0.00000000000E+00  0.14904470719E+04  0.14904470719E+04  0.50400001928E-02 0.  1.
       -1   -1    0    0    0  501  0.00000000000E+00  0.00000000000E+00 -0.20266212771E+03  0.20266212777E+03  0.50400001928E-02 0. -1.
    10030    2    1    2    0    0  0.00000000000E+00  0.00000000000E+00  0.12877849442E+04  0.16931091997E+04  0.10991945686E+04 0.  0.
        5    1    3    3  502    0 -0.36132001494E+03  0.51950493492E+02  0.12767065520E+04  0.13278752641E+04  0.46999998093E+01 0.  1.
       -5    1    3    3    0  502  0.36132001494E+03 -0.51950493492E+02  0.11078392200E+02  0.36523393564E+03  0.46999998093E+01 0. -1.
</event>
<event>
 5   0  0.8657442E-05  0.1100193E+04  0.7818609E-02  0.9205004E-01
        1   -1    0    0  501    0  0.00000000000E+00  0.00000000000E+00  0.70907229534E+03  0.70907229536E+03  0.50400001928E-02 0. -1.
       -1   -1    0    0    0  501  0.00000000000E+00  0.00000000000E+00 -0.42676323153E+03  0.42676323156E+03  0.50400001928E-02 0.  1.
    10030    2    1    2    0    0  0.00000000000E+00  0.00000000000E+00  0.28230906380E+03  0.11358355269E+04  0.11001926816E+04 0.  0.
        1    1    3    3  502    0  0.62258619995E+02 -0.29466814446E+03  0.61639424099E+03  0.68603739802E+03  0.50400001928E-02 0. -1.
       -1    1    3    3    0  502 -0.62258619995E+02  0.29466814446E+03 -0.33408517719E+03  0.44979812890E+03  0.50400001928E-02 0.  1.
</event>
<event>
 5   0  0.8621738E-05  0.1100097E+04  0.7818609E-02  0.9205097E-01
       -1   -1    0    0    0  501  0.00000000000E+00  0.00000000000E+00  0.19172459804E+03  0.19172459810E+03  0.50400001928E-02 0. -1.
        1   -1    0    0  501    0  0.00000000000E+00  0.00000000000E+00 -0.15780624868E+04  0.15780624868E+04  0.50400001928E-02 0.  1.
    10030    2    1    2    0    0  0.00000000000E+00  0.00000000000E+00 -0.13863378887E+04  0.17697870849E+04  0.11000970794E+04 0.  0.
        2    1    3    3  502    0 -0.21632952436E+03  0.24355883375E+03  0.19845569442E+02  0.32636362426E+03  0.25500000920E-02 0. -1.
       -2    1    3    3    0  502  0.21632952436E+03 -0.24355883375E+03 -0.14061834582E+04  0.14434234606E+04  0.25500000920E-02 0.  1.
</event>
<event>
 5   0  0.8621738E-05  0.1100038E+04  0.7818609E-02  0.9205155E-01
        1   -1    0    0  501    0  0.00000000000E+00  0.00000000000E+00  0.29611517721E+03  0.29611517725E+03  0.50400001928E-02 0.  1.
       -1   -1    0    0    0  501  0.00000000000E+00  0.00000000000E+00 -0.10216316159E+04  0.10216316159E+04  0.50400001928E-02 0. -1.
    10030    2    1    2    0    0  0.00000000000E+00  0.00000000000E+00 -0.72551643865E+03  0.13177467931E+04  0.11000375030E+04 0.  0.
        2    1    3    3  502    0 -0.10770376060E+03  0.61457207055E+02 -0.10046680110E+04  0.10122919049E+04  0.25500000920E-02 0. -1.
       -2    1    3    3    0  502  0.10770376060E+03 -0.61457207055E+02  0.27915157240E+03  0.30545488820E+03  0.25500000920E-02 0.  1.
</event>
<event>
 5   0  0.9346836E-05  0.1100381E+04  0.7818609E-02  0.9204820E-01
       -1   -1    0    0    0  501  0.00000000000E+00  0.00000000000E+00  0.38455216497E+03  0.38455216501E+03  0.50400001928E-02 0.  1.
        1   -1    0    0  501    0  0.00000000000E+00  0.00000000000E+00 -0.78717458361E+03  0.78717458363E+03  0.50400001928E-02 0. -1.
    10030    2    1    2    0    0  0.00000000000E+00  0.00000000000E+00 -0.40262241864E+03  0.11717267486E+04  0.11003811892E+04 0.  0.
        5    1    3    3  502    0  0.48719457928E+03 -0.23349658260E+03 -0.31201529617E+03  0.62390291490E+03  0.46999998093E+01 0.  1.
       -5    1    3    3    0  502 -0.48719457928E+03  0.23349658260E+03 -0.90607122466E+02  0.54782383374E+03  0.46999998093E+01 0. -1.
</event>
<event>
 5   0  0.1553937E-04  0.1100241E+04  0.7818609E-02  0.9204957E-01
        2   -1    0    0  501    0  0.00000000000E+00  0.00000000000E+00  0.59111018754E+03  0.59111018754E+03  0.25500000920E-02 0.  1.
       -2   -1    0    0    0  501  0.00000000000E+00  0.00000000000E+00 -0.51197329309E+03  0.51197329310E+03  0.25500000920E-02 0. -1.
    10030    2    1    2    0    0  0.00000000000E+00  0.00000000000E+00  0.79136894449E+02  0.11030834806E+04  0.11002411178E+04 0.  0.
        1    1    3    3  502    0  0.40330895088E+03 -0.35524978884E+03  0.15722624160E+03  0.55998269027E+03  0.50400001928E-02 0. -1.
       -1    1    3    3    0  502 -0.40330895088E+03  0.35524978884E+03 -0.78089347153E+02  0.54310079037E+03  0.50400001928E-02 0.  1.
</event>
<event>
 5   0  0.8621738E-05  0.1100226E+04  0.7818609E-02  0.9204972E-01
       -1   -1    0    0    0  501  0.00000000000E+00  0.00000000000E+00  0.18301517144E+03  0.18301517151E+03  0.50400001928E-02 0.  1.
        1   -1    0    0  501    0  0.00000000000E+00  0.00000000000E+00 -0.16535478128E+04  0.16535478128E+04  0.50400001928E-02 0. -1.
    10030    2    1    2    0    0  0.00000000000E+00  0.00000000000E+00 -0.14705326414E+04  0.18365629843E+04  0.11002260432E+04 0.  0.
        2    1    3    3  502    0  0.51174736215E+03 -0.18891360115E+03 -0.61663578968E+03  0.82329424174E+03  0.25500000920E-02 0. -1.
       -2    1    3    3    0  502 -0.51174736215E+03  0.18891360115E+03 -0.85389685171E+03  0.10132687426E+04  0.25500000920E-02 0.  1.
</event>
<event>
 5   0  0.1464205E-04  0.1099652E+04  0.7818609E-02  0.9205531E-01
        2   -1    0    0  501    0  0.00000000000E+00  0.00000000000E+00  0.51972388342E+03  0.51972388343E+03  0.25500000920E-02 0. -1.
       -2   -1    0    0    0  501  0.00000000000E+00  0.00000000000E+00 -0.58167188588E+03  0.58167188589E+03  0.25500000920E-02 0.  1.
    10030    2    1    2    0    0  0.00000000000E+00  0.00000000000E+00 -0.61948002459E+02  0.11013957693E+04  0.10996522567E+04 0.  0.
        3    1    3    3  502    0  0.48803638112E+03  0.22844233556E+02 -0.28357893679E+03  0.56490564867E+03  0.10100000352E+00 0.  1.
       -3    1    3    3    0  502 -0.48803638112E+03 -0.22844233556E+02  0.22163093433E+03  0.53649012065E+03  0.10100000352E+00 0. -1.
</event>
<event>
 5   0  0.9016738E-05  0.1099975E+04  0.7818609E-02  0.9205216E-01
        1   -1    0    0  501    0  0.00000000000E+00  0.00000000000E+00  0.80585347778E+03  0.80585347780E+03  0.50400001928E-02 0. -1.
       -1   -1    0    0    0  501  0.00000000000E+00  0.00000000000E+00 -0.37536144162E+03  0.37536144165E+03  0.50400001928E-02 0.  1.
    10030    2    1    2    0    0  0.00000000000E+00  0.00000000000E+00  0.43049203617E+03  0.11812149194E+04  0.10999751328E+04 0.  0.
        4    1    3    3  502    0  0.23834006697E+03  0.43592278089E+03 -0.38079443870E+02  0.49828336854E+03  0.12699999809E+01 0.  1.
       -4    1    3    3    0  502 -0.23834006697E+03 -0.43592278089E+03  0.46857148004E+03  0.68293155091E+03  0.12699999809E+01 0. -1.
</event>
<event>
 5   0  0.1553937E-04  0.1099072E+04  0.7818609E-02  0.9206097E-01
        2   -1    0    0  501    0  0.00000000000E+00  0.00000000000E+00  0.37569041249E+03  0.37569041250E+03  0.25500000920E-02 0.  1.
       -2   -1    0    0    0  501  0.00000000000E+00  0.00000000000E+00 -0.80382573794E+03  0.80382573795E+03  0.25500000920E-02 0. -1.
    10030    2    1    2    0    0  0.00000000000E+00  0.00000000000E+00 -0.42813532545E+03  0.11795161504E+04  0.10990716502E+04 0.  0.
        1    1    3    3  502    0  0.13248911761E+03 -0.35804604273E+03 -0.63826995575E+03  0.74373306464E+03  0.50400001928E-02 0. -1.
       -1    1    3    3    0  502 -0.13248911761E+03  0.35804604273E+03  0.21013463029E+03  0.43578308580E+03  0.50400001928E-02 0.  1.
</event>
<event>
 5   0  0.8657442E-05  0.1099892E+04  0.7818609E-02  0.9205297E-01
       -1   -1    0    0    0  501  0.00000000000E+00  0.00000000000E+00  0.52535701624E+03  0.52535701626E+03  0.50400001928E-02 0. -1.
        1   -1    0    0  501    0  0.00000000000E+00  0.00000000000E+00 -0.57568576451E+03  0.57568576453E+03  0.50400001928E-02 0.  1.
    10030    2    1    2    0    0  0.00000000000E+00  0.00000000000E+00 -0.50328748274E+02  0.11010427808E+04  0.10998919139E+04 0.  0.
        1    1    3    3  502    0  0.17956531264E+03 -0.32976079355E+02  0.49413601072E+03  0.52678413077E+03  0.50400001928E-02 0. -1.
       -1    1    3    3    0  502 -0.17956531264E+03  0.32976079355E+02 -0.54446475899E+03  0.57425865002E+03  0.50400001928E-02 0.  1.
</event>
<event>
 5   0  0.1574101E-04  0.1100094E+04  0.7818609E-02  0.9205100E-01
       -2   -1    0    0    0  501  0.00000000000E+00  0.00000000000E+00  0.24282363941E+03  0.24282363942E+03  0.25500000920E-02 0. -1.
        2   -1    0    0  501    0  0.00000000000E+00  0.00000000000E+00 -0.12459728575E+04  0.12459728575E+04  0.25500000920E-02 0.  1.
    10030    2    1    2    0    0  0.00000000000E+00  0.00000000000E+00 -0.10031492181E+04  0.14887964969E+04  0.11000939303E+04 0.  0.
        4    1    3    3  502    0  0.35486010249E+03  0.11468750014E+03 -0.10487494370E+04  0.11130839633E+04  0.12699999809E+01 0.  1.
       -4    1    3    3    0  502 -0.35486010249E+03 -0.11468750014E+03  0.45600218866E+02  0.37571253358E+03  0.12699999809E+01 0. -1.
</event>
<event>
 5   0  0.6010125E-05  0.1099405E+04  0.7818609E-02  0.9205772E-01
       -3   -1    0    0    0  501  0.00000000000E+00  0.00000000000E+00  0.62922136273E+03  0.62922137083E+03  0.10100000352E+00 0. -1.
        3   -1    0    0  501    0  0.00000000000E+00  0.00000000000E+00 -0.48023292726E+03  0.48023293788E+03  0.10100000352E+00 0.  1.
    10030    2    1    2    0    0  0.00000000000E+00  0.00000000000E+00  0.14898843547E+03  0.11094543087E+04  0.10994049796E+04 0.  0.
        2    1    3    3  502    0  0.33551136260E+03 -0.21846955004E+03  0.45460151073E+03  0.60577169981E+03  0.25500000920E-02 0. -1.
       -2    1    3    3    0  502 -0.33551136260E+03  0.21846955004E+03 -0.30561307526E+03  0.50368260890E+03  0.25500000920E-02 0.  1.
</event>
<event>
 5   0  0.1574101E-04  0.1099760E+04  0.7818609E-02  0.9205426E-01
       -2   -1    0    0    0  501  0.00000000000E+00  0.00000000000E+00  0.15886933553E+03  0.15886933555E+03  0.25500000920E-02 0. -1.
        2   -1    0    0  501    0  0.00000000000E+00  0.00000000000E+00 -0.19032506175E+04  0.19032506175E+04  0.25500000920E-02 0.  1.
    10030    2    1    2    0    0  0.00000000000E+00  0.00000000000E+00 -0.17443812820E+04  0.20621199531E+04  0.10997602666E+04 0.  0.
        4    1    3    3  502    0 -0.53055452875E+03  0.13283472262E+03 -0.76556932390E+03  0.94086724574E+03  0.12699999809E+01 0.  1.
       -4    1    3    3    0  502  0.53055452875E+03 -0.13283472262E+03 -0.97881195810E+03  0.11212527073E+04  0.12699999809E+01 0. -1.
</event>
<event>
 5   0  0.1503277E-04  0.1101688E+04  0.7818609E-02  0.9203548E-01
        2   -1    0    0  501    0  0.00000000000E+00  0.00000000000E+00  0.20817020315E+04  0.20817020315E+04  0.25500000920E-02 0.  1.
       -2   -1    0    0    0  501  0.00000000000E+00  0.00000000000E+00 -0.14576016576E+03  0.14576016578E+03  0.25500000920E-02 0. -1.
    10030    2    1    2    0    0  0.00000000000E+00  0.00000000000E+00  0.19359418657E+04  0.22274621973E+04  0.11016882194E+04 0.  0.
        5    1    3    3  502    0  0.21906329891E+03 -0.35414938160E+03  0.16969544075E+04  0.17473084629E+04  0.46999998093E+01 0.  1.
       -5    1    3    3    0  502 -0.21906329891E+03  0.35414938160E+03  0.23898745820E+03  0.48015373433E+03  0.46999998093E+01 0. -1.
</event>
<event>
 5   0  0.1540772E-04  0.1092900E+04  0.7818609E-02  0.9212140E-01
       -2   -1    0    0    0  501  0.00000000000E+00  0.00000000000E+00  0.24590398103E+03  0.24590398104E+03  0.25500000920E-02 0. -1.
        2   -1    0    0  501    0  0.00000000000E+00  0.00000000000E+00 -0.12143250999E+04  0.12143250999E+04  0.25500000920E-02 0.  1.
    10030    2    1    2    0    0  0.00000000000E+00  0.00000000000E+00 -0.96842111884E+03  0.14602290809E+04  0.10928995861E+04 0.  0.
        2    1    3    3  502    0 -0.32322073472E+03  0.59224666553E+02  0.99146252148E+02  0.34323342466E+03  0.25500000920E-02 0. -1.
       -2    1    3    3    0  502  0.32322073472E+03 -0.59224666553E+02 -0.10675673710E+04  0.11169956563E+04  0.25500000920E-02 0.  1.
</event>
<event>
 5   0  0.1464205E-04  0.1100265E+04  0.7818609E-02  0.9204934E-01
       -2   -1    0    0    0  501  0.00000000000E+00  0.00000000000E+00  0.13624018453E+03  0.13624018455E+03  0.25500000920E-02 0. -1.
        2   -1    0    0  501    0  0.00000000000E+00  0.00000000000E+00 -0.22214117533E+04  0.22214117533E+04  0.25500000920E-02 0.  1.
    10030    2    1    2    0    0  0.00000000000E+00  0.00000000000E+00 -0.20851715688E+04  0.23576519379E+04  0.11002645995E+04 0.  0.
        3    1    3    3  502    0  0.45378471928E+03 -0.26965167141E+03 -0.13746371213E+04  0.14725012125E+04  0.10100000352E+00 0.  1.
       -3    1    3    3    0  502 -0.45378471928E+03  0.26965167141E+03 -0.71053444743E+03  0.88515072532E+03  0.10100000352E+00 0. -1.
</event>
<event>
 5   0  0.1464205E-04  0.1099557E+04  0.7818609E-02  0.9205624E-01
        2   -1    0    0  501    0  0.00000000000E+00  0.00000000000E+00  0.27089368460E+03  0.27089368461E+03  0.25500000920E-02 0.  1.
       -2   -1    0    0    0  501  0.00000000000E+00  0.00000000000E+00 -0.11157742028E+04  0.11157742028E+04  0.25500000920E-02 0. -1.
    10030    2    1    2    0    0  0.00000000000E+00  0.00000000000E+00 -0.84488051823E+03  0.13866678874E+04  0.10995566106E+04 0.  0.
        3    1    3    3  502    0 -0.27581688896E+03 -0.28345298226E+03 -0.90404048124E+03  0.98676732379E+03  0.10100000352E+00 0. -1.
       -3    1    3    3    0  502  0.27581688896E+03  0.28345298226E+03  0.59159963005E+02  0.39990056366E+03  0.10100000352E+00 0.  1.
</event>
<event>
 5   0  0.1540772E-04  0.1100056E+04  0.7818609E-02  0.9205138E-01
        2   -1    0    0  501    0  0.00000000000E+00  0.00000000000E+00  0.12454038349E+04  0.12454038349E+04  0.25500000920E-02 0.  1.
       -2   -1    0    0    0  501  0.00000000000E+00  0.00000000000E+00 -0.24291772957E+03  0.24291772959E+03  0.25500000920E-02 0. -1.
    10030    2    1    2    0    0  0.00000000000E+00  0.00000000000E+00  0.10024861054E+04  0.14883215645E+04  0.11000557658E+04 0.  0.
        2    1    3    3  502    0 -0.24415393598E+03 -0.45018491027E+03  0.22979820728E+03  0.56132416122E+03  0.25500000920E-02 0. -1.
       -2    1    3    3    0  502  0.24415393598E+03  0.45018491027E+03  0.77268789807E+03  0.92699740330E+03  0.25500000920E-02 0.  1.
</event>
<event>
 5   0  0.9346836E-05  0.1100435E+04  0.7818609E-02  0.9204768E-01
       -1   -1    0    0    0  501  0.00000000000E+00  0.00000000000E+00  0.20379925178E+03  0.20379925184E+03  0.50400001928E-02 0.  1.
        1   -1    0    0  501    0  0.00000000000E+00  0.00000000000E+00 -0.14854783222E+04  0.14854783222E+04  0.50400001928E-02 0. -1.
    10030    2    1    2    0    0  0.00000000000E+00  0.00000000000E+00 -0.12816790704E+04  0.16892775740E+04  0.11004351333E+04 0.  0.
        5    1    3    3  502    0 -0.11544129573E+03 -0.48029724442E+03 -0.10127810464E+04  0.11268361343E+04  0.46999998093E+01 0. -1.
       -5    1    3    3    0  502  0.11544129573E+03  0.48029724442E+03 -0.26889802402E+03  0.56244143969E+03  0.46999998093E+01 0.  1.
</event>
<event>
 5   0  0.1503277E-04  0.1100503E+04  0.7818609E-02  0.9204702E-01
       -2   -1    0    0    0  501  0.00000000000E+00  0.00000000000E+00  0.21890494717E+03  0.21890494718E+03  0.25500000920E-02 0.  1.
        2   -1    0    0  501    0  0.00000000000E+00  0.00000000000E+00 -0.13831419208E+04  0.13831419208E+04  0.25500000920E-02 0. -1.
    10030    2    1    2    0    0  0.00000000000E+00  0.00000000000E+00 -0.11642369736E+04  0.16020468680E+04  0.11005028107E+04 0.  0.
        5    1    3    3  502    0  0.45370271404E+03 -0.20264787907E+03 -0.92612394593E+03  0.10510185388E+04  0.46999998093E+01 0. -1.
       -5    1    3    3    0  502 -0.45370271404E+03  0.20264787907E+03 -0.23811302768E+03  0.55102832919E+03  0.46999998093E+01 0.  1.
</event>
<event>
 5   0  0.1464205E-04  0.1097547E+04  0.7818609E-02  0.9207586E-01
        2   -1    0    0  501    0  0.00000000000E+00  0.00000000000E+00  0.20158491338E+04  0.20158491338E+04  0.25500000920E-02 0.  1.
       -2   -1    0    0    0  501  0.00000000000E+00  0.00000000000E+00 -0.14939237107E+03  0.14939237109E+03  0.25500000920E-02 0. -1.
    10030    2    1    2    0    0  0.00000000000E+00  0.00000000000E+00  0.18664567627E+04  0.21652415049E+04  0.10975472324E+04 0.  0.
        3    1    3    3  502    0 -0.43210425443E+02 -0.36665920860E+03  0.17342104604E+04  0.17730741799E+04  0.10100000352E+00 0.  1.
       -3    1    3    3    0  502  0.43210425443E+02  0.36665920860E+03  0.13224630229E+03  0.39216732499E+03  0.10100000352E+00 0. -1.
</event>
<event>
 5   0  0.9016738E-05  0.1100014E+04  0.7818609E-02  0.9205178E-01
       -1   -1    0    0    0  501  0.00000000000E+00  0.00000000000E+00  0.11457112539E+04  0.11457112539E+04  0.50400001928E-02 0. -1.
        1   -1    0    0  501    0  0.00000000000E+00  0.00000000000E+00 -0.26403478447E+03  0.26403478452E+03  0.50400001928E-02 0.  1.
    10030    2    1    2    0    0  0.00000000000E+00  0.00000000000E+00  0.88167646945E+03  0.14097460384E+04  0.11000138618E+04 0.  0.
        4    1    3    3  502    0  0.12490664007E+03  0.21475621086E+03 -0.18802562746E+03  0.31157205959E+03  0.12699999809E+01 0.  1.
       -4    1    3    3    0  502 -0.12490664007E+03 -0.21475621086E+03  0.10697020969E+04  0.10981739789E+04  0.12699999809E+01 0. -1.
</event>
<event>
 5   0  0.1553937E-04  0.1099581E+04  0.7818609E-02  0.9205600E-01
        2   -1    0    0  501    0  0.00000000000E+00  0.00000000000E+00  0.91902516374E+03  0.91902516375E+03  0.25500000920E-02 0. -1.
       -2   -1    0    0    0  501  0.00000000000E+00  0.00000000000E+00 -0.32890247461E+03  0.32890247462E+03  0.25500000920E-02 0.  1.
    10030    2    1    2    0    0  0.00000000000E+00  0.00000000000E+00  0.59012268913E+03  0.12479276384E+04  0.10995811031E+04 0.  0.
        1    1    3    3  502    0 -0.46856262289E+03 -0.24388032536E+03  0.12204364614E+03  0.54214684012E+03  0.50400001928E-02 0. -1.
       -1    1    3    3    0  502  0.46856262289E+03  0.24388032536E+03  0.46807904298E+03  0.70578079825E+03  0.50400001928E-02 0.  1.
</event>
<event>
 5   0  0.1540772E-04  0.1098772E+04  0.7818609E-02  0.9206389E-01
       -2   -1    0    0    0  501  0.00000000000E+00  0.00000000000E+00  0.42504430174E+03  0.42504430174E+03  0.25500000920E-02 0. -1.
        2   -1    0    0  501    0  0.00000000000E+00  0.00000000000E+00 -0.71010301709E+03  0.71010301709E+03  0.25500000920E-02 0.  1.
    10030    2    1    2    0    0  0.00000000000E+00  0.00000000000E+00 -0.28505871535E+03  0.11351473188E+04  0.10987724807E+04 0.  0.
        2    1    3    3  502    0 -0.53303196852E+03  0.12545197665E+03 -0.96745633021E+02  0.55607642948E+03  0.25500000920E-02 0.  1.
       -2    1    3    3    0  502  0.53303196852E+03 -0.12545197665E+03 -0.18831308233E+03  0.57907088935E+03  0.25500000920E-02 0. -1.
</event>
<event>
 5   0  0.8621738E-05  0.1099714E+04  0.7818609E-02  0.9205470E-01
       -1   -1    0    0    0  501  0.00000000000E+00  0.00000000000E+00  0.18574280782E+03  0.18574280789E+03  0.50400001928E-02 0.  1.
        1   -1    0    0  501    0  0.00000000000E+00  0.00000000000E+00 -0.16277500997E+04  0.16277500997E+04  0.50400001928E-02 0. -1.
    10030    2    1    2    0    0  0.00000000000E+00  0.00000000000E+00 -0.14420072918E+04  0.18134929076E+04  0.10997142793E+04 0.  0.
        2    1    3    3  502    0 -0.39037585154E+03  0.88130755335E+02 -0.13428156891E+04  0.14011831823E+04  0.25500000920E-02 0. -1.
       -2    1    3    3    0  502  0.39037585154E+03 -0.88130755335E+02 -0.99191602793E+02  0.41230972530E+03  0.25500000920E-02 0.  1.
</event>
<event>
 5   0  0.1503277E-04  0.1100466E+04  0.7818609E-02  0.9204738E-01
        2   -1    0    0  501    0  0.00000000000E+00  0.00000000000E+00  0.31889610188E+03  0.31889610189E+03  0.25500000920E-02 0.  1.
       -2   -1    0    0    0  501  0.00000000000E+00  0.00000000000E+00 -0.94938875465E+03  0.94938875466E+03  0.25500000920E-02 0. -1.
    10030    2    1    2    0    0  0.00000000000E+00  0.00000000000E+00 -0.63049265277E+03  0.12682848565E+04  0.11004660341E+04 0.  0.
        5    1    3    3  502    0 -0.48883646869E+03  0.63635835033E+02 -0.59689869603E+03  0.77415809493E+03  0.46999998093E+01 0. -1.
       -5    1    3    3    0  502  0.48883646869E+03 -0.63635835033E+02 -0.33593956737E+02  0.49412676162E+03  0.46999998093E+01 0.  1.
</event>
<event>
 5   0  0.8921459E-05  0.1104435E+04  0.7818609E-02  0.9200880E-01
        1   -1    0    0  501    0  0.00000000000E+00  0.00000000000E+00  0.73960404658E+03  0.73960404660E+03  0.50400001928E-02 0. -1.
       -1   -1    0    0    0  501  0.00000000000E+00  0.00000000000E+00 -0.41230759148E+03  0.41230759151E+03  0.50400001928E-02 0.  1.
    10030    2    1    2    0    0  0.00000000000E+00  0.00000000000E+00  0.32729645510E+03  0.11519116381E+04  0.11044353546E+04 0.  0.
        3    1    3    3  502    0  0.48847715897E+03 -0.10984842375E+03  0.40661659795E+03  0.64499122394E+03  0.10100000352E+00 0.  1.
       -3    1    3    3    0  502 -0.48847715897E+03  0.10984842375E+03 -0.79320142850E+02  0.50692041417E+03  0.10100000352E+00 0. -1.
</event>
<event>
 5   0  0.8921459E-05  0.1099993E+04  0.7818609E-02  0.9205199E-01
        1   -1    0    0  501    0  0.00000000000E+00  0.00000000000E+00  0.10742049557E+04  0.10742049557E+04  0.50400001928E-02 0.  1.
       -1   -1    0    0    0  501  0.00000000000E+00  0.00000000000E+00 -0.28160002226E+03  0.28160002231E+03  0.50400001928E-02 0. -1.
    10030    2    1    2    0    0  0.00000000000E+00  0.00000000000E+00  0.79260493343E+03  0.13558049780E+04  0.10999929808E+04 0.  0.
        3    1    3    3  502    0  0.12412673004E+03 -0.18775685676E+03 -0.22223534996E+03  0.31630466855E+03  0.10100000352E+00 0. -1.
       -3    1    3    3    0  502 -0.12412673004E+03  0.18775685676E+03  0.10148402834E+04  0.10395003095E+04  0.10100000352E+00 0.  1.
</event>
<event>
 5   0  0.9016738E-05  0.1100098E+04  0.7818609E-02  0.9205096E-01
       -1   -1    0    0    0  501  0.00000000000E+00  0.00000000000E+00  0.34007478457E+03  0.34007478460E+03  0.50400001928E-02 0.  1.
        1   -1    0    0  501    0  0.00000000000E+00  0.00000000000E+00 -0.88966925845E+03  0.88966925847E+03  0.50400001928E-02 0. -1.
    10030    2    1    2    0    0  0.00000000000E+00  0.00000000000E+00 -0.54959447389E+03  0.12297440431E+04  0.11000983255E+04 0.  0.
        4    1    3    3  502    0  0.84688154931E+01  0.35434414439E+03  0.19539221919E+03  0.40473599508E+03  0.12699999809E+01 0.  1.
       -4    1    3    3    0  502 -0.84688154931E+01 -0.35434414439E+03 -0.74498669307E+03  0.82500804799E+03  0.12699999809E+01 0. -1.
</event>
<event>
 5   0  0.1574101E-04  0.1100349E+04  0.7818609E-02  0.9204852E-01
       -2   -1    0    0    0  501  0.00000000000E+00  0.00000000000E+00  0.16490875639E+03  0.16490875641E+03  0.25500000920E-02 0. -1.
        2   -1    0    0  501    0  0.00000000000E+00  0.00000000000E+00 -0.18355117634E+04  0.18355117634E+04  0.25500000920E-02 0.  1.
    10030    2    1    2    0    0  0.00000000000E+00  0.00000000000E+00 -0.16706030070E+04  0.20004205198E+04  0.11003489669E+04 0.  0.
        4    1    3    3  502    0 -0.10541799735E+03  0.18873206971E+03  0.84459254562E+02  0.23209421984E+03  0.12699999809E+01 0. -1.
       -4    1    3    3    0  502  0.10541799735E+03 -0.18873206971E+03 -0.17550622615E+04  0.17683263000E+04  0.12699999809E+01 0.  1.
</event>
<event>
 5   0  0.1540772E-04  0.1099788E+04  0.7818609E-02  0.9205399E-01
        2   -1    0    0  501    0  0.00000000000E+00  0.00000000000E+00  0.74554717088E+03  0.74554717088E+03  0.25500000920E-02 0. -1.
       -2   -1    0    0    0  501  0.00000000000E+00  0.00000000000E+00 -0.40558576511E+03  0.40558576512E+03  0.25500000920E-02 0.  1.
    10030    2    1    2    0    0  0.00000000000E+00  0.00000000000E+00  0.33996140577E+03  0.11511329360E+04  0.10997878336E+04 0.  0.
        2    1    3    3  502    0  0.34056107833E+03  0.12793517747E+03 -0.26162237596E+03  0.44810213714E+03  0.25500000920E-02 0.  1.
       -2    1    3    3    0  502 -0.34056107833E+03 -0.12793517747E+03  0.60158378173E+03  0.70303079886E+03  0.25500000920E-02 0. -1.
</event>
<event>
 5   0  0.1574101E-04  0.1099986E+04  0.7818609E-02  0.9205206E-01
       -2   -1    0    0    0  501  0.00000000000E+00  0.00000000000E+00  0.35457840756E+03  0.35457840757E+03  0.25500000920E-02 0.  1.
        2   -1    0    0  501    0  0.00000000000E+00  0.00000000000E+00 -0.85310406142E+03  0.85310406143E+03  0.25500000920E-02 0. -1.
    10030    2    1    2    0    0  0.00000000000E+00  0.00000000000E+00 -0.49852565387E+03  0.12076824690E+04  0.10999859628E+04 0.  0.
        4    1    3    3  502    0  0.93063502387E+02  0.93046100462E+02  0.33703632860E+03  0.36181969541E+03  0.12699999809E+01 0.  1.
       -4    1    3    3    0  502 -0.93063502387E+02 -0.93046100462E+02 -0.83556198247E+03  0.84586277358E+03  0.12699999809E+01 0. -1.
</event>
<event>
 5   0  0.1553937E-04  0.1095219E+04  0.7818609E-02  0.9209865E-01
       -2   -1    0    0    0  501  0.00000000000E+00  0.00000000000E+00  0.29891577703E+03  0.29891577704E+03  0.25500000920E-02 0. -1.
        2   -1    0    0  501    0  0.00000000000E+00  0.00000000000E+00 -0.10032122402E+04  0.10032122402E+04  0.25500000920E-02 0.  1.
    10030    2    1    2    0    0  0.00000000000E+00  0.00000000000E+00 -0.70429646318E+03  0.13021280173E+04  0.10952186381E+04 0.  0.
        1    1    3    3  502    0  0.26270638322E+03  0.47739913278E+03 -0.41673836741E+03  0.68599959377E+03  0.50400001928E-02 0.  1.
       -1    1    3    3    0  502 -0.26270638322E+03 -0.47739913278E+03 -0.28755809577E+03  0.61612842349E+03  0.50400001928E-02 0. -1.
</event>
<event>
 5   0  0.1464205E-04  0.1099541E+04  0.7818609E-02  0.9205640E-01
       -2   -1    0    0    0  501  0.00000000000E+00  0.00000000000E+00  0.42410880231E+03  0.42410880232E+03  0.25500000920E-02 0. -1.
        2   -1    0    0  501    0  0.00000000000E+00  0.00000000000E+00 -0.71266493387E+03  0.71266493388E+03  0.25500000920E-02 0.  1.
    10030    2    1    2    0    0  0.00000000000E+00  0.00000000000E+00 -0.28855613156E+03  0.11367737362E+04  0.10995407615E+04 0.  0.
        3    1    3    3  502    0  0.23858944041E+03  0.79906249863E+02  0.36108661172E+03  0.44010621582E+03  0.10100000352E+00 0. -1.
       -3    1    3    3    0  502 -0.23858944041E+03 -0.79906249863E+02 -0.64964274328E+03  0.69666752037E+03  0.10100000352E+00 0.  1.
</event>
<event>
 5   0  0.8657442E-05  0.1100417E+04  0.7818609E-02  0.9204785E-01
        1   -1    0    0  501    0  0.00000000000E+00  0.00000000000E+00  0.13432155304E+04  0.13432155304E+04  0.50400001928E-02 0. -1.
       -1   -1    0    0    0  501  0.00000000000E+00  0.00000000000E+00 -0.22537673137E+03  0.22537673143E+03  0.50400001928E-02 0.  1.
    10030    2    1    2    0    0  0.00000000000E+00  0.00000000000E+00  0.11178387990E+04  0.15685922618E+04  0.11004172405E+04 0.  0.
        1    1    3    3  502    0 -0.21688191369E+03  0.24658342847E+03 -0.70363091845E+02  0.33584537574E+03  0.50400001928E-02 0.  1.
       -1    1    3    3    0  502  0.21688191369E+03 -0.24658342847E+03  0.11882018909E+04  0.12327468861E+04  0.50400001928E-02 0. -1.
</event>
<event>
 5   0  0.1540772E-04  0.1099925E+04  0.7818609E-02  0.9205265E-01
       -2   -1    0    0    0  501  0.00000000000E+00  0.00000000000E+00  0.15642260450E+03  0.15642260452E+03  0.25500000920E-02 0.  1.
        2   -1    0    0  501    0  0.00000000000E+00  0.00000000000E+00 -0.19336010713E+04  0.19336010713E+04  0.25500000920E-02 0. -1.
    10030    2    1    2    0    0  0.00000000000E+00  0.00000000000E+00 -0.17771784668E+04  0.20900236758E+04  0.10999252987E+04 0.  0.
        2    1    3    3  502    0  0.13783295275E+03 -0.43454748188E+03 -0.30406672579E+03  0.54798358608E+03  0.25500000920E-02 0.  1.
       -2    1    3    3    0  502 -0.13783295275E+03  0.43454748188E+03 -0.14731117410E+04  0.15420400897E+04  0.25500000920E-02 0. -1.
</event>
<event>
 5   0  0.8621738E-05  0.1099845E+04  0.7818609E-02  0.9205343E-01
        1   -1    0    0  501    0  0.00000000000E+00  0.00000000000E+00  0.34597284841E+03  0.34597284845E+03  0.50400001928E-02 0. -1.
       -1   -1    0    0    0  501  0.00000000000E+00  0.00000000000E+00 -0.87409978865E+03  0.87409978866E+03  0.50400001928E-02 0.  1.
    10030    2    1    2    0    0  0.00000000000E+00  0.00000000000E+00 -0.52812694024E+03  0.12200726371E+04  0.10998450685E+04 0.  0.
        2    1    3    3  502    0 -0.50241977972E+03  0.36432218607E+01 -0.51205361631E+03  0.71738261346E+03  0.25500000920E-02 0.  1.
       -2    1    3    3    0  502  0.50241977972E+03 -0.36432218607E+01 -0.16073323928E+02  0.50269002364E+03  0.25500000920E-02 0. -1.
</event>
<event>
 5   0  0.1540772E-04  0.1100473E+04  0.7818609E-02  0.9204731E-01
        2   -1    0    0  501    0  0.00000000000E+00  0.00000000000E+00  0.85305905954E+03  0.85305905954E+03  0.25500000920E-02 0. -1.
       -2   -1    0    0    0  501  0.00000000000E+00  0.00000000000E+00 -0.35491097124E+03  0.35491097125E+03  0.25500000920E-02 0.  1.
    10030    2    1    2    0    0  0.00000000000E+00  0.00000000000E+00  0.49814808830E+03  0.12079700308E+04  0.11004726609E+04 0.  0.
        2    1    3    3  502    0 -0.37340077160E+03  0.15693136068E+03 -0.15973648213E+03  0.43539790069E+03  0.25500000920E-02 0.  1.
       -2    1    3    3    0  502  0.37340077160E+03 -0.15693136068E+03  0.65788457043E+03  0.77257213010E+03  0.25500000920E-02 0. -1.
</event>
<event>
 5   0  0.1574101E-04  0.1098744E+04  0.7818609E-02  0.9206417E-01
        2   -1    0    0  501    0  0.00000000000E+00  0.00000000000E+00  0.46324010356E+03  0.46324010356E+03  0.25500000920E-02 0. -1.
       -2   -1    0    0    0  501  0.00000000000E+00  0.00000000000E+00 -0.65151895123E+03  0.65151895123E+03  0.25500000920E-02 0.  1.
    10030    2    1    2    0    0  0.00000000000E+00  0.00000000000E+00 -0.18827884767E+03  0.11147590548E+04  0.10987442040E+04 0.  0.
        4    1    3    3  502    0  0.40364871076E+03 -0.11164482720E+03  0.26658642565E+03  0.49645421177E+03  0.12699999809E+01 0. -1.
       -4    1    3    3    0  502 -0.40364871076E+03  0.11164482720E+03 -0.45486527332E+03  0.61830484303E+03  0.12699999809E+01 0.  1.
</event>
<event>
 5   0  0.9016738E-05  0.1099819E+04  0.7818609E-02  0.9205368E-01
       -1   -1    0    0    0  501  0.00000000000E+00  0.00000000000E+00  0.68096446685E+03  0.68096446687E+03  0.50400001928E-02 0. -1.
        1   -1    0    0  501    0  0.00000000000E+00  0.00000000000E+00 -0.44407693409E+03  0.44407693412E+03  0.50400001928E-02 0.  1.
    10030    2    1    2    0    0  0.00000000000E+00  0.00000000000E+00  0.23688753276E+03  0.11250414010E+04  0.10998192810E+04 0.  0.
        4    1    3    3  502    0 -0.35632581834E+02 -0.42727638593E+03 -0.23378431695E+03  0.48835592615E+03  0.12699999809E+01 0.  1.
       -4    1    3    3    0  502  0.35632581834E+02  0.42727638593E+03  0.47067184971E+03  0.63668547484E+03  0.12699999809E+01 0. -1.
</event>
<event>
 5   0  0.8921459E-05  0.1099657E+04  0.7818609E-02  0.9205526E-01
        1   -1    0    0  501    0  0.00000000000E+00  0.00000000000E+00  0.54247228636E+03  0.54247228638E+03  0.50400001928E-02 0.  1.
       -1   -1    0    0    0  501  0.00000000000E+00  0.00000000000E+00 -0.55728459040E+03  0.55728459042E+03  0.50400001928E-02 0. -1.
    10030    2    1    2    0    0  0.00000000000E+00  0.00000000000E+00 -0.14812304044E+02  0.10997568768E+04  0.10996571210E+04 0.  0.
        3    1    3    3  502    0 -0.45269579852E+03  0.25653327262E+03  0.17028559665E+03  0.54748516016E+03  0.10100000352E+00 0.  1.
       -3    1    3    3    0  502  0.45269579852E+03 -0.25653327262E+03 -0.18509790070E+03  0.55227171665E+03  0.10100000352E+00 0. -1.
</event>
<event>
 5   0  0.1464205E-04  0.1100716E+04  0.7818609E-02  0.9204494E-01
        2   -1    0    0  501    0  0.00000000000E+00  0.00000000000E+00  0.22453115339E+04  0.22453115339E+04  0.25500000920E-02 0. -1.
       -2   -1    0    0    0  501  0.00000000000E+00  0.00000000000E+00 -0.13490074096E+03  0.13490074098E+03  0.25500000920E-02 0.  1.
    10030    2    1    2    0    0  0.00000000000E+00  0.00000000000E+00  0.21104107930E+04  0.23802122749E+04  0.11007164751E+04 0.  0.
        3    1    3    3  502    0  0.34460104014E+03 -0.40539595729E+03  0.13594728462E+04  0.14598843066E+04  0.10100000352E+00 0. -1.
       -3    1    3    3    0  502 -0.34460104014E+03  0.40539595729E+03  0.75093794679E+03  0.92032796827E+03  0.10100000352E+00 0.  1.
</event>
<event>
 5   0  0.9346836E-05  0.1099301E+04  0.7818609E-02  0.9205874E-01
        1   -1    0    0  501    0  0.00000000000E+00  0.00000000000E+00  0.11238207265E+04  0.11238207265E+04  0.50400001928E-02 0.  1.
       -1   -1    0    0    0  501  0.00000000000E+00  0.00000000000E+00 -0.26882884714E+03  0.26882884718E+03  0.50400001928E-02 0. -1.
    10030    2    1    2    0    0  0.00000000000E+00  0.00000000000E+00  0.85499187934E+03  0.13926495737E+04  0.10993005600E+04 0.  0.
        5    1    3    3  502    0  0.54869448181E+03  0.32040134952E+02  0.42614585602E+03  0.69549592753E+03  0.46999998093E+01 0.  1.
       -5    1    3    3    0  502 -0.54869448181E+03 -0.32040134952E+02  0.42884602332E+03  0.69715364614E+03  0.46999998093E+01 0. -1.
</event>
<event>
 5   0  0.9016738E-05  0.1100145E+04  0.7818609E-02  0.9205050E-01
        1   -1    0    0  501    0  0.00000000000E+00  0.00000000000E+00  0.48341696280E+03  0.48341696282E+03  0.50400001928E-02 0. -1.
       -1   -1    0    0    0  501  0.00000000000E+00  0.00000000000E+00 -0.62591891496E+03  0.62591891498E+03  0.50400001928E-02 0.  1.
    10030    2    1    2    0    0  0.00000000000E+00  0.00000000000E+00 -0.14250195216E+03  0.11093358778E+04  0.11001451192E+04 0.  0.
        4    1    3    3  502    0  0.15899404589E+03 -0.34573659537E+03  0.32926407149E+03  0.50321897985E+03  0.12699999809E+01 0. -1.
       -4    1    3    3    0  502 -0.15899404589E+03  0.34573659537E+03 -0.47176602365E+03  0.60611689795E+03  0.12699999809E+01 0.  1.
</event>
<event>
 5   0  0.1574101E-04  0.1100587E+04  0.7818609E-02  0.9204620E-01
        2   -1    0    0  501    0  0.00000000000E+00  0.00000000000E+00  0.13609368292E+04  0.13609368292E+04  0.25500000920E-02 0. -1.
       -2   -1    0    0    0  501  0.00000000000E+00  0.00000000000E+00 -0.22251073327E+03  0.22251073328E+03  0.25500000920E-02 0.  1.
    10030    2    1    2    0    0  0.00000000000E+00  0.00000000000E+00  0.11384260959E+04  0.15834475625E+04  0.11005872102E+04 0.  0.
        4    1    3    3  502    0 -0.11026344177E+03  0.54490721165E+02 -0.20248030164E+03  0.23691169396E+03  0.12699999809E+01 0.  1.
       -4    1    3    3    0  502  0.11026344177E+03 -0.54490721165E+02  0.13409063975E+04  0.13465358685E+04  0.12699999809E+01 0. -1.
</event>
<event>
 5   0  0.1553937E-04  0.1103879E+04  0.7818609E-02  0.9201419E-01
       -2   -1    0    0    0  501  0.00000000000E+00  0.00000000000E+00  0.41075221330E+03  0.41075221331E+03  0.25500000920E-02 0.  1.
        2   -1    0    0  501    0  0.00000000000E+00  0.00000000000E+00 -0.74165752980E+03  0.74165752980E+03  0.25500000920E-02 0. -1.
    10030    2    1    2    0    0  0.00000000000E+00  0.00000000000E+00 -0.33090531650E+03  0.11524097431E+04  0.11038794715E+04 0.  0.
        1    1    3    3  502    0 -0.51009329650E+03  0.12225477525E+03 -0.34474731489E+03  0.62768790999E+03  0.50400001928E-02 0. -1.
       -1    1    3    3    0  502  0.51009329650E+03 -0.12225477525E+03  0.13841998389E+02  0.52472183311E+03  0.50400001928E-02 0.  1.
</event>
<event>
 5   0  0.8621738E-05  0.1100234E+04  0.7818609E-02  0.9204963E-01
       -1   -1    0    0    0  501  0.00000000000E+00  0.00000000000E+00  0.39834983347E+03  0.39834983350E+03  0.50400001928E-02 0.  1.
        1   -1    0    0  501    0  0.00000000000E+00  0.00000000000E+00 -0.75970634856E+03  0.75970634858E+03  0.50400001928E-02 0. -1.
    10030    2    1    2    0    0  0.00000000000E+00  0.00000000000E+00 -0.36135651509E+03  0.11580561821E+04  0.11002343341E+04 0.  0.
        2    1    3    3  502    0  0.56355129344E+02 -0.54570335018E+03 -0.13778295841E+03  0.56564316546E+03  0.25500000920E-02 0.  1.
       -2    1    3    3    0  502 -0.56355129344E+02  0.54570335018E+03 -0.22357355668E+03  0.59241301661E+03  0.25500000920E-02 0. -1.
</event>
<event>
 5   0  0.1540772E-04  0.1099895E+04  0.7818609E-02  0.9205294E-01
       -2   -1    0    0    0  501  0.00000000000E+00  0.00000000000E+00  0.12284508035E+03  0.12284508038E+03  0.25500000920E-02 0. -1.
        2   -1    0    0  501    0  0.00000000000E+00  0.00000000000E+00 -0.24619804050E+04  0.24619804050E+04  0.25500000920E-02 0.  1.
    10030    2    1    2    0    0  0.00000000000E+00  0.00000000000E+00 -0.23391353247E+04  0.25848254854E+04  0.10998948690E+04 0.  0.
        2    1    3    3  502    0 -0.16500053298E+03  0.33247007505E+03 -0.21589058836E+03  0.42938359637E+03  0.25500000920E-02 0. -1.
       -2    1    3    3    0  502  0.16500053298E+03 -0.33247007505E+03 -0.21232447363E+04  0.21554418891E+04  0.25500000920E-02 0.  1.
</event>
<event>
 5   0  0.6010125E-05  0.1107946E+04  0.7818609E-02  0.9197481E-01
        3   -1    0    0  501    0  0.00000000000E+00  0.00000000000E+00  0.25141316832E+03  0.25141318860E+03  0.10100000352E+00 0.  1.
       -3   -1    0    0    0  501  0.00000000000E+00  0.00000000000E+00 -0.12206450315E+04  0.12206450357E+04  0.10100000352E+00 0. -1.
    10030    2    1    2    0    0  0.00000000000E+00  0.00000000000E+00 -0.96923186322E+03  0.14720582243E+04  0.11079463034E+04 0.  0.
        3    1    3    3  502    0  0.30026774692E+02 -0.27666904729E+03  0.15179814367E+03  0.31700166490E+03  0.10100000352E+00 0.  1.
       -3    1    3    3    0  502 -0.30026774692E+02  0.27666904729E+03 -0.11210300069E+04  0.11550565594E+04  0.10100000352E+00 0. -1.
</event>
<event>
 5   0  0.1553937E-04  0.1100394E+04  0.7818609E-02  0.9204808E-01
       -2   -1    0    0    0  501  0.00000000000E+00  0.00000000000E+00  0.57149486484E+03  0.57149486485E+03  0.25500000920E-02 0.  1.
        2   -1    0    0  501    0  0.00000000000E+00  0.00000000000E+00 -0.52969240719E+03  0.52969240720E+03  0.25500000920E-02 0. -1.
    10030    2    1    2    0    0  0.00000000000E+00  0.00000000000E+00  0.41802457653E+02  0.11011872720E+04  0.11003935490E+04 0.  0.
        1    1    3    3  502    0 -0.76035903963E+02 -0.53377423799E+03  0.13061650326E+03  0.55475856621E+03  0.50400001928E-02 0.  1.
       -1    1    3    3    0  502  0.76035903963E+02  0.53377423799E+03 -0.88814045611E+02  0.54642870583E+03  0.50400001928E-02 0. -1.
</event>
<event>
 5   0  0.1464205E-04  0.1099912E+04  0.7818609E-02  0.9205277E-01
        2   -1    0    0  501    0  0.00000000000E+00  0.00000000000E+00  0.10542154497E+04  0.10542154497E+04  0.25500000920E-02 0. -1.
       -2   -1    0    0    0  501  0.00000000000E+00  0.00000000000E+00 -0.28689741970E+03  0.28689741971E+03  0.25500000920E-02 0.  1.
    10030    2    1    2    0    0  0.00000000000E+00  0.00000000000E+00  0.76731802998E+03  0.13411128694E+04  0.10999121644E+04 0.  0.
        3    1    3    3  502    0 -0.41161452382E+03  0.77017378106E+01 -0.60949095353E+02  0.41617380433E+03  0.10100000352E+00 0.  1.
       -3    1    3    3    0  502  0.41161452382E+03 -0.77017378106E+01  0.82826712533E+03  0.92493906507E+03  0.10100000352E+00 0. -1.
</event>
<event>
 5   0  0.1540772E-04  0.1100710E+04  0.7818609E-02  0.9204500E-01
       -2   -1    0    0    0  501  0.00000000000E+00  0.00000000000E+00  0.51066174911E+03  0.51066174911E+03  0.25500000920E-02 0. -1.
        2   -1    0    0  501    0  0.00000000000E+00  0.00000000000E+00 -0.59313374107E+03  0.59313374108E+03  0.25500000920E-02 0.  1.
    10030    2    1    2    0    0  0.00000000000E+00  0.00000000000E+00 -0.82471991965E+02  0.11037954902E+04  0.11007101593E+04 0.  0.
        2    1    3    3  502    0 -0.17538077504E+03  0.29530585044E+03  0.39000050295E+03  0.51967716312E+03  0.25500000920E-02 0. -1.
       -2    1    3    3    0  502  0.17538077504E+03 -0.29530585044E+03 -0.47247249492E+03  0.58411832707E+03  0.25500000920E-02 0.  1.
</event>
<event>
 5   0  0.9346836E-05  0.1100328E+04  0.7818609E-02  0.9204873E-01
       -1   -1    0    0    0  501  0.00000000000E+00  0.00000000000E+00  0.48690642901E+03  0.48690642903E+03  0.50400001928E-02 0. -1.
        1   -1    0    0  501    0  0.00000000000E+00  0.00000000000E+00 -0.62163929649E+03  0.62163929651E+03  0.50400001928E-02 0.  1.
    10030    2    1    2    0    0  0.00000000000E+00  0.00000000000E+00 -0.13473286748E+03  0.11085457255E+04  0.11003275331E+04 0.  0.
        5    1    3    3  502    0  0.23433374580E+02 -0.54846772453E+03 -0.31151997399E+02  0.54987135299E+03  0.46999998093E+01 0. -1.
       -5    1    3    3    0  502 -0.23433374580E+02  0.54846772453E+03 -0.10358087008E+03  0.55867437255E+03  0.46999998093E+01 0.  1.
</event>
<event>
 5   0  0.1574101E-04  0.1099508E+04  0.7818609E-02  0.9205672E-01
       -2   -1    0    0    0  501  0.00000000000E+00  0.00000000000E+00  0.45794758640E+03  0.45794758641E+03  0.25500000920E-02 0. -1.
        2   -1    0    0  501    0  0.00000000000E+00  0.00000000000E+00 -0.65996519234E+03  0.65996519234E+03  0.25500000920E-02 0.  1.
    10030    2    1    2    0    0  0.00000000000E+00  0.00000000000E+00 -0.20201760594E+03  0.11179127787E+04  0.10995080117E+04 0.  0.
        4    1    3    3  502    0 -0.67022070993E+02 -0.47269948428E+03  0.17611759571E+03  0.50887698008E+03  0.12699999809E+01 0. -1.
       -4    1    3    3    0  502  0.67022070993E+02  0.47269948428E+03 -0.37813520165E+03  0.60903579867E+03  0.12699999809E+01 0.  1.
</event>
<event>
 5   0  0.8921459E-05  0.1100208E+04  0.7818609E-02  0.9204990E-01
       -1   -1    0    0    0  501  0.00000000000E+00  0.00000000000E+00  0.28923252639E+03  0.28923252644E+03  0.50400001928E-02 0.  1.
        1   -1    0    0  501    0  0.00000000000E+00  0.00000000000E+00 -0.10462661097E+04  0.10462661097E+04  0.50400001928E-02 0. -1.
    10030    2    1    2    0    0  0.00000000000E+00  0.00000000000E+00 -0.75703358334E+03  0.13354986362E+04  0.11002075990E+04 0.  0.
        3    1    3    3  502    0 -0.39160541181E+03 -0.95804897850E+02 -0.83283288371E+03  0.92528049769E+03  0.10100000352E+00 0. -1.
       -3    1    3    3    0  502  0.39160541181E+03  0.95804897850E+02  0.75799300371E+02  0.41021813850E+03  0.10100000352E+00 0.  1.
</event>
<event>
 5   0  0.8657442E-05  0.1100348E+04  0.7818609E-02  0.9204853E-01
        1   -1    0    0  501    0  0.00000000000E+00  0.00000000000E+00  0.54315455393E+03  0.54315455395E+03  0.50400001928E-02 0. -1.
       -1   -1    0    0    0  501  0.00000000000E+00  0.00000000000E+00 -0.55728380017E+03  0.55728380020E+03  0.50400001928E-02 0.  1.
    10030    2    1    2    0    0  0.00000000000E+00  0.00000000000E+00 -0.14129246243E+02  0.11004383542E+04  0.11003476431E+04 0.  0.
        1    1    3    3  502    0  0.99915763848E+02  0.18306931701E+03  0.50208804166E+03  0.54368183371E+03  0.50400001928E-02 0. -1.
       -1    1    3    3    0  502 -0.99915763848E+02 -0.18306931701E+03 -0.51621728791E+03  0.55675652044E+03  0.50400001928E-02 0.  1.
</event>
<event>
 5   0  0.1464205E-04  0.1099469E+04  0.7818609E-02  0.9205710E-01
        2   -1    0    0  501    0  0.00000000000E+00  0.00000000000E+00  0.85887011728E+03  0.85887011729E+03  0.25500000920E-02 0. -1.
       -2   -1    0    0    0  501  0.00000000000E+00  0.00000000000E+00 -0.35186696337E+03  0.35186696338E+03  0.25500000920E-02 0.  1.
    10030    2    1    2    0    0  0.00000000000E+00  0.00000000000E+00  0.50700315392E+03  0.12107370807E+04  0.10994689993E+04 0.  0.
        3    1    3    3  502    0 -0.25747917685E+03 -0.34467247514E+03 -0.12334978657E+03  0.44755985262E+03  0.10100000352E+00 0.  1.
       -3    1    3    3    0  502  0.25747917685E+03  0.34467247514E+03  0.63035294049E+03  0.76317722805E+03  0.10100000352E+00 0. -1.
</event>
<event>
 5   0  0.9346836E-05  0.1100200E+04  0.7818609E-02  0.9204997E-01
        1   -1    0    0  501    0  0.00000000000E+00  0.00000000000E+00  0.28675371887E+03  0.28675371891E+03  0.50400001928E-02 0.  1.
       -1   -1    0    0    0  501  0.00000000000E+00  0.00000000000E+00 -0.10552956696E+04  0.10552956696E+04  0.50400001928E-02 0. -1.
    10030    2    1    2    0    0  0.00000000000E+00  0.00000000000E+00 -0.76854195074E+03  0.13420493885E+04  0.11001999051E+04 0.  0.
        5    1    3    3  502    0 -0.28594243756E+03  0.45750113042E+03 -0.25335998261E+03  0.59605682005E+03  0.46999998093E+01 0.  1.
       -5    1    3    3    0  502  0.28594243756E+03 -0.45750113042E+03 -0.51518196814E+03  0.74599256848E+03  0.46999998093E+01 0. -1.
</event>
<event>
 5   0  0.8921459E-05  0.1102304E+04  0.7818609E-02  0.9202949E-01
       -1   -1    0    0    0  501  0.00000000000E+00  0.00000000000E+00  0.49153372077E+03  0.49153372079E+03  0.50400001928E-02 0. -1.
        1   -1    0    0  501    0  0.00000000000E+00  0.00000000000E+00 -0.61800190441E+03  0.61800190443E+03  0.50400001928E-02 0.  1.
    10030    2    1    2    0    0  0.00000000000E+00  0.00000000000E+00 -0.12646818365E+03  0.11095356252E+04  0.11023044508E+04 0.  0.
        3    1    3    3  502    0  0.45473819783E+03  0.94156820916E+02  0.23555733810E+03  0.52071067324E+03  0.10100000352E+00 0. -1.
       -3    1    3    3    0  502 -0.45473819783E+03 -0.94156820916E+02 -0.36202552175E+03  0.58882495199E+03  0.10100000352E+00 0.  1.
</event>
<event>
 5   0  0.9016738E-05  0.1099852E+04  0.7818609E-02  0.9205336E-01
       -1   -1    0    0    0  501  0.00000000000E+00  0.00000000000E+00  0.49640948458E+03  0.49640948461E+03  0.50400001928E-02 0.  1.
        1   -1    0    0  501    0  0.00000000000E+00  0.00000000000E+00 -0.60921199554E+03  0.60921199556E+03  0.50400001928E-02 0. -1.
    10030    2    1    2    0    0  0.00000000000E+00  0.00000000000E+00 -0.11280251095E+03  0.11056214802E+04  0.10998520132E+04 0.  0.
        4    1    3    3  502    0  0.43313320690E+03  0.27554463888E+03  0.14183303094E+03  0.53258562175E+03  0.12699999809E+01 0.  1.
       -4    1    3    3    0  502 -0.43313320690E+03 -0.27554463888E+03 -0.25463554189E+03  0.57303585841E+03  0.12699999809E+01 0. -1.
</event>
<event>
 5   0  0.9346836E-05  0.1100092E+04  0.7818609E-02  0.9205103E-01
        1   -1    0    0  501    0  0.00000000000E+00  0.00000000000E+00  0.92934975063E+03  0.92934975065E+03  0.50400001928E-02 0. -1.
       -1   -1    0    0    0  501  0.00000000000E+00  0.00000000000E+00 -0.32555057135E+03  0.32555057139E+03  0.50400001928E-02 0.  1.
    10030    2    1    2    0    0  0.00000000000E+00  0.00000000000E+00  0.60379917929E+03  0.12549003220E+04  0.11000915277E+04 0.  0.
        5    1    3    3  502    0 -0.67364741118E+02  0.54525620615E+03  0.33177508605E+03  0.64182484871E+03  0.46999998093E+01 0. -1.
       -5    1    3    3    0  502  0.67364741118E+02 -0.54525620615E+03  0.27202409323E+03  0.61307547333E+03  0.46999998093E+01 0.  1.
</event>
<event>
 5   0  0.9016738E-05  0.1100221E+04  0.7818609E-02  0.9204976E-01
        1   -1    0    0  501    0  0.00000000000E+00  0.00000000000E+00  0.12702162823E+04  0.12702162823E+04  0.50400001928E-02 0.  1.
       -1   -1    0    0    0  501  0.00000000000E+00  0.00000000000E+00 -0.23824416879E+03  0.23824416884E+03  0.50400001928E-02 0. -1.
    10030    2    1    2    0    0  0.00000000000E+00  0.00000000000E+00  0.10319721135E+04  0.15084604511E+04  0.11002211094E+04 0.  0.
        4    1    3    3  502    0  0.40521437048E+02 -0.15519534961E+03 -0.20546935139E+03  0.26066616708E+03  0.12699999809E+01 0. -1.
       -4    1    3    3    0  502 -0.40521437048E+02  0.15519534961E+03  0.12374414649E+04  0.12477942841E+04  0.12699999809E+01 0.  1.
</event>
<event>
 5   0  0.1464205E-04  0.1100057E+04  0.7818609E-02  0.9205137E-01
       -2   -1    0    0    0  501  0.00000000000E+00  0.00000000000E+00  0.15278367410E+03  0.15278367412E+03  0.25500000920E-02 0. -1.
        2   -1    0    0  501    0  0.00000000000E+00  0.00000000000E+00 -0.19801272277E+04  0.19801272277E+04  0.25500000920E-02 0.  1.
    10030    2    1    2    0    0  0.00000000000E+00  0.00000000000E+00 -0.18273435536E+04  0.21329109018E+04  0.11000565677E+04 0.  0.
        3    1    3    3  502    0 -0.10893231573E+03 -0.44473670384E+01 -0.19589675142E+04  0.19619989195E+04  0.10100000352E+00 0.  1.
       -3    1    3    3    0  502  0.10893231573E+03  0.44473670384E+01  0.13162396059E+03  0.17091198228E+03  0.10100000352E+00 0. -1.
</event>
<event>
 5   0  0.9016738E-05  0.1100667E+04  0.7818609E-02  0.9204542E-01
       -1   -1    0    0    0  501  0.00000000000E+00  0.00000000000E+00  0.36166094424E+03  0.36166094428E+03  0.50400001928E-02 0.  1.
        1   -1    0    0  501    0  0.00000000000E+00  0.00000000000E+00 -0.83743413354E+03  0.83743413355E+03  0.50400001928E-02 0. -1.
    10030    2    1    2    0    0  0.00000000000E+00  0.00000000000E+00 -0.47577318930E+03  0.11990950778E+04  0.11006674693E+04 0.  0.
        4    1    3    3  502    0 -0.82127152035E+02 -0.26696567651E+03 -0.75447421942E+03  0.80451755867E+03  0.12699999809E+01 0. -1.
       -4    1    3    3    0  502  0.82127152035E+02  0.26696567651E+03  0.27870103012E+03  0.39457751916E+03  0.12699999809E+01 0.  1.
</event>
<event>
 5   0  0.1464205E-04  0.1100298E+04  0.7818609E-02  0.9204901E-01
        2   -1    0    0  501    0  0.00000000000E+00  0.00000000000E+00  0.65069769349E+03  0.65069769349E+03  0.25500000920E-02 0. -1.
       -2   -1    0    0    0  501  0.00000000000E+00  0.00000000000E+00 -0.46513787242E+03  0.46513787243E+03  0.25500000920E-02 0.  1.
    10030    2    1    2    0    0  0.00000000000E+00  0.00000000000E+00  0.18555982107E+03  0.11158355659E+04  0.11002983972E+04 0.  0.
        3    1    3    3  502    0 -0.16186478557E+03 -0.30204385442E+03 -0.34368507185E+03  0.48533507767E+03  0.10100000352E+00 0.  1.
       -3    1    3    3    0  502  0.16186478557E+03  0.30204385442E+03  0.52924489292E+03  0.63050048825E+03  0.10100000352E+00 0. -1.
</event>
<event>
 5   0  0.1574101E-04  0.1100120E+04  0.7818609E-02  0.9205075E-01
        2   -1    0    0  501    0  0.00000000000E+00  0.00000000000E+00  0.14093747836E+04  0.14093747836E+04  0.25500000920E-02 0.  1.
       -2   -1    0    0    0  501  0.00000000000E+00  0.00000000000E+00 -0.21468098223E+03  0.21468098224E+03  0.25500000920E-02 0. -1.
    10030    2    1    2    0    0  0.00000000000E+00  0.00000000000E+00  0.11946938014E+04  0.16240557659E+04  0.11001199260E+04 0.  0.
        4    1    3    3  502    0  0.26276186687E+03  0.40915472594E+03  0.21776612170E+03  0.53279929157E+03  0.12699999809E+01 0. -1.
       -4    1    3    3    0  502 -0.26276186687E+03 -0.40915472594E+03  0.97692767972E+03  0.10912564743E+04  0.12699999809E+01 0.  1.
</event>
<event>
 5   0  0.9016738E-05  0.1100255E+04  0.7818609E-02  0.9204943E-01
       -1   -1    0    0    0  501  0.00000000000E+00  0.00000000000E+00  0.37820517599E+03  0.37820517602E+03  0.50400001928E-02 0. -1.
        1   -1    0    0  501    0  0.00000000000E+00  0.00000000000E+00 -0.80020135868E+03  0.80020135870E+03  0.50400001928E-02 0.  1.
    10030    2    1    2    0    0  0.00000000000E+00  0.00000000000E+00 -0.42199618269E+03  0.11784065347E+04  0.11002550536E+04 0.  0.
        4    1    3    3  502    0  0.19513304696E+03  0.45653309975E+03 -0.46476517490E+03  0.68007915560E+03  0.12699999809E+01 0.  1.
       -4    1    3    3    0  502 -0.19513304696E+03 -0.45653309975E+03  0.42768992209E+02  0.49832737912E+03  0.12699999809E+01 0. -1.
</event>
<event>
 5   0  0.8657442E-05  0.1099927E+04  0.7818609E-02  0.9205263E-01
        1   -1    0    0  501    0  0.00000000000E+00  0.00000000000E+00  0.33710238807E+03  0.33710238811E+03  0.50400001928E-02 0. -1.
       -1   -1    0    0    0  501  0.00000000000E+00  0.00000000000E+00 -0.89723444199E+03  0.89723444200E+03  0.50400001928E-02 0.  1.
    10030    2    1    2    0    0  0.00000000000E+00  0.00000000000E+00 -0.56013205392E+03  0.12343368301E+04  0.10999270396E+04 0.  0.
        1    1    3    3  502    0  0.34899226464E+02  0.39328426750E+03  0.14956087438E+03  0.42220720771E+03  0.50400001928E-02 0. -1.
       -1    1    3    3    0  502 -0.34899226464E+02 -0.39328426750E+03 -0.70969292830E+03  0.81212962240E+03  0.50400001928E-02 0.  1.
</event>
<event>
 5   0  0.1540772E-04  0.1100408E+04  0.7818609E-02  0.9204795E-01
       -2   -1    0    0    0  501  0.00000000000E+00  0.00000000000E+00  0.10569019435E+03  0.10569019439E+03  0.25500000920E-02 0. -1.
        2   -1    0    0  501    0  0.00000000000E+00  0.00000000000E+00 -0.28642605622E+04  0.28642605622E+04  0.25500000920E-02 0.  1.
    10030    2    1    2    0    0  0.00000000000E+00  0.00000000000E+00 -0.27585703678E+04  0.29699507566E+04  0.11004076618E+04 0.  0.
        2    1    3    3  502    0  0.82018060394E+02 -0.37729214970E+03 -0.32135015863E+03  0.50233679231E+03  0.25500000920E-02 0. -1.
       -2    1    3    3    0  502 -0.82018060394E+02  0.37729214970E+03 -0.24372202092E+04  0.24676139643E+04  0.25500000920E-02 0.  1.
</event>
<event>
 5   0  0.1464205E-04  0.1099173E+04  0.7818609E-02  0.9205999E-01
       -2   -1    0    0    0  501  0.00000000000E+00  0.00000000000E+00  0.24378153951E+03  0.24378153952E+03  0.25500000920E-02 0.  1.
        2   -1    0    0  501    0  0.00000000000E+00  0.00000000000E+00 -0.12389992484E+04  0.12389992484E+04  0.25500000920E-02 0. -1.
    10030    2    1    2    0    0  0.00000000000E+00  0.00000000000E+00 -0.99521770894E+03  0.14827807880E+04  0.10991726784E+04 0.  0.
        3    1    3    3  502    0  0.14316992487E+03 -0.92174961876E+02  0.20730027674E+03  0.26826715401E+03  0.10100000352E+00 0.  1.
       -3    1    3    3    0  502 -0.14316992487E+03  0.92174961876E+02 -0.12025179857E+04  0.12145136340E+04  0.10100000352E+00 0. -1.
</event>
<event>
 5   0  0.9016738E-05  0.1099868E+04  0.7818609E-02  0.9205321E-01
       -1   -1    0    0    0  501  0.00000000000E+00  0.00000000000E+00  0.59782448970E+03  0.59782448972E+03  0.50400001928E-02 0. -1.
        1   -1    0    0  501    0  0.00000000000E+00  0.00000000000E+00 -0.50587976455E+03  0.50587976458E+03  0.50400001928E-02 0.  1.
    10030    2    1    2    0    0  0.00000000000E+00  0.00000000000E+00  0.91944725145E+02  0.11037042543E+04  0.10998678323E+04 0.  0.
        4    1    3    3  502    0 -0.78523063281E+02  0.14793002548E+03  0.57160908664E+03  0.59564060031E+03  0.12699999809E+01 0. -1.
       -4    1    3    3    0  502  0.78523063281E+02 -0.14793002548E+03 -0.47966436150E+03  0.50806365398E+03  0.12699999809E+01 0.  1.
</event>
<event>
 5   0  0.8621738E-05  0.1096372E+04  0.7818609E-02  0.9208735E-01
        1   -1    0    0  501    0  0.00000000000E+00  0.00000000000E+00  0.31561175208E+03  0.31561175212E+03  0.50400001928E-02 0.  1.
       -1   -1    0    0    0  501  0.00000000000E+00  0.00000000000E+00 -0.95214499013E+03  0.95214499015E+03  0.50400001928E-02 0. -1.
    10030    2    1    2    0    0  0.00000000000E+00  0.00000000000E+00 -0.63653323805E+03  0.12677567423E+04  0.10963724707E+04 0.  0.
        2    1    3    3  502    0  0.53429409253E+03 -0.10306939162E+03 -0.39509594410E+03  0.67245392545E+03  0.25500000920E-02 0.  1.
       -2    1    3    3    0  502 -0.53429409253E+03  0.10306939162E+03 -0.24143729395E+03  0.59530281682E+03  0.25500000920E-02 0. -1.
</event>
<event>
 5   0  0.8657442E-05  0.1100112E+04  0.7818609E-02  0.9205082E-01
        1   -1    0    0  501    0  0.00000000000E+00  0.00000000000E+00  0.97591028631E+03  0.97591028633E+03  0.50400001928E-02 0.  1.
       -1   -1    0    0    0  501  0.00000000000E+00  0.00000000000E+00 -0.31003028447E+03  0.31003028451E+03  0.50400001928E-02 0. -1.
    10030    2    1    2    0    0  0.00000000000E+00  0.00000000000E+00  0.66588000184E+03  0.12859405708E+04  0.11001122556E+04 0.  0.
        1    1    3    3  502    0 -0.27471255136E+03  0.25578480995E+03  0.80293920461E+03  0.88634317350E+03  0.50400001928E-02 0.  1.
       -1    1    3    3    0  502  0.27471255136E+03 -0.25578480995E+03 -0.13705920277E+03  0.39959739735E+03  0.50400001928E-02 0. -1.
</event>
<event>
 5   0  0.1540772E-04  0.1098991E+04  0.7818609E-02  0.9206176E-01
       -2   -1    0    0    0  501  0.00000000000E+00  0.00000000000E+00  0.23760046707E+03  0.23760046708E+03  0.25500000920E-02 0.  1.
        2   -1    0    0  501    0  0.00000000000E+00  0.00000000000E+00 -0.12708102069E+04  0.12708102069E+04  0.25500000920E-02 0. -1.
    10030    2    1    2    0    0  0.00000000000E+00  0.00000000000E+00 -0.10332097398E+04  0.15084106740E+04  0.10989906255E+04 0.  0.
        2    1    3    3  502    0  0.17533587809E+03  0.51828527893E+03 -0.58635914794E+03  0.80198463257E+03  0.25500000920E-02 0.  1.
       -2    1    3    3    0  502 -0.17533587809E+03 -0.51828527893E+03 -0.44685059187E+03  0.70642604140E+03  0.25500000920E-02 0. -1.
</event>
<event>
 5   0  0.6010125E-05  0.1101084E+04  0.7818609E-02  0.9204136E-01
        3   -1    0    0  501    0  0.00000000000E+00  0.00000000000E+00  0.30751672692E+03  0.30751674351E+03  0.10100000352E+00 0.  1.
       -3   -1    0    0    0  501  0.00000000000E+00  0.00000000000E+00 -0.98562618939E+03  0.98562619457E+03  0.10100000352E+00 0. -1.
    10030    2    1    2    0    0  0.00000000000E+00  0.00000000000E+00 -0.67810946247E+03  0.12931429381E+04  0.11010841091E+04 0.  0.
        5    1    3    3  502    0  0.29509610441E+03 -0.21685178523E+03  0.14370200395E+03  0.39341932277E+03  0.46999998093E+01 0.  1.
       -5    1    3    3    0  502 -0.29509610441E+03  0.21685178523E+03 -0.82181146642E+03  0.89972361530E+03  0.46999998093E+01 0. -1.
</event>
<event>
 5   0  0.8921459E-05  0.1100588E+04  0.7818609E-02  0.9204619E-01
        1   -1    0    0  501    0  0.00000000000E+00  0.00000000000E+00  0.10743905331E+04  0.10743905331E+04  0.50400001928E-02 0.  1.
       -1   -1    0    0    0  501  0.00000000000E+00  0.00000000000E+00 -0.28185595525E+03  0.28185595529E+03  0.50400001928E-02 0. -1.
    10030    2    1    2    0    0  0.00000000000E+00  0.00000000000E+00  0.79253457784E+03  0.13562464884E+04  0.11005877885E+04 0.  0.
        3    1    3    3  502    0  0.40453702181E+03  0.30541171253E+03  0.66026815220E+03  0.83239447330E+03  0.10100000352E+00 0.  1.
       -3    1    3    3    0  502 -0.40453702181E+03 -0.30541171253E+03  0.13226642564E+03  0.52385201510E+03  0.10100000352E+00 0. -1.
</event>
<event>
 5   0  0.8657442E-05  0.1100132E+04  0.7818609E-02  0.9205063E-01
        1   -1    0    0  501    0  0.00000000000E+00  0.00000000000E+00  0.98030133455E+03  0.98030133457E+03  0.50400001928E-02 0.  1.
       -1   -1    0    0    0  501  0.00000000000E+00  0.00000000000E+00 -0.30865249040E+03  0.30865249044E+03  0.50400001928E-02 0. -1.
    10030    2    1    2    0    0  0.00000000000E+00  0.00000000000E+00  0.67164884415E+03  0.12889538250E+04  0.11001317163E+04 0.  0.
        1    1    3    3  502    0 -0.65207494830E+02  0.46893477441E+03  0.66392559085E+03  0.81544406935E+03  0.50400001928E-02 0.  1.
       -1    1    3    3    0  502  0.65207494830E+02 -0.46893477441E+03  0.77232533012E+01  0.47350975566E+03  0.50400001928E-02 0. -1.
</event>
<event>
 5   0  0.1464205E-04  0.1098978E+04  0.7818609E-02  0.9206188E-01
        2   -1    0    0  501    0  0.00000000000E+00  0.00000000000E+00  0.28533870877E+03  0.28533870878E+03  0.25500000920E-02 0.  1.
       -2   -1    0    0    0  501  0.00000000000E+00  0.00000000000E+00 -0.10581752666E+04  0.10581752666E+04  0.25500000920E-02 0. -1.
    10030    2    1    2    0    0  0.00000000000E+00  0.00000000000E+00 -0.77283655786E+03  0.13435139754E+04  0.10989783696E+04 0.  0.
        3    1    3    3  502    0 -0.50184890848E+03 -0.19030812613E+03 -0.24244788968E+03  0.58894014910E+03  0.10100000352E+00 0.  1.
       -3    1    3    3    0  502  0.50184890848E+03  0.19030812613E+03 -0.53038866818E+03  0.75457382630E+03  0.10100000352E+00 0. -1.
</event>
<event>
 5   0  0.1464205E-04  0.1096162E+04  0.7818609E-02  0.9208941E-01
        2   -1    0    0  501    0  0.00000000000E+00  0.00000000000E+00  0.19056822878E+04  0.19056822878E+04  0.25500000920E-02 0.  1.
       -2   -1    0    0    0  501  0.00000000000E+00  0.00000000000E+00 -0.15763003878E+03  0.15763003880E+03  0.25500000920E-02 0. -1.
    10030    2    1    2    0    0  0.00000000000E+00  0.00000000000E+00  0.17480522490E+04  0.20633123266E+04  0.10961619825E+04 0.  0.
        3    1    3    3  502    0  0.20689224930E+03 -0.37026724038E+03  0.15274074169E+04  0.15852052421E+04  0.10100000352E+00 0.  1.
       -3    1    3    3    0  502 -0.20689224930E+03  0.37026724038E+03  0.22064483212E+03  0.47810708451E+03  0.10100000352E+00 0. -1.
</event>
<event>
 5   0  0.8657442E-05  0.1100739E+04  0.7818609E-02  0.9204472E-01
       -1   -1    0    0    0  501  0.00000000000E+00  0.00000000000E+00  0.26285882851E+03  0.26285882856E+03  0.50400001928E-02 0.  1.
        1   -1    0    0  501    0  0.00000000000E+00  0.00000000000E+00 -0.11523536462E+04  0.11523536462E+04  0.50400001928E-02 0. -1.
    10030    2    1    2    0    0  0.00000000000E+00  0.00000000000E+00 -0.88949481772E+03  0.14152124748E+04  0.11007385330E+04 0.  0.
        1    1    3    3  502    0 -0.31116981901E+03 -0.35999399107E+03 -0.80031549456E+03  0.93108926571E+03  0.50400001928E-02 0. -1.
       -1    1    3    3    0  502  0.31116981901E+03  0.35999399107E+03 -0.89179323160E+02  0.48412320909E+03  0.50400001928E-02 0.  1.
</event>
<event>
 5   0  0.1553937E-04  0.1099679E+04  0.7818609E-02  0.9205505E-01
       -2   -1    0    0    0  501  0.00000000000E+00  0.00000000000E+00  0.61949020402E+03  0.61949020402E+03  0.25500000920E-02 0.  1.
        2   -1    0    0  501    0  0.00000000000E+00  0.00000000000E+00 -0.48801938148E+03  0.48801938149E+03  0.25500000920E-02 0. -1.
    10030    2    1    2    0    0  0.00000000000E+00  0.00000000000E+00  0.13147082254E+03  0.11075095855E+04  0.10996785461E+04 0.  0.
        1    1    3    3  502    0 -0.70682495302E+02 -0.52621013649E+03  0.20968718569E+03  0.57084309469E+03  0.50400001928E-02 0. -1.
       -1    1    3    3    0  502  0.70682495302E+02  0.52621013649E+03 -0.78216363153E+02  0.53666649083E+03  0.50400001928E-02 0.  1.
</event>
<event>
 5   0  0.8621738E-05  0.1100457E+04  0.7818609E-02  0.9204747E-01
       -1   -1    0    0    0  501  0.00000000000E+00  0.00000000000E+00  0.51049941985E+03  0.51049941988E+03  0.50400001928E-02 0.  1.
        1   -1    0    0  501    0  0.00000000000E+00  0.00000000000E+00 -0.59304922041E+03  0.59304922044E+03  0.50400001928E-02 0. -1.
    10030    2    1    2    0    0  0.00000000000E+00  0.00000000000E+00 -0.82549800560E+02  0.11035486403E+04  0.11004567833E+04 0.  0.
        2    1    3    3  502    0 -0.15624566318E+03  0.12541456948E+03 -0.55516934253E+03  0.59021565583E+03  0.25500000920E-02 0. -1.
       -2    1    3    3    0  502  0.15624566318E+03 -0.12541456948E+03  0.47261954197E+03  0.51333298448E+03  0.25500000920E-02 0.  1.
</event>
<event>
 5   0  0.8657442E-05  0.1100015E+04  0.7818609E-02  0.9205177E-01
       -1   -1    0    0    0  501  0.00000000000E+00  0.00000000000E+00  0.42194388219E+03  0.42194388222E+03  0.50400001928E-02 0. -1.
        1   -1    0    0  501    0  0.00000000000E+00  0.00000000000E+00 -0.71693992624E+03  0.71693992626E+03  0.50400001928E-02 0.  1.
    10030    2    1    2    0    0  0.00000000000E+00  0.00000000000E+00 -0.29499604405E+03  0.11388838085E+04  0.11000153014E+04 0.  0.
        1    1    3    3  502    0 -0.40105953254E+03 -0.86596045700E+02  0.23172395589E+03  0.47121504171E+03  0.50400001928E-02 0. -1.
       -1    1    3    3    0  502  0.40105953254E+03  0.86596045700E+02 -0.52671999994E+03  0.66766876678E+03  0.50400001928E-02 0.  1.
</event>
<event>
 5   0  0.1503277E-04  0.1099828E+04  0.7818609E-02  0.9205359E-01
        2   -1    0    0  501    0  0.00000000000E+00  0.00000000000E+00  0.49206637804E+03  0.49206637804E+03  0.25500000920E-02 0.  1.
       -2   -1    0    0    0  501  0.00000000000E+00  0.00000000000E+00 -0.61456274625E+03  0.61456274626E+03  0.25500000920E-02 0. -1.
    10030    2    1    2    0    0  0.00000000000E+00  0.00000000000E+00 -0.12249636821E+03  0.11066291243E+04  0.10998284678E+04 0.  0.
        5    1    3    3  502    0  0.29077800193E+03  0.21804096888E+03  0.35396538580E+03  0.50735322494E+03  0.46999998093E+01 0.  1.
       -5    1    3    3    0  502 -0.29077800193E+03 -0.21804096888E+03 -0.47646175401E+03  0.59927589936E+03  0.46999998093E+01 0. -1.
</event>
<event>
 5   0  0.1553937E-04  0.1099806E+04  0.7818609E-02  0.9205381E-01
        2   -1    0    0  501    0  0.00000000000E+00  0.00000000000E+00  0.30387611652E+04  0.30387611652E+04  0.25500000920E-02 0.  1.
       -2   -1    0    0    0  501  0.00000000000E+00  0.00000000000E+00 -0.99512030885E+02  0.99512030918E+02  0.25500000920E-02 0. -1.
    10030    2    1    2    0    0  0.00000000000E+00  0.00000000000E+00  0.29392491343E+04  0.31382731961E+04  0.10998059738E+04 0.  0.
        1    1    3    3  502    0  0.35414544216E+03  0.25416572840E+03  0.24261747392E+04  0.24650239505E+04  0.50400001928E-02 0.  1.
       -1    1    3    3    0  502 -0.35414544216E+03 -0.25416572840E+03  0.51307439513E+03  0.67324924557E+03  0.50400001928E-02 0. -1.
</event>
<event>
 5   0  0.8621738E-05  0.1100042E+04  0.7818609E-02  0.9205151E-01
        1   -1    0    0  501    0  0.00000000000E+00  0.00000000000E+00  0.75309241422E+03  0.75309241423E+03  0.50400001928E-02 0. -1.
       -1   -1    0    0    0  501  0.00000000000E+00  0.00000000000E+00 -0.40170783814E+03  0.40170783817E+03  0.50400001928E-02 0.  1.
    10030    2    1    2    0    0  0.00000000000E+00  0.00000000000E+00  0.35138457608E+03  0.11548002524E+04  0.11000420459E+04 0.  0.
        2    1    3    3  502    0  0.99709048970E+02  0.32426590690E+03  0.63017821793E+03  0.71569187447E+03  0.25500000920E-02 0. -1.
       -2    1    3    3    0  502 -0.99709048970E+02 -0.32426590690E+03 -0.27879364185E+03  0.43910837793E+03  0.25500000920E-02 0.  1.
</event>
<event>
 5   0  0.8621738E-05  0.1100519E+04  0.7818609E-02  0.9204686E-01
       -1   -1    0    0    0  501  0.00000000000E+00  0.00000000000E+00  0.36313341836E+03  0.36313341840E+03  0.50400001928E-02 0.  1.
        1   -1    0    0  501    0  0.00000000000E+00  0.00000000000E+00 -0.83381334842E+03  0.83381334844E+03  0.50400001928E-02 0. -1.
    10030    2    1    2    0    0  0.00000000000E+00  0.00000000000E+00 -0.47067993006E+03  0.11969467668E+04  0.11005189531E+04 0.  0.
        2    1    3    3  502    0 -0.15517700916E+03  0.17307891395E+03 -0.77778810340E+03  0.81178232823E+03  0.25500000920E-02 0. -1.
       -2    1    3    3    0  502  0.15517700916E+03 -0.17307891395E+03  0.30710817334E+03  0.38516443861E+03  0.25500000920E-02 0.  1.
</event>
<event>
 5   0  0.1540772E-04  0.1100044E+04  0.7818609E-02  0.9205149E-01
        2   -1    0    0  501    0  0.00000000000E+00  0.00000000000E+00  0.10463641340E+04  0.10463641340E+04  0.25500000920E-02 0. -1.
       -2   -1    0    0    0  501  0.00000000000E+00  0.00000000000E+00 -0.28911945927E+03  0.28911945928E+03  0.25500000920E-02 0.  1.
    10030    2    1    2    0    0  0.00000000000E+00  0.00000000000E+00  0.75724467477E+03  0.13354835933E+04  0.11000440585E+04 0.  0.
        2    1    3    3  502    0 -0.43579151365E+03  0.19632028202E+03  0.70902593820E+03  0.85508694152E+03  0.25500000920E-02 0. -1.
       -2    1    3    3    0  502  0.43579151365E+03 -0.19632028202E+03  0.48218736572E+02  0.48039665181E+03  0.25500000920E-02 0.  1.
</event>
<event>
 5   0  0.6010125E-05  0.1108466E+04  0.7818609E-02  0.9196980E-01
        3   -1    0    0  501    0  0.00000000000E+00  0.00000000000E+00  0.10334841924E+04  0.10334841973E+04  0.10100000352E+00 0.  1.
       -3   -1    0    0    0  501  0.00000000000E+00  0.00000000000E+00 -0.29722180863E+03  0.29722182579E+03  0.10100000352E+00 0. -1.
    10030    2    1    2    0    0  0.00000000000E+00  0.00000000000E+00  0.73626238375E+03  0.13307060231E+04  0.11084657064E+04 0.  0.
        4    1    3    3  502    0  0.52743841310E+02  0.18911570519E+03 -0.25407410766E+03  0.32109488913E+03  0.12699999809E+01 0. -1.
       -4    1    3    3    0  502 -0.52743841310E+02 -0.18911570519E+03  0.99033649141E+03  0.10096111340E+04  0.12699999809E+01 0.  1.
</event>
<event>
 5   0  0.8657442E-05  0.1099726E+04  0.7818609E-02  0.9205459E-01
        1   -1    0    0  501    0  0.00000000000E+00  0.00000000000E+00  0.44834172129E+03  0.44834172131E+03  0.50400001928E-02 0. -1.
       -1   -1    0    0    0  501  0.00000000000E+00  0.00000000000E+00 -0.67437217670E+03  0.67437217672E+03  0.50400001928E-02 0.  1.
    10030    2    1    2    0    0  0.00000000000E+00  0.00000000000E+00 -0.22603045541E+03  0.11227138980E+04  0.10997257522E+04 0.  0.
        1    1    3    3  502    0  0.42067907903E+02 -0.18629982616E+03 -0.63942128888E+03  0.66733568674E+03  0.50400001928E-02 0.  1.
       -1    1    3    3    0  502 -0.42067907903E+02  0.18629982616E+03  0.41339083346E+03  0.45537821129E+03  0.50400001928E-02 0. -1.
</event>
<event>
 5   0  0.1503277E-04  0.1099917E+04  0.7818609E-02  0.9205273E-01
       -2   -1    0    0    0  501  0.00000000000E+00  0.00000000000E+00  0.14591301506E+03  0.14591301509E+03  0.25500000920E-02 0.  1.
        2   -1    0    0  501    0  0.00000000000E+00  0.00000000000E+00 -0.20728391708E+04  0.20728391708E+04  0.25500000920E-02 0. -1.
    10030    2    1    2    0    0  0.00000000000E+00  0.00000000000E+00 -0.19269261558E+04  0.22187521859E+04  0.10999167481E+04 0.  0.
        5    1    3    3  502    0  0.60176188875E+02  0.21267630478E+02 -0.20653024597E+04  0.20662937414E+04  0.46999998093E+01 0. -1.
       -5    1    3    3    0  502 -0.60176188875E+02 -0.21267630478E+02  0.13837630393E+03  0.15245844450E+03  0.46999998093E+01 0.  1.
</event>
<event>
 5   0  0.8921459E-05  0.1099164E+04  0.7818609E-02  0.9206008E-01
        1   -1    0    0  501    0  0.00000000000E+00  0.00000000000E+00  0.45093435379E+03  0.45093435382E+03  0.50400001928E-02 0.  1.
       -1   -1    0    0    0  501  0.00000000000E+00  0.00000000000E+00 -0.66980953184E+03  0.66980953186E+03  0.50400001928E-02 0. -1.
    10030    2    1    2    0    0  0.00000000000E+00  0.00000000000E+00 -0.21887517805E+03  0.11207438857E+04  0.10991635518E+04 0.  0.
        3    1    3    3  502    0 -0.38619942266E+03  0.25424639970E+03 -0.41233718294E+03  0.61952658414E+03  0.10100000352E+00 0. -1.
       -3    1    3    3    0  502  0.38619942266E+03 -0.25424639970E+03  0.19346200489E+03  0.50121730153E+03  0.10100000352E+00 0.  1.
</event>
<event>
 5   0  0.1540772E-04  0.1101101E+04  0.7818609E-02  0.9204120E-01
       -2   -1    0    0    0  501  0.00000000000E+00  0.00000000000E+00  0.19115539953E+03  0.19115539954E+03  0.25500000920E-02 0.  1.
        2   -1    0    0  501    0  0.00000000000E+00  0.00000000000E+00 -0.15856507040E+04  0.15856507040E+04  0.25500000920E-02 0. -1.
    10030    2    1    2    0    0  0.00000000000E+00  0.00000000000E+00 -0.13944953045E+04  0.17768061036E+04  0.11011007108E+04 0.  0.
        2    1    3    3  502    0  0.19331622419E+03  0.93849332569E+02  0.12068534154E+03  0.24646259641E+03  0.25500000920E-02 0.  1.
       -2    1    3    3    0  502 -0.19331622419E+03 -0.93849332569E+02 -0.15151806460E+04  0.15303435071E+04  0.25500000920E-02 0. -1.
</event>
<event>
 5   0  0.1540772E-04  0.1100444E+04  0.7818609E-02  0.9204759E-01
       -2   -1    0    0    0  501  0.00000000000E+00  0.00000000000E+00  0.19405442957E+03  0.19405442959E+03  0.25500000920E-02 0. -1.
        2   -1    0    0  501    0  0.00000000000E+00  0.00000000000E+00 -0.15600992092E+04  0.15600992092E+04  0.25500000920E-02 0.  1.
    10030    2    1    2    0    0  0.00000000000E+00  0.00000000000E+00 -0.13660447796E+04  0.17541536388E+04  0.11004438416E+04 0.  0.
        2    1    3    3  502    0 -0.31928673145E+03 -0.34243653255E+03 -0.11437456452E+04  0.12358644330E+04  0.25500000920E-02 0.  1.
       -2    1    3    3    0  502  0.31928673145E+03  0.34243653255E+03 -0.22229913440E+03  0.51828920582E+03  0.25500000920E-02 0. -1.
</event>
<event>
 5   0  0.8657442E-05  0.1100036E+04  0.7818609E-02  0.9205157E-01
        1   -1    0    0  501    0  0.00000000000E+00  0.00000000000E+00  0.69840554637E+03  0.69840554639E+03  0.50400001928E-02 0. -1.
       -1   -1    0    0    0  501  0.00000000000E+00  0.00000000000E+00 -0.43315745882E+03  0.43315745885E+03  0.50400001928E-02 0.  1.
    10030    2    1    2    0    0  0.00000000000E+00  0.00000000000E+00  0.26524808755E+03  0.11315630052E+04  0.11000355844E+04 0.  0.
        1    1    3    3  502    0  0.41487211839E+03  0.26413642627E+03  0.38591825510E+03  0.62515584132E+03  0.50400001928E-02 0. -1.
       -1    1    3    3    0  502 -0.41487211839E+03 -0.26413642627E+03 -0.12067016754E+03  0.50640716391E+03  0.50400001928E-02 0.  1.
</event>
<event>
 5   0  0.1464205E-04  0.1100922E+04  0.7818609E-02  0.9204294E-01
        2   -1    0    0  501    0  0.00000000000E+00  0.00000000000E+00  0.14706969179E+04  0.14706969179E+04  0.25500000920E-02 0.  1.
       -2   -1    0    0    0  501  0.00000000000E+00  0.00000000000E+00 -0.20602981560E+03  0.20602981562E+03  0.25500000920E-02 0. -1.
    10030    2    1    2    0    0  0.00000000000E+00  0.00000000000E+00  0.12646671023E+04  0.16767267335E+04  0.11009221858E+04 0.  0.
        3    1    3    3  502    0  0.95197856067E+02  0.13865670280E+03 -0.16593695915E+03  0.23626975609E+03  0.10100000352E+00 0. -1.
       -3    1    3    3    0  502 -0.95197856067E+02 -0.13865670280E+03  0.14306040614E+04  0.14404569774E+04  0.10100000352E+00 0.  1.
</event>
<event>
 5   0  0.1540772E-04  0.1098075E+04  0.7818609E-02  0.9207070E-01
        2   -1    0    0  501    0  0.00000000000E+00  0.00000000000E+00  0.59809948416E+03  0.59809948416E+03  0.25500000920E-02 0.  1.
       -2   -1    0    0    0  501  0.00000000000E+00  0.00000000000E+00 -0.50399992853E+03  0.50399992854E+03  0.25500000920E-02 0. -1.
    10030    2    1    2    0    0  0.00000000000E+00  0.00000000000E+00  0.94099555629E+02  0.11020994127E+04  0.10980748559E+04 0.  0.
        2    1    3    3  502    0 -0.23467151857E+02 -0.52698238649E+03 -0.10576117374E+03  0.53800238732E+03  0.25500000920E-02 0. -1.
       -2    1    3    3    0  502  0.23467151857E+02  0.52698238649E+03  0.19986072937E+03  0.56409702538E+03  0.25500000920E-02 0.  1.
</event>
<event>
 5   0  0.8921459E-05  0.1099237E+04  0.7818609E-02  0.9205936E-01
       -1   -1    0    0    0  501  0.00000000000E+00  0.00000000000E+00  0.26312028807E+03  0.26312028811E+03  0.50400001928E-02 0.  1.
        1   -1    0    0  501    0  0.00000000000E+00  0.00000000000E+00 -0.11480694498E+04  0.11480694498E+04  0.50400001928E-02 0. -1.
    10030    2    1    2    0    0  0.00000000000E+00  0.00000000000E+00 -0.88494916171E+03  0.14111897379E+04  0.10992367614E+04 0.  0.
        3    1    3    3  502    0  0.81711133045E+02 -0.52149460012E+03 -0.63905400440E+03  0.82886872179E+03  0.10100000352E+00 0. -1.
       -3    1    3    3    0  502 -0.81711133045E+02  0.52149460012E+03 -0.24589515731E+03  0.58232101612E+03  0.10100000352E+00 0.  1.
</event>
<event>
 5   0  0.8921459E-05  0.1101229E+04  0.7818609E-02  0.9203995E-01
       -1   -1    0    0    0  501  0.00000000000E+00  0.00000000000E+00  0.15321278137E+03  0.15321278146E+03  0.50400001928E-02 0.  1.
        1   -1    0    0  501    0  0.00000000000E+00  0.00000000000E+00 -0.19787910603E+04  0.19787910603E+04  0.50400001928E-02 0. -1.
    10030    2    1    2    0    0  0.00000000000E+00  0.00000000000E+00 -0.18255782789E+04  0.21320038418E+04  0.11012285543E+04 0.  0.
        3    1    3    3  502    0  0.38396107808E+03 -0.38990331557E+03 -0.10309558244E+04  0.11671849155E+04  0.10100000352E+00 0. -1.
       -3    1    3    3    0  502 -0.38396107808E+03  0.38990331557E+03 -0.79462245450E+03  0.96481892621E+03  0.10100000352E+00 0.  1.
</event>
<event>
 5   0  0.9016738E-05  0.1099536E+04  0.7818609E-02  0.9205644E-01
        1   -1    0    0  501    0  0.00000000000E+00  0.00000000000E+00  0.51916517377E+03  0.51916517379E+03  0.50400001928E-02 0.  1.
       -1   -1    0    0    0  501  0.00000000000E+00  0.00000000000E+00 -0.58217518106E+03  0.58217518109E+03  0.50400001928E-02 0. -1.
    10030    2    1    2    0    0  0.00000000000E+00  0.00000000000E+00 -0.63010007294E+02  0.11013403549E+04  0.10995364097E+04 0.  0.
        4    1    3    3  502    0 -0.25266883672E+02 -0.54890164158E+03 -0.13811407324E+02  0.54965788943E+03  0.12699999809E+01 0. -1.
       -4    1    3    3    0  502  0.25266883672E+02  0.54890164158E+03 -0.49198599970E+02  0.55168246545E+03  0.12699999809E+01 0.  1.
</event>
<event>
 5   0  0.1464205E-04  0.1099667E+04  0.7818609E-02  0.9205517E-01
       -2   -1    0    0    0  501  0.00000000000E+00  0.00000000000E+00  0.89254065860E+03  0.89254065861E+03  0.25500000920E-02 0. -1.
        2   -1    0    0  501    0  0.00000000000E+00  0.00000000000E+00 -0.33871485243E+03  0.33871485244E+03  0.25500000920E-02 0.  1.
    10030    2    1    2    0    0  0.00000000000E+00  0.00000000000E+00  0.55382580617E+03  0.12312555110E+04  0.10996668177E+04 0.  0.
        3    1    3    3  502    0 -0.47041442150E+03  0.27353718110E+03  0.18871897073E+03  0.57595761781E+03  0.10100000352E+00 0. -1.
       -3    1    3    3    0  502  0.47041442150E+03 -0.27353718110E+03  0.36510683544E+03  0.65529789324E+03  0.10100000352E+00 0.  1.
</event>
<event>
 5   0  0.1540772E-04  0.1099929E+04  0.7818609E-02  0.9205261E-01
        2   -1    0    0  501    0  0.00000000000E+00  0.00000000000E+00  0.21803849194E+03  0.21803849195E+03  0.25500000920E-02 0. -1.
       -2   -1    0    0    0  501  0.00000000000E+00  0.00000000000E+00 -0.13871900932E+04  0.13871900932E+04  0.25500000920E-02 0.  1.
    10030    2    1    2    0    0  0.00000000000E+00  0.00000000000E+00 -0.11691516012E+04  0.16052285851E+04  0.10999287903E+04 0.  0.
        2    1    3    3  502    0  0.57928501375E+02  0.28686388833E+03  0.94966053182E+02  0.30767702703E+03  0.25500000920E-02 0. -1.
       -2    1    3    3    0  502 -0.57928501375E+02 -0.28686388833E+03 -0.12641176544E+04  0.12975515581E+04  0.25500000920E-02 0.  1.
</event>
<event>
 5   0  0.1574101E-04  0.1097526E+04  0.7818609E-02  0.9207607E-01
       -2   -1    0    0    0  501  0.00000000000E+00  0.00000000000E+00  0.50426433038E+03  0.50426433039E+03  0.25500000920E-02 0. -1.
        2   -1    0    0  501    0  0.00000000000E+00  0.00000000000E+00 -0.59718838254E+03  0.59718838255E+03  0.25500000920E-02 0.  1.
    10030    2    1    2    0    0  0.00000000000E+00  0.00000000000E+00 -0.92924052163E+02  0.11014527129E+04  0.10975259447E+04 0.  0.
        4    1    3    3  502    0  0.35631531091E+02  0.35878651576E+03 -0.46163505342E+03  0.58575242667E+03  0.12699999809E+01 0.  1.
       -4    1    3    3    0  502 -0.35631531091E+02 -0.35878651576E+03  0.36871100126E+03  0.51570028626E+03  0.12699999809E+01 0. -1.
</event>
<event>
 5   0  0.8621738E-05  0.1099886E+04  0.7818609E-02  0.9205303E-01
        1   -1    0    0  501    0  0.00000000000E+00  0.00000000000E+00  0.72236884155E+03  0.72236884157E+03  0.50400001928E-02 0.  1.
       -1   -1    0    0    0  501  0.00000000000E+00  0.00000000000E+00 -0.41867462533E+03  0.41867462536E+03  0.50400001928E-02 0. -1.
    10030    2    1    2    0    0  0.00000000000E+00  0.00000000000E+00  0.30369421622E+03  0.11410434669E+04  0.10998863653E+04 0.  0.
        2    1    3    3  502    0 -0.22185825567E+03 -0.13776786167E+03 -0.35024291882E+03  0.43688805375E+03  0.25500000920E-02 0. -1.
       -2    1    3    3    0  502  0.22185825567E+03  0.13776786167E+03  0.65393713504E+03  0.70415541318E+03  0.25500000920E-02 0.  1.
</event>
<event>
 5   0  0.9346836E-05  0.1100256E+04  0.7818609E-02  0.9204942E-01
       -1   -1    0    0    0  501  0.00000000000E+00  0.00000000000E+00  0.54122340691E+03  0.54122340693E+03  0.50400001928E-02 0. -1.
        1   -1    0    0  501    0  0.00000000000E+00  0.00000000000E+00 -0.55917915819E+03  0.55917915821E+03  0.50400001928E-02 0.  1.
    10030    2    1    2    0    0  0.00000000000E+00  0.00000000000E+00 -0.17955751282E+02  0.11004025651E+04  0.11002560595E+04 0.  0.
        5    1    3    3  502    0  0.12242663634E+03 -0.43007458850E+03  0.31148065402E+03  0.54497222020E+03  0.46999998093E+01 0. -1.
       -5    1    3    3    0  502 -0.12242663634E+03  0.43007458850E+03 -0.32943640530E+03  0.55543034495E+03  0.46999998093E+01 0.  1.
</event>
<event>
 5   0  0.1553937E-04  0.1099610E+04  0.7818609E-02  0.9205572E-01
       -2   -1    0    0    0  501  0.00000000000E+00  0.00000000000E+00  0.50095700799E+03  0.50095700800E+03  0.25500000920E-02 0.  1.
        2   -1    0    0  501    0  0.00000000000E+00  0.00000000000E+00 -0.60341650625E+03  0.60341650626E+03  0.25500000920E-02 0. -1.
    10030    2    1    2    0    0  0.00000000000E+00  0.00000000000E+00 -0.10245949826E+03  0.11043735143E+04  0.10996103447E+04 0.  0.
        1    1    3    3  502    0 -0.33553731281E+03  0.36991709994E+03 -0.28214257207E+03  0.57360995469E+03  0.50400001928E-02 0. -1.
       -1    1    3    3    0  502  0.33553731281E+03 -0.36991709994E+03  0.17968307381E+03  0.53076355956E+03  0.50400001928E-02 0.  1.
</event>
<event>
 5   0  0.1540772E-04  0.1100234E+04  0.7818609E-02  0.9204964E-01
        2   -1    0    0  501    0  0.00000000000E+00  0.00000000000E+00  0.59085534987E+03  0.59085534988E+03  0.25500000920E-02 0. -1.
       -2   -1    0    0    0  501  0.00000000000E+00  0.00000000000E+00 -0.51218750696E+03  0.51218750697E+03  0.25500000920E-02 0.  1.
    10030    2    1    2    0    0  0.00000000000E+00  0.00000000000E+00  0.78667842908E+02  0.11030428568E+04  0.11002340272E+04 0.  0.
        2    1    3    3  502    0 -0.29607484865E+03  0.45679114572E+03 -0.40306033081E+02  0.54584159160E+03  0.25500000920E-02 0.  1.
       -2    1    3    3    0  502  0.29607484865E+03 -0.45679114572E+03  0.11897387599E+03  0.55720126524E+03  0.25500000920E-02 0. -1.
</event>
<event>
 5   0  0.8657442E-05  0.1099839E+04  0.7818609E-02  0.9205349E-01
       -1   -1    0    0    0  501  0.00000000000E+00  0.00000000000E+00  0.71639125439E+03  0.71639125440E+03  0.50400001928E-02 0. -1.
        1   -1    0    0  501    0  0.00000000000E+00  0.00000000000E+00 -0.42213190712E+03  0.42213190715E+03  0.50400001928E-02 0.  1.
    10030    2    1    2    0    0  0.00000000000E+00  0.00000000000E+00  0.29425934726E+03  0.11385231616E+04  0.10998392728E+04 0.  0.
        1    1    3    3  502    0  0.35115806552E+03  0.36433722804E+03 -0.75752333439E+02  0.51165615286E+03  0.50400001928E-02 0.  1.
       -1    1    3    3    0  502 -0.35115806552E+03 -0.36433722804E+03  0.37001168070E+03  0.62686700870E+03  0.50400001928E-02 0. -1.
</event>
<event>
 5   0  0.8921459E-05  0.1100315E+04  0.7818609E-02  0.9204885E-01
        1   -1    0    0  501    0  0.00000000000E+00  0.00000000000E+00  0.12564573734E+04  0.12564573735E+04  0.50400001928E-02 0.  1.
       -1   -1    0    0    0  501  0.00000000000E+00  0.00000000000E+00 -0.24089422721E+03  0.24089422726E+03  0.50400001928E-02 0. -1.
    10030    2    1    2    0    0  0.00000000000E+00  0.00000000000E+00  0.10155631462E+04  0.14973516007E+04  0.11003150968E+04 0.  0.
        3    1    3    3  502    0  0.18698957402E+01 -0.19065647877E+03 -0.19449559990E+03  0.27236361355E+03  0.10100000352E+00 0. -1.
       -3    1    3    3    0  502 -0.18698957402E+01  0.19065647877E+03  0.12100587461E+04  0.12249879872E+04  0.10100000352E+00 0.  1.
</event>
<event>
 5   0  0.9016738E-05  0.1099842E+04  0.7818609E-02  0.9205346E-01
        1   -1    0    0  501    0  0.00000000000E+00  0.00000000000E+00  0.68378802829E+03  0.68378802831E+03  0.50400001928E-02 0. -1.
       -1   -1    0    0    0  501  0.00000000000E+00  0.00000000000E+00 -0.44226119009E+03  0.44226119012E+03  0.50400001928E-02 0.  1.
    10030    2    1    2    0    0  0.00000000000E+00  0.00000000000E+00  0.24152683820E+03  0.11260492184E+04  0.10998416380E+04 0.  0.
        4    1    3    3  502    0 -0.34512587463E+03 -0.42652184584E+03  0.15877683508E+03  0.57117812508E+03  0.12699999809E+01 0.  1.
       -4    1    3    3    0  502  0.34512587463E+03  0.42652184584E+03  0.82750003122E+02  0.55487109335E+03  0.12699999809E+01 0. -1.
</event>
<event>
 5   0  0.6010125E-05  0.1099916E+04  0.7818609E-02  0.9205274E-01
       -3   -1    0    0    0  501  0.00000000000E+00  0.00000000000E+00  0.18551400758E+04  0.18551400785E+04  0.10100000352E+00 0. -1.
        3   -1    0    0  501    0  0.00000000000E+00  0.00000000000E+00 -0.16303544277E+03  0.16303547405E+03  0.10100000352E+00 0.  1.
    10030    2    1    2    0    0  0.00000000000E+00  0.00000000000E+00  0.16921046330E+04  0.20181755526E+04  0.10999156658E+04 0.  0.
        4    1    3    3  502    0 -0.25970926556E+03  0.30412149520E+03  0.15387235114E+04  0.15898460441E+04  0.12699999809E+01 0. -1.
       -4    1    3    3    0  502  0.25970926556E+03 -0.30412149520E+03  0.15338112157E+03  0.42832950845E+03  0.12699999809E+01 0.  1.
</event>
<event>
 5   0  0.8657442E-05  0.1099951E+04  0.7818609E-02  0.9205239E-01
        1   -1    0    0  501    0  0.00000000000E+00  0.00000000000E+00  0.36454798496E+03  0.36454798500E+03  0.50400001928E-02 0. -1.
       -1   -1    0    0    0  501  0.00000000000E+00  0.00000000000E+00 -0.82972130210E+03  0.82972130212E+03  0.50400001928E-02 0.  1.
    10030    2    1    2    0    0  0.00000000000E+00  0.00000000000E+00 -0.46517331714E+03  0.11942692871E+04  0.10999513240E+04 0.  0.
        1    1    3    3  502    0 -0.30336071139E+03 -0.28526371476E+02  0.26452887127E+03  0.40350588452E+03  0.50400001928E-02 0. -1.
       -1    1    3    3    0  502  0.30336071139E+03  0.28526371476E+02 -0.72970218841E+03  0.79076340259E+03  0.50400001928E-02 0.  1.
</event>
<event>
 5   0  0.1464205E-04  0.1094425E+04  0.7818609E-02  0.9210643E-01
        2   -1    0    0  501    0  0.00000000000E+00  0.00000000000E+00  0.70697307068E+03  0.70697307069E+03  0.25500000920E-02 0. -1.
       -2   -1    0    0    0  501  0.00000000000E+00  0.00000000000E+00 -0.42355446192E+03  0.42355446193E+03  0.25500000920E-02 0.  1.
    10030    2    1    2    0    0  0.00000000000E+00  0.00000000000E+00  0.28341860876E+03  0.11305275326E+04  0.10944251433E+04 0.  0.
        3    1    3    3  502    0  0.27382919068E+03 -0.17184960520E+03  0.59777871334E+03  0.67959849382E+03  0.10100000352E+00 0. -1.
       -3    1    3    3    0  502 -0.27382919068E+03  0.17184960520E+03 -0.31436010458E+03  0.45092903880E+03  0.10100000352E+00 0.  1.
</event>
<event>
 5   0  0.8621738E-05  0.1099776E+04  0.7818609E-02  0.9205410E-01
        1   -1    0    0  501    0  0.00000000000E+00  0.00000000000E+00  0.16126238935E+04  0.16126238935E+04  0.50400001928E-02 0.  1.
       -1   -1    0    0    0  501  0.00000000000E+00  0.00000000000E+00 -0.18750602466E+03  0.18750602473E+03  0.50400001928E-02 0. -1.
    10030    2    1    2    0    0  0.00000000000E+00  0.00000000000E+00  0.14251178688E+04  0.18001299182E+04  0.10997757873E+04 0.  0.
        2    1    3    3  502    0 -0.42190545104E+03 -0.18818767756E+03  0.12007523503E+04  0.12865554859E+04  0.25500000920E-02 0.  1.
       -2    1    3    3    0  502  0.42190545104E+03  0.18818767756E+03  0.22436551853E+03  0.51357443230E+03  0.25500000920E-02 0. -1.
</event>
<event>
 5   0  0.1553937E-04  0.1099885E+04  0.7818609E-02  0.9205304E-01
        2   -1    0    0  501    0  0.00000000000E+00  0.00000000000E+00  0.74585382229E+03  0.74585382230E+03  0.25500000920E-02 0.  1.
       -2   -1    0    0    0  501  0.00000000000E+00  0.00000000000E+00 -0.40549080402E+03  0.40549080403E+03  0.25500000920E-02 0. -1.
    10030    2    1    2    0    0  0.00000000000E+00  0.00000000000E+00  0.34036301827E+03  0.11513446263E+04  0.10998852051E+04 0.  0.
        1    1    3    3  502    0 -0.29389544155E+03 -0.32667643556E+03 -0.17596274642E+03  0.47334439076E+03  0.50400001928E-02 0. -1.
       -1    1    3    3    0  502  0.29389544155E+03  0.32667643556E+03  0.51632576469E+03  0.67800023556E+03  0.50400001928E-02 0.  1.
</event>
<event>
 5   0  0.8621738E-05  0.1099930E+04  0.7818609E-02  0.9205260E-01
       -1   -1    0    0    0  501  0.00000000000E+00  0.00000000000E+00  0.24799228802E+03  0.24799228807E+03  0.50400001928E-02 0. -1.
        1   -1    0    0  501    0  0.00000000000E+00  0.00000000000E+00 -0.12196403138E+04  0.12196403138E+04  0.50400001928E-02 0.  1.
    10030    2    1    2    0    0  0.00000000000E+00  0.00000000000E+00 -0.97164802576E+03  0.14676326019E+04  0.10999298014E+04 0.  0.
        2    1    3    3  502    0  0.18333783948E+03  0.34701125881E+01 -0.11776495169E+04  0.11918402535E+04  0.25500000920E-02 0.  1.
       -2    1    3    3    0  502 -0.18333783948E+03 -0.34701125881E+01  0.20600149116E+03  0.27579234839E+03  0.25500000920E-02 0. -1.
</event>
<event>
 5   0  0.8921459E-05  0.1099102E+04  0.7818609E-02  0.9206067E-01
       -1   -1    0    0    0  501  0.00000000000E+00  0.00000000000E+00  0.66683622797E+03  0.66683622799E+03  0.50400001928E-02 0.  1.
        1   -1    0    0  501    0  0.00000000000E+00  0.00000000000E+00 -0.45289462051E+03  0.45289462054E+03  0.50400001928E-02 0. -1.
    10030    2    1    2    0    0  0.00000000000E+00  0.00000000000E+00  0.21394160745E+03  0.11197308485E+04  0.10991024346E+04 0.  0.
        3    1    3    3  502    0  0.17343508710E+03  0.40370443297E+03  0.44324082938E+03  0.62411492665E+03  0.10100000352E+00 0.  1.
       -3    1    3    3    0  502 -0.17343508710E+03 -0.40370443297E+03 -0.22929922192E+03  0.49561592187E+03  0.10100000352E+00 0. -1.
</event>
<event>
 5   0  0.1574101E-04  0.1100217E+04  0.7818609E-02  0.9204980E-01
       -2   -1    0    0    0  501  0.00000000000E+00  0.00000000000E+00  0.21776200191E+03  0.21776200193E+03  0.25500000920E-02 0. -1.
        2   -1    0    0  501    0  0.00000000000E+00  0.00000000000E+00 -0.13896795000E+04  0.13896795000E+04  0.25500000920E-02 0.  1.
    10030    2    1    2    0    0  0.00000000000E+00  0.00000000000E+00 -0.11719174981E+04  0.16074415019E+04  0.11002170512E+04 0.  0.
        4    1    3    3  502    0  0.26399852662E+02 -0.39457295784E+03 -0.11446598267E+04  0.12110460367E+04  0.12699999809E+01 0. -1.
       -4    1    3    3    0  502 -0.26399852662E+02  0.39457295784E+03 -0.27257671375E+02  0.39639546520E+03  0.12699999809E+01 0.  1.
</event>
<event>
 5   0  0.9016738E-05  0.1099724E+04  0.7818609E-02  0.9205461E-01
        1   -1    0    0  501    0  0.00000000000E+00  0.00000000000E+00  0.46447558885E+03  0.46447558888E+03  0.50400001928E-02 0. -1.
       -1   -1    0    0    0  501  0.00000000000E+00  0.00000000000E+00 -0.65094554186E+03  0.65094554188E+03  0.50400001928E-02 0.  1.
    10030    2    1    2    0    0  0.00000000000E+00  0.00000000000E+00 -0.18646995301E+03  0.11154211308E+04  0.10997241725E+04 0.  0.
        4    1    3    3  502    0 -0.37366072243E+03  0.25473254260E+03 -0.41048653822E+03  0.61074693180E+03  0.12699999809E+01 0.  1.
       -4    1    3    3    0  502  0.37366072243E+03 -0.25473254260E+03  0.22401658522E+03  0.50467419896E+03  0.12699999809E+01 0. -1.
</event>
<event>
 5   0  0.1540772E-04  0.1100111E+04  0.7818609E-02  0.9205084E-01
       -2   -1    0    0    0  501  0.00000000000E+00  0.00000000000E+00  0.13874391902E+03  0.13874391904E+03  0.25500000920E-02 0.  1.
        2   -1    0    0  501    0  0.00000000000E+00  0.00000000000E+00 -0.21807153366E+04  0.21807153366E+04  0.25500000920E-02 0. -1.
    10030    2    1    2    0    0  0.00000000000E+00  0.00000000000E+00 -0.20419714176E+04  0.23194592557E+04  0.11001108891E+04 0.  0.
        2    1    3    3  502    0 -0.54023123047E+03 -0.73414984264E+02 -0.86718254503E+03  0.10243266611E+04  0.25500000920E-02 0. -1.
       -2    1    3    3    0  502  0.54023123047E+03  0.73414984264E+02 -0.11747888726E+04  0.12951325945E+04  0.25500000920E-02 0.  1.
</event>
<event>
 5   0  0.8921459E-05  0.1100898E+04  0.7818609E-02  0.9204317E-01
       -1   -1    0    0    0  501  0.00000000000E+00  0.00000000000E+00  0.32423434724E+03  0.32423434728E+03  0.50400001928E-02 0. -1.
        1   -1    0    0  501    0  0.00000000000E+00  0.00000000000E+00 -0.93449090971E+03  0.93449090972E+03  0.50400001928E-02 0.  1.
    10030    2    1    2    0    0  0.00000000000E+00  0.00000000000E+00 -0.61025656247E+03  0.12587252570E+04  0.11008979065E+04 0.  0.
        3    1    3    3  502    0 -0.20368106596E+03  0.17215663373E+03  0.24543384006E+03  0.36243849577E+03  0.10100000352E+00 0. -1.
       -3    1    3    3    0  502  0.20368106596E+03 -0.17215663373E+03 -0.85569040253E+03  0.89628676123E+03  0.10100000352E+00 0.  1.
</event>
<event>
 5   0  0.1464205E-04  0.1099742E+04  0.7818609E-02  0.9205443E-01
        2   -1    0    0  501    0  0.00000000000E+00  0.00000000000E+00  0.18765882923E+04  0.18765882923E+04  0.25500000920E-02 0. -1.
       -2   -1    0    0    0  501  0.00000000000E+00  0.00000000000E+00 -0.16112120364E+03  0.16112120366E+03  0.25500000920E-02 0.  1.
    10030    2    1    2    0    0  0.00000000000E+00  0.00000000000E+00  0.17154670887E+04  0.20377094960E+04  0.10997420869E+04 0.  0.
        3    1    3    3  502    0 -0.16919413064E+03 -0.32881312681E+03  0.16117818995E+04  0.16536582561E+04  0.10100000352E+00 0. -1.
       -3    1    3    3    0  502  0.16919413064E+03  0.32881312681E+03  0.10368518918E+03  0.38405123989E+03  0.10100000352E+00 0.  1.
</event>
<event>
 5   0  0.8621738E-05  0.1097462E+04  0.7818609E-02  0.9207669E-01
       -1   -1    0    0    0  501  0.00000000000E+00  0.00000000000E+00  0.65835111167E+03  0.65835111169E+03  0.50400001928E-02 0.  1.
        1   -1    0    0  501    0  0.00000000000E+00  0.00000000000E+00 -0.45736380878E+03  0.45736380881E+03  0.50400001928E-02 0. -1.
    10030    2    1    2    0    0  0.00000000000E+00  0.00000000000E+00  0.20098730289E+03  0.11157149205E+04  0.10974624768E+04 0.  0.
        2    1    3    3  502    0  0.30278912581E+02 -0.19216166195E+03 -0.42113149440E+03  0.46389077642E+03  0.25500000920E-02 0. -1.
       -2    1    3    3    0  502 -0.30278912581E+02  0.19216166195E+03  0.62211879728E+03  0.65182414408E+03  0.25500000920E-02 0.  1.
</event>
<event>
 5   0  0.1540772E-04  0.1100054E+04  0.7818609E-02  0.9205139E-01
        2   -1    0    0  501    0  0.00000000000E+00  0.00000000000E+00  0.89109445415E+03  0.89109445416E+03  0.25500000920E-02 0.  1.
       -2   -1    0    0    0  501  0.00000000000E+00  0.00000000000E+00 -0.33950361966E+03  0.33950361967E+03  0.25500000920E-02 0. -1.
    10030    2    1    2    0    0  0.00000000000E+00  0.00000000000E+00  0.55159083449E+03  0.12305980738E+04  0.11000541671E+04 0.  0.
        2    1    3    3  502    0  0.83041091062E+02  0.45374751284E+03 -0.59333982300E+02  0.46508402432E+03  0.25500000920E-02 0.  1.
       -2    1    3    3    0  502 -0.83041091062E+02 -0.45374751284E+03  0.61092481679E+03  0.76551404951E+03  0.25500000920E-02 0. -1.
</event>
<event>
 5   0  0.1553937E-04  0.1099872E+04  0.7818609E-02  0.9205317E-01
        2   -1    0    0  501    0  0.00000000000E+00  0.00000000000E+00  0.69011407999E+03  0.69011408000E+03  0.25500000920E-02 0. -1.
       -2   -1    0    0    0  501  0.00000000000E+00  0.00000000000E+00 -0.43823115503E+03  0.43823115503E+03  0.25500000920E-02 0.  1.
    10030    2    1    2    0    0  0.00000000000E+00  0.00000000000E+00  0.25188292497E+03  0.11283452350E+04  0.10998717932E+04 0.  0.
        1    1    3    3  502    0  0.98934924484E+02  0.36687675679E+03 -0.28189618683E+03  0.47313014502E+03  0.50400001928E-02 0.  1.
       -1    1    3    3    0  502 -0.98934924484E+02 -0.36687675679E+03  0.53377911180E+03  0.65521509001E+03  0.50400001928E-02 0. -1.
</event>
<event>
 5   0  0.8657442E-05  0.1100067E+04  0.7818609E-02  0.9205126E-01
       -1   -1    0    0    0  501  0.00000000000E+00  0.00000000000E+00  0.20326047242E+03  0.20326047248E+03  0.50400001928E-02 0.  1.
        1   -1    0    0  501    0  0.00000000000E+00  0.00000000000E+00 -0.14884202164E+04  0.14884202164E+04  0.50400001928E-02 0. -1.
    10030    2    1    2    0    0  0.00000000000E+00  0.00000000000E+00 -0.12851597440E+04  0.16916806889E+04  0.11000672641E+04 0.  0.
        1    1    3    3  502    0 -0.34370723127E+02 -0.54855001098E+03 -0.67514834688E+03  0.87058242084E+03  0.50400001928E-02 0. -1.
       -1    1    3    3    0  502  0.34370723127E+02  0.54855001098E+03 -0.61001139710E+03  0.82109826804E+03  0.50400001928E-02 0.  1.
</event>
<event>
 5   0  0.8621738E-05  0.1100751E+04  0.7818609E-02  0.9204460E-01
       -1   -1    0    0    0  501  0.00000000000E+00  0.00000000000E+00  0.69547629151E+03  0.69547629153E+03  0.50400001928E-02 0.  1.
        1   -1    0    0  501    0  0.00000000000E+00  0.00000000000E+00 -0.43554772878E+03  0.43554772881E+03  0.50400001928E-02 0. -1.
    10030    2    1    2    0    0  0.00000000000E+00  0.00000000000E+00  0.25992856273E+03  0.11310240203E+04  0.11007508696E+04 0.  0.
        2    1    3    3  502    0 -0.49007443525E+03  0.13814819499E+03 -0.84720370866E+02  0.51617382451E+03  0.25500000920E-02 0.  1.
       -2    1    3    3    0  502  0.49007443525E+03 -0.13814819499E+03  0.34464893360E+03  0.61485019582E+03  0.25500000920E-02 0. -1.
</event>
<event>
 5   0  0.1540772E-04  0.1099934E+04  0.7818609E-02  0.9205256E-01
        2   -1    0    0  501    0  0.00000000000E+00  0.00000000000E+00  0.11066317028E+04  0.11066317028E+04  0.25500000920E-02 0.  1.
       -2   -1    0    0    0  501  0.00000000000E+00  0.00000000000E+00 -0.27331924073E+03  0.27331924074E+03  0.25500000920E-02 0. -1.
    10030    2    1    2    0    0  0.00000000000E+00  0.00000000000E+00  0.83331246202E+03  0.13799509435E+04  0.10999340649E+04 0.  0.
        2    1    3    3  502    0 -0.23302035816E+03  0.35015399835E+03  0.86120375827E+03  0.95842486567E+03  0.25500000920E-02 0.  1.
       -2    1    3    3    0  502  0.23302035816E+03 -0.35015399835E+03 -0.27891296251E+02  0.42152607783E+03  0.25500000920E-02 0. -1.
</event>
<event>
 5   0  0.1574101E-04  0.1100362E+04  0.7818609E-02  0.9204839E-01
       -2   -1    0    0    0  501  0.00000000000E+00  0.00000000000E+00  0.26721939204E+03  0.26721939205E+03  0.25500000920E-02 0.  1.
        2   -1    0    0  501    0  0.00000000000E+00  0.00000000000E+00 -0.11327732324E+04  0.11327732324E+04  0.25500000920E-02 0. -1.
    10030    2    1    2    0    0  0.00000000000E+00  0.00000000000E+00 -0.86555384033E+03  0.13999926244E+04  0.11003617123E+04 0.  0.
        4    1    3    3  502    0 -0.26622475957E+02 -0.24203123602E+03 -0.10604868906E+04  0.10880817679E+04  0.12699999809E+01 0. -1.
       -4    1    3    3    0  502  0.26622475957E+02  0.24203123602E+03  0.19493305031E+03  0.31191085656E+03  0.12699999809E+01 0.  1.
</event>
<event>
 5   0  0.1464205E-04  0.1100211E+04  0.7818609E-02  0.9204987E-01
       -2   -1    0    0    0  501  0.00000000000E+00  0.00000000000E+00  0.76410883483E+03  0.76410883484E+03  0.25500000920E-02 0. -1.
        2   -1    0    0  501    0  0.00000000000E+00  0.00000000000E+00 -0.39603754607E+03  0.39603754608E+03  0.25500000920E-02 0.  1.
    10030    2    1    2    0    0  0.00000000000E+00  0.00000000000E+00  0.36807128876E+03  0.11601463809E+04  0.11002105033E+04 0.  0.
        3    1    3    3  502    0  0.21328645461E+03 -0.12886850058E+03 -0.33310707116E+03  0.41600304473E+03  0.10100000352E+00 0.  1.
       -3    1    3    3    0  502 -0.21328645461E+03  0.12886850058E+03  0.70117835993E+03  0.74414333619E+03  0.10100000352E+00 0. -1.
</event>
<event>
 5   0  0.1503277E-04  0.1095585E+04  0.7818609E-02  0.9209505E-01
        2   -1    0    0  501    0  0.00000000000E+00  0.00000000000E+00  0.13300731147E+04  0.13300731147E+04  0.25500000920E-02 0.  1.
       -2   -1    0    0    0  501  0.00000000000E+00  0.00000000000E+00 -0.22560923710E+03  0.22560923711E+03  0.25500000920E-02 0. -1.
    10030    2    1    2    0    0  0.00000000000E+00  0.00000000000E+00  0.11044638776E+04  0.15556823519E+04  0.10955852878E+04 0.  0.
        5    1    3    3  502    0 -0.25620369518E+03  0.38673030166E+02 -0.13306211327E+03  0.29131349552E+03  0.46999998093E+01 0. -1.
       -5    1    3    3    0  502  0.25620369518E+03 -0.38673030166E+02  0.12375259909E+04  0.12643688563E+04  0.46999998093E+01 0.  1.
</event>
<event>
 5   0  0.9016738E-05  0.1097347E+04  0.7818609E-02  0.9207782E-01
       -1   -1    0    0    0  501  0.00000000000E+00  0.00000000000E+00  0.31106993898E+03  0.31106993903E+03  0.50400001928E-02 0.  1.
        1   -1    0    0  501    0  0.00000000000E+00  0.00000000000E+00 -0.96776466437E+03  0.96776466438E+03  0.50400001928E-02 0. -1.
    10030    2    1    2    0    0  0.00000000000E+00  0.00000000000E+00 -0.65669472539E+03  0.12788346034E+04  0.10973467914E+04 0.  0.
        4    1    3    3  502    0  0.24478197645E+03 -0.23181352132E+03  0.17612580913E+03  0.38036513800E+03  0.12699999809E+01 0.  1.
       -4    1    3    3    0  502 -0.24478197645E+03  0.23181352132E+03 -0.83282053452E+03  0.89846946541E+03  0.12699999809E+01 0. -1.
</event>
<event>
 5   0  0.8921459E-05  0.1098777E+04  0.7818609E-02  0.9206384E-01
       -1   -1    0    0    0  501  0.00000000000E+00  0.00000000000E+00  0.53321377011E+03  0.53321377014E+03  0.50400001928E-02 0. -1.
        1   -1    0    0  501    0  0.00000000000E+00  0.00000000000E+00 -0.56605415985E+03  0.56605415988E+03  0.50400001928E-02 0.  1.
    10030    2    1    2    0    0  0.00000000000E+00  0.00000000000E+00 -0.32840389742E+02  0.10992679300E+04  0.10987772708E+04 0.  0.
        3    1    3    3  502    0  0.50028431210E+03  0.15220207334E+03 -0.18495312486E+03  0.55466884955E+03  0.10100000352E+00 0.  1.
       -3    1    3    3    0  502 -0.50028431210E+03 -0.15220207334E+03  0.15211273512E+03  0.54459908047E+03  0.10100000352E+00 0. -1.
</event>
<event>
 5   0  0.9016738E-05  0.1099993E+04  0.7818609E-02  0.9205199E-01
        1   -1    0    0  501    0  0.00000000000E+00  0.00000000000E+00  0.82794318851E+03  0.82794318852E+03  0.50400001928E-02 0. -1.
       -1   -1    0    0    0  501  0.00000000000E+00  0.00000000000E+00 -0.36535850901E+03  0.36535850905E+03  0.50400001928E-02 0.  1.
    10030    2    1    2    0    0  0.00000000000E+00  0.00000000000E+00  0.46258467949E+03  0.11933016976E+04  0.10999928889E+04 0.  0.
        4    1    3    3  502    0  0.35103984755E+03 -0.11538807146E+03 -0.21063456380E+03  0.42533741191E+03  0.12699999809E+01 0.  1.
       -4    1    3    3    0  502 -0.35103984755E+03  0.11538807146E+03  0.67321924329E+03  0.76796428566E+03  0.12699999809E+01 0. -1.
</event>
<event>
 5   0  0.1574101E-04  0.1100221E+04  0.7818609E-02  0.9204977E-01
        2   -1    0    0  501    0  0.00000000000E+00  0.00000000000E+00  0.11547002591E+04  0.11547002591E+04  0.25500000920E-02 0.  1.
       -2   -1    0    0    0  501  0.00000000000E+00  0.00000000000E+00 -0.26207790965E+03  0.26207790966E+03  0.25500000920E-02 0. -1.
    10030    2    1    2    0    0  0.00000000000E+00  0.00000000000E+00  0.89262234946E+03  0.14167781688E+04  0.11002207600E+04 0.  0.
        4    1    3    3  502    0 -0.52076574253E+03 -0.14415034221E+03  0.31346011629E+03  0.62468803186E+03  0.12699999809E+01 0.  1.
       -4    1    3    3    0  502  0.52076574253E+03  0.14415034221E+03  0.57916223317E+03  0.79209013690E+03  0.12699999809E+01 0. -1.
</event>
<event>
 5   0  0.1574101E-04  0.1100238E+04  0.7818609E-02  0.9204960E-01
        2   -1    0    0  501    0  0.00000000000E+00  0.00000000000E+00  0.19716025228E+04  0.19716025228E+04  0.25500000920E-02 0. -1.
       -2   -1    0    0    0  501  0.00000000000E+00  0.00000000000E+00 -0.15349493715E+03  0.15349493717E+03  0.25500000920E-02 0.  1.
    10030    2    1    2    0    0  0.00000000000E+00  0.00000000000E+00  0.18181075857E+04  0.21250974600E+04  0.11002381658E+04 0.  0.
        4    1    3    3  502    0 -0.38175995637E+03  0.10272157908E+03  0.16479258250E+04  0.16946839011E+04  0.12699999809E+01 0. -1.
       -4    1    3    3    0  502  0.38175995637E+03 -0.10272157908E+03  0.17018176068E+03  0.43041355888E+03  0.12699999809E+01 0.  1.
</event>
<event>
 5   0  0.9346836E-05  0.1099958E+04  0.7818609E-02  0.9205232E-01
       -1   -1    0    0    0  501  0.00000000000E+00  0.00000000000E+00  0.39539828726E+03  0.39539828730E+03  0.50400001928E-02 0. -1.
        1   -1    0    0  501    0  0.00000000000E+00  0.00000000000E+00 -0.76499348736E+03  0.76499348737E+03  0.50400001928E-02 0.  1.
    10030    2    1    2    0    0  0.00000000000E+00  0.00000000000E+00 -0.36959520009E+03  0.11603917747E+04  0.10999583896E+04 0.  0.
        5    1    3    3  502    0 -0.63660005320E+01  0.18141246296E+03  0.36286238043E+03  0.40576126578E+03  0.46999998093E+01 0. -1.
       -5    1    3    3    0  502  0.63660005320E+01 -0.18141246296E+03 -0.73245758052E+03  0.75463050889E+03  0.46999998093E+01 0.  1.
</event>
<event>
 5   0  0.1540772E-04  0.1099503E+04  0.7818609E-02  0.9205677E-01
       -2   -1    0    0    0  501  0.00000000000E+00  0.00000000000E+00  0.14118278495E+03  0.14118278498E+03  0.25500000920E-02 0.  1.
        2   -1    0    0  501    0  0.00000000000E+00  0.00000000000E+00 -0.21406762108E+04  0.21406762108E+04  0.25500000920E-02 0. -1.
    10030    2    1    2    0    0  0.00000000000E+00  0.00000000000E+00 -0.19994934259E+04  0.22818589958E+04  0.10995028498E+04 0.  0.
        2    1    3    3  502    0  0.19457203377E+03 -0.13574214652E+03  0.29475541478E+02  0.23906696597E+03  0.25500000920E-02 0.  1.
       -2    1    3    3    0  502 -0.19457203377E+03  0.13574214652E+03 -0.20289689673E+04  0.20427920298E+04  0.25500000920E-02 0. -1.
</event>
<event>
 5   0  0.8621738E-05  0.1107271E+04  0.7818609E-02  0.9198134E-01
        1   -1    0    0  501    0  0.00000000000E+00  0.00000000000E+00  0.62432807813E+03  0.62432807815E+03  0.50400001928E-02 0. -1.
       -1   -1    0    0    0  501  0.00000000000E+00  0.00000000000E+00 -0.49094756679E+03  0.49094756681E+03  0.50400001928E-02 0.  1.
    10030    2    1    2    0    0  0.00000000000E+00  0.00000000000E+00  0.13338051134E+03  0.11152756450E+04  0.11072711517E+04 0.  0.
        2    1    3    3  502    0  0.25798884830E+03  0.37816974508E+03  0.38029574678E+03  0.59514322391E+03  0.25500000920E-02 0.  1.
       -2    1    3    3    0  502 -0.25798884830E+03 -0.37816974508E+03 -0.24691523543E+03  0.52013242106E+03  0.25500000920E-02 0. -1.
</event>
<event>
 5   0  0.8921459E-05  0.1099588E+04  0.7818609E-02  0.9205594E-01
       -1   -1    0    0    0  501  0.00000000000E+00  0.00000000000E+00  0.14667447884E+03  0.14667447893E+03  0.50400001928E-02 0.  1.
        1   -1    0    0  501    0  0.00000000000E+00  0.00000000000E+00 -0.20608439314E+04  0.20608439314E+04  0.50400001928E-02 0. -1.
    10030    2    1    2    0    0  0.00000000000E+00  0.00000000000E+00 -0.19141694526E+04  0.22075184103E+04  0.10995875767E+04 0.  0.
        3    1    3    3  502    0  0.20105520832E+03  0.32759478172E+03 -0.16789168525E+03  0.41943910879E+03  0.10100000352E+00 0.  1.
       -3    1    3    3    0  502 -0.20105520832E+03 -0.32759478172E+03 -0.17462777673E+04  0.17880793015E+04  0.10100000352E+00 0. -1.
</event>
<event>
 5   0  0.1503277E-04  0.1099883E+04  0.7818609E-02  0.9205306E-01
        2   -1    0    0  501    0  0.00000000000E+00  0.00000000000E+00  0.89740978951E+03  0.89740978951E+03  0.25500000920E-02 0. -1.
       -2   -1    0    0    0  501  0.00000000000E+00  0.00000000000E+00 -0.33700977850E+03  0.33700977851E+03  0.25500000920E-02 0.  1.
    10030    2    1    2    0    0  0.00000000000E+00  0.00000000000E+00  0.56040001100E+03  0.12344195680E+04  0.10998834018E+04 0.  0.
        5    1    3    3  502    0 -0.59439257789E+02  0.25412582521E+03  0.82345416132E+03  0.86383552034E+03  0.46999998093E+01 0. -1.
       -5    1    3    3    0  502  0.59439257789E+02 -0.25412582521E+03 -0.26305415032E+03  0.37058404769E+03  0.46999998093E+01 0.  1.
</event>
<event>
 5   0  0.1553937E-04  0.1100022E+04  0.7818609E-02  0.9205170E-01
        2   -1    0    0  501    0  0.00000000000E+00  0.00000000000E+00  0.91046118794E+03  0.91046118795E+03  0.25500000920E-02 0.  1.
       -2   -1    0    0    0  501  0.00000000000E+00  0.00000000000E+00 -0.33226256709E+03  0.33226256710E+03  0.25500000920E-02 0. -1.
    10030    2    1    2    0    0  0.00000000000E+00  0.00000000000E+00  0.57819862085E+03  0.12427237551E+04  0.11000221299E+04 0.  0.
        1    1    3    3  502    0  0.27614008890E+03 -0.35133304866E+03  0.65135919028E+03  0.78990952303E+03  0.50400001928E-02 0.  1.
       -1    1    3    3    0  502 -0.27614008890E+03  0.35133304866E+03 -0.73160569435E+02  0.45281423202E+03  0.50400001928E-02 0. -1.
</event>
<event>
 5   0  0.9016738E-05  0.1099977E+04  0.7818609E-02  0.9205215E-01
       -1   -1    0    0    0  501  0.00000000000E+00  0.00000000000E+00  0.45444451610E+03  0.45444451613E+03  0.50400001928E-02 0.  1.
        1   -1    0    0  501    0  0.00000000000E+00  0.00000000000E+00 -0.66561943770E+03  0.66561943772E+03  0.50400001928E-02 0. -1.
    10030    2    1    2    0    0  0.00000000000E+00  0.00000000000E+00 -0.21117492160E+03  0.11200639539E+04  0.10999765512E+04 0.  0.
        4    1    3    3  502    0  0.14513786098E+03  0.47605252615E+03  0.13276948652E+03  0.51509257013E+03  0.12699999809E+01 0.  1.
       -4    1    3    3    0  502 -0.14513786098E+03 -0.47605252615E+03 -0.34394440812E+03  0.60497138373E+03  0.12699999809E+01 0. -1.
</event>
<event>
 5   0  0.9016738E-05  0.1099775E+04  0.7818609E-02  0.9205411E-01
       -1   -1    0    0    0  501  0.00000000000E+00  0.00000000000E+00  0.18025902742E+03  0.18025902749E+03  0.50400001928E-02 0.  1.
        1   -1    0    0  501    0  0.00000000000E+00  0.00000000000E+00 -0.16774548383E+04  0.16774548383E+04  0.50400001928E-02 0. -1.
    10030    2    1    2    0    0  0.00000000000E+00  0.00000000000E+00 -0.14971958108E+04  0.18577138658E+04  0.10997752093E+04 0.  0.
        4    1    3    3  502    0  0.34153993834E+03 -0.36639569478E+03 -0.11318563764E+04  0.12377381808E+04  0.12699999809E+01 0. -1.
       -4    1    3    3    0  502 -0.34153993834E+03  0.36639569478E+03 -0.36533943446E+03  0.61997568493E+03  0.12699999809E+01 0.  1.
</event>
<event>
 5   0  0.8921459E-05  0.1100237E+04  0.7818609E-02  0.9204961E-01
        1   -1    0    0  501    0  0.00000000000E+00  0.00000000000E+00  0.44197237446E+03  0.44197237448E+03  0.50400001928E-02 0.  1.
       -1   -1    0    0    0  501  0.00000000000E+00  0.00000000000E+00 -0.68472725952E+03  0.68472725954E+03  0.50400001928E-02 0. -1.
    10030    2    1    2    0    0  0.00000000000E+00  0.00000000000E+00 -0.24275488507E+03  0.11266996340E+04  0.11002373067E+04 0.  0.
        3    1    3    3  502    0  0.36776203999E+03 -0.38504540439E+03 -0.26298432683E+03  0.59385995643E+03  0.10100000352E+00 0. -1.
       -3    1    3    3    0  502 -0.36776203999E+03  0.38504540439E+03  0.20229441762E+02  0.53283967759E+03  0.10100000352E+00 0.  1.
</event>
<event>
 5   0  0.1574101E-04  0.1100150E+04  0.7818609E-02  0.9205045E-01
       -2   -1    0    0    0  501  0.00000000000E+00  0.00000000000E+00  0.65905704919E+03  0.65905704920E+03  0.25500000920E-02 0.  1.
        2   -1    0    0  501    0  0.00000000000E+00  0.00000000000E+00 -0.45911447828E+03  0.45911447828E+03  0.25500000920E-02 0. -1.
    10030    2    1    2    0    0  0.00000000000E+00  0.00000000000E+00  0.19994257091E+03  0.11181715275E+04  0.11001502321E+04 0.  0.
        4    1    3    3  502    0 -0.32242148531E+03 -0.10827231879E+03  0.53937528230E+03  0.63765650413E+03  0.12699999809E+01 0.  1.
       -4    1    3    3    0  502  0.32242148531E+03  0.10827231879E+03 -0.33943271139E+03  0.48051502335E+03  0.12699999809E+01 0. -1.
</event>
<event>
 5   0  0.9346836E-05  0.1099897E+04  0.7818609E-02  0.9205292E-01
       -1   -1    0    0    0  501  0.00000000000E+00  0.00000000000E+00  0.57759245718E+03  0.57759245720E+03  0.50400001928E-02 0.  1.
        1   -1    0    0  501    0  0.00000000000E+00  0.00000000000E+00 -0.52362767970E+03  0.52362767973E+03  0.50400001928E-02 0. -1.
    10030    2    1    2    0    0  0.00000000000E+00  0.00000000000E+00  0.53964777480E+02  0.11012201369E+04  0.10998970828E+04 0.  0.
        5    1    3    3  502    0 -0.47060402269E+03  0.69867737891E+02 -0.24916029689E+03  0.53707782538E+03  0.46999998093E+01 0. -1.
       -5    1    3    3    0  502  0.47060402269E+03 -0.69867737891E+02  0.30312507437E+03  0.56414231155E+03  0.46999998093E+01 0.  1.
</event>
<event>
 5   0  0.1464205E-04  0.1099146E+04  0.7818609E-02  0.9206025E-01
        2   -1    0    0  501    0  0.00000000000E+00  0.00000000000E+00  0.76239416351E+03  0.76239416352E+03  0.25500000920E-02 0. -1.
       -2   -1    0    0    0  501  0.00000000000E+00  0.00000000000E+00 -0.39616053686E+03  0.39616053687E+03  0.25500000920E-02 0.  1.
    10030    2    1    2    0    0  0.00000000000E+00  0.00000000000E+00  0.36623362666E+03  0.11585547004E+04  0.10991459978E+04 0.  0.
        3    1    3    3  502    0 -0.34373184405E+03  0.23984891284E+03  0.55778875540E+03  0.69771583575E+03  0.10100000352E+00 0. -1.
       -3    1    3    3    0  502  0.34373184405E+03 -0.23984891284E+03 -0.19155512874E+03  0.46083886463E+03  0.10100000352E+00 0.  1.
</event>
<event>
 5   0  0.1464205E-04  0.1100238E+04  0.7818609E-02  0.9204960E-01
       -2   -1    0    0    0  501  0.00000000000E+00  0.00000000000E+00  0.20676057850E+03  0.20676057852E+03  0.25500000920E-02 0. -1.
        2   -1    0    0  501    0  0.00000000000E+00  0.00000000000E+00 -0.14636789642E+04  0.14636789642E+04  0.25500000920E-02 0.  1.
    10030    2    1    2    0    0  0.00000000000E+00  0.00000000000E+00 -0.12569183857E+04  0.16704395428E+04  0.11002383549E+04 0.  0.
        3    1    3    3  502    0 -0.26431554429E+03 -0.18807251465E+03  0.46091183813E+02  0.32765589442E+03  0.10100000352E+00 0. -1.
       -3    1    3    3    0  502  0.26431554429E+03  0.18807251465E+03 -0.13030095695E+04  0.13427836483E+04  0.10100000352E+00 0.  1.
</event>
<event>
 5   0  0.9346836E-05  0.1100181E+04  0.7818609E-02  0.9205015E-01
       -1   -1    0    0    0  501  0.00000000000E+00  0.00000000000E+00  0.28022536006E+03  0.28022536011E+03  0.50400001928E-02 0.  1.
        1   -1    0    0  501    0  0.00000000000E+00  0.00000000000E+00 -0.10798443313E+04  0.10798443314E+04  0.50400001928E-02 0. -1.
    10030    2    1    2    0    0  0.00000000000E+00  0.00000000000E+00 -0.79961897129E+03  0.13600696915E+04  0.11001813789E+04 0.  0.
        5    1    3    3  502    0  0.38101961522E+03  0.13391454972E+03  0.61864207863E+02  0.40860534018E+03  0.46999998093E+01 0.  1.
       -5    1    3    3    0  502 -0.38101961522E+03 -0.13391454972E+03 -0.86148317915E+03  0.95146435129E+03  0.46999998093E+01 0. -1.
</event>
<event>
 5   0  0.6010125E-05  0.1100098E+04  0.7818609E-02  0.9205096E-01
        3   -1    0    0  501    0  0.00000000000E+00  0.00000000000E+00  0.42930517072E+03  0.42930518260E+03  0.10100000352E+00 0. -1.
       -3   -1    0    0    0  501  0.00000000000E+00  0.00000000000E+00 -0.70475312841E+03  0.70475313565E+03  0.10100000352E+00 0.  1.
    10030    2    1    2    0    0  0.00000000000E+00  0.00000000000E+00 -0.27544795770E+03  0.11340583182E+04  0.11000984919E+04 0.  0.
        3    1    3    3  502    0  0.25689876954E+03  0.57071459001E+02 -0.63564586918E+03  0.68796788474E+03  0.10100000352E+00 0.  1.
       -3    1    3    3    0  502 -0.25689876954E+03 -0.57071459001E+02  0.36019791149E+03  0.44609043350E+03  0.10100000352E+00 0. -1.
</event>
<event>
 5   0  0.9346836E-05  0.1099484E+04  0.7818609E-02  0.9205695E-01
        1   -1    0    0  501    0  0.00000000000E+00  0.00000000000E+00  0.48154629881E+03  0.48154629884E+03  0.50400001928E-02 0. -1.
       -1   -1    0    0    0  501  0.00000000000E+00  0.00000000000E+00 -0.62759581151E+03  0.62759581153E+03  0.50400001928E-02 0.  1.
    10030    2    1    2    0    0  0.00000000000E+00  0.00000000000E+00 -0.14604951270E+03  0.11091421104E+04  0.10994843159E+04 0.  0.
        5    1    3    3  502    0  0.18202552200E+02  0.11756273015E+03 -0.61443451700E+03  0.62586275980E+03  0.46999998093E+01 0.  1.
       -5    1    3    3    0  502 -0.18202552200E+02 -0.11756273015E+03  0.46838500430E+03  0.48327935056E+03  0.46999998093E+01 0. -1.
</event>
<event>
 5   0  0.1464205E-04  0.1099486E+04  0.7818609E-02  0.9205693E-01
       -2   -1    0    0    0  501  0.00000000000E+00  0.00000000000E+00  0.74347252402E+03  0.74347252402E+03  0.25500000920E-02 0. -1.
        2   -1    0    0  501    0  0.00000000000E+00  0.00000000000E+00 -0.40649401236E+03  0.40649401237E+03  0.25500000920E-02 0.  1.
    10030    2    1    2    0    0  0.00000000000E+00  0.00000000000E+00  0.33697851166E+03  0.11499665364E+04  0.10994855695E+04 0.  0.
        3    1    3    3  502    0 -0.74218726031E+01  0.14579564147E+03 -0.38585036260E+03  0.41254328959E+03  0.10100000352E+00 0.  1.
       -3    1    3    3    0  502  0.74218726031E+01 -0.14579564147E+03  0.72282887426E+03  0.73742324681E+03  0.10100000352E+00 0. -1.
</event>
<event>
 5   0  0.9346836E-05  0.1100412E+04  0.7818609E-02  0.9204790E-01
        1   -1    0    0  501    0  0.00000000000E+00  0.00000000000E+00  0.74693569858E+03  0.74693569860E+03  0.50400001928E-02 0.  1.
       -1   -1    0    0    0  501  0.00000000000E+00  0.00000000000E+00 -0.40529165947E+03  0.40529165950E+03  0.50400001928E-02 0. -1.
    10030    2    1    2    0    0  0.00000000000E+00  0.00000000000E+00  0.34164403911E+03  0.11522273581E+04  0.11004123024E+04 0.  0.
        5    1    3    3  502    0  0.39079429148E+03 -0.74757644261E+02 -0.22706528220E+03  0.45813711485E+03  0.46999998093E+01 0. -1.
       -5    1    3    3    0  502 -0.39079429148E+03  0.74757644261E+02  0.56870932131E+03  0.69409024325E+03  0.46999998093E+01 0.  1.
</event>
<event>
 5   0  0.1540772E-04  0.1098271E+04  0.7818609E-02  0.9206878E-01
       -2   -1    0    0    0  501  0.00000000000E+00  0.00000000000E+00  0.49425118254E+03  0.49425118255E+03  0.25500000920E-02 0. -1.
        2   -1    0    0  501    0  0.00000000000E+00  0.00000000000E+00 -0.61011501501E+03  0.61011501502E+03  0.25500000920E-02 0.  1.
    10030    2    1    2    0    0  0.00000000000E+00  0.00000000000E+00 -0.11586383247E+03  0.11043661976E+04  0.10982714922E+04 0.  0.
        2    1    3    3  502    0  0.38858829322E+03 -0.35324198112E+03 -0.21935096340E+03  0.56911826891E+03  0.25500000920E-02 0.  1.
       -2    1    3    3    0  502 -0.38858829322E+03  0.35324198112E+03  0.10348713093E+03  0.53524792866E+03  0.25500000920E-02 0. -1.
</event>
<event>
 5   0  0.1553937E-04  0.1100365E+04  0.7818609E-02  0.9204837E-01
        2   -1    0    0  501    0  0.00000000000E+00  0.00000000000E+00  0.13490197477E+04  0.13490197477E+04  0.25500000920E-02 0. -1.
       -2   -1    0    0    0  501  0.00000000000E+00  0.00000000000E+00 -0.22438553627E+03  0.22438553629E+03  0.25500000920E-02 0.  1.
    10030    2    1    2    0    0  0.00000000000E+00  0.00000000000E+00  0.11246342115E+04  0.15734052840E+04  0.11003645206E+04 0.  0.
        1    1    3    3  502    0  0.14280129599E+03  0.17985182174E+03  0.12772095400E+04  0.12976914490E+04  0.50400001928E-02 0. -1.
       -1    1    3    3    0  502 -0.14280129599E+03 -0.17985182174E+03 -0.15257532849E+03  0.27571383499E+03  0.50400001928E-02 0.  1.
</event>
<event>
 5   0  0.8657442E-05  0.1100129E+04  0.7818609E-02  0.9205066E-01
        1   -1    0    0  501    0  0.00000000000E+00  0.00000000000E+00  0.10366370946E+04  0.10366370946E+04  0.50400001928E-02 0.  1.
       -1   -1    0    0    0  501  0.00000000000E+00  0.00000000000E+00 -0.29187731615E+03  0.29187731620E+03  0.50400001928E-02 0. -1.
    10030    2    1    2    0    0  0.00000000000E+00  0.00000000000E+00  0.74475977847E+03  0.13285144108E+04  0.11001288162E+04 0.  0.
        1    1    3    3  502    0 -0.36849148153E+02  0.20631295616E+03 -0.24177406973E+03  0.31996499248E+03  0.50400001928E-02 0. -1.
       -1    1    3    3    0  502  0.36849148153E+02 -0.20631295616E+03  0.98653384819E+03  0.10085494183E+04  0.50400001928E-02 0.  1.
</event>
<event>
 5   0  0.1574101E-04  0.1099410E+04  0.7818609E-02  0.9205767E-01
        2   -1    0    0  501    0  0.00000000000E+00  0.00000000000E+00  0.16246048192E+04  0.16246048192E+04  0.25500000920E-02 0.  1.
       -2   -1    0    0    0  501  0.00000000000E+00  0.00000000000E+00 -0.18599944933E+03  0.18599944935E+03  0.25500000920E-02 0. -1.
    10030    2    1    2    0    0  0.00000000000E+00  0.00000000000E+00  0.14386053698E+04  0.18106042685E+04  0.10994100268E+04 0.  0.
        4    1    3    3  502    0  0.33013039122E+03 -0.43449844520E+03  0.61007277985E+03  0.81851413165E+03  0.12699999809E+01 0. -1.
       -4    1    3    3    0  502 -0.33013039122E+03  0.43449844520E+03  0.82853258998E+03  0.99209013686E+03  0.12699999809E+01 0.  1.
</event>
<event>
 5   0  0.1574101E-04  0.1102374E+04  0.7818609E-02  0.9202881E-01
        2   -1    0    0  501    0  0.00000000000E+00  0.00000000000E+00  0.92029268424E+03  0.92029268424E+03  0.25500000920E-02 0. -1.
       -2   -1    0    0    0  501  0.00000000000E+00  0.00000000000E+00 -0.33012008045E+03  0.33012008046E+03  0.25500000920E-02 0.  1.
    10030    2    1    2    0    0  0.00000000000E+00  0.00000000000E+00  0.59017260378E+03  0.12504127647E+04  0.11023739746E+04 0.  0.
        4    1    3    3  502    0 -0.91228392930E+02 -0.17604687219E+03 -0.28826392575E+03  0.34987544165E+03  0.12699999809E+01 0.  1.
       -4    1    3    3    0  502  0.91228392930E+02  0.17604687219E+03  0.87843652953E+03  0.90053732305E+03  0.12699999809E+01 0. -1.
</event>
<event>
 5   0  0.1464205E-04  0.1100192E+04  0.7818609E-02  0.9205004E-01
       -2   -1    0    0    0  501  0.00000000000E+00  0.00000000000E+00  0.47979437799E+03  0.47979437800E+03  0.25500000920E-02 0.  1.
        2   -1    0    0  501    0  0.00000000000E+00  0.00000000000E+00 -0.63069908577E+03  0.63069908578E+03  0.25500000920E-02 0. -1.
    10030    2    1    2    0    0  0.00000000000E+00  0.00000000000E+00 -0.15090470778E+03  0.11104934638E+04  0.11001924842E+04 0.  0.
        3    1    3    3  502    0  0.49707551629E+03  0.14920348049E+03 -0.25953346409E+03  0.58026147267E+03  0.10100000352E+00 0. -1.
       -3    1    3    3    0  502 -0.49707551629E+03 -0.14920348049E+03  0.10862875631E+03  0.53023199110E+03  0.10100000352E+00 0.  1.
</event>
<event>
 5   0  0.9016738E-05  0.1100181E+04  0.7818609E-02  0.9205015E-01
        1   -1    0    0  501    0  0.00000000000E+00  0.00000000000E+00  0.94240827794E+03  0.94240827795E+03  0.50400001928E-02 0.  1.
       -1   -1    0    0    0  501  0.00000000000E+00  0.00000000000E+00 -0.32109207857E+03  0.32109207861E+03  0.50400001928E-02 0. -1.
    10030    2    1    2    0    0  0.00000000000E+00  0.00000000000E+00  0.62131619937E+03  0.12635003566E+04  0.11001814993E+04 0.  0.
        4    1    3    3  502    0 -0.15058590076E+03 -0.22126186196E+03 -0.24127240128E+03  0.36034276680E+03  0.12699999809E+01 0. -1.
       -4    1    3    3    0  502  0.15058590076E+03  0.22126186196E+03  0.86258860065E+03  0.90315758976E+03  0.12699999809E+01 0.  1.
</event>
<event>
 5   0  0.8621738E-05  0.1099672E+04  0.7818609E-02  0.9205511E-01
       -1   -1    0    0    0  501  0.00000000000E+00  0.00000000000E+00  0.53598884308E+03  0.53598884310E+03  0.50400001928E-02 0.  1.
        1   -1    0    0  501    0  0.00000000000E+00  0.00000000000E+00 -0.56404127214E+03  0.56404127216E+03  0.50400001928E-02 0. -1.
    10030    2    1    2    0    0  0.00000000000E+00  0.00000000000E+00 -0.28052429057E+02  0.11000301153E+04  0.10996723674E+04 0.  0.
        2    1    3    3  502    0  0.31284760472E+03 -0.72074516881E+01  0.43822069523E+03  0.53848207851E+03  0.25500000920E-02 0.  1.
       -2    1    3    3    0  502 -0.31284760472E+03  0.72074516881E+01 -0.46627312429E+03  0.56154803675E+03  0.25500000920E-02 0. -1.
</event>
<event>
 5   0  0.1464205E-04  0.1100586E+04  0.7818609E-02  0.9204621E-01
        2   -1    0    0  501    0  0.00000000000E+00  0.00000000000E+00  0.96927770801E+03  0.96927770802E+03  0.25500000920E-02 0. -1.
       -2   -1    0    0    0  501  0.00000000000E+00  0.00000000000E+00 -0.31242044738E+03  0.31242044739E+03  0.25500000920E-02 0.  1.
    10030    2    1    2    0    0  0.00000000000E+00  0.00000000000E+00  0.65685726063E+03  0.12816981554E+04  0.11005856172E+04 0.  0.
        3    1    3    3  502    0 -0.48637216094E+03 -0.19406049821E+03  0.52539018019E+03  0.74178986751E+03  0.10100000352E+00 0. -1.
       -3    1    3    3    0  502  0.48637216094E+03  0.19406049821E+03  0.13146708044E+03  0.53990828790E+03  0.10100000352E+00 0.  1.
</event>
<event>
 5   0  0.1574101E-04  0.1099972E+04  0.7818609E-02  0.9205219E-01
       -2   -1    0    0    0  501  0.00000000000E+00  0.00000000000E+00  0.29229672831E+03  0.29229672832E+03  0.25500000920E-02 0.  1.
        2   -1    0    0  501    0  0.00000000000E+00  0.00000000000E+00 -0.10348550254E+04  0.10348550254E+04  0.25500000920E-02 0. -1.
    10030    2    1    2    0    0  0.00000000000E+00  0.00000000000E+00 -0.74255829710E+03  0.13271517537E+04  0.10999722509E+04 0.  0.
        4    1    3    3  502    0  0.44314005276E+03 -0.31339370982E+03 -0.47848005653E+03  0.72355614924E+03  0.12699999809E+01 0.  1.
       -4    1    3    3    0  502 -0.44314005276E+03  0.31339370982E+03 -0.26407824057E+03  0.60359560449E+03  0.12699999809E+01 0. -1.
</event>
<event>
 5   0  0.1574101E-04  0.1100218E+04  0.7818609E-02  0.9204979E-01
       -2   -1    0    0    0  501  0.00000000000E+00  0.00000000000E+00  0.26908841747E+03  0.26908841749E+03  0.25500000920E-02 0.  1.
        2   -1    0    0  501    0  0.00000000000E+00  0.00000000000E+00 -0.11246123185E+04  0.11246123185E+04  0.25500000920E-02 0. -1.
    10030    2    1    2    0    0  0.00000000000E+00  0.00000000000E+00 -0.85552390107E+03  0.13937007360E+04  0.11002184312E+04 0.  0.
        4    1    3    3  502    0 -0.22445996540E+03  0.19650071177E+03 -0.10132463946E+04  0.10562502898E+04  0.12699999809E+01 0. -1.
       -4    1    3    3    0  502  0.22445996540E+03 -0.19650071177E+03  0.15772249348E+03  0.33745044620E+03  0.12699999809E+01 0.  1.
</event>
<event>
 5   0  0.8921459E-05  0.1099736E+04  0.7818609E-02  0.9205449E-01
       -1   -1    0    0    0  501  0.00000000000E+00  0.00000000000E+00  0.83225752738E+03  0.83225752740E+03  0.50400001928E-02 0.  1.
        1   -1    0    0  501    0  0.00000000000E+00  0.00000000000E+00 -0.36329500934E+03  0.36329500937E+03  0.50400001928E-02 0. -1.
    10030    2    1    2    0    0  0.00000000000E+00  0.00000000000E+00  0.46896251805E+03  0.11955525368E+04  0.10997363433E+04 0.  0.
        3    1    3    3  502    0  0.27112749716E+03  0.18533493582E+03  0.71392233985E+03  0.78583985372E+03  0.10100000352E+00 0.  1.
       -3    1    3    3    0  502 -0.27112749716E+03 -0.18533493582E+03 -0.24495982181E+03  0.40971268305E+03  0.10100000352E+00 0. -1.
</event>
<event>
 5   0  0.8657442E-05  0.1100071E+04  0.7818609E-02  0.9205123E-01
        1   -1    0    0  501    0  0.00000000000E+00  0.00000000000E+00  0.93996384919E+03  0.93996384921E+03  0.50400001928E-02 0.  1.
       -1   -1    0    0    0  501  0.00000000000E+00  0.00000000000E+00 -0.32186248218E+03  0.32186248222E+03  0.50400001928E-02 0. -1.
    10030    2    1    2    0    0  0.00000000000E+00  0.00000000000E+00  0.61810136701E+03  0.12618263314E+04  0.11000710844E+04 0.  0.
        1    1    3    3  502    0  0.47791126940E+03  0.10241479472E+03  0.19661774693E+02  0.48915698605E+03  0.50400001928E-02 0.  1.
       -1    1    3    3    0  502 -0.47791126940E+03 -0.10241479472E+03  0.59843959232E+03  0.77266934537E+03  0.50400001928E-02 0. -1.
</event>
<event>
 5   0  0.8621738E-05  0.1099990E+04  0.7818609E-02  0.9205202E-01
        1   -1    0    0  501    0  0.00000000000E+00  0.00000000000E+00  0.34826370481E+03  0.34826370485E+03  0.50400001928E-02 0.  1.
       -1   -1    0    0    0  501  0.00000000000E+00  0.00000000000E+00 -0.86857818320E+03  0.86857818322E+03  0.50400001928E-02 0. -1.
    10030    2    1    2    0    0  0.00000000000E+00  0.00000000000E+00 -0.52031447839E+03  0.12168418881E+04  0.10999895564E+04 0.  0.
        2    1    3    3  502    0  0.48375882277E+03  0.26165641515E+03 -0.25711202404E+03  0.60711882784E+03  0.25500000920E-02 0. -1.
       -2    1    3    3    0  502 -0.48375882277E+03 -0.26165641515E+03 -0.26320245435E+03  0.60972306023E+03  0.25500000920E-02 0.  1.
</event>
<event>
 5   0  0.1553937E-04  0.1100637E+04  0.7818609E-02  0.9204571E-01
        2   -1    0    0  501    0  0.00000000000E+00  0.00000000000E+00  0.21177626626E+04  0.21177626626E+04  0.25500000920E-02 0.  1.
       -2   -1    0    0    0  501  0.00000000000E+00  0.00000000000E+00 -0.14300486728E+03  0.14300486730E+03  0.25500000920E-02 0. -1.
    10030    2    1    2    0    0  0.00000000000E+00  0.00000000000E+00  0.19747577954E+04  0.22607675299E+04  0.11006368493E+04 0.  0.
        1    1    3    3  502    0 -0.10869057271E+03 -0.28535371782E+03  0.19277902003E+04  0.19518236194E+04  0.50400001928E-02 0.  1.
       -1    1    3    3    0  502  0.10869057271E+03  0.28535371782E+03  0.46967595101E+02  0.30894391057E+03  0.50400001928E-02 0. -1.
</event>
<event>
 5   0  0.1574101E-04  0.1099450E+04  0.7818609E-02  0.9205728E-01
        2   -1    0    0  501    0  0.00000000000E+00  0.00000000000E+00  0.10368416594E+04  0.10368416594E+04  0.25500000920E-02 0.  1.
       -2   -1    0    0    0  501  0.00000000000E+00  0.00000000000E+00 -0.29145988794E+03  0.29145988795E+03  0.25500000920E-02 0. -1.
    10030    2    1    2    0    0  0.00000000000E+00  0.00000000000E+00  0.74538177142E+03  0.13283015473E+04  0.10994503242E+04 0.  0.
        4    1    3    3  502    0 -0.39171684956E+02 -0.20069408712E+03  0.98918350752E+03  0.10100980952E+04  0.12699999809E+01 0.  1.
       -4    1    3    3    0  502  0.39171684956E+02  0.20069408712E+03 -0.24380173610E+03  0.31820345211E+03  0.12699999809E+01 0. -1.
</event>
<event>
 5   0  0.9346836E-05  0.1100276E+04  0.7818609E-02  0.9204923E-01
       -1   -1    0    0    0  501  0.00000000000E+00  0.00000000000E+00  0.33313268082E+03  0.33313268086E+03  0.50400001928E-02 0. -1.
        1   -1    0    0  501    0  0.00000000000E+00  0.00000000000E+00 -0.90850271155E+03  0.90850271156E+03  0.50400001928E-02 0.  1.
    10030    2    1    2    0    0  0.00000000000E+00  0.00000000000E+00 -0.57537003072E+03  0.12416353924E+04  0.11002762269E+04 0.  0.
        5    1    3    3  502    0  0.34175514495E+02 -0.36989693525E+03 -0.74557124896E+03  0.83300077178E+03  0.46999998093E+01 0.  1.
       -5    1    3    3    0  502 -0.34175514495E+02  0.36989693525E+03  0.17020121824E+03  0.40863462064E+03  0.46999998093E+01 0. -1.
</event>
<event>
 5   0  0.1553937E-04  0.1099776E+04  0.7818609E-02  0.9205411E-01
       -2   -1    0    0    0  501  0.00000000000E+00  0.00000000000E+00  0.21365099699E+03  0.21365099701E+03  0.25500000920E-02 0.  1.
        2   -1    0    0  501    0  0.00000000000E+00  0.00000000000E+00 -0.14152828120E+04  0.14152828120E+04  0.25500000920E-02 0. -1.
    10030    2    1    2    0    0  0.00000000000E+00  0.00000000000E+00 -0.12016318150E+04  0.16289338090E+04  0.10997755841E+04 0.  0.
        1    1    3    3  502    0  0.21170217395E+03  0.50271986372E+03 -0.49786246012E+03  0.73852021032E+03  0.50400001928E-02 0.  1.
       -1    1    3    3    0  502 -0.21170217395E+03 -0.50271986372E+03 -0.70376935489E+03  0.89041359870E+03  0.50400001928E-02 0. -1.
</event>
<event>
 5   0  0.8657442E-05  0.1099993E+04  0.7818609E-02  0.9205199E-01
       -1   -1    0    0    0  501  0.00000000000E+00  0.00000000000E+00  0.42264457443E+03  0.42264457446E+03  0.50400001928E-02 0. -1.
        1   -1    0    0  501    0  0.00000000000E+00  0.00000000000E+00 -0.71572229903E+03  0.71572229905E+03  0.50400001928E-02 0.  1.
    10030    2    1    2    0    0  0.00000000000E+00  0.00000000000E+00 -0.29307772461E+03  0.11383668735E+04  0.10999929936E+04 0.  0.
        1    1    3    3  502    0  0.53762726371E+02  0.74719157226E+02 -0.70769382463E+03  0.71365533183E+03  0.50400001928E-02 0.  1.
       -1    1    3    3    0  502 -0.53762726371E+02 -0.74719157226E+02  0.41461610003E+03  0.42471154167E+03  0.50400001928E-02 0. -1.
</event>
<event>
 5   0  0.9346836E-05  0.1100884E+04  0.7818609E-02  0.9204331E-01
       -1   -1    0    0    0  501  0.00000000000E+00  0.00000000000E+00  0.69712048856E+03  0.69712048858E+03  0.50400001928E-02 0. -1.
        1   -1    0    0  501    0  0.00000000000E+00  0.00000000000E+00 -0.43462568271E+03  0.43462568274E+03  0.50400001928E-02 0.  1.
    10030    2    1    2    0    0  0.00000000000E+00  0.00000000000E+00  0.26249480586E+03  0.11317461713E+04  0.11008841325E+04 0.  0.
        5    1    3    3  502    0  0.35209547562E+03 -0.53222962520E+02 -0.30023357342E+03  0.46579630344E+03  0.46999998093E+01 0.  1.
       -5    1    3    3    0  502 -0.35209547562E+03  0.53222962520E+02  0.56272837928E+03  0.66594986788E+03  0.46999998093E+01 0. -1.
</event>
<event>
 5   0  0.9346836E-05  0.1100003E+04  0.7818609E-02  0.9205189E-01
        1   -1    0    0  501    0  0.00000000000E+00  0.00000000000E+00  0.75933287878E+03  0.75933287880E+03  0.50400001928E-02 0.  1.
       -1   -1    0    0    0  501  0.00000000000E+00  0.00000000000E+00 -0.39837796266E+03  0.39837796269E+03  0.50400001928E-02 0. -1.
    10030    2    1    2    0    0  0.00000000000E+00  0.00000000000E+00  0.36095491613E+03  0.11577108415E+04  0.11000027005E+04 0.  0.
        5    1    3    3  502    0  0.11359544942E+03 -0.84305921937E+02  0.73983688485E+03  0.75325435332E+03  0.46999998093E+01 0.  1.
       -5    1    3    3    0  502 -0.11359544942E+03  0.84305921937E+02 -0.37888196873E+03  0.40445648817E+03  0.46999998093E+01 0. -1.
</event>
<event>
 5   0  0.1503277E-04  0.1099753E+04  0.7818609E-02  0.9205433E-01
       -2   -1    0    0    0  501  0.00000000000E+00  0.00000000000E+00  0.45254629375E+03  0.45254629376E+03  0.25500000920E-02 0.  1.
        2   -1    0    0  501    0  0.00000000000E+00  0.00000000000E+00 -0.66813916422E+03  0.66813916422E+03  0.25500000920E-02 0. -1.
    10030    2    1    2    0    0  0.00000000000E+00  0.00000000000E+00 -0.21559287046E+03  0.11206854580E+04  0.10997525221E+04 0.  0.
        5    1    3    3  502    0 -0.38298000127E+03  0.32085990508E+03 -0.34176867348E+03  0.60535334825E+03  0.46999998093E+01 0. -1.
       -5    1    3    3    0  502  0.38298000127E+03 -0.32085990508E+03  0.12617580302E+03  0.51533210974E+03  0.46999998093E+01 0.  1.
</event>
<event>
 5   0  0.1503277E-04  0.1100984E+04  0.7818609E-02  0.9204233E-01
       -2   -1    0    0    0  501  0.00000000000E+00  0.00000000000E+00  0.20679426305E+03  0.20679426306E+03  0.25500000920E-02 0.  1.
        2   -1    0    0  501    0  0.00000000000E+00  0.00000000000E+00 -0.14654250701E+04  0.14654250701E+04  0.25500000920E-02 0. -1.
    10030    2    1    2    0    0  0.00000000000E+00  0.00000000000E+00 -0.12586308070E+04  0.16722193331E+04  0.11009841006E+04 0.  0.
        5    1    3    3  502    0  0.51105687126E+03 -0.16910015391E+03 -0.45451394370E+03  0.70454169694E+03  0.46999998093E+01 0.  1.
       -5    1    3    3    0  502 -0.51105687126E+03  0.16910015391E+03 -0.80411686332E+03  0.96767763619E+03  0.46999998093E+01 0. -1.
</event>
<event>
 5   0  0.1574101E-04  0.1100006E+04  0.7818609E-02  0.9205186E-01
        2   -1    0    0  501    0  0.00000000000E+00  0.00000000000E+00  0.92088981193E+03  0.92088981193E+03  0.25500000920E-02 0. -1.
       -2   -1    0    0    0  501  0.00000000000E+00  0.00000000000E+00 -0.32849006445E+03  0.32849006446E+03  0.25500000920E-02 0.  1.
    10030    2    1    2    0    0  0.00000000000E+00  0.00000000000E+00  0.59239974747E+03  0.12493798764E+04  0.11000057340E+04 0.  0.
        4    1    3    3  502    0 -0.13940860018E+03 -0.53189417138E+03  0.28204232931E+03  0.61797706736E+03  0.12699999809E+01 0. -1.
       -4    1    3    3    0  502  0.13940860018E+03  0.53189417138E+03  0.31035741816E+03  0.63140280904E+03  0.12699999809E+01 0.  1.
</event>
<event>
 5   0  0.8657442E-05  0.1099952E+04  0.7818609E-02  0.9205239E-01
       -1   -1    0    0    0  501  0.00000000000E+00  0.00000000000E+00  0.22414500072E+03  0.22414500078E+03  0.50400001928E-02 0. -1.
        1   -1    0    0  501    0  0.00000000000E+00  0.00000000000E+00 -0.13494539805E+04  0.13494539805E+04  0.50400001928E-02 0.  1.
    10030    2    1    2    0    0  0.00000000000E+00  0.00000000000E+00 -0.11253089798E+04  0.15735989813E+04  0.10999515689E+04 0.  0.
        1    1    3    3  502    0  0.30377739684E+03  0.25765522321E+03 -0.20142084089E+02  0.39883909594E+03  0.50400001928E-02 0. -1.
       -1    1    3    3    0  502 -0.30377739684E+03 -0.25765522321E+03 -0.11051668957E+04  0.11747598854E+04  0.50400001928E-02 0.  1.
</event>
<event>
 5   0  0.1503277E-04  0.1101266E+04  0.7818609E-02  0.9203959E-01
        2   -1    0    0  501    0  0.00000000000E+00  0.00000000000E+00  0.11579266358E+04  0.11579266358E+04  0.25500000920E-02 0.  1.
       -2   -1    0    0    0  501  0.00000000000E+00  0.00000000000E+00 -0.26184436723E+03  0.26184436724E+03  0.25500000920E-02 0. -1.
    10030    2    1    2    0    0  0.00000000000E+00  0.00000000000E+00  0.89608226858E+03  0.14197710030E+04  0.11012657577E+04 0.  0.
        5    1    3    3  502    0 -0.11348683164E+03 -0.15637744941E+03  0.11127590746E+04  0.11294193268E+04  0.46999998093E+01 0.  1.
       -5    1    3    3    0  502  0.11348683164E+03  0.15637744941E+03 -0.21667680602E+03  0.29035167625E+03  0.46999998093E+01 0. -1.
</event>
<event>
 5   0  0.8921459E-05  0.1099944E+04  0.7818609E-02  0.9205246E-01
       -1   -1    0    0    0  501  0.00000000000E+00  0.00000000000E+00  0.72726936150E+03  0.72726936152E+03  0.50400001928E-02 0. -1.
        1   -1    0    0  501    0  0.00000000000E+00  0.00000000000E+00 -0.41589728231E+03  0.41589728234E+03  0.50400001928E-02 0.  1.
    10030    2    1    2    0    0  0.00000000000E+00  0.00000000000E+00  0.31137207919E+03  0.11431666439E+04  0.10999442731E+04 0.  0.
        3    1    3    3  502    0 -0.11815951850E+03  0.38136584679E+03 -0.23742003005E+03  0.46451034626E+03  0.10100000352E+00 0.  1.
       -3    1    3    3    0  502  0.11815951850E+03 -0.38136584679E+03  0.54879210924E+03  0.67865629760E+03  0.10100000352E+00 0. -1.
</event>
<event>
 5   0  0.1464205E-04  0.1095544E+04  0.7818609E-02  0.9209546E-01
       -2   -1    0    0    0  501  0.00000000000E+00  0.00000000000E+00  0.10300669469E+04  0.10300669469E+04  0.25500000920E-02 0. -1.
        2   -1    0    0  501    0  0.00000000000E+00  0.00000000000E+00 -0.29129565323E+03  0.29129565324E+03  0.25500000920E-02 0.  1.
    10030    2    1    2    0    0  0.00000000000E+00  0.00000000000E+00  0.73877129365E+03  0.13213626001E+04  0.10955437448E+04 0.  0.
        3    1    3    3  502    0 -0.25037505641E+03  0.26677046246E+03 -0.12232274555E+03  0.38576808161E+03  0.10100000352E+00 0.  1.
       -3    1    3    3    0  502  0.25037505641E+03 -0.26677046246E+03  0.86109403920E+03  0.93559451851E+03  0.10100000352E+00 0. -1.
</event>
<event>
 5   0  0.1503277E-04  0.1099976E+04  0.7818609E-02  0.9205216E-01
       -2   -1    0    0    0  501  0.00000000000E+00  0.00000000000E+00  0.42205992253E+03  0.42205992254E+03  0.25500000920E-02 0. -1.
        2   -1    0    0  501    0  0.00000000000E+00  0.00000000000E+00 -0.71669114995E+03  0.71669114996E+03  0.25500000920E-02 0.  1.
    10030    2    1    2    0    0  0.00000000000E+00  0.00000000000E+00 -0.29463122742E+03  0.11387510725E+04  0.10999756565E+04 0.  0.
        5    1    3    3  502    0 -0.10641404959E+03 -0.49924953115E+03  0.64570930360E+02  0.51455372834E+03  0.46999998093E+01 0.  1.
       -5    1    3    3    0  502  0.10641404959E+03  0.49924953115E+03 -0.35920215778E+03  0.62419734416E+03  0.46999998093E+01 0. -1.
</event>
<event>
 5   0  0.9016738E-05  0.1099997E+04  0.7818609E-02  0.9205195E-01
        1   -1    0    0  501    0  0.00000000000E+00  0.00000000000E+00  0.31760926950E+03  0.31760926954E+03  0.50400001928E-02 0.  1.
       -1   -1    0    0    0  501  0.00000000000E+00  0.00000000000E+00 -0.95242218347E+03  0.95242218348E+03  0.50400001928E-02 0. -1.
    10030    2    1    2    0    0  0.00000000000E+00  0.00000000000E+00 -0.63481291397E+03  0.12700314530E+04  0.10999965709E+04 0.  0.
        4    1    3    3  502    0  0.18518002421E+03 -0.21572872717E+03 -0.86099796559E+03  0.90672467416E+03  0.12699999809E+01 0. -1.
       -4    1    3    3    0  502 -0.18518002421E+03  0.21572872717E+03  0.22618505162E+03  0.36330677886E+03  0.12699999809E+01 0.  1.
</event>
<event>
 5   0  0.1464205E-04  0.1101046E+04  0.7818609E-02  0.9204173E-01
        2   -1    0    0  501    0  0.00000000000E+00  0.00000000000E+00  0.29623304214E+04  0.29623304214E+04  0.25500000920E-02 0. -1.
       -2   -1    0    0    0  501  0.00000000000E+00  0.00000000000E+00 -0.10230983605E+03  0.10230983608E+03  0.25500000920E-02 0.  1.
    10030    2    1    2    0    0  0.00000000000E+00  0.00000000000E+00  0.28600205854E+04  0.30646402575E+04  0.11010459387E+04 0.  0.
        3    1    3    3  502    0 -0.27641484805E+03  0.20234844622E+03  0.23048394088E+03  0.41288366293E+03  0.10100000352E+00 0.  1.
       -3    1    3    3    0  502  0.27641484805E+03 -0.20234844622E+03  0.26295366445E+04  0.26517565946E+04  0.10100000352E+00 0. -1.
</event>
<event>
 5   0  0.1540772E-04  0.1099924E+04  0.7818609E-02  0.9205266E-01
        2   -1    0    0  501    0  0.00000000000E+00  0.00000000000E+00  0.23241859461E+03  0.23241859463E+03  0.25500000920E-02 0.  1.
       -2   -1    0    0    0  501  0.00000000000E+00  0.00000000000E+00 -0.13013503442E+04  0.13013503442E+04  0.25500000920E-02 0. -1.
    10030    2    1    2    0    0  0.00000000000E+00  0.00000000000E+00 -0.10689317496E+04  0.15337689388E+04  0.10999236666E+04 0.  0.
        2    1    3    3  502    0 -0.93968289423E+02 -0.47653808822E+03 -0.89416296703E+03  0.10175686712E+04  0.25500000920E-02 0. -1.
       -2    1    3    3    0  502  0.93968289423E+02  0.47653808822E+03 -0.17476878252E+03  0.51620026762E+03  0.25500000920E-02 0.  1.
</event>
<event>
 5   0  0.1574101E-04  0.1098484E+04  0.7818609E-02  0.9206671E-01
        2   -1    0    0  501    0  0.00000000000E+00  0.00000000000E+00  0.23193005564E+04  0.23193005564E+04  0.25500000920E-02 0. -1.
       -2   -1    0    0    0  501  0.00000000000E+00  0.00000000000E+00 -0.13006794838E+03  0.13006794841E+03  0.25500000920E-02 0.  1.
    10030    2    1    2    0    0  0.00000000000E+00  0.00000000000E+00  0.21892326080E+04  0.24493685048E+04  0.10984838007E+04 0.  0.
        4    1    3    3  502    0  0.46725911766E+03 -0.16762973644E+03  0.57057602866E+03  0.75629982742E+03  0.12699999809E+01 0.  1.
       -4    1    3    3    0  502 -0.46725911766E+03  0.16762973644E+03  0.16186565793E+04  0.16930686774E+04  0.12699999809E+01 0. -1.
</event>
<event>
 5   0  0.1464205E-04  0.1100091E+04  0.7818609E-02  0.9205104E-01
        2   -1    0    0  501    0  0.00000000000E+00  0.00000000000E+00  0.64537988980E+03  0.64537988981E+03  0.25500000920E-02 0.  1.
       -2   -1    0    0    0  501  0.00000000000E+00  0.00000000000E+00 -0.46879335223E+03  0.46879335224E+03  0.25500000920E-02 0. -1.
    10030    2    1    2    0    0  0.00000000000E+00  0.00000000000E+00  0.17658653757E+03  0.11141732420E+04  0.11000905454E+04 0.  0.
        3    1    3    3  502    0 -0.42390889740E+03 -0.29309416973E+03 -0.10638298407E+03  0.52623216846E+03  0.10100000352E+00 0. -1.
       -3    1    3    3    0  502  0.42390889740E+03  0.29309416973E+03  0.28296952164E+03  0.58794107358E+03  0.10100000352E+00 0.  1.
</event>
<event>
 5   0  0.1553937E-04  0.1099627E+04  0.7818609E-02  0.9205555E-01
        2   -1    0    0  501    0  0.00000000000E+00  0.00000000000E+00  0.56629175762E+03  0.56629175762E+03  0.25500000920E-02 0.  1.
       -2   -1    0    0    0  501  0.00000000000E+00  0.00000000000E+00 -0.53381505046E+03  0.53381505047E+03  0.25500000920E-02 0. -1.
    10030    2    1    2    0    0  0.00000000000E+00  0.00000000000E+00  0.32476707157E+02  0.11001068081E+04  0.10996273245E+04 0.  0.
        1    1    3    3  502    0 -0.51030804360E+02  0.39167855233E+03  0.39886928152E+03  0.56134920960E+03  0.50400001928E-02 0.  1.
       -1    1    3    3    0  502  0.51030804360E+02 -0.39167855233E+03 -0.36639257436E+03  0.53875759849E+03  0.50400001928E-02 0. -1.
</event>
<event>
 5   0  0.1553937E-04  0.1099692E+04  0.7818609E-02  0.9205493E-01
        2   -1    0    0  501    0  0.00000000000E+00  0.00000000000E+00  0.85861464960E+03  0.85861464960E+03  0.25500000920E-02 0. -1.
       -2   -1    0    0    0  501  0.00000000000E+00  0.00000000000E+00 -0.35211414330E+03  0.35211414331E+03  0.25500000920E-02 0.  1.
    10030    2    1    2    0    0  0.00000000000E+00  0.00000000000E+00  0.50650050630E+03  0.12107287929E+04  0.10996915236E+04 0.  0.
        1    1    3    3  502    0 -0.21066020364E+02  0.54942730059E+03  0.24881538854E+03  0.60350909972E+03  0.50400001928E-02 0.  1.
       -1    1    3    3    0  502  0.21066020364E+02 -0.54942730059E+03  0.25768511776E+03  0.60721969319E+03  0.50400001928E-02 0. -1.
</event>
<event>
 5   0  0.8657442E-05  0.1100153E+04  0.7818609E-02  0.9205042E-01
       -1   -1    0    0    0  501  0.00000000000E+00  0.00000000000E+00  0.30184551593E+03  0.30184551597E+03  0.50400001928E-02 0. -1.
        1   -1    0    0  501    0  0.00000000000E+00  0.00000000000E+00 -0.10024479277E+04  0.10024479277E+04  0.50400001928E-02 0.  1.
    10030    2    1    2    0    0  0.00000000000E+00  0.00000000000E+00 -0.70060241180E+03  0.13042934437E+04  0.11001534656E+04 0.  0.
        1    1    3    3  502    0 -0.26240805231E+03  0.94472573016E+02 -0.91241145789E+03  0.95408475592E+03  0.50400001928E-02 0.  1.
       -1    1    3    3    0  502  0.26240805231E+03 -0.94472573016E+02  0.21180904609E+03  0.35020868779E+03  0.50400001928E-02 0. -1.
</event>
<event>
 5   0  0.8621738E-05  0.1099659E+04  0.7818609E-02  0.9205525E-01
       -1   -1    0    0    0  501  0.00000000000E+00  0.00000000000E+00  0.56094700616E+03  0.56094700618E+03  0.50400001928E-02 0. -1.
        1   -1    0    0  501    0  0.00000000000E+00  0.00000000000E+00 -0.53893210565E+03  0.53893210568E+03  0.50400001928E-02 0.  1.
    10030    2    1    2    0    0  0.00000000000E+00  0.00000000000E+00  0.22014900506E+02  0.10998791119E+04  0.10996587675E+04 0.  0.
        2    1    3    3  502    0 -0.34758712988E+03  0.42572600026E+03  0.26913814411E+02  0.55025793367E+03  0.25500000920E-02 0.  1.
       -2    1    3    3    0  502  0.34758712988E+03 -0.42572600026E+03 -0.48989139052E+01  0.54962117819E+03  0.25500000920E-02 0. -1.
</event>
<event>
 5   0  0.1553937E-04  0.1099485E+04  0.7818609E-02  0.9205694E-01
        2   -1    0    0  501    0  0.00000000000E+00  0.00000000000E+00  0.38704474182E+03  0.38704474183E+03  0.25500000920E-02 0. -1.
       -2   -1    0    0    0  501  0.00000000000E+00  0.00000000000E+00 -0.78083235690E+03  0.78083235691E+03  0.25500000920E-02 0.  1.
    10030    2    1    2    0    0  0.00000000000E+00  0.00000000000E+00 -0.39378761508E+03  0.11678770987E+04  0.10994854396E+04 0.  0.
        1    1    3    3  502    0 -0.39925966009E+03 -0.23102785520E+03  0.12076521973E+03  0.47682951290E+03  0.50400001928E-02 0. -1.
       -1    1    3    3    0  502  0.39925966009E+03  0.23102785520E+03 -0.51455283481E+03  0.69104758584E+03  0.50400001928E-02 0.  1.
</event>
<event>
 5   0  0.8921459E-05  0.1100097E+04  0.7818609E-02  0.9205098E-01
        1   -1    0    0  501    0  0.00000000000E+00  0.00000000000E+00  0.69442026313E+03  0.69442026315E+03  0.50400001928E-02 0. -1.
       -1   -1    0    0    0  501  0.00000000000E+00  0.00000000000E+00 -0.43569163322E+03  0.43569163325E+03  0.50400001928E-02 0.  1.
    10030    2    1    2    0    0  0.00000000000E+00  0.00000000000E+00  0.25872862991E+03  0.11301118964E+04  0.11000965387E+04 0.  0.
        3    1    3    3  502    0 -0.54694635921E+03 -0.44667185834E+02  0.16790611414E+03  0.57387973541E+03  0.10100000352E+00 0. -1.
       -3    1    3    3    0  502  0.54694635921E+03  0.44667185834E+02  0.90822515771E+02  0.55623216099E+03  0.10100000352E+00 0.  1.
</event>
<event>
 5   0  0.1503277E-04  0.1099982E+04  0.7818609E-02  0.9205209E-01
        2   -1    0    0  501    0  0.00000000000E+00  0.00000000000E+00  0.18985365106E+04  0.18985365106E+04  0.25500000920E-02 0. -1.
       -2   -1    0    0    0  501  0.00000000000E+00  0.00000000000E+00 -0.15932805992E+03  0.15932805994E+03  0.25500000920E-02 0.  1.
    10030    2    1    2    0    0  0.00000000000E+00  0.00000000000E+00  0.17392084506E+04  0.20578645705E+04  0.10999820707E+04 0.  0.
        5    1    3    3  502    0  0.40822827772E+03 -0.34272706629E+03  0.11230696886E+04  0.12431491400E+04  0.46999998093E+01 0.  1.
       -5    1    3    3    0  502 -0.40822827772E+03  0.34272706629E+03  0.61613876202E+03  0.81471543054E+03  0.46999998093E+01 0. -1.
</event>
<event>
 5   0  0.8921459E-05  0.1100302E+04  0.7818609E-02  0.9204898E-01
        1   -1    0    0  501    0  0.00000000000E+00  0.00000000000E+00  0.37059202361E+03  0.37059202365E+03  0.50400001928E-02 0.  1.
       -1   -1    0    0    0  501  0.00000000000E+00  0.00000000000E+00 -0.81670948476E+03  0.81670948478E+03  0.50400001928E-02 0. -1.
    10030    2    1    2    0    0  0.00000000000E+00  0.00000000000E+00 -0.44611746115E+03  0.11873015084E+04  0.11003018144E+04 0.  0.
        3    1    3    3  502    0 -0.12099705435E+03 -0.37833977961E+03  0.18767512797E+03  0.43932134009E+03  0.10100000352E+00 0. -1.
       -3    1    3    3    0  502  0.12099705435E+03  0.37833977961E+03 -0.63379258912E+03  0.74798016834E+03  0.10100000352E+00 0.  1.
</event>
<event>
 5   0  0.1540772E-04  0.1100023E+04  0.7818609E-02  0.9205170E-01
       -2   -1    0    0    0  501  0.00000000000E+00  0.00000000000E+00  0.68722717060E+03  0.68722717060E+03  0.25500000920E-02 0.  1.
        2   -1    0    0  501    0  0.00000000000E+00  0.00000000000E+00 -0.44019298464E+03  0.44019298465E+03  0.25500000920E-02 0. -1.
    10030    2    1    2    0    0  0.00000000000E+00  0.00000000000E+00  0.24703418595E+03  0.11274201553E+04  0.11000228713E+04 0.  0.
        2    1    3    3  502    0 -0.25102358982E+03 -0.34423526077E+03  0.48003392143E+03  0.64182811028E+03  0.25500000920E-02 0.  1.
       -2    1    3    3    0  502  0.25102358982E+03  0.34423526077E+03 -0.23299973548E+03  0.48559204498E+03  0.25500000920E-02 0. -1.
</event>
<event>
 5   0  0.9016738E-05  0.1100157E+04  0.7818609E-02  0.9205038E-01
       -1   -1    0    0    0  501  0.00000000000E+00  0.00000000000E+00  0.48712388936E+03  0.48712388938E+03  0.50400001928E-02 0. -1.
        1   -1    0    0  501    0  0.00000000000E+00  0.00000000000E+00 -0.62116967166E+03  0.62116967168E+03  0.50400001928E-02 0.  1.
    10030    2    1    2    0    0  0.00000000000E+00  0.00000000000E+00 -0.13404578230E+03  0.11082935611E+04  0.11001574186E+04 0.  0.
        4    1    3    3  502    0 -0.31721971228E+03  0.29387446148E+03  0.27548330270E+03  0.51272137456E+03  0.12699999809E+01 0. -1.
       -4    1    3    3    0  502  0.31721971228E+03 -0.29387446148E+03 -0.40952908500E+03  0.59557218650E+03  0.12699999809E+01 0.  1.
</event>
<event>
 5   0  0.9346836E-05  0.1100479E+04  0.7818609E-02  0.9204725E-01
        1   -1    0    0  501    0  0.00000000000E+00  0.00000000000E+00  0.51125762619E+03  0.51125762622E+03  0.50400001928E-02 0. -1.
       -1   -1    0    0    0  501  0.00000000000E+00  0.00000000000E+00 -0.59219356212E+03  0.59219356214E+03  0.50400001928E-02 0.  1.
    10030    2    1    2    0    0  0.00000000000E+00  0.00000000000E+00 -0.80935935925E+02  0.11034511884E+04  0.11004789409E+04 0.  0.
        5    1    3    3  502    0  0.44433003588E+03  0.41865851468E+02 -0.36314367303E+03  0.57539321125E+03  0.46999998093E+01 0.  1.
       -5    1    3    3    0  502 -0.44433003588E+03 -0.41865851468E+02  0.28220773710E+03  0.52805797710E+03  0.46999998093E+01 0. -1.
</event>
<event>
 5   0  0.8657442E-05  0.1099731E+04  0.7818609E-02  0.9205454E-01
       -1   -1    0    0    0  501  0.00000000000E+00  0.00000000000E+00  0.25383561136E+03  0.25383561141E+03  0.50400001928E-02 0. -1.
        1   -1    0    0  501    0  0.00000000000E+00  0.00000000000E+00 -0.11911332882E+04  0.11911332882E+04  0.50400001928E-02 0.  1.
    10030    2    1    2    0    0  0.00000000000E+00  0.00000000000E+00 -0.93729767687E+03  0.14449688996E+04  0.10997309607E+04 0.  0.
        1    1    3    3  502    0 -0.60527581689E+02 -0.83836724949E+02 -0.11782435673E+04  0.11827722049E+04  0.50400001928E-02 0.  1.
       -1    1    3    3    0  502  0.60527581689E+02  0.83836724949E+02  0.24094589047E+03  0.26219669478E+03  0.50400001928E-02 0. -1.
</event>
<event>
 5   0  0.8621738E-05  0.1100161E+04  0.7818609E-02  0.9205035E-01
        1   -1    0    0  501    0  0.00000000000E+00  0.00000000000E+00  0.86533674876E+03  0.86533674877E+03  0.50400001928E-02 0. -1.
       -1   -1    0    0    0  501  0.00000000000E+00  0.00000000000E+00 -0.34967731444E+03  0.34967731448E+03  0.50400001928E-02 0.  1.
    10030    2    1    2    0    0  0.00000000000E+00  0.00000000000E+00  0.51565943431E+03  0.12150140633E+04  0.11001611344E+04 0.  0.
        2    1    3    3  502    0  0.16132424304E+03  0.25532753076E+03  0.76557708130E+03  0.82299813292E+03  0.25500000920E-02 0. -1.
       -2    1    3    3    0  502 -0.16132424304E+03 -0.25532753076E+03 -0.24991764699E+03  0.39201593034E+03  0.25500000920E-02 0.  1.
</event>
<event>
 5   0  0.1464205E-04  0.1100704E+04  0.7818609E-02  0.9204506E-01
       -2   -1    0    0    0  501  0.00000000000E+00  0.00000000000E+00  0.69362480630E+03  0.69362480630E+03  0.25500000920E-02 0. -1.
        2   -1    0    0  501    0  0.00000000000E+00  0.00000000000E+00 -0.43667278999E+03  0.43667279000E+03  0.25500000920E-02 0.  1.
    10030    2    1    2    0    0  0.00000000000E+00  0.00000000000E+00  0.25695201631E+03  0.11302975963E+04  0.11007035557E+04 0.  0.
        3    1    3    3  502    0  0.28329950067E+03 -0.10120379131E+03  0.60172057629E+03  0.67273209868E+03  0.10100000352E+00 0. -1.
       -3    1    3    3    0  502 -0.28329950067E+03  0.10120379131E+03 -0.34476855999E+03  0.45756549762E+03  0.10100000352E+00 0.  1.
</event>
<event>
 5   0  0.1553937E-04  0.1099622E+04  0.7818609E-02  0.9205561E-01
        2   -1    0    0  501    0  0.00000000000E+00  0.00000000000E+00  0.51598159331E+03  0.51598159332E+03  0.25500000920E-02 0. -1.
       -2   -1    0    0    0  501  0.00000000000E+00  0.00000000000E+00 -0.58585819373E+03  0.58585819373E+03  0.25500000920E-02 0.  1.
    10030    2    1    2    0    0  0.00000000000E+00  0.00000000000E+00 -0.69876600416E+02  0.11018397870E+04  0.10996218336E+04 0.  0.
        1    1    3    3  502    0 -0.23394237839E+03 -0.33844370040E+03 -0.40039146094E+03  0.57409624347E+03  0.50400001928E-02 0.  1.
       -1    1    3    3    0  502  0.23394237839E+03  0.33844370040E+03  0.33051486052E+03  0.52774354358E+03  0.50400001928E-02 0. -1.
</event>
<event>
 5   0  0.8621738E-05  0.1099941E+04  0.7818609E-02  0.9205249E-01
        1   -1    0    0  501    0  0.00000000000E+00  0.00000000000E+00  0.32481215701E+03  0.32481215705E+03  0.50400001928E-02 0.  1.
       -1   -1    0    0    0  501  0.00000000000E+00  0.00000000000E+00 -0.93120759112E+03  0.93120759113E+03  0.50400001928E-02 0. -1.
    10030    2    1    2    0    0  0.00000000000E+00  0.00000000000E+00 -0.60639543410E+03  0.12560197482E+04  0.10999409917E+04 0.  0.
        2    1    3    3  502    0 -0.39541814770E+03  0.20748676632E+03  0.63387408619E+02  0.45102575681E+03  0.25500000920E-02 0.  1.
       -2    1    3    3    0  502  0.39541814770E+03 -0.20748676632E+03 -0.66978284272E+03  0.80499399137E+03  0.25500000920E-02 0. -1.
</event>
<event>
 5   0  0.8621738E-05  0.1100559E+04  0.7818609E-02  0.9204647E-01
       -1   -1    0    0    0  501  0.00000000000E+00  0.00000000000E+00  0.75786141788E+03  0.75786141790E+03  0.50400001928E-02 0.  1.
        1   -1    0    0  501    0  0.00000000000E+00  0.00000000000E+00 -0.39955515483E+03  0.39955515486E+03  0.50400001928E-02 0. -1.
    10030    2    1    2    0    0  0.00000000000E+00  0.00000000000E+00  0.35830626305E+03  0.11574165728E+04  0.11005588329E+04 0.  0.
        2    1    3    3  502    0 -0.11830339468E+03  0.18162529387E+03 -0.35276778929E+03  0.41403931424E+03  0.25500000920E-02 0. -1.
       -2    1    3    3    0  502  0.11830339468E+03 -0.18162529387E+03  0.71107405234E+03  0.74337725852E+03  0.25500000920E-02 0.  1.
</event>
<event>
 5   0  0.8921459E-05  0.1099760E+04  0.7818609E-02  0.9205426E-01
        1   -1    0    0  501    0  0.00000000000E+00  0.00000000000E+00  0.58706963610E+03  0.58706963612E+03  0.50400001928E-02 0.  1.
       -1   -1    0    0    0  501  0.00000000000E+00  0.00000000000E+00 -0.51504642630E+03  0.51504642632E+03  0.50400001928E-02 0. -1.
    10030    2    1    2    0    0  0.00000000000E+00  0.00000000000E+00  0.72023209801E+02  0.11021160624E+04  0.10997601886E+04 0.  0.
        3    1    3    3  502    0 -0.43753774168E+03  0.12674076805E+03 -0.27265080318E+03  0.53088696382E+03  0.10100000352E+00 0. -1.
       -3    1    3    3    0  502  0.43753774168E+03 -0.12674076805E+03  0.34467401298E+03  0.57122909862E+03  0.10100000352E+00 0.  1.
</event>
<event>
 5   0  0.9016738E-05  0.1098745E+04  0.7818609E-02  0.9206415E-01
        1   -1    0    0  501    0  0.00000000000E+00  0.00000000000E+00  0.44649728801E+03  0.44649728804E+03  0.50400001928E-02 0.  1.
       -1   -1    0    0    0  501  0.00000000000E+00  0.00000000000E+00 -0.67595122460E+03  0.67595122462E+03  0.50400001928E-02 0. -1.
    10030    2    1    2    0    0  0.00000000000E+00  0.00000000000E+00 -0.22945393659E+03  0.11224485127E+04  0.10987454458E+04 0.  0.
        4    1    3    3  502    0 -0.15596814651E+03  0.20483036924E+03  0.38105406204E+03  0.45987536788E+03  0.12699999809E+01 0.  1.
       -4    1    3    3    0  502  0.15596814651E+03 -0.20483036924E+03 -0.61050799864E+03  0.66257314478E+03  0.12699999809E+01 0. -1.
</event>
<event>
 5   0  0.1540772E-04  0.1100138E+04  0.7818609E-02  0.9205058E-01
        2   -1    0    0  501    0  0.00000000000E+00  0.00000000000E+00  0.31065604479E+03  0.31065604480E+03  0.25500000920E-02 0. -1.
       -2   -1    0    0    0  501  0.00000000000E+00  0.00000000000E+00 -0.97398937037E+03  0.97398937037E+03  0.25500000920E-02 0.  1.
    10030    2    1    2    0    0  0.00000000000E+00  0.00000000000E+00 -0.66333332557E+03  0.12846454152E+04  0.11001376014E+04 0.  0.
        2    1    3    3  502    0 -0.34074956285E+02  0.26043336592E+03  0.23270148921E+03  0.35090828405E+03  0.25500000920E-02 0. -1.
       -2    1    3    3    0  502  0.34074956285E+02 -0.26043336592E+03 -0.89603481478E+03  0.93373713112E+03  0.25500000920E-02 0.  1.
</event>
<event>
 5   0  0.1553937E-04  0.1099705E+04  0.7818609E-02  0.9205480E-01
       -2   -1    0    0    0  501  0.00000000000E+00  0.00000000000E+00  0.60547970239E+03  0.60547970240E+03  0.25500000920E-02 0. -1.
        2   -1    0    0  501    0  0.00000000000E+00  0.00000000000E+00 -0.49933578356E+03  0.49933578357E+03  0.25500000920E-02 0.  1.
    10030    2    1    2    0    0  0.00000000000E+00  0.00000000000E+00  0.10614391883E+03  0.11048154860E+04  0.10997048361E+04 0.  0.
        1    1    3    3  502    0 -0.27054882920E+02 -0.44414843666E+03 -0.27144292748E+03  0.52123033621E+03  0.50400001928E-02 0. -1.
       -1    1    3    3    0  502  0.27054882920E+02  0.44414843666E+03  0.37758684631E+03  0.58358514975E+03  0.50400001928E-02 0.  1.
</event>
<event>
 5   0  0.6010125E-05  0.1100511E+04  0.7818609E-02  0.9204694E-01
        3   -1    0    0  501    0  0.00000000000E+00  0.00000000000E+00  0.57557207889E+03  0.57557208775E+03  0.10100000352E+00 0. -1.
       -3   -1    0    0    0  501  0.00000000000E+00  0.00000000000E+00 -0.52605287876E+03  0.52605288845E+03  0.10100000352E+00 0.  1.
    10030    2    1    2    0    0  0.00000000000E+00  0.00000000000E+00  0.49519200131E+02  0.11016249762E+04  0.11005114434E+04 0.  0.
        4    1    3    3  502    0  0.39791883607E+03  0.92195519801E+02  0.39383353460E+03  0.56740274924E+03  0.12699999809E+01 0. -1.
       -4    1    3    3    0  502 -0.39791883607E+03 -0.92195519801E+02 -0.34431433447E+03  0.53422222697E+03  0.12699999809E+01 0.  1.
</event>
<event>
 5   0  0.8657442E-05  0.1100113E+04  0.7818609E-02  0.9205082E-01
       -1   -1    0    0    0  501  0.00000000000E+00  0.00000000000E+00  0.16622926903E+03  0.16622926910E+03  0.50400001928E-02 0. -1.
        1   -1    0    0  501    0  0.00000000000E+00  0.00000000000E+00 -0.18201502639E+04  0.18201502639E+04  0.50400001928E-02 0.  1.
    10030    2    1    2    0    0  0.00000000000E+00  0.00000000000E+00 -0.16539209949E+04  0.19863795330E+04  0.11001131723E+04 0.  0.
        1    1    3    3  502    0  0.32009442596E+03 -0.24541730256E+03 -0.15167021764E+03  0.43092220745E+03  0.50400001928E-02 0. -1.
       -1    1    3    3    0  502 -0.32009442596E+03  0.24541730256E+03 -0.15022507773E+04  0.15554573256E+04  0.50400001928E-02 0.  1.
</event>
<event>
 5   0  0.1540772E-04  0.1100193E+04  0.7818609E-02  0.9205004E-01
        2   -1    0    0  501    0  0.00000000000E+00  0.00000000000E+00  0.68874098703E+03  0.68874098704E+03  0.25500000920E-02 0. -1.
       -2   -1    0    0    0  501  0.00000000000E+00  0.00000000000E+00 -0.43936107595E+03  0.43936107596E+03  0.25500000920E-02 0.  1.
    10030    2    1    2    0    0  0.00000000000E+00  0.00000000000E+00  0.24937991108E+03  0.11281020630E+04  0.11001926761E+04 0.  0.
        2    1    3    3  502    0  0.38992801617E+03  0.10425647582E+03 -0.25854623637E+03  0.47933227191E+03  0.25500000920E-02 0.  1.
       -2    1    3    3    0  502 -0.38992801617E+03 -0.10425647582E+03  0.50792614746E+03  0.64876979108E+03  0.25500000920E-02 0. -1.
</event>
<event>
 5   0  0.8657442E-05  0.1099653E+04  0.7818609E-02  0.9205530E-01
       -1   -1    0    0    0  501  0.00000000000E+00  0.00000000000E+00  0.47581798816E+03  0.47581798819E+03  0.50400001928E-02 0. -1.
        1   -1    0    0  501    0  0.00000000000E+00  0.00000000000E+00 -0.63534624004E+03  0.63534624006E+03  0.50400001928E-02 0.  1.
    10030    2    1    2    0    0  0.00000000000E+00  0.00000000000E+00 -0.15952825187E+03  0.11111642282E+04  0.10996529812E+04 0.  0.
        1    1    3    3  502    0 -0.24939426979E+03  0.30914711417E+03 -0.46392772805E+03  0.61073593056E+03  0.50400001928E-02 0.  1.
       -1    1    3    3    0  502  0.24939426979E+03 -0.30914711417E+03  0.30439947617E+03  0.50042829769E+03  0.50400001928E-02 0. -1.
</event>
<event>
 5   0  0.1553937E-04  0.1099458E+04  0.7818609E-02  0.9205720E-01
       -2   -1    0    0    0  501  0.00000000000E+00  0.00000000000E+00  0.26441335603E+03  0.26441335605E+03  0.25500000920E-02 0.  1.
        2   -1    0    0  501    0  0.00000000000E+00  0.00000000000E+00 -0.11429153551E+04  0.11429153551E+04  0.25500000920E-02 0. -1.
    10030    2    1    2    0    0  0.00000000000E+00  0.00000000000E+00 -0.87850199904E+03  0.14073287111E+04  0.10994582024E+04 0.  0.
        1    1    3    3  502    0 -0.25063588270E+03  0.29099978243E+03  0.64210196751E+02  0.38938691358E+03  0.50400001928E-02 0.  1.
       -1    1    3    3    0  502  0.25063588270E+03 -0.29099978243E+03 -0.94271219579E+03  0.10179417975E+04  0.50400001928E-02 0. -1.
</event>
<event>
 5   0  0.8921459E-05  0.1099777E+04  0.7818609E-02  0.9205409E-01
        1   -1    0    0  501    0  0.00000000000E+00  0.00000000000E+00  0.23188397712E+04  0.23188397712E+04  0.50400001928E-02 0.  1.
       -1   -1    0    0    0  501  0.00000000000E+00  0.00000000000E+00 -0.13040030761E+03  0.13040030770E+03  0.50400001928E-02 0. -1.
    10030    2    1    2    0    0  0.00000000000E+00  0.00000000000E+00  0.21884394635E+04  0.24492400789E+04  0.10997771039E+04 0.  0.
        3    1    3    3  502    0 -0.22565318557E+03 -0.20456230401E+03  0.74607401638E+02  0.31357833305E+03  0.10100000352E+00 0. -1.
       -3    1    3    3    0  502  0.22565318557E+03  0.20456230401E+03  0.21138320619E+04  0.21356617458E+04  0.10100000352E+00 0.  1.
</event>
<event>
 5   0  0.1503277E-04  0.1099880E+04  0.7818609E-02  0.9205309E-01
        2   -1    0    0  501    0  0.00000000000E+00  0.00000000000E+00  0.36986322677E+03  0.36986322678E+03  0.25500000920E-02 0.  1.
       -2   -1    0    0    0  501  0.00000000000E+00  0.00000000000E+00 -0.81769178921E+03  0.81769178921E+03  0.25500000920E-02 0. -1.
    10030    2    1    2    0    0  0.00000000000E+00  0.00000000000E+00 -0.44782856244E+03  0.11875550160E+04  0.10998802183E+04 0.  0.
        5    1    3    3  502    0  0.39290468967E+03 -0.34790831962E+03 -0.40132181132E+03  0.66067812153E+03  0.46999998093E+01 0.  1.
       -5    1    3    3    0  502 -0.39290468967E+03  0.34790831962E+03 -0.46506751120E+02  0.52687689447E+03  0.46999998093E+01 0. -1.
</event>
<event>
 5   0  0.1553937E-04  0.1098516E+04  0.7818609E-02  0.9206639E-01
       -2   -1    0    0    0  501  0.00000000000E+00  0.00000000000E+00  0.48643578232E+03  0.48643578233E+03  0.25500000920E-02 0.  1.
        2   -1    0    0  501    0  0.00000000000E+00  0.00000000000E+00 -0.62019399122E+03  0.62019399123E+03  0.25500000920E-02 0. -1.
    10030    2    1    2    0    0  0.00000000000E+00  0.00000000000E+00 -0.13375820890E+03  0.11066297736E+04  0.10985163619E+04 0.  0.
        1    1    3    3  502    0 -0.36900625796E+03  0.23985332195E+03  0.26416527104E+03  0.51330159255E+03  0.50400001928E-02 0.  1.
       -1    1    3    3    0  502  0.36900625796E+03 -0.23985332195E+03 -0.39792347994E+03  0.59332818101E+03  0.50400001928E-02 0. -1.
</event>
<event>
 5   0  0.8621738E-05  0.1100076E+04  0.7818609E-02  0.9205118E-01
        1   -1    0    0  501    0  0.00000000000E+00  0.00000000000E+00  0.41306471300E+03  0.41306471303E+03  0.50400001928E-02 0.  1.
       -1   -1    0    0    0  501  0.00000000000E+00  0.00000000000E+00 -0.73243226889E+03  0.73243226891E+03  0.50400001928E-02 0. -1.
    10030    2    1    2    0    0  0.00000000000E+00  0.00000000000E+00 -0.31936755589E+03  0.11454969819E+04  0.11000762246E+04 0.  0.
        2    1    3    3  502    0  0.60564039881E+02 -0.48524012828E+03  0.10253898414E+03  0.49964009877E+03  0.25500000920E-02 0.  1.
       -2    1    3    3    0  502 -0.60564039881E+02  0.48524012828E+03 -0.42190654003E+03  0.64585688317E+03  0.25500000920E-02 0. -1.
</event>
<event>
 5   0  0.1540772E-04  0.1099511E+04  0.7818609E-02  0.9205669E-01
       -2   -1    0    0    0  501  0.00000000000E+00  0.00000000000E+00  0.20191972087E+03  0.20191972089E+03  0.25500000920E-02 0.  1.
        2   -1    0    0  501    0  0.00000000000E+00  0.00000000000E+00 -0.14967872076E+04  0.14967872076E+04  0.25500000920E-02 0. -1.
    10030    2    1    2    0    0  0.00000000000E+00  0.00000000000E+00 -0.12948674867E+04  0.16987069284E+04  0.10995105369E+04 0.  0.
        2    1    3    3  502    0 -0.14781760021E+03 -0.48942741349E+03 -0.33520668445E+03  0.61135321812E+03  0.25500000920E-02 0.  1.
       -2    1    3    3    0  502  0.14781760021E+03  0.48942741349E+03 -0.95966080223E+03  0.10873537103E+04  0.25500000920E-02 0. -1.
</event>
<event>
 5   0  0.1553937E-04  0.1100123E+04  0.7818609E-02  0.9205072E-01
       -2   -1    0    0    0  501  0.00000000000E+00  0.00000000000E+00  0.16447520685E+03  0.16447520687E+03  0.25500000920E-02 0. -1.
        2   -1    0    0  501    0  0.00000000000E+00  0.00000000000E+00 -0.18395932614E+04  0.18395932614E+04  0.25500000920E-02 0.  1.
    10030    2    1    2    0    0  0.00000000000E+00  0.00000000000E+00 -0.16751180545E+04  0.20040684683E+04  0.11001226881E+04 0.  0.
        1    1    3    3  502    0  0.47813476675E+02  0.45046973602E+03 -0.14059642791E+04  0.14771407062E+04  0.50400001928E-02 0.  1.
       -1    1    3    3    0  502 -0.47813476675E+02 -0.45046973602E+03 -0.26915377541E+03  0.52692776209E+03  0.50400001928E-02 0. -1.
</event>
<event>
 5   0  0.8621738E-05  0.1106615E+04  0.7818609E-02  0.9198768E-01
        1   -1    0    0  501    0  0.00000000000E+00  0.00000000000E+00  0.16706861318E+04  0.16706861318E+04  0.50400001928E-02 0. -1.
       -1   -1    0    0    0  501  0.00000000000E+00  0.00000000000E+00 -0.18324762786E+03  0.18324762793E+03  0.50400001928E-02 0.  1.
    10030    2    1    2    0    0  0.00000000000E+00  0.00000000000E+00  0.14874385039E+04  0.18539337597E+04  0.11066151465E+04 0.  0.
        2    1    3    3  502    0 -0.30969062580E+03 -0.38973390240E+03  0.11483998166E+04  0.12516480884E+04  0.25500000920E-02 0. -1.
       -2    1    3    3    0  502  0.30969062580E+03  0.38973390240E+03  0.33903868733E+03  0.60228567134E+03  0.25500000920E-02 0.  1.
</event>
<event>
 5   0  0.9016738E-05  0.1099985E+04  0.7818609E-02  0.9205206E-01
        1   -1    0    0  501    0  0.00000000000E+00  0.00000000000E+00  0.17317044224E+04  0.17317044224E+04  0.50400001928E-02 0. -1.
       -1   -1    0    0    0  501  0.00000000000E+00  0.00000000000E+00 -0.17467875031E+03  0.17467875038E+03  0.50400001928E-02 0.  1.
    10030    2    1    2    0    0  0.00000000000E+00  0.00000000000E+00  0.15570256721E+04  0.19063831728E+04  0.10999853899E+04 0.  0.
        4    1    3    3  502    0 -0.38667387600E+01  0.16703160490E+03  0.16866562586E+04  0.16949116367E+04  0.12699999809E+01 0. -1.
       -4    1    3    3    0  502  0.38667387600E+01 -0.16703160490E+03 -0.12963058651E+03  0.21147153606E+03  0.12699999809E+01 0.  1.
</event>
<event>
 5   0  0.1503277E-04  0.1101547E+04  0.7818609E-02  0.9203685E-01
       -2   -1    0    0    0  501  0.00000000000E+00  0.00000000000E+00  0.28996510256E+03  0.28996510257E+03  0.25500000920E-02 0. -1.
        2   -1    0    0  501    0  0.00000000000E+00  0.00000000000E+00 -0.10461656676E+04  0.10461656676E+04  0.25500000920E-02 0.  1.
    10030    2    1    2    0    0  0.00000000000E+00  0.00000000000E+00 -0.75620056506E+03  0.13361307702E+04  0.11015471576E+04 0.  0.
        5    1    3    3  502    0 -0.32157192298E+03 -0.26344197591E+03 -0.81631119416E+03  0.91607654267E+03  0.46999998093E+01 0.  1.
       -5    1    3    3    0  502  0.32157192298E+03  0.26344197591E+03  0.60110629103E+02  0.42005422751E+03  0.46999998093E+01 0. -1.
</event>
<event>
 5   0  0.8921459E-05  0.1099499E+04  0.7818609E-02  0.9205680E-01
       -1   -1    0    0    0  501  0.00000000000E+00  0.00000000000E+00  0.14715319607E+03  0.14715319615E+03  0.50400001928E-02 0. -1.
        1   -1    0    0  501    0  0.00000000000E+00  0.00000000000E+00 -0.20538093169E+04  0.20538093169E+04  0.50400001928E-02 0.  1.
    10030    2    1    2    0    0  0.00000000000E+00  0.00000000000E+00 -0.19066561208E+04  0.22009625131E+04  0.10994991682E+04 0.  0.
        3    1    3    3  502    0 -0.88343960080E+02  0.46028166204E+03 -0.15285090268E+04  0.15987506744E+04  0.10100000352E+00 0.  1.
       -3    1    3    3    0  502  0.88343960080E+02 -0.46028166204E+03 -0.37814709403E+03  0.60221183865E+03  0.10100000352E+00 0. -1.
</event>
<event>
 5   0  0.8657442E-05  0.1099628E+04  0.7818609E-02  0.9205554E-01
       -1   -1    0    0    0  501  0.00000000000E+00  0.00000000000E+00  0.54350902136E+03  0.54350902138E+03  0.50400001928E-02 0.  1.
        1   -1    0    0  501    0  0.00000000000E+00  0.00000000000E+00 -0.55619243116E+03  0.55619243118E+03  0.50400001928E-02 0. -1.
    10030    2    1    2    0    0  0.00000000000E+00  0.00000000000E+00 -0.12683409799E+02  0.10997014526E+04  0.10996283081E+04 0.  0.
        1    1    3    3  502    0 -0.45091513629E+03  0.14106601175E+03  0.27487359299E+03  0.54660732885E+03  0.50400001928E-02 0.  1.
       -1    1    3    3    0  502  0.45091513629E+03 -0.14106601175E+03 -0.28755700279E+03  0.55309412371E+03  0.50400001928E-02 0. -1.
</event>
<event>
 5   0  0.1464205E-04  0.1100364E+04  0.7818609E-02  0.9204837E-01
        2   -1    0    0  501    0  0.00000000000E+00  0.00000000000E+00  0.18124088641E+04  0.18124088641E+04  0.25500000920E-02 0. -1.
       -2   -1    0    0    0  501  0.00000000000E+00  0.00000000000E+00 -0.16701533367E+03  0.16701533369E+03  0.25500000920E-02 0.  1.
    10030    2    1    2    0    0  0.00000000000E+00  0.00000000000E+00  0.16453935304E+04  0.19794241978E+04  0.11003637057E+04 0.  0.
        3    1    3    3  502    0 -0.25291410745E+03 -0.28879544062E+03  0.11371889788E+03  0.40037526173E+03  0.10100000352E+00 0.  1.
       -3    1    3    3    0  502  0.25291410745E+03  0.28879544062E+03  0.15316746326E+04  0.15790489361E+04  0.10100000352E+00 0. -1.
</event>
<event>
 5   0  0.1503277E-04  0.1100106E+04  0.7818609E-02  0.9205089E-01
       -2   -1    0    0    0  501  0.00000000000E+00  0.00000000000E+00  0.45504318534E+03  0.45504318535E+03  0.25500000920E-02 0.  1.
        2   -1    0    0  501    0  0.00000000000E+00  0.00000000000E+00 -0.66489983537E+03  0.66489983538E+03  0.25500000920E-02 0. -1.
    10030    2    1    2    0    0  0.00000000000E+00  0.00000000000E+00 -0.20985665003E+03  0.11199430207E+04  0.11001057022E+04 0.  0.
        5    1    3    3  502    0 -0.15205578382E+03 -0.30181487339E+03  0.33685878844E+03  0.47718875986E+03  0.46999998093E+01 0.  1.
       -5    1    3    3    0  502  0.15205578382E+03  0.30181487339E+03 -0.54671543848E+03  0.64275426086E+03  0.46999998093E+01 0. -1.
</event>
<event>
 5   0  0.9346836E-05  0.1100113E+04  0.7818609E-02  0.9205082E-01
       -1   -1    0    0    0  501  0.00000000000E+00  0.00000000000E+00  0.26491290213E+03  0.26491290218E+03  0.50400001928E-02 0. -1.
        1   -1    0    0  501    0  0.00000000000E+00  0.00000000000E+00 -0.11421189993E+04  0.11421189993E+04  0.50400001928E-02 0.  1.
    10030    2    1    2    0    0  0.00000000000E+00  0.00000000000E+00 -0.87720609717E+03  0.14070319015E+04  0.11001128283E+04 0.  0.
        5    1    3    3  502    0  0.44869812159E+03  0.75856016899E+02 -0.83375846790E+03  0.94987336651E+03  0.46999998093E+01 0.  1.
       -5    1    3    3    0  502 -0.44869812159E+03 -0.75856016899E+02 -0.43447629273E+02  0.45715853498E+03  0.46999998093E+01 0. -1.
</event>
<event>
 5   0  0.8621738E-05  0.1103361E+04  0.7818609E-02  0.9201922E-01
       -1   -1    0    0    0  501  0.00000000000E+00  0.00000000000E+00  0.51035941527E+03  0.51035941530E+03  0.50400001928E-02 0. -1.
        1   -1    0    0  501    0  0.00000000000E+00  0.00000000000E+00 -0.59634724268E+03  0.59634724270E+03  0.50400001928E-02 0.  1.
    10030    2    1    2    0    0  0.00000000000E+00  0.00000000000E+00 -0.85987827401E+02  0.11067066580E+04  0.11033611015E+04 0.  0.
        2    1    3    3  502    0 -0.43967718543E+03 -0.33315430220E+03 -0.36369827769E+02  0.55283865715E+03  0.25500000920E-02 0.  1.
       -2    1    3    3    0  502  0.43967718543E+03  0.33315430220E+03 -0.49617999632E+02  0.55386800084E+03  0.25500000920E-02 0. -1.
</event>
<event>
 5   0  0.1574101E-04  0.1100058E+04  0.7818609E-02  0.9205136E-01
       -2   -1    0    0    0  501  0.00000000000E+00  0.00000000000E+00  0.29083304184E+03  0.29083304186E+03  0.25500000920E-02 0. -1.
        2   -1    0    0  501    0  0.00000000000E+00  0.00000000000E+00 -0.10402248618E+04  0.10402248618E+04  0.25500000920E-02 0.  1.
    10030    2    1    2    0    0  0.00000000000E+00  0.00000000000E+00 -0.74939181997E+03  0.13310579037E+04  0.11000577453E+04 0.  0.
        4    1    3    3  502    0  0.32367236625E+03 -0.24907796232E+03  0.71077147112E+02  0.41455663754E+03  0.12699999809E+01 0. -1.
       -4    1    3    3    0  502 -0.32367236625E+03  0.24907796232E+03 -0.82046896709E+03  0.91650126614E+03  0.12699999809E+01 0.  1.
</event>
<event>
 5   0  0.1503277E-04  0.1100144E+04  0.7818609E-02  0.9205052E-01
        2   -1    0    0  501    0  0.00000000000E+00  0.00000000000E+00  0.14739661534E+04  0.14739661534E+04  0.25500000920E-02 0.  1.
       -2   -1    0    0    0  501  0.00000000000E+00  0.00000000000E+00 -0.20528223516E+03  0.20528223518E+03  0.25500000920E-02 0. -1.
    10030    2    1    2    0    0  0.00000000000E+00  0.00000000000E+00  0.12686839183E+04  0.16792483886E+04  0.11001437480E+04 0.  0.
        5    1    3    3  502    0  0.14907892798E+03  0.47941503483E+03  0.29134995823E+03  0.58049133546E+03  0.46999998093E+01 0. -1.
       -5    1    3    3    0  502 -0.14907892798E+03 -0.47941503483E+03  0.97733396003E+03  0.10987570531E+04  0.46999998093E+01 0.  1.
</event>
<event>
 5   0  0.9016738E-05  0.1101031E+04  0.7818609E-02  0.9204188E-01
        1   -1    0    0  501    0  0.00000000000E+00  0.00000000000E+00  0.18782274721E+04  0.18782274721E+04  0.50400001928E-02 0. -1.
       -1   -1    0    0    0  501  0.00000000000E+00  0.00000000000E+00 -0.16135803998E+03  0.16135804006E+03  0.50400001928E-02 0.  1.
    10030    2    1    2    0    0  0.00000000000E+00  0.00000000000E+00  0.17168694321E+04  0.20395855122E+04  0.11010306147E+04 0.  0.
        4    1    3    3  502    0  0.11091539379E+03 -0.15410214580E+03  0.18156530307E+04  0.18255539533E+04  0.12699999809E+01 0. -1.
       -4    1    3    3    0  502 -0.11091539379E+03  0.15410214580E+03 -0.98783598566E+02  0.21403155881E+03  0.12699999809E+01 0.  1.
</event>
<event>
 5   0  0.1540772E-04  0.1099855E+04  0.7818609E-02  0.9205333E-01
       -2   -1    0    0    0  501  0.00000000000E+00  0.00000000000E+00  0.36586920147E+03  0.36586920148E+03  0.25500000920E-02 0.  1.
        2   -1    0    0  501    0  0.00000000000E+00  0.00000000000E+00 -0.82658034465E+03  0.82658034465E+03  0.25500000920E-02 0. -1.
    10030    2    1    2    0    0  0.00000000000E+00  0.00000000000E+00 -0.46071114317E+03  0.11924495461E+04  0.10998550644E+04 0.  0.
        2    1    3    3  502    0 -0.53203382678E+03 -0.46375795444E+02 -0.88126055460E+02  0.54127341418E+03  0.25500000920E-02 0.  1.
       -2    1    3    3    0  502  0.53203382678E+03  0.46375795444E+02 -0.37258508771E+03  0.65117613195E+03  0.25500000920E-02 0. -1.
</event>
<event>
 5   0  0.6010125E-05  0.1100074E+04  0.7818609E-02  0.9205120E-01
        3   -1    0    0  501    0  0.00000000000E+00  0.00000000000E+00  0.45282147762E+03  0.45282148888E+03  0.10100000352E+00 0. -1.
       -3   -1    0    0    0  501  0.00000000000E+00  0.00000000000E+00 -0.66812361315E+03  0.66812362078E+03  0.10100000352E+00 0.  1.
    10030    2    1    2    0    0  0.00000000000E+00  0.00000000000E+00 -0.21530213553E+03  0.11209451097E+04  0.11000740563E+04 0.  0.
        5    1    3    3  502    0  0.17355431393E+03  0.24437878952E+03  0.36226709048E+03  0.47021444841E+03  0.46999998093E+01 0. -1.
       -5    1    3    3    0  502 -0.17355431393E+03 -0.24437878952E+03 -0.57756922601E+03  0.65073066125E+03  0.46999998093E+01 0.  1.
</event>
<event>
 5   0  0.8621738E-05  0.1100075E+04  0.7818609E-02  0.9205119E-01
       -1   -1    0    0    0  501  0.00000000000E+00  0.00000000000E+00  0.30951237221E+03  0.30951237225E+03  0.50400001928E-02 0.  1.
        1   -1    0    0  501    0  0.00000000000E+00  0.00000000000E+00 -0.97747625892E+03  0.97747625893E+03  0.50400001928E-02 0. -1.
    10030    2    1    2    0    0  0.00000000000E+00  0.00000000000E+00 -0.66796388671E+03  0.12869886312E+04  0.11000745351E+04 0.  0.
        2    1    3    3  502    0 -0.23899172306E+03  0.16035640991E+03 -0.88235648877E+03  0.92810785750E+03  0.25500000920E-02 0. -1.
       -2    1    3    3    0  502  0.23899172306E+03 -0.16035640991E+03  0.21439260205E+03  0.35888077367E+03  0.25500000920E-02 0.  1.
</event>
<event>
 5   0  0.1553937E-04  0.1099848E+04  0.7818609E-02  0.9205340E-01
       -2   -1    0    0    0  501  0.00000000000E+00  0.00000000000E+00  0.37612316374E+03  0.37612316375E+03  0.25500000920E-02 0.  1.
        2   -1    0    0  501    0  0.00000000000E+00  0.00000000000E+00 -0.80403521014E+03  0.80403521015E+03  0.25500000920E-02 0. -1.
    10030    2    1    2    0    0  0.00000000000E+00  0.00000000000E+00 -0.42791204640E+03  0.11801583739E+04  0.10998477477E+04 0.  0.
        1    1    3    3  502    0  0.35026199416E+03  0.39799810738E+03 -0.37066948181E+03  0.64690171031E+03  0.50400001928E-02 0. -1.
       -1    1    3    3    0  502 -0.35026199416E+03 -0.39799810738E+03 -0.57242564592E+02  0.53325666359E+03  0.50400001928E-02 0.  1.
</event>
<event>
 5   0  0.8657442E-05  0.1100442E+04  0.7818609E-02  0.9204761E-01
       -1   -1    0    0    0  501  0.00000000000E+00  0.00000000000E+00  0.52164206242E+03  0.52164206245E+03  0.50400001928E-02 0.  1.
        1   -1    0    0  501    0  0.00000000000E+00  0.00000000000E+00 -0.58036618794E+03  0.58036618797E+03  0.50400001928E-02 0. -1.
    10030    2    1    2    0    0  0.00000000000E+00  0.00000000000E+00 -0.58724125519E+02  0.11020082504E+04  0.11004424842E+04 0.  0.
        1    1    3    3  502    0 -0.49951390025E+03  0.12314222547E+03  0.16601877182E+03  0.54059261636E+03  0.50400001928E-02 0. -1.
       -1    1    3    3    0  502  0.49951390025E+03 -0.12314222547E+03 -0.22474289734E+03  0.56141563406E+03  0.50400001928E-02 0.  1.
</event>
<event>
 5   0  0.8921459E-05  0.1100007E+04  0.7818609E-02  0.9205185E-01
       -1   -1    0    0    0  501  0.00000000000E+00  0.00000000000E+00  0.12677465279E+03  0.12677465289E+03  0.50400001928E-02 0.  1.
        1   -1    0    0  501    0  0.00000000000E+00  0.00000000000E+00 -0.23861529168E+04  0.23861529169E+04  0.50400001928E-02 0. -1.
    10030    2    1    2    0    0  0.00000000000E+00  0.00000000000E+00 -0.22593782641E+04  0.25129275697E+04  0.11000067412E+04 0.  0.
        3    1    3    3  502    0 -0.37812948112E+03  0.17217584487E+03 -0.19529760270E+04  0.19966826985E+04  0.10100000352E+00 0. -1.
       -3    1    3    3    0  502  0.37812948112E+03 -0.17217584487E+03 -0.30640223703E+03  0.51624487127E+03  0.10100000352E+00 0.  1.
</event>
<event>
 5   0  0.1574101E-04  0.1100003E+04  0.7818609E-02  0.9205189E-01
        2   -1    0    0  501    0  0.00000000000E+00  0.00000000000E+00  0.34196481381E+03  0.34196481382E+03  0.25500000920E-02 0. -1.
       -2   -1    0    0    0  501  0.00000000000E+00  0.00000000000E+00 -0.88459826013E+03  0.88459826013E+03  0.25500000920E-02 0.  1.
    10030    2    1    2    0    0  0.00000000000E+00  0.00000000000E+00 -0.54263344632E+03  0.12265630739E+04  0.11000026897E+04 0.  0.
        4    1    3    3  502    0  0.33909172185E+03 -0.29871028808E+03 -0.62089805395E+03  0.76793687132E+03  0.12699999809E+01 0.  1.
       -4    1    3    3    0  502 -0.33909172185E+03  0.29871028808E+03  0.78264607626E+02  0.45862620263E+03  0.12699999809E+01 0. -1.
</event>
<event>
 5   0  0.1553937E-04  0.1099480E+04  0.7818609E-02  0.9205699E-01
       -2   -1    0    0    0  501  0.00000000000E+00  0.00000000000E+00  0.35620270548E+03  0.35620270549E+03  0.25500000920E-02 0. -1.
        2   -1    0    0  501    0  0.00000000000E+00  0.00000000000E+00 -0.84843302868E+03  0.84843302868E+03  0.25500000920E-02 0.  1.
    10030    2    1    2    0    0  0.00000000000E+00  0.00000000000E+00 -0.49223032319E+03  0.12046357342E+04  0.10994801321E+04 0.  0.
        1    1    3    3  502    0 -0.21057696470E+03  0.20232591796E+03 -0.75642492183E+03  0.81083728178E+03  0.50400001928E-02 0.  1.
       -1    1    3    3    0  502  0.21057696470E+03 -0.20232591796E+03  0.26419459863E+03  0.39379845240E+03  0.50400001928E-02 0. -1.
</event>
<event>
 5   0  0.1503277E-04  0.1099948E+04  0.7818609E-02  0.9205243E-01
        2   -1    0    0  501    0  0.00000000000E+00  0.00000000000E+00  0.38313285351E+03  0.38313285352E+03  0.25500000920E-02 0. -1.
       -2   -1    0    0    0  501  0.00000000000E+00  0.00000000000E+00 -0.78946841677E+03  0.78946841677E+03  0.25500000920E-02 0.  1.
    10030    2    1    2    0    0  0.00000000000E+00  0.00000000000E+00 -0.40633556326E+03  0.11726012703E+04  0.10999477938E+04 0.  0.
        5    1    3    3  502    0  0.10405885210E+03  0.20867480201E+03  0.32780281228E+03  0.40230609172E+03  0.46999998093E+01 0. -1.
       -5    1    3    3    0  502 -0.10405885210E+03 -0.20867480201E+03 -0.73413837554E+03  0.77029517857E+03  0.46999998093E+01 0.  1.
</event>
<event>
 5   0  0.9016738E-05  0.1099546E+04  0.7818609E-02  0.9205634E-01
        1   -1    0    0  501    0  0.00000000000E+00  0.00000000000E+00  0.19473182450E+04  0.19473182451E+04  0.50400001928E-02 0. -1.
       -1   -1    0    0    0  501  0.00000000000E+00  0.00000000000E+00 -0.15521363518E+03  0.15521363526E+03  0.50400001928E-02 0.  1.
    10030    2    1    2    0    0  0.00000000000E+00  0.00000000000E+00  0.17921046099E+04  0.21025318803E+04  0.10995459859E+04 0.  0.
        4    1    3    3  502    0 -0.24692612339E+03  0.12880634509E+03  0.18024449508E+04  0.18238346961E+04  0.12699999809E+01 0. -1.
       -4    1    3    3    0  502  0.24692612339E+03 -0.12880634509E+03 -0.10340340967E+02  0.27869718423E+03  0.12699999809E+01 0.  1.
</event>
<event>
 5   0  0.9346836E-05  0.1099941E+04  0.7818609E-02  0.9205250E-01
        1   -1    0    0  501    0  0.00000000000E+00  0.00000000000E+00  0.65788373451E+03  0.65788373453E+03  0.50400001928E-02 0.  1.
       -1   -1    0    0    0  501  0.00000000000E+00  0.00000000000E+00 -0.45975823991E+03  0.45975823993E+03  0.50400001928E-02 0. -1.
    10030    2    1    2    0    0  0.00000000000E+00  0.00000000000E+00  0.19812549460E+03  0.11176419745E+04  0.10999408491E+04 0.  0.
        5    1    3    3  502    0 -0.33719499191E+02  0.41128455863E+03  0.46844201750E+03  0.62430121460E+03  0.46999998093E+01 0.  1.
       -5    1    3    3    0  502  0.33719499191E+02 -0.41128455863E+03 -0.27031652290E+03  0.49334075986E+03  0.46999998093E+01 0. -1.
</event>
<event>
 5   0  0.1540772E-04  0.1100086E+04  0.7818609E-02  0.9205108E-01
       -2   -1    0    0    0  501  0.00000000000E+00  0.00000000000E+00  0.56285299256E+03  0.56285299256E+03  0.25500000920E-02 0.  1.
        2   -1    0    0  501    0  0.00000000000E+00  0.00000000000E+00 -0.53752462634E+03  0.53752462634E+03  0.25500000920E-02 0. -1.
    10030    2    1    2    0    0  0.00000000000E+00  0.00000000000E+00  0.25328366221E+02  0.11003776189E+04  0.11000860776E+04 0.  0.
        2    1    3    3  502    0 -0.10993866458E+03  0.43556842710E+03  0.33014549443E+03  0.55749655798E+03  0.25500000920E-02 0.  1.
       -2    1    3    3    0  502  0.10993866458E+03 -0.43556842710E+03 -0.30481712821E+03  0.54288106093E+03  0.25500000920E-02 0. -1.
</event>
<event>
 5   0  0.9016738E-05  0.1102875E+04  0.7818609E-02  0.9202394E-01
       -1   -1    0    0    0  501  0.00000000000E+00  0.00000000000E+00  0.18900548463E+03  0.18900548470E+03  0.50400001928E-02 0. -1.
        1   -1    0    0  501    0  0.00000000000E+00  0.00000000000E+00 -0.16088596034E+04  0.16088596034E+04  0.50400001928E-02 0.  1.
    10030    2    1    2    0    0  0.00000000000E+00  0.00000000000E+00 -0.14198541187E+04  0.17978650881E+04  0.11028749505E+04 0.  0.
        4    1    3    3  502    0 -0.50251701536E+03  0.12541247034E+03 -0.40135652021E+03  0.65524064866E+03  0.12699999809E+01 0.  1.
       -4    1    3    3    0  502  0.50251701536E+03 -0.12541247034E+03 -0.10184975985E+04  0.11426244394E+04  0.12699999809E+01 0. -1.
</event>
<event>
 5   0  0.1503277E-04  0.1100888E+04  0.7818609E-02  0.9204327E-01
        2   -1    0    0  501    0  0.00000000000E+00  0.00000000000E+00  0.83221443953E+03  0.83221443953E+03  0.25500000920E-02 0. -1.
       -2   -1    0    0    0  501  0.00000000000E+00  0.00000000000E+00 -0.36407505756E+03  0.36407505757E+03  0.25500000920E-02 0.  1.
    10030    2    1    2    0    0  0.00000000000E+00  0.00000000000E+00  0.46813938197E+03  0.11962894971E+04  0.11008878598E+04 0.  0.
        5    1    3    3  502    0  0.10769569083E+03  0.50850336308E+03  0.37290217246E+02  0.52113979160E+03  0.46999998093E+01 0.  1.
       -5    1    3    3    0  502 -0.10769569083E+03 -0.50850336308E+03  0.43084916473E+03  0.67514970550E+03  0.46999998093E+01 0. -1.
</event>
<event>
 5   0  0.9346836E-05  0.1099956E+04  0.7818609E-02  0.9205235E-01
       -1   -1    0    0    0  501  0.00000000000E+00  0.00000000000E+00  0.29238520155E+03  0.29238520159E+03  0.50400001928E-02 0.  1.
        1   -1    0    0  501    0  0.00000000000E+00  0.00000000000E+00 -0.10345113033E+04  0.10345113033E+04  0.50400001928E-02 0. -1.
    10030    2    1    2    0    0  0.00000000000E+00  0.00000000000E+00 -0.74212610178E+03  0.13268965049E+04  0.10999559918E+04 0.  0.
        5    1    3    3  502    0 -0.34874335462E+03 -0.36572066851E+03 -0.10931662687E+03  0.51705488072E+03  0.46999998093E+01 0.  1.
       -5    1    3    3    0  502  0.34874335462E+03  0.36572066851E+03 -0.63280947491E+03  0.80984162421E+03  0.46999998093E+01 0. -1.
</event>
<event>
 5   0  0.9016738E-05  0.1100759E+04  0.7818609E-02  0.9204452E-01
        1   -1    0    0  501    0  0.00000000000E+00  0.00000000000E+00  0.33838395755E+03  0.33838395759E+03  0.50400001928E-02 0. -1.
       -1   -1    0    0    0  501  0.00000000000E+00  0.00000000000E+00 -0.89518889878E+03  0.89518889880E+03  0.50400001928E-02 0.  1.
    10030    2    1    2    0    0  0.00000000000E+00  0.00000000000E+00 -0.55680494124E+03  0.12335728564E+04  0.11007589425E+04 0.  0.
        4    1    3    3  502    0 -0.18616109160E+03 -0.33895554417E+03  0.16047326303E+03  0.41868854056E+03  0.12699999809E+01 0. -1.
       -4    1    3    3    0  502  0.18616109160E+03  0.33895554417E+03 -0.71727820427E+03  0.81488431582E+03  0.12699999809E+01 0.  1.
</event>
<event>
 5   0  0.1540772E-04  0.1100978E+04  0.7818609E-02  0.9204239E-01
       -2   -1    0    0    0  501  0.00000000000E+00  0.00000000000E+00  0.10853505692E+03  0.10853505695E+03  0.25500000920E-02 0. -1.
        2   -1    0    0  501    0  0.00000000000E+00  0.00000000000E+00 -0.27920762142E+04  0.27920762142E+04  0.25500000920E-02 0.  1.
    10030    2    1    2    0    0  0.00000000000E+00  0.00000000000E+00 -0.26835411572E+04  0.29006112711E+04  0.11009780213E+04 0.  0.
        2    1    3    3  502    0 -0.25034524164E+03  0.88835855885E+02 -0.71495719196E+02  0.27509305184E+03  0.25500000920E-02 0. -1.
       -2    1    3    3    0  502  0.25034524164E+03 -0.88835855885E+02 -0.26120454380E+04  0.26255182193E+04  0.25500000920E-02 0.  1.
</event>
<event>
 5   0  0.9346836E-05  0.1098867E+04  0.7818609E-02  0.9206297E-01
        1   -1    0    0  501    0  0.00000000000E+00  0.00000000000E+00  0.48923052322E+03  0.48923052325E+03  0.50400001928E-02 0.  1.
       -1   -1    0    0    0  501  0.00000000000E+00  0.00000000000E+00 -0.61704520732E+03  0.61704520734E+03  0.50400001928E-02 0. -1.
    10030    2    1    2    0    0  0.00000000000E+00  0.00000000000E+00 -0.12781468410E+03  0.11062757306E+04  0.10988673253E+04 0.  0.
        5    1    3    3  502    0 -0.46041967962E+03  0.26295286089E+03  0.81024228263E+02  0.53639304991E+03  0.46999998093E+01 0. -1.
       -5    1    3    3    0  502  0.46041967962E+03 -0.26295286089E+03 -0.20883891236E+03  0.56988268068E+03  0.46999998093E+01 0.  1.
</event>
<event>
 5   0  0.1553937E-04  0.1100859E+04  0.7818609E-02  0.9204355E-01
        2   -1    0    0  501    0  0.00000000000E+00  0.00000000000E+00  0.71076240305E+03  0.71076240306E+03  0.25500000920E-02 0.  1.
       -2   -1    0    0    0  501  0.00000000000E+00  0.00000000000E+00 -0.42626451912E+03  0.42626451913E+03  0.25500000920E-02 0. -1.
    10030    2    1    2    0    0  0.00000000000E+00  0.00000000000E+00  0.28449788393E+03  0.11370269222E+04  0.11008592897E+04 0.  0.
        1    1    3    3  502    0 -0.41548573293E+03  0.21593424211E+03  0.44109343216E+03  0.64328796592E+03  0.50400001928E-02 0. -1.
       -1    1    3    3    0  502  0.41548573293E+03 -0.21593424211E+03 -0.15659554823E+03  0.49373895626E+03  0.50400001928E-02 0.  1.
</event>
<event>
 5   0  0.8657442E-05  0.1099697E+04  0.7818609E-02  0.9205487E-01
        1   -1    0    0  501    0  0.00000000000E+00  0.00000000000E+00  0.78618513550E+03  0.78618513552E+03  0.50400001928E-02 0.  1.
       -1   -1    0    0    0  501  0.00000000000E+00  0.00000000000E+00 -0.38455749938E+03  0.38455749941E+03  0.50400001928E-02 0. -1.
    10030    2    1    2    0    0  0.00000000000E+00  0.00000000000E+00  0.40162763612E+03  0.11707426349E+04  0.10996970306E+04 0.  0.
        1    1    3    3  502    0 -0.37704332604E+03  0.11588661148E+02  0.62670549875E+03  0.73147505014E+03  0.50400001928E-02 0.  1.
       -1    1    3    3    0  502  0.37704332604E+03 -0.11588661148E+02 -0.22507786263E+03  0.43926758480E+03  0.50400001928E-02 0. -1.
</event>
<event>
 5   0  0.8621738E-05  0.1100287E+04  0.7818609E-02  0.9204912E-01
       -1   -1    0    0    0  501  0.00000000000E+00  0.00000000000E+00  0.26086276228E+03  0.26086276232E+03  0.50400001928E-02 0. -1.
        1   -1    0    0  501    0  0.00000000000E+00  0.00000000000E+00 -0.11602185918E+04  0.11602185918E+04  0.50400001928E-02 0.  1.
    10030    2    1    2    0    0  0.00000000000E+00  0.00000000000E+00 -0.89935582955E+03  0.14210813542E+04  0.11002869203E+04 0.  0.
        2    1    3    3  502    0  0.21133165946E+01  0.25453290194E+03 -0.10795893703E+04  0.11091909992E+04  0.25500000920E-02 0.  1.
       -2    1    3    3    0  502 -0.21133165946E+01 -0.25453290194E+03  0.18023354076E+03  0.31189035493E+03  0.25500000920E-02 0. -1.
</event>
<event>
 5   0  0.1574101E-04  0.1098990E+04  0.7818609E-02  0.9206177E-01
        2   -1    0    0  501    0  0.00000000000E+00  0.00000000000E+00  0.20162533247E+04  0.20162533247E+04  0.25500000920E-02 0. -1.
       -2   -1    0    0    0  501  0.00000000000E+00  0.00000000000E+00 -0.14975540069E+03  0.14975540071E+03  0.25500000920E-02 0.  1.
    10030    2    1    2    0    0  0.00000000000E+00  0.00000000000E+00  0.18664979240E+04  0.21660087254E+04  0.10989901265E+04 0.  0.
        4    1    3    3  502    0  0.18956589782E+03 -0.51342641070E+03  0.10298295572E+04  0.11662300110E+04  0.12699999809E+01 0. -1.
       -4    1    3    3    0  502 -0.18956589782E+03  0.51342641070E+03  0.83666836680E+03  0.99977871437E+03  0.12699999809E+01 0.  1.
</event>
<event>
 5   0  0.1540772E-04  0.1100795E+04  0.7818609E-02  0.9204418E-01
       -2   -1    0    0    0  501  0.00000000000E+00  0.00000000000E+00  0.21504275038E+03  0.21504275039E+03  0.25500000920E-02 0. -1.
        2   -1    0    0  501    0  0.00000000000E+00  0.00000000000E+00 -0.14087306182E+04  0.14087306182E+04  0.25500000920E-02 0.  1.
    10030    2    1    2    0    0  0.00000000000E+00  0.00000000000E+00 -0.11936878678E+04  0.16237733686E+04  0.11007948159E+04 0.  0.
        2    1    3    3  502    0 -0.48974209135E+03 -0.76294091995E+02 -0.24383995132E+03  0.55238213800E+03  0.25500000920E-02 0.  1.
       -2    1    3    3    0  502  0.48974209135E+03  0.76294091995E+02 -0.94984791652E+03  0.10713912306E+04  0.25500000920E-02 0. -1.
</event>
<event>
 5   0  0.1574101E-04  0.1100504E+04  0.7818609E-02  0.9204701E-01
        2   -1    0    0  501    0  0.00000000000E+00  0.00000000000E+00  0.15840923690E+04  0.15840923690E+04  0.25500000920E-02 0.  1.
       -2   -1    0    0    0  501  0.00000000000E+00  0.00000000000E+00 -0.19113610171E+03  0.19113610173E+03  0.25500000920E-02 0. -1.
    10030    2    1    2    0    0  0.00000000000E+00  0.00000000000E+00  0.13929562672E+04  0.17752284707E+04  0.11005039576E+04 0.  0.
        4    1    3    3  502    0  0.39619573178E+03 -0.14173758004E+03  0.12453053149E+03  0.43882805932E+03  0.12699999809E+01 0.  1.
       -4    1    3    3    0  502 -0.39619573178E+03  0.14173758004E+03  0.12684257358E+04  0.13364004114E+04  0.12699999809E+01 0. -1.
</event>
<event>
 5   0  0.8621738E-05  0.1100110E+04  0.7818609E-02  0.9205085E-01
        1   -1    0    0  501    0  0.00000000000E+00  0.00000000000E+00  0.16771004631E+04  0.16771004631E+04  0.50400001928E-02 0. -1.
       -1   -1    0    0    0  501  0.00000000000E+00  0.00000000000E+00 -0.18040680740E+03  0.18040680747E+03  0.50400001928E-02 0.  1.
    10030    2    1    2    0    0  0.00000000000E+00  0.00000000000E+00  0.14966936557E+04  0.18575072706E+04  0.11001097042E+04 0.  0.
        2    1    3    3  502    0  0.29450748817E+03 -0.37465880110E+03  0.28453400937E+03  0.55503466588E+03  0.25500000920E-02 0.  1.
       -2    1    3    3    0  502 -0.29450748817E+03  0.37465880110E+03  0.12121596464E+04  0.13024726047E+04  0.25500000920E-02 0. -1.
</event>
<event>
 5   0  0.1553937E-04  0.1099604E+04  0.7818609E-02  0.9205578E-01
       -2   -1    0    0    0  501  0.00000000000E+00  0.00000000000E+00  0.40873798344E+03  0.40873798345E+03  0.25500000920E-02 0. -1.
        2   -1    0    0  501    0  0.00000000000E+00  0.00000000000E+00 -0.73955027596E+03  0.73955027597E+03  0.25500000920E-02 0.  1.
    10030    2    1    2    0    0  0.00000000000E+00  0.00000000000E+00 -0.33081229252E+03  0.11482882594E+04  0.10996040896E+04 0.  0.
        1    1    3    3  502    0 -0.17698580135E+02  0.44122427417E+03  0.17664778201E+03  0.47560123924E+03  0.50400001928E-02 0. -1.
       -1    1    3    3    0  502  0.17698580135E+02 -0.44122427417E+03 -0.50746007453E+03  0.67268702018E+03  0.50400001928E-02 0.  1.
</event>
<event>
 5   0  0.9016738E-05  0.1100017E+04  0.7818609E-02  0.9205175E-01
        1   -1    0    0  501    0  0.00000000000E+00  0.00000000000E+00  0.19316752794E+04  0.19316752794E+04  0.50400001928E-02 0.  1.
       -1   -1    0    0    0  501  0.00000000000E+00  0.00000000000E+00 -0.15660465743E+03  0.15660465751E+03  0.50400001928E-02 0. -1.
    10030    2    1    2    0    0  0.00000000000E+00  0.00000000000E+00  0.17750706220E+04  0.20882799369E+04  0.11000169917E+04 0.  0.
        4    1    3    3  502    0  0.32966063608E+02 -0.13892908053E+03  0.18958730344E+04  0.19012428109E+04  0.12699999809E+01 0.  1.
       -4    1    3    3    0  502 -0.32966063608E+02  0.13892908053E+03 -0.12080241238E+03  0.18703712601E+03  0.12699999809E+01 0. -1.
</event>
<event>
 5   0  0.8621738E-05  0.1100265E+04  0.7818609E-02  0.9204934E-01
       -1   -1    0    0    0  501  0.00000000000E+00  0.00000000000E+00  0.61076359154E+03  0.61076359156E+03  0.50400001928E-02 0. -1.
        1   -1    0    0  501    0  0.00000000000E+00  0.00000000000E+00 -0.49552015572E+03  0.49552015574E+03  0.50400001928E-02 0.  1.
    10030    2    1    2    0    0  0.00000000000E+00  0.00000000000E+00  0.11524343582E+03  0.11062837473E+04  0.11002648227E+04 0.  0.
        2    1    3    3  502    0 -0.53884866811E+03  0.53148908670E+02 -0.40188264821E+02  0.54295284349E+03  0.25500000920E-02 0. -1.
       -2    1    3    3    0  502  0.53884866811E+03 -0.53148908670E+02  0.15543170064E+03  0.56333090381E+03  0.25500000920E-02 0.  1.
</event>
<event>
 5   0  0.9016738E-05  0.1099473E+04  0.7818609E-02  0.9205706E-01
       -1   -1    0    0    0  501  0.00000000000E+00  0.00000000000E+00  0.85746675208E+03  0.85746675209E+03  0.50400001928E-02 0. -1.
        1   -1    0    0  501    0  0.00000000000E+00  0.00000000000E+00 -0.35244526619E+03  0.35244526622E+03  0.50400001928E-02 0.  1.
    10030    2    1    2    0    0  0.00000000000E+00  0.00000000000E+00  0.50502148589E+03  0.12099120183E+04  0.10994727786E+04 0.  0.
        4    1    3    3  502    0  0.25438333988E+03 -0.46229866133E+03  0.42219941520E+03  0.67578465133E+03  0.12699999809E+01 0. -1.
       -4    1    3    3    0  502 -0.25438333988E+03  0.46229866133E+03  0.82822070691E+02  0.53412736699E+03  0.12699999809E+01 0.  1.
</event>
<event>
 5   0  0.1553937E-04  0.1099896E+04  0.7818609E-02  0.9205294E-01
       -2   -1    0    0    0  501  0.00000000000E+00  0.00000000000E+00  0.16959847272E+03  0.16959847274E+03  0.25500000920E-02 0.  1.
        2   -1    0    0  501    0  0.00000000000E+00  0.00000000000E+00 -0.17832864044E+04  0.17832864044E+04  0.25500000920E-02 0. -1.
    10030    2    1    2    0    0  0.00000000000E+00  0.00000000000E+00 -0.16136879316E+04  0.19528848771E+04  0.10998957235E+04 0.  0.
        1    1    3    3  502    0 -0.51534317117E+03 -0.15955238729E+03 -0.61721145470E+03  0.81974723433E+03  0.50400001928E-02 0.  1.
       -1    1    3    3    0  502  0.51534317117E+03  0.15955238729E+03 -0.99647647693E+03  0.11331376428E+04  0.50400001928E-02 0. -1.
</event>
<event>
 5   0  0.8657442E-05  0.1101614E+04  0.7818609E-02  0.9203621E-01
       -1   -1    0    0    0  501  0.00000000000E+00  0.00000000000E+00  0.78224181335E+03  0.78224181336E+03  0.50400001928E-02 0.  1.
        1   -1    0    0  501    0  0.00000000000E+00  0.00000000000E+00 -0.38784443302E+03  0.38784443305E+03  0.50400001928E-02 0. -1.
    10030    2    1    2    0    0  0.00000000000E+00  0.00000000000E+00  0.39439738033E+03  0.11700862464E+04  0.11016136031E+04 0.  0.
        1    1    3    3  502    0  0.27505397172E+03 -0.47061482996E+03  0.11319339697E+03  0.55672771683E+03  0.50400001928E-02 0.  1.
       -1    1    3    3    0  502 -0.27505397172E+03  0.47061482996E+03  0.28120398335E+03  0.61335852959E+03  0.50400001928E-02 0. -1.
</event>
<event>
 5   0  0.9346836E-05  0.1100188E+04  0.7818609E-02  0.9205008E-01
       -1   -1    0    0    0  501  0.00000000000E+00  0.00000000000E+00  0.42217261281E+03  0.42217261284E+03  0.50400001928E-02 0.  1.
        1   -1    0    0  501    0  0.00000000000E+00  0.00000000000E+00 -0.71677673818E+03  0.71677673820E+03  0.50400001928E-02 0. -1.
    10030    2    1    2    0    0  0.00000000000E+00  0.00000000000E+00 -0.29460412537E+03  0.11389493510E+04  0.11001881810E+04 0.  0.
        5    1    3    3  502    0  0.52030727185E+03  0.63369033004E+02 -0.32005277045E+03  0.61415890237E+03  0.46999998093E+01 0. -1.
       -5    1    3    3    0  502 -0.52030727185E+03 -0.63369033004E+02  0.25448645077E+02  0.52479044867E+03  0.46999998093E+01 0.  1.
</event>
<event>
 5   0  0.8921459E-05  0.1100202E+04  0.7818609E-02  0.9204995E-01
       -1   -1    0    0    0  501  0.00000000000E+00  0.00000000000E+00  0.45923303110E+03  0.45923303113E+03  0.50400001928E-02 0.  1.
        1   -1    0    0  501    0  0.00000000000E+00  0.00000000000E+00 -0.65894908200E+03  0.65894908202E+03  0.50400001928E-02 0. -1.
    10030    2    1    2    0    0  0.00000000000E+00  0.00000000000E+00 -0.19971605090E+03  0.11181821131E+04  0.11002021347E+04 0.  0.
        3    1    3    3  502    0  0.30007220640E+03 -0.19615102048E+03 -0.52392088830E+03  0.63483199296E+03  0.10100000352E+00 0. -1.
       -3    1    3    3    0  502 -0.30007220640E+03  0.19615102048E+03  0.32420483740E+03  0.48335012019E+03  0.10100000352E+00 0.  1.
</event>
<event>
 5   0  0.1540772E-04  0.1100477E+04  0.7818609E-02  0.9204727E-01
        2   -1    0    0  501    0  0.00000000000E+00  0.00000000000E+00  0.85437879148E+03  0.85437879148E+03  0.25500000920E-02 0.  1.
       -2   -1    0    0    0  501  0.00000000000E+00  0.00000000000E+00 -0.35436529699E+03  0.35436529700E+03  0.25500000920E-02 0. -1.
    10030    2    1    2    0    0  0.00000000000E+00  0.00000000000E+00  0.50001349449E+03  0.12087440885E+04  0.11004766135E+04 0.  0.
        2    1    3    3  502    0 -0.27975112328E+03 -0.20245466147E+03 -0.22052365388E+03  0.40973071993E+03  0.25500000920E-02 0. -1.
       -2    1    3    3    0  502  0.27975112328E+03  0.20245466147E+03  0.72053714838E+03  0.79901336855E+03  0.25500000920E-02 0.  1.
</event>
<event>
 5   0  0.1540772E-04  0.1099971E+04  0.7818609E-02  0.9205220E-01
       -2   -1    0    0    0  501  0.00000000000E+00  0.00000000000E+00  0.62998766951E+03  0.62998766951E+03  0.25500000920E-02 0.  1.
        2   -1    0    0  501    0  0.00000000000E+00  0.00000000000E+00 -0.48014320348E+03  0.48014320348E+03  0.25500000920E-02 0. -1.
    10030    2    1    2    0    0  0.00000000000E+00  0.00000000000E+00  0.14984446603E+03  0.11101308730E+04  0.10999714502E+04 0.  0.
        2    1    3    3  502    0 -0.55930428464E+02  0.32455659638E+03  0.51946649727E+03  0.61506962116E+03  0.25500000920E-02 0.  1.
       -2    1    3    3    0  502  0.55930428464E+02 -0.32455659638E+03 -0.36962203124E+03  0.49506125183E+03  0.25500000920E-02 0. -1.
</event>
<event>
 5   0  0.6010125E-05  0.1100273E+04  0.7818609E-02  0.9204926E-01
       -3   -1    0    0    0  501  0.00000000000E+00  0.00000000000E+00  0.71268108994E+03  0.71268109710E+03  0.10100000352E+00 0.  1.
        3   -1    0    0  501    0  0.00000000000E+00  0.00000000000E+00 -0.42466388169E+03  0.42466389370E+03  0.10100000352E+00 0. -1.
    10030    2    1    2    0    0  0.00000000000E+00  0.00000000000E+00  0.28801720825E+03  0.11373449908E+04  0.11002725643E+04 0.  0.
        5    1    3    3  502    0 -0.27050097737E+03  0.39825482952E+03 -0.13113683951E+03  0.49899563993E+03  0.46999998093E+01 0.  1.
       -5    1    3    3    0  502  0.27050097737E+03 -0.39825482952E+03  0.41915404776E+03  0.63834935087E+03  0.46999998093E+01 0. -1.
</event>
<event>
 5   0  0.1574101E-04  0.1099775E+04  0.7818609E-02  0.9205411E-01
        2   -1    0    0  501    0  0.00000000000E+00  0.00000000000E+00  0.54848225554E+03  0.54848225554E+03  0.25500000920E-02 0.  1.
       -2   -1    0    0    0  501  0.00000000000E+00  0.00000000000E+00 -0.55129621551E+03  0.55129621551E+03  0.25500000920E-02 0. -1.
    10030    2    1    2    0    0  0.00000000000E+00  0.00000000000E+00 -0.28139599676E+01  0.10997784711E+04  0.10997748711E+04 0.  0.
        4    1    3    3  502    0  0.48052399852E+02  0.48725614677E+03 -0.25170161297E+03  0.55052965457E+03  0.12699999809E+01 0. -1.
       -4    1    3    3    0  502 -0.48052399852E+02 -0.48725614677E+03  0.24888765300E+03  0.54924881648E+03  0.12699999809E+01 0.  1.
</event>
<event>
 5   0  0.9346836E-05  0.1100468E+04  0.7818609E-02  0.9204736E-01
        1   -1    0    0  501    0  0.00000000000E+00  0.00000000000E+00  0.15971637456E+04  0.15971637456E+04  0.50400001928E-02 0.  1.
       -1   -1    0    0    0  501  0.00000000000E+00  0.00000000000E+00 -0.18955942931E+03  0.18955942938E+03  0.50400001928E-02 0. -1.
    10030    2    1    2    0    0  0.00000000000E+00  0.00000000000E+00  0.14076043163E+04  0.17867231750E+04  0.11004679881E+04 0.  0.
        5    1    3    3  502    0 -0.18650736435E+03  0.48745888664E+03  0.42102384819E+03  0.67058506833E+03  0.46999998093E+01 0. -1.
       -5    1    3    3    0  502  0.18650736435E+03 -0.48745888664E+03  0.98658046811E+03  0.11161381067E+04  0.46999998093E+01 0.  1.
</event>
<event>
 5   0  0.8657442E-05  0.1100899E+04  0.7818609E-02  0.9204316E-01
       -1   -1    0    0    0  501  0.00000000000E+00  0.00000000000E+00  0.35804942485E+03  0.35804942488E+03  0.50400001928E-02 0. -1.
        1   -1    0    0  501    0  0.00000000000E+00  0.00000000000E+00 -0.84623663265E+03  0.84623663266E+03  0.50400001928E-02 0.  1.
    10030    2    1    2    0    0  0.00000000000E+00  0.00000000000E+00 -0.48818720780E+03  0.12042860575E+04  0.11008987958E+04 0.  0.
        1    1    3    3  502    0 -0.46696644362E+03  0.77938501090E+02 -0.55129094320E+03  0.72667308571E+03  0.50400001928E-02 0.  1.
       -1    1    3    3    0  502  0.46696644362E+03 -0.77938501090E+02  0.63103735395E+02  0.47761297184E+03  0.50400001928E-02 0. -1.
</event>
<event>
 5   0  0.8621738E-05  0.1099698E+04  0.7818609E-02  0.9205486E-01
        1   -1    0    0  501    0  0.00000000000E+00  0.00000000000E+00  0.18967408975E+04  0.18967408975E+04  0.50400001928E-02 0. -1.
       -1   -1    0    0    0  501  0.00000000000E+00  0.00000000000E+00 -0.15939666196E+03  0.15939666204E+03  0.50400001928E-02 0.  1.
    10030    2    1    2    0    0  0.00000000000E+00  0.00000000000E+00  0.17373442356E+04  0.20561375596E+04  0.10996984455E+04 0.  0.
        2    1    3    3  502    0 -0.33577660173E+03 -0.43518886314E+03  0.84230331836E+03  0.10057883241E+04  0.25500000920E-02 0. -1.
       -2    1    3    3    0  502  0.33577660173E+03  0.43518886314E+03  0.89504091722E+03  0.10503492354E+04  0.25500000920E-02 0.  1.
</event>
<event>
 5   0  0.1503277E-04  0.1100251E+04  0.7818609E-02  0.9204947E-01
       -2   -1    0    0    0  501  0.00000000000E+00  0.00000000000E+00  0.30725098479E+03  0.30725098480E+03  0.25500000920E-02 0. -1.
        2   -1    0    0  501    0  0.00000000000E+00  0.00000000000E+00 -0.98498665921E+03  0.98498665921E+03  0.25500000920E-02 0.  1.
    10030    2    1    2    0    0  0.00000000000E+00  0.00000000000E+00 -0.67773567442E+03  0.12922376440E+04  0.11002511005E+04 0.  0.
        5    1    3    3  502    0 -0.35673173730E+03  0.38354604547E+03 -0.14145883720E+03  0.54258436580E+03  0.46999998093E+01 0. -1.
       -5    1    3    3    0  502  0.35673173730E+03 -0.38354604547E+03 -0.53627683723E+03  0.74965327821E+03  0.46999998093E+01 0.  1.
</event>
<event>
 5   0  0.8921459E-05  0.1099638E+04  0.7818609E-02  0.9205545E-01
       -1   -1    0    0    0  501  0.00000000000E+00  0.00000000000E+00  0.12519539417E+03  0.12519539427E+03  0.50400001928E-02 0.  1.
        1   -1    0    0  501    0  0.00000000000E+00  0.00000000000E+00 -0.24146333825E+04  0.24146333825E+04  0.50400001928E-02 0. -1.
    10030    2    1    2    0    0  0.00000000000E+00  0.00000000000E+00 -0.22894379883E+04  0.25398287768E+04  0.10996380827E+04 0.  0.
        3    1    3    3  502    0 -0.15621359761E+03  0.18702340440E+03 -0.63402600464E+01  0.24376351443E+03  0.10100000352E+00 0.  1.
       -3    1    3    3    0  502  0.15621359761E+03 -0.18702340440E+03 -0.22830977283E+04  0.22960652623E+04  0.10100000352E+00 0. -1.
</event>
<event>
 5   0  0.8621738E-05  0.1100223E+04  0.7818609E-02  0.9204974E-01
        1   -1    0    0  501    0  0.00000000000E+00  0.00000000000E+00  0.90110784432E+03  0.90110784433E+03  0.50400001928E-02 0.  1.
       -1   -1    0    0    0  501  0.00000000000E+00  0.00000000000E+00 -0.33583431245E+03  0.33583431249E+03  0.50400001928E-02 0. -1.
    10030    2    1    2    0    0  0.00000000000E+00  0.00000000000E+00  0.56527353187E+03  0.12369421568E+04  0.11002234925E+04 0.  0.
        2    1    3    3  502    0  0.22445007574E+03 -0.31101076947E+03 -0.16072472417E+03  0.41585811545E+03  0.25500000920E-02 0.  1.
       -2    1    3    3    0  502 -0.22445007574E+03  0.31101076947E+03  0.72599825603E+03  0.82108404137E+03  0.25500000920E-02 0. -1.
</event>
<event>
 5   0  0.1464205E-04  0.1101620E+04  0.7818609E-02  0.9203615E-01
       -2   -1    0    0    0  501  0.00000000000E+00  0.00000000000E+00  0.13936881796E+03  0.13936881798E+03  0.25500000920E-02 0.  1.
        2   -1    0    0  501    0  0.00000000000E+00  0.00000000000E+00 -0.21768960935E+04  0.21768960935E+04  0.25500000920E-02 0. -1.
    10030    2    1    2    0    0  0.00000000000E+00  0.00000000000E+00 -0.20375272756E+04  0.23162649115E+04  0.11016195993E+04 0.  0.
        3    1    3    3  502    0 -0.50902084287E+03  0.80769839919E+02 -0.14273687979E+04  0.15175663679E+04  0.10100000352E+00 0. -1.
       -3    1    3    3    0  502  0.50902084287E+03 -0.80769839919E+02 -0.61015847771E+03  0.79869854365E+03  0.10100000352E+00 0.  1.
</event>
<event>
 5   0  0.8921459E-05  0.1100223E+04  0.7818609E-02  0.9204975E-01
        1   -1    0    0  501    0  0.00000000000E+00  0.00000000000E+00  0.32744903639E+03  0.32744903643E+03  0.50400001928E-02 0. -1.
       -1   -1    0    0    0  501  0.00000000000E+00  0.00000000000E+00 -0.92418166953E+03  0.92418166955E+03  0.50400001928E-02 0.  1.
    10030    2    1    2    0    0  0.00000000000E+00  0.00000000000E+00 -0.59673263315E+03  0.12516307060E+04  0.11002225178E+04 0.  0.
        3    1    3    3  502    0  0.54116554525E+03  0.94612054076E+02 -0.26597323722E+03  0.61037149447E+03  0.10100000352E+00 0.  1.
       -3    1    3    3    0  502 -0.54116554525E+03 -0.94612054076E+02 -0.33075939593E+03  0.64125921150E+03  0.10100000352E+00 0. -1.
</event>
<event>
 5   0  0.8921459E-05  0.1099751E+04  0.7818609E-02  0.9205435E-01
        1   -1    0    0  501    0  0.00000000000E+00  0.00000000000E+00  0.14092599688E+04  0.14092599688E+04  0.50400001928E-02 0. -1.
       -1   -1    0    0    0  501  0.00000000000E+00  0.00000000000E+00 -0.21455436188E+03  0.21455436193E+03  0.50400001928E-02 0.  1.
    10030    2    1    2    0    0  0.00000000000E+00  0.00000000000E+00  0.11947056069E+04  0.16238143307E+04  0.10997506506E+04 0.  0.
        3    1    3    3  502    0 -0.49007466808E+03  0.12166665819E+03  0.91877163978E+03  0.10483879493E+04  0.10100000352E+00 0. -1.
       -3    1    3    3    0  502  0.49007466808E+03 -0.12166665819E+03  0.27593396713E+03  0.57542638141E+03  0.10100000352E+00 0.  1.
</event>
<event>
 5   0  0.8657442E-05  0.1098105E+04  0.7818609E-02  0.9207041E-01
        1   -1    0    0  501    0  0.00000000000E+00  0.00000000000E+00  0.19088716068E+04  0.19088716068E+04  0.50400001928E-02 0.  1.
       -1   -1    0    0    0  501  0.00000000000E+00  0.00000000000E+00 -0.15792503073E+03  0.15792503081E+03  0.50400001928E-02 0. -1.
    10030    2    1    2    0    0  0.00000000000E+00  0.00000000000E+00  0.17509465761E+04  0.20667966376E+04  0.10981049262E+04 0.  0.
        1    1    3    3  502    0 -0.51124416112E+03 -0.24548505934E+02  0.50147285990E+03  0.71655303409E+03  0.50400001928E-02 0.  1.
       -1    1    3    3    0  502  0.51124416112E+03  0.24548505934E+02  0.12494737162E+04  0.13502436035E+04  0.50400001928E-02 0. -1.
</event>
<event>
 5   0  0.1503277E-04  0.1100823E+04  0.7818609E-02  0.9204390E-01
       -2   -1    0    0    0  501  0.00000000000E+00  0.00000000000E+00  0.59346368883E+03  0.59346368884E+03  0.25500000920E-02 0.  1.
        2   -1    0    0  501    0  0.00000000000E+00  0.00000000000E+00 -0.51048256785E+03  0.51048256785E+03  0.25500000920E-02 0. -1.
    10030    2    1    2    0    0  0.00000000000E+00  0.00000000000E+00  0.82981120987E+02  0.11039462567E+04  0.11008230881E+04 0.  0.
        5    1    3    3  502    0 -0.23889203466E+03  0.32046511191E+03  0.42093355007E+03  0.58049499201E+03  0.46999998093E+01 0.  1.
       -5    1    3    3    0  502  0.23889203466E+03 -0.32046511191E+03 -0.33795242908E+03  0.52345126468E+03  0.46999998093E+01 0. -1.
</event>
<event>
 5   0  0.9016738E-05  0.1101237E+04  0.7818609E-02  0.9203987E-01
        1   -1    0    0  501    0  0.00000000000E+00  0.00000000000E+00  0.47108517544E+03  0.47108517547E+03  0.50400001928E-02 0. -1.
       -1   -1    0    0    0  501  0.00000000000E+00  0.00000000000E+00 -0.64357964057E+03  0.64357964059E+03  0.50400001928E-02 0.  1.
    10030    2    1    2    0    0  0.00000000000E+00  0.00000000000E+00 -0.17249446513E+03  0.11146648161E+04  0.11012371732E+04 0.  0.
        4    1    3    3  502    0  0.50698756968E+03 -0.20466253760E+03 -0.20213240809E+02  0.54711364278E+03  0.12699999809E+01 0. -1.
       -4    1    3    3    0  502 -0.50698756968E+03  0.20466253760E+03 -0.15228122432E+03  0.56755117328E+03  0.12699999809E+01 0.  1.
</event>
<event>
 5   0  0.8621738E-05  0.1099378E+04  0.7818609E-02  0.9205799E-01
       -1   -1    0    0    0  501  0.00000000000E+00  0.00000000000E+00  0.73316841176E+03  0.73316841177E+03  0.50400001928E-02 0.  1.
        1   -1    0    0  501    0  0.00000000000E+00  0.00000000000E+00 -0.41212614953E+03  0.41212614956E+03  0.50400001928E-02 0. -1.
    10030    2    1    2    0    0  0.00000000000E+00  0.00000000000E+00  0.32104226222E+03  0.11452945613E+04  0.10993777777E+04 0.  0.
        2    1    3    3  502    0  0.35928996587E+03 -0.50107448941E+02  0.59075647618E+03  0.69324833225E+03  0.25500000920E-02 0.  1.
       -2    1    3    3    0  502 -0.35928996587E+03  0.50107448941E+02 -0.26971421396E+03  0.45204622909E+03  0.25500000920E-02 0. -1.
</event>
<event>
 5   0  0.1464205E-04  0.1099059E+04  0.7818609E-02  0.9206110E-01
        2   -1    0    0  501    0  0.00000000000E+00  0.00000000000E+00  0.79779621597E+03  0.79779621598E+03  0.25500000920E-02 0. -1.
       -2   -1    0    0    0  501  0.00000000000E+00  0.00000000000E+00 -0.37852091894E+03  0.37852091895E+03  0.25500000920E-02 0.  1.
    10030    2    1    2    0    0  0.00000000000E+00  0.00000000000E+00  0.41927529703E+03  0.11763171349E+04  0.10990587915E+04 0.  0.
        3    1    3    3  502    0  0.44660290329E+02  0.60522470893E+02 -0.37298541341E+03  0.38049394192E+03  0.10100000352E+00 0.  1.
       -3    1    3    3    0  502 -0.44660290329E+02 -0.60522470893E+02  0.79226071045E+03  0.79582319301E+03  0.10100000352E+00 0. -1.
</event>
<event>
 5   0  0.1574101E-04  0.1100117E+04  0.7818609E-02  0.9205078E-01
        2   -1    0    0  501    0  0.00000000000E+00  0.00000000000E+00  0.10519586159E+04  0.10519586159E+04  0.25500000920E-02 0.  1.
       -2   -1    0    0    0  501  0.00000000000E+00  0.00000000000E+00 -0.28762011432E+03  0.28762011433E+03  0.25500000920E-02 0. -1.
    10030    2    1    2    0    0  0.00000000000E+00  0.00000000000E+00  0.76433850158E+03  0.13395787302E+04  0.11001171890E+04 0.  0.
        4    1    3    3  502    0  0.20842482991E+03  0.29446922033E+03  0.88777299709E+03  0.95827738088E+03  0.12699999809E+01 0.  1.
       -4    1    3    3    0  502 -0.20842482991E+03 -0.29446922033E+03 -0.12343449551E+03  0.38130134936E+03  0.12699999809E+01 0. -1.
</event>
<event>
 5   0  0.1574101E-04  0.1095951E+04  0.7818609E-02  0.9209148E-01
        2   -1    0    0  501    0  0.00000000000E+00  0.00000000000E+00  0.13357791171E+04  0.13357791171E+04  0.25500000920E-02 0.  1.
       -2   -1    0    0    0  501  0.00000000000E+00  0.00000000000E+00 -0.22479539406E+03  0.22479539408E+03  0.25500000920E-02 0. -1.
    10030    2    1    2    0    0  0.00000000000E+00  0.00000000000E+00  0.11109837230E+04  0.15605745112E+04  0.10959507161E+04 0.  0.
        4    1    3    3  502    0 -0.23322555640E+03 -0.10693994153E+03 -0.13397601401E+03  0.28945033509E+03  0.12699999809E+01 0. -1.
       -4    1    3    3    0  502  0.23322555640E+03  0.10693994153E+03  0.12449597371E+04  0.12711241761E+04  0.12699999809E+01 0.  1.
</event>
<event>
 5   0  0.9346836E-05  0.1099873E+04  0.7818609E-02  0.9205316E-01
        1   -1    0    0  501    0  0.00000000000E+00  0.00000000000E+00  0.17023341126E+04  0.17023341126E+04  0.50400001928E-02 0. -1.
       -1   -1    0    0    0  501  0.00000000000E+00  0.00000000000E+00 -0.17765619594E+03  0.17765619601E+03  0.50400001928E-02 0.  1.
    10030    2    1    2    0    0  0.00000000000E+00  0.00000000000E+00  0.15246779166E+04  0.18799903086E+04  0.10998730885E+04 0.  0.
        5    1    3    3  502    0 -0.54759907451E+03  0.50392997899E+02  0.75895817590E+03  0.93725332936E+03  0.46999998093E+01 0. -1.
       -5    1    3    3    0  502  0.54759907451E+03 -0.50392997899E+02  0.76571974074E+03  0.94273697922E+03  0.46999998093E+01 0.  1.
</event>
<event>
 5   0  0.8921459E-05  0.1100064E+04  0.7818609E-02  0.9205130E-01
       -1   -1    0    0    0  501  0.00000000000E+00  0.00000000000E+00  0.30174782236E+03  0.30174782241E+03  0.50400001928E-02 0. -1.
        1   -1    0    0  501    0  0.00000000000E+00  0.00000000000E+00 -0.10026092400E+04  0.10026092400E+04  0.50400001928E-02 0.  1.
    10030    2    1    2    0    0  0.00000000000E+00  0.00000000000E+00 -0.70086141759E+03  0.13043570624E+04  0.11000639161E+04 0.  0.
        3    1    3    3  502    0  0.17132996159E+02  0.54586969768E+03 -0.42789197402E+03  0.69380027244E+03  0.10100000352E+00 0. -1.
       -3    1    3    3    0  502 -0.17132996159E+02 -0.54586969768E+03 -0.27296944357E+03  0.61055678993E+03  0.10100000352E+00 0.  1.
</event>
<event>
 5   0  0.1574101E-04  0.1100105E+04  0.7818609E-02  0.9205090E-01
       -2   -1    0    0    0  501  0.00000000000E+00  0.00000000000E+00  0.47094057270E+03  0.47094057271E+03  0.25500000920E-02 0.  1.
        2   -1    0    0  501    0  0.00000000000E+00  0.00000000000E+00 -0.64245415433E+03  0.64245415434E+03  0.25500000920E-02 0. -1.
    10030    2    1    2    0    0  0.00000000000E+00  0.00000000000E+00 -0.17151358163E+03  0.11133947270E+04  0.11001049539E+04 0.  0.
        4    1    3    3  502    0 -0.91926224418E+02 -0.18981716590E+03 -0.59990474839E+03  0.63589960470E+03  0.12699999809E+01 0. -1.
       -4    1    3    3    0  502  0.91926224418E+02  0.18981716590E+03  0.42839116676E+03  0.47749512235E+03  0.12699999809E+01 0.  1.
</event>
<event>
 5   0  0.6010125E-05  0.1100332E+04  0.7818609E-02  0.9204868E-01
       -3   -1    0    0    0  501  0.00000000000E+00  0.00000000000E+00  0.13638461726E+04  0.13638461763E+04  0.10100000352E+00 0. -1.
        3   -1    0    0  501    0  0.00000000000E+00  0.00000000000E+00 -0.22193326833E+03  0.22193329131E+03  0.10100000352E+00 0.  1.
    10030    2    1    2    0    0  0.00000000000E+00  0.00000000000E+00  0.11419129043E+04  0.15857794676E+04  0.11003324221E+04 0.  0.
        5    1    3    3  502    0 -0.27331373498E+03  0.13418742794E+03 -0.89404016235E+02  0.31736702989E+03  0.46999998093E+01 0.  1.
       -5    1    3    3    0  502  0.27331373498E+03 -0.13418742794E+03  0.12313169205E+04  0.12684124377E+04  0.46999998093E+01 0. -1.
</event>
<event>
 5   0  0.1503277E-04  0.1099542E+04  0.7818609E-02  0.9205638E-01
        2   -1    0    0  501    0  0.00000000000E+00  0.00000000000E+00  0.22338931717E+04  0.22338931717E+04  0.25500000920E-02 0. -1.
       -2   -1    0    0    0  501  0.00000000000E+00  0.00000000000E+00 -0.13530119208E+03  0.13530119211E+03  0.25500000920E-02 0.  1.
    10030    2    1    2    0    0  0.00000000000E+00  0.00000000000E+00  0.20985919796E+04  0.23691943638E+04  0.10995424669E+04 0.  0.
        5    1    3    3  502    0 -0.95233399110E+02 -0.49724316805E+03  0.58763399669E+03  0.77566485839E+03  0.46999998093E+01 0.  1.
       -5    1    3    3    0  502  0.95233399110E+02  0.49724316805E+03  0.15109579829E+04  0.15935295054E+04  0.46999998093E+01 0. -1.
</event>
<event>
 5   0  0.9346836E-05  0.1100193E+04  0.7818609E-02  0.9205004E-01
       -1   -1    0    0    0  501  0.00000000000E+00  0.00000000000E+00  0.34325362701E+03  0.34325362705E+03  0.50400001928E-02 0.  1.
        1   -1    0    0  501    0  0.00000000000E+00  0.00000000000E+00 -0.88158132781E+03  0.88158132783E+03  0.50400001928E-02 0. -1.
    10030    2    1    2    0    0  0.00000000000E+00  0.00000000000E+00 -0.53832770080E+03  0.12248349549E+04  0.11001926891E+04 0.  0.
        5    1    3    3  502    0  0.12356636444E+03 -0.11091357655E+03 -0.85299299213E+03  0.86901645698E+03  0.46999998093E+01 0. -1.
       -5    1    3    3    0  502 -0.12356636444E+03  0.11091357655E+03  0.31466529133E+03  0.35581849790E+03  0.46999998093E+01 0.  1.
</event>
<event>
 5   0  0.8657442E-05  0.1096907E+04  0.7818609E-02  0.9208212E-01
       -1   -1    0    0    0  501  0.00000000000E+00  0.00000000000E+00  0.26760001096E+03  0.26760001101E+03  0.50400001928E-02 0. -1.
        1   -1    0    0  501    0  0.00000000000E+00  0.00000000000E+00 -0.11240706960E+04  0.11240706960E+04  0.50400001928E-02 0.  1.
    10030    2    1    2    0    0  0.00000000000E+00  0.00000000000E+00 -0.85647068501E+03  0.13916707070E+04  0.10969071622E+04 0.  0.
        1    1    3    3  502    0 -0.35270691309E+02  0.54484280688E+03 -0.49420432981E+03  0.73643440000E+03  0.50400001928E-02 0. -1.
       -1    1    3    3    0  502  0.35270691309E+02 -0.54484280688E+03 -0.36226635520E+03  0.65523630700E+03  0.50400001928E-02 0.  1.
</event>
<event>
 5   0  0.1540772E-04  0.1100158E+04  0.7818609E-02  0.9205038E-01
        2   -1    0    0  501    0  0.00000000000E+00  0.00000000000E+00  0.48162540651E+03  0.48162540651E+03  0.25500000920E-02 0.  1.
       -2   -1    0    0    0  501  0.00000000000E+00  0.00000000000E+00 -0.62826164874E+03  0.62826164875E+03  0.25500000920E-02 0. -1.
    10030    2    1    2    0    0  0.00000000000E+00  0.00000000000E+00 -0.14663624224E+03  0.11098870553E+04  0.11001577559E+04 0.  0.
        2    1    3    3  502    0  0.16351862406E+03 -0.60248658577E+02 -0.59967786165E+03  0.62448521122E+03  0.25500000920E-02 0. -1.
       -2    1    3    3    0  502 -0.16351862406E+03  0.60248658577E+02  0.45304161941E+03  0.48540184404E+03  0.25500000920E-02 0.  1.
</event>
<event>
 5   0  0.1503277E-04  0.1100146E+04  0.7818609E-02  0.9205050E-01
       -2   -1    0    0    0  501  0.00000000000E+00  0.00000000000E+00  0.36528135042E+03  0.36528135043E+03  0.25500000920E-02 0.  1.
        2   -1    0    0  501    0  0.00000000000E+00  0.00000000000E+00 -0.82834872942E+03  0.82834872942E+03  0.25500000920E-02 0. -1.
    10030    2    1    2    0    0  0.00000000000E+00  0.00000000000E+00 -0.46306737900E+03  0.11936300798E+04  0.11001460676E+04 0.  0.
        5    1    3    3  502    0  0.77984167053E+02 -0.34982837159E+03 -0.68423821802E+03  0.77244122682E+03  0.46999998093E+01 0. -1.
       -5    1    3    3    0  502 -0.77984167053E+02  0.34982837159E+03  0.22117083903E+03  0.42118885303E+03  0.46999998093E+01 0.  1.
</event>
<event>
 5   0  0.1553937E-04  0.1102289E+04  0.7818609E-02  0.9202964E-01
        2   -1    0    0  501    0  0.00000000000E+00  0.00000000000E+00  0.23004072887E+04  0.23004072887E+04  0.25500000920E-02 0. -1.
       -2   -1    0    0    0  501  0.00000000000E+00  0.00000000000E+00 -0.13204633196E+03  0.13204633198E+03  0.25500000920E-02 0.  1.
    10030    2    1    2    0    0  0.00000000000E+00  0.00000000000E+00  0.21683609568E+04  0.24324536207E+04  0.11022891536E+04 0.  0.
        1    1    3    3  502    0 -0.39817759433E+03  0.21685327818E+03  0.39269703217E+03  0.59981805573E+03  0.50400001928E-02 0.  1.
       -1    1    3    3    0  502  0.39817759433E+03 -0.21685327818E+03  0.17756639246E+04  0.18326355650E+04  0.50400001928E-02 0. -1.
</event>
<event>
 5   0  0.1574101E-04  0.1097898E+04  0.7818609E-02  0.9207243E-01
       -2   -1    0    0    0  501  0.00000000000E+00  0.00000000000E+00  0.37259158672E+03  0.37259158673E+03  0.25500000920E-02 0. -1.
        2   -1    0    0  501    0  0.00000000000E+00  0.00000000000E+00 -0.80878049429E+03  0.80878049430E+03  0.25500000920E-02 0.  1.
    10030    2    1    2    0    0  0.00000000000E+00  0.00000000000E+00 -0.43618890758E+03  0.11813720810E+04  0.10978976413E+04 0.  0.
        4    1    3    3  502    0  0.54430882764E+03 -0.65815973836E+02 -0.24735285768E+03  0.60148889546E+03  0.12699999809E+01 0.  1.
       -4    1    3    3    0  502 -0.54430882764E+03  0.65815973836E+02 -0.18883604989E+03  0.57988318556E+03  0.12699999809E+01 0. -1.
</event>
<event>
 5   0  0.1503277E-04  0.1099695E+04  0.7818609E-02  0.9205489E-01
        2   -1    0    0  501    0  0.00000000000E+00  0.00000000000E+00  0.14330991221E+04  0.14330991221E+04  0.25500000920E-02 0. -1.
       -2   -1    0    0    0  501  0.00000000000E+00  0.00000000000E+00 -0.21096393904E+03  0.21096393906E+03  0.25500000920E-02 0.  1.
    10030    2    1    2    0    0  0.00000000000E+00  0.00000000000E+00  0.12221351831E+04  0.16440630612E+04  0.10996949320E+04 0.  0.
        5    1    3    3  502    0  0.11523203442E+03 -0.65513800950E+02  0.14088238754E+04  0.14150538087E+04  0.46999998093E+01 0. -1.
       -5    1    3    3    0  502 -0.11523203442E+03  0.65513800950E+02 -0.18668869229E+03  0.22900925243E+03  0.46999998093E+01 0.  1.
</event>
<event>
 5   0  0.1464205E-04  0.1100345E+04  0.7818609E-02  0.9204856E-01
       -2   -1    0    0    0  501  0.00000000000E+00  0.00000000000E+00  0.30199360324E+03  0.30199360325E+03  0.25500000920E-02 0. -1.
        2   -1    0    0  501    0  0.00000000000E+00  0.00000000000E+00 -0.10023047494E+04  0.10023047494E+04  0.25500000920E-02 0.  1.
    10030    2    1    2    0    0  0.00000000000E+00  0.00000000000E+00 -0.70031114617E+03  0.13042983527E+04  0.11003447148E+04 0.  0.
        3    1    3    3  502    0 -0.50033233442E+03 -0.19308487621E+03 -0.20461550216E+03  0.57400498971E+03  0.10100000352E+00 0.  1.
       -3    1    3    3    0  502  0.50033233442E+03  0.19308487621E+03 -0.49569564401E+03  0.73029336295E+03  0.10100000352E+00 0. -1.
</event>
<event>
 5   0  0.8621738E-05  0.1100193E+04  0.7818609E-02  0.9205004E-01
        1   -1    0    0  501    0  0.00000000000E+00  0.00000000000E+00  0.86928035121E+03  0.86928035123E+03  0.50400001928E-02 0.  1.
       -1   -1    0    0    0  501  0.00000000000E+00  0.00000000000E+00 -0.34811107062E+03  0.34811107066E+03  0.50400001928E-02 0. -1.
    10030    2    1    2    0    0  0.00000000000E+00  0.00000000000E+00  0.52116928059E+03  0.12173914219E+04  0.11001929172E+04 0.  0.
        2    1    3    3  502    0 -0.21866023837E+03 -0.47984576311E+03  0.43393115247E+03  0.68290592421E+03  0.25500000920E-02 0.  1.
       -2    1    3    3    0  502  0.21866023837E+03  0.47984576311E+03  0.87238128119E+02  0.53448549768E+03  0.25500000920E-02 0. -1.
</event>
<event>
 5   0  0.1503277E-04  0.1100498E+04  0.7818609E-02  0.9204706E-01
       -2   -1    0    0    0  501  0.00000000000E+00  0.00000000000E+00  0.34388714397E+03  0.34388714398E+03  0.25500000920E-02 0.  1.
        2   -1    0    0  501    0  0.00000000000E+00  0.00000000000E+00 -0.88044602806E+03  0.88044602806E+03  0.25500000920E-02 0. -1.
    10030    2    1    2    0    0  0.00000000000E+00  0.00000000000E+00 -0.53655888409E+03  0.12243331720E+04  0.11004981963E+04 0.  0.
        5    1    3    3  502    0  0.51026976389E+03  0.19569153885E+03 -0.33935559119E+03  0.64331541066E+03  0.46999998093E+01 0. -1.
       -5    1    3    3    0  502 -0.51026976389E+03 -0.19569153885E+03 -0.19720329289E+03  0.58101776138E+03  0.46999998093E+01 0.  1.
</event>
<event>
 5   0  0.9346836E-05  0.1099698E+04  0.7818609E-02  0.9205486E-01
        1   -1    0    0  501    0  0.00000000000E+00  0.00000000000E+00  0.10141225053E+04  0.10141225054E+04  0.50400001928E-02 0.  1.
       -1   -1    0    0    0  501  0.00000000000E+00  0.00000000000E+00 -0.29812367773E+03  0.29812367778E+03  0.50400001928E-02 0. -1.
    10030    2    1    2    0    0  0.00000000000E+00  0.00000000000E+00  0.71599882761E+03  0.13122461831E+04  0.10996980149E+04 0.  0.
        5    1    3    3  502    0  0.99017852259E+02  0.14169419714E+03 -0.26483039593E+03  0.31628943893E+03  0.46999998093E+01 0. -1.
       -5    1    3    3    0  502 -0.99017852259E+02 -0.14169419714E+03  0.98082922354E+03  0.99595674420E+03  0.46999998093E+01 0.  1.
</event>
<event>
 5   0  0.8921459E-05  0.1100345E+04  0.7818609E-02  0.9204855E-01
        1   -1    0    0  501    0  0.00000000000E+00  0.00000000000E+00  0.72794778822E+03  0.72794778823E+03  0.50400001928E-02 0. -1.
       -1   -1    0    0    0  501  0.00000000000E+00  0.00000000000E+00 -0.41581281815E+03  0.41581281818E+03  0.50400001928E-02 0.  1.
    10030    2    1    2    0    0  0.00000000000E+00  0.00000000000E+00  0.31213497007E+03  0.11437606064E+04  0.11003454391E+04 0.  0.
        3    1    3    3  502    0 -0.42995454815E+03 -0.10082038041E+03 -0.18500135582E+03  0.47880181123E+03  0.10100000352E+00 0.  1.
       -3    1    3    3    0  502  0.42995454815E+03  0.10082038041E+03  0.49713632588E+03  0.66495879519E+03  0.10100000352E+00 0. -1.
</event>
<event>
 5   0  0.9346836E-05  0.1099587E+04  0.7818609E-02  0.9205594E-01
        1   -1    0    0  501    0  0.00000000000E+00  0.00000000000E+00  0.78099307619E+03  0.78099307621E+03  0.50400001928E-02 0. -1.
       -1   -1    0    0    0  501  0.00000000000E+00  0.00000000000E+00 -0.38703677957E+03  0.38703677960E+03  0.50400001928E-02 0.  1.
    10030    2    1    2    0    0  0.00000000000E+00  0.00000000000E+00  0.39395629662E+03  0.11680298558E+04  0.10995872773E+04 0.  0.
        5    1    3    3  502    0 -0.25016311604E+02  0.18434512398E+03 -0.35256447514E+03  0.39866369249E+03  0.46999998093E+01 0.  1.
       -5    1    3    3    0  502  0.25016311604E+02 -0.18434512398E+03  0.74652077177E+03  0.76936616332E+03  0.46999998093E+01 0. -1.
</event>
<event>
 5   0  0.9016738E-05  0.1099821E+04  0.7818609E-02  0.9205367E-01
       -1   -1    0    0    0  501  0.00000000000E+00  0.00000000000E+00  0.97105552859E+03  0.97105552860E+03  0.50400001928E-02 0.  1.
        1   -1    0    0  501    0  0.00000000000E+00  0.00000000000E+00 -0.31141506162E+03  0.31141506166E+03  0.50400001928E-02 0. -1.
    10030    2    1    2    0    0  0.00000000000E+00  0.00000000000E+00  0.65964046697E+03  0.12824705903E+04  0.10998205623E+04 0.  0.
        4    1    3    3  502    0 -0.16292153919E+03  0.51820449757E+03  0.23005200766E+03  0.58991937446E+03  0.12699999809E+01 0. -1.
       -4    1    3    3    0  502  0.16292153919E+03 -0.51820449757E+03  0.42958845931E+03  0.69255121580E+03  0.12699999809E+01 0.  1.
</event>
<event>
 5   0  0.1464205E-04  0.1099863E+04  0.7818609E-02  0.9205326E-01
        2   -1    0    0  501    0  0.00000000000E+00  0.00000000000E+00  0.82385856636E+03  0.82385856636E+03  0.25500000920E-02 0.  1.
       -2   -1    0    0    0  501  0.00000000000E+00  0.00000000000E+00 -0.36708297493E+03  0.36708297494E+03  0.25500000920E-02 0. -1.
    10030    2    1    2    0    0  0.00000000000E+00  0.00000000000E+00  0.45677559143E+03  0.11909415413E+04  0.10998626341E+04 0.  0.
        3    1    3    3  502    0  0.53619221812E+03 -0.80185993513E+02  0.32817415527E+03  0.63374298790E+03  0.10100000352E+00 0.  1.
       -3    1    3    3    0  502 -0.53619221812E+03  0.80185993513E+02  0.12860143616E+03  0.55719855339E+03  0.10100000352E+00 0. -1.
</event>
<event>
 5   0  0.1503277E-04  0.1100449E+04  0.7818609E-02  0.9204754E-01
        2   -1    0    0  501    0  0.00000000000E+00  0.00000000000E+00  0.12153248529E+04  0.12153248529E+04  0.25500000920E-02 0.  1.
       -2   -1    0    0    0  501  0.00000000000E+00  0.00000000000E+00 -0.24910799325E+03  0.24910799326E+03  0.25500000920E-02 0. -1.
    10030    2    1    2    0    0  0.00000000000E+00  0.00000000000E+00  0.96621685967E+03  0.14644328462E+04  0.11004492451E+04 0.  0.
        5    1    3    3  502    0  0.29133267391E+03 -0.38872179036E+03  0.13930432969E+03  0.50537821823E+03  0.46999998093E+01 0. -1.
       -5    1    3    3    0  502 -0.29133267391E+03  0.38872179036E+03  0.82691252997E+03  0.95905462796E+03  0.46999998093E+01 0.  1.
</event>
<event>
 5   0  0.9016738E-05  0.1102672E+04  0.7818609E-02  0.9202592E-01
        1   -1    0    0  501    0  0.00000000000E+00  0.00000000000E+00  0.14915375630E+04  0.14915375630E+04  0.50400001928E-02 0.  1.
       -1   -1    0    0    0  501  0.00000000000E+00  0.00000000000E+00 -0.20379723218E+03  0.20379723224E+03  0.50400001928E-02 0. -1.
    10030    2    1    2    0    0  0.00000000000E+00  0.00000000000E+00  0.12877403308E+04  0.16953347952E+04  0.11026717138E+04 0.  0.
        4    1    3    3  502    0  0.38992312717E+03 -0.37429337872E+03  0.47661648632E+03  0.72062505257E+03  0.12699999809E+01 0. -1.
       -4    1    3    3    0  502 -0.38992312717E+03  0.37429337872E+03  0.81112384449E+03  0.97470974267E+03  0.12699999809E+01 0.  1.
</event>
<event>
 5   0  0.1540772E-04  0.1099856E+04  0.7818609E-02  0.9205332E-01
        2   -1    0    0  501    0  0.00000000000E+00  0.00000000000E+00  0.26958938685E+03  0.26958938686E+03  0.25500000920E-02 0.  1.
       -2   -1    0    0    0  501  0.00000000000E+00  0.00000000000E+00 -0.11217840048E+04  0.11217840048E+04  0.25500000920E-02 0. -1.
    10030    2    1    2    0    0  0.00000000000E+00  0.00000000000E+00 -0.85219461793E+03  0.13913733916E+04  0.10998564671E+04 0.  0.
        2    1    3    3  502    0  0.63720538760E+02 -0.12492548097E+03  0.24658863167E+03  0.28367699260E+03  0.25500000920E-02 0.  1.
       -2    1    3    3    0  502 -0.63720538760E+02  0.12492548097E+03 -0.10987832496E+04  0.11076963990E+04  0.25500000920E-02 0. -1.
</event>
<event>
 5   0  0.1540772E-04  0.1100218E+04  0.7818609E-02  0.9204979E-01
       -2   -1    0    0    0  501  0.00000000000E+00  0.00000000000E+00  0.19076172319E+03  0.19076172320E+03  0.25500000920E-02 0. -1.
        2   -1    0    0  501    0  0.00000000000E+00  0.00000000000E+00 -0.15863779252E+04  0.15863779252E+04  0.25500000920E-02 0.  1.
    10030    2    1    2    0    0  0.00000000000E+00  0.00000000000E+00 -0.13956162020E+04  0.17771396484E+04  0.11002184995E+04 0.  0.
        2    1    3    3  502    0 -0.52961879232E+03  0.14826613468E+03 -0.67860926399E+03  0.87349267029E+03  0.25500000920E-02 0. -1.
       -2    1    3    3    0  502  0.52961879232E+03 -0.14826613468E+03 -0.71700693801E+03  0.90364697810E+03  0.25500000920E-02 0.  1.
</event>
<event>
 5   0  0.9016738E-05  0.1102964E+04  0.7818609E-02  0.9202308E-01
       -1   -1    0    0    0  501  0.00000000000E+00  0.00000000000E+00  0.37766235148E+03  0.37766235151E+03  0.50400001928E-02 0.  1.
        1   -1    0    0  501    0  0.00000000000E+00  0.00000000000E+00 -0.80530273834E+03  0.80530273836E+03  0.50400001928E-02 0. -1.
    10030    2    1    2    0    0  0.00000000000E+00  0.00000000000E+00 -0.42764038687E+03  0.11829650899E+04  0.11029642349E+04 0.  0.
        4    1    3    3  502    0  0.79711147539E+01  0.33279521662E+03 -0.68538670788E+03  0.76195324470E+03  0.12699999809E+01 0. -1.
       -4    1    3    3    0  502 -0.79711147539E+01 -0.33279521662E+03  0.25774632101E+03  0.42101184517E+03  0.12699999809E+01 0.  1.
</event>
<event>
 5   0  0.1503277E-04  0.1100190E+04  0.7818609E-02  0.9205006E-01
        2   -1    0    0  501    0  0.00000000000E+00  0.00000000000E+00  0.81056267117E+03  0.81056267117E+03  0.25500000920E-02 0. -1.
       -2   -1    0    0    0  501  0.00000000000E+00  0.00000000000E+00 -0.37332672933E+03  0.37332672934E+03  0.25500000920E-02 0.  1.
    10030    2    1    2    0    0  0.00000000000E+00  0.00000000000E+00  0.43723594184E+03  0.11838894005E+04  0.11001903671E+04 0.  0.
        5    1    3    3  502    0 -0.53575169832E+03  0.56557390913E+02  0.33822235442E+03  0.63611718398E+03  0.46999998093E+01 0. -1.
       -5    1    3    3    0  502  0.53575169832E+03 -0.56557390913E+02  0.99013587415E+02  0.54777221654E+03  0.46999998093E+01 0.  1.
</event>
<event>
 5   0  0.8921459E-05  0.1100520E+04  0.7818609E-02  0.9204685E-01
       -1   -1    0    0    0  501  0.00000000000E+00  0.00000000000E+00  0.65157605830E+03  0.65157605832E+03  0.50400001928E-02 0.  1.
        1   -1    0    0  501    0  0.00000000000E+00  0.00000000000E+00 -0.46469818127E+03  0.46469818130E+03  0.50400001928E-02 0. -1.
    10030    2    1    2    0    0  0.00000000000E+00  0.00000000000E+00  0.18687787703E+03  0.11162742396E+04  0.11005202575E+04 0.  0.
        3    1    3    3  502    0 -0.37914510280E+03 -0.32605164794E+03 -0.13946845134E+03  0.51914559155E+03  0.10100000352E+00 0.  1.
       -3    1    3    3    0  502  0.37914510280E+03  0.32605164794E+03  0.32634632837E+03  0.59712864807E+03  0.10100000352E+00 0. -1.
</event>
<event>
 5   0  0.1574101E-04  0.1099128E+04  0.7818609E-02  0.9206043E-01
       -2   -1    0    0    0  501  0.00000000000E+00  0.00000000000E+00  0.76080495398E+03  0.76080495398E+03  0.25500000920E-02 0. -1.
        2   -1    0    0  501    0  0.00000000000E+00  0.00000000000E+00 -0.39697480060E+03  0.39697480061E+03  0.25500000920E-02 0.  1.
    10030    2    1    2    0    0  0.00000000000E+00  0.00000000000E+00  0.36383015337E+03  0.11577797546E+04  0.10991276448E+04 0.  0.
        4    1    3    3  502    0 -0.19029622286E+02 -0.31713949949E+03  0.65426232208E+03  0.72732412833E+03  0.12699999809E+01 0. -1.
       -4    1    3    3    0  502  0.19029622286E+02  0.31713949949E+03 -0.29043216871E+03  0.43045562626E+03  0.12699999809E+01 0.  1.
</event>
<event>
 5   0  0.6010125E-05  0.1099770E+04  0.7818609E-02  0.9205416E-01
        3   -1    0    0  501    0  0.00000000000E+00  0.00000000000E+00  0.40076568510E+03  0.40076569783E+03  0.10100000352E+00 0.  1.
       -3   -1    0    0    0  501  0.00000000000E+00  0.00000000000E+00 -0.75448962163E+03  0.75448962839E+03  0.10100000352E+00 0. -1.
    10030    2    1    2    0    0  0.00000000000E+00  0.00000000000E+00 -0.35372393653E+03  0.11552553262E+04  0.10997700876E+04 0.  0.
        2    1    3    3  502    0 -0.35933399270E+03 -0.26408746345E+02 -0.61321714097E+03  0.71123385900E+03  0.25500000920E-02 0. -1.
       -2    1    3    3    0  502  0.35933399270E+03  0.26408746345E+02  0.25949320445E+03  0.44402146722E+03  0.25500000920E-02 0.  1.
</event>
<event>
 5   0  0.1503277E-04  0.1099364E+04  0.7818609E-02  0.9205812E-01
       -2   -1    0    0    0  501  0.00000000000E+00  0.00000000000E+00  0.70260794749E+03  0.70260794749E+03  0.25500000920E-02 0. -1.
        2   -1    0    0  501    0  0.00000000000E+00  0.00000000000E+00 -0.43004093193E+03  0.43004093193E+03  0.25500000920E-02 0.  1.
    10030    2    1    2    0    0  0.00000000000E+00  0.00000000000E+00  0.27256701556E+03  0.11326488794E+04  0.10993637733E+04 0.  0.
        5    1    3    3  502    0 -0.91720561065E+02  0.22828127376E+03 -0.37012980702E+03  0.44445828299E+03  0.46999998093E+01 0.  1.
       -5    1    3    3    0  502  0.91720561065E+02 -0.22828127376E+03  0.64269682258E+03  0.68819059644E+03  0.46999998093E+01 0. -1.
</event>
<event>
 5   0  0.8657442E-05  0.1100260E+04  0.7818609E-02  0.9204939E-01
       -1   -1    0    0    0  501  0.00000000000E+00  0.00000000000E+00  0.10128324051E+04  0.10128324051E+04  0.50400001928E-02 0.  1.
        1   -1    0    0  501    0  0.00000000000E+00  0.00000000000E+00 -0.29880848696E+03  0.29880848701E+03  0.50400001928E-02 0. -1.
    10030    2    1    2    0    0  0.00000000000E+00  0.00000000000E+00  0.71402391816E+03  0.13116408921E+04  0.11002598212E+04 0.  0.
        1    1    3    3  502    0 -0.67040487744E+02 -0.18274117620E+03 -0.25638424705E+03  0.32190316344E+03  0.50400001928E-02 0. -1.
       -1    1    3    3    0  502  0.67040487744E+02  0.18274117620E+03  0.97040816521E+03  0.98973772869E+03  0.50400001928E-02 0.  1.
</event>
<event>
 5   0  0.8657442E-05  0.1100977E+04  0.7818609E-02  0.9204240E-01
        1   -1    0    0  501    0  0.00000000000E+00  0.00000000000E+00  0.22767885866E+04  0.22767885866E+04  0.50400001928E-02 0.  1.
       -1   -1    0    0    0  501  0.00000000000E+00  0.00000000000E+00 -0.13309880374E+03  0.13309880384E+03  0.50400001928E-02 0. -1.
    10030    2    1    2    0    0  0.00000000000E+00  0.00000000000E+00  0.21436897829E+04  0.24098873904E+04  0.11009774518E+04 0.  0.
        1    1    3    3  502    0 -0.33053572491E+03  0.17970889155E+03  0.19223647688E+03  0.42249735409E+03  0.50400001928E-02 0. -1.
       -1    1    3    3    0  502  0.33053572491E+03 -0.17970889155E+03  0.19514533060E+04  0.19873900364E+04  0.50400001928E-02 0.  1.
</event>
<event>
 5   0  0.8921459E-05  0.1100194E+04  0.7818609E-02  0.9205003E-01
        1   -1    0    0  501    0  0.00000000000E+00  0.00000000000E+00  0.14987804398E+04  0.14987804398E+04  0.50400001928E-02 0.  1.
       -1   -1    0    0    0  501  0.00000000000E+00  0.00000000000E+00 -0.20190181705E+03  0.20190181711E+03  0.50400001928E-02 0. -1.
    10030    2    1    2    0    0  0.00000000000E+00  0.00000000000E+00  0.12968786228E+04  0.17006822570E+04  0.11001936088E+04 0.  0.
        3    1    3    3  502    0  0.15482226180E+03 -0.34550583451E+03  0.31545358267E+02  0.37992016827E+03  0.10100000352E+00 0. -1.
       -3    1    3    3    0  502 -0.15482226180E+03  0.34550583451E+03  0.12653332645E+04  0.13207620887E+04  0.10100000352E+00 0.  1.
</event>
<event>
 5   0  0.1574101E-04  0.1100176E+04  0.7818609E-02  0.9205020E-01
       -2   -1    0    0    0  501  0.00000000000E+00  0.00000000000E+00  0.15601055599E+03  0.15601055601E+03  0.25500000920E-02 0. -1.
        2   -1    0    0  501    0  0.00000000000E+00  0.00000000000E+00 -0.19395922397E+04  0.19395922397E+04  0.25500000920E-02 0.  1.
    10030    2    1    2    0    0  0.00000000000E+00  0.00000000000E+00 -0.17835816837E+04  0.20956027957E+04  0.11001761018E+04 0.  0.
        4    1    3    3  502    0 -0.36776508717E+03  0.57876313992E+02 -0.12042340214E+03  0.39128536357E+03  0.12699999809E+01 0. -1.
       -4    1    3    3    0  502  0.36776508717E+03 -0.57876313992E+02 -0.16631582816E+04  0.17043174322E+04  0.12699999809E+01 0.  1.
</event>
<event>
 5   0  0.1553937E-04  0.1098972E+04  0.7818609E-02  0.9206195E-01
        2   -1    0    0  501    0  0.00000000000E+00  0.00000000000E+00  0.82260246388E+03  0.82260246388E+03  0.25500000920E-02 0.  1.
       -2   -1    0    0    0  501  0.00000000000E+00  0.00000000000E+00 -0.36704824323E+03  0.36704824324E+03  0.25500000920E-02 0. -1.
    10030    2    1    2    0    0  0.00000000000E+00  0.00000000000E+00  0.45555422065E+03  0.11896507071E+04  0.10989718636E+04 0.  0.
        1    1    3    3  502    0 -0.15064633230E+03 -0.31237854526E+03  0.68916127770E+03  0.77150368740E+03  0.50400001928E-02 0.  1.
       -1    1    3    3    0  502  0.15064633230E+03  0.31237854526E+03 -0.23360705705E+03  0.41814701972E+03  0.50400001928E-02 0. -1.
</event>
<event>
 5   0  0.1503277E-04  0.1100375E+04  0.7818609E-02  0.9204827E-01
       -2   -1    0    0    0  501  0.00000000000E+00  0.00000000000E+00  0.18967020677E+03  0.18967020679E+03  0.25500000920E-02 0. -1.
        2   -1    0    0  501    0  0.00000000000E+00  0.00000000000E+00 -0.15959608566E+04  0.15959608566E+04  0.25500000920E-02 0.  1.
    10030    2    1    2    0    0  0.00000000000E+00  0.00000000000E+00 -0.14062906498E+04  0.17856310634E+04  0.11003748919E+04 0.  0.
        5    1    3    3  502    0 -0.45084032929E+03 -0.31515796021E+03 -0.68670878065E+03  0.87987077564E+03  0.46999998093E+01 0.  1.
       -5    1    3    3    0  502  0.45084032929E+03  0.31515796021E+03 -0.71958186914E+03  0.90576028771E+03  0.46999998093E+01 0. -1.
</event>
<event>
 5   0  0.8621738E-05  0.1100043E+04  0.7818609E-02  0.9205150E-01
       -1   -1    0    0    0  501  0.00000000000E+00  0.00000000000E+00  0.12363182329E+03  0.12363182339E+03  0.50400001928E-02 0. -1.
        1   -1    0    0  501    0  0.00000000000E+00  0.00000000000E+00 -0.24469723920E+04  0.24469723921E+04  0.50400001928E-02 0.  1.
    10030    2    1    2    0    0  0.00000000000E+00  0.00000000000E+00 -0.23233405688E+04  0.25706042154E+04  0.11000430146E+04 0.  0.
        2    1    3    3  502    0 -0.32332452660E+03  0.36964580508E+03 -0.17404613458E+04  0.18084198812E+04  0.25500000920E-02 0.  1.
       -2    1    3    3    0  502  0.32332452660E+03 -0.36964580508E+03 -0.58287922300E+03  0.76218433422E+03  0.25500000920E-02 0. -1.
</event>
<event>
 5   0  0.6010125E-05  0.1100928E+04  0.7818609E-02  0.9204288E-01
        3   -1    0    0  501    0  0.00000000000E+00  0.00000000000E+00  0.47606497923E+03  0.47606498994E+03  0.10100000352E+00 0. -1.
       -3   -1    0    0    0  501  0.00000000000E+00  0.00000000000E+00 -0.63649026707E+03  0.63649027508E+03  0.10100000352E+00 0.  1.
    10030    2    1    2    0    0  0.00000000000E+00  0.00000000000E+00 -0.16042528784E+03  0.11125552650E+04  0.11009282196E+04 0.  0.
        5    1    3    3  502    0  0.29216270253E+03  0.20177011016E+02 -0.55120621900E+03  0.62419271253E+03  0.46999998093E+01 0.  1.
       -5    1    3    3    0  502 -0.29216270253E+03 -0.20177011016E+02  0.39078093116E+03  0.48836255249E+03  0.46999998093E+01 0. -1.
</event>
<event>
 5   0  0.9346836E-05  0.1099720E+04  0.7818609E-02  0.9205465E-01
       -1   -1    0    0    0  501  0.00000000000E+00  0.00000000000E+00  0.27704558401E+03  0.27704558405E+03  0.50400001928E-02 0.  1.
        1   -1    0    0  501    0  0.00000000000E+00  0.00000000000E+00 -0.10913213448E+04  0.10913213448E+04  0.50400001928E-02 0. -1.
    10030    2    1    2    0    0  0.00000000000E+00  0.00000000000E+00 -0.81427576079E+03  0.13683669289E+04  0.10997195267E+04 0.  0.
        5    1    3    3  502    0  0.35620908822E+03 -0.13956085747E+03 -0.89853133255E+03  0.97659755941E+03  0.46999998093E+01 0. -1.
       -5    1    3    3    0  502 -0.35620908822E+03  0.13956085747E+03  0.84255571764E+02  0.39176936945E+03  0.46999998093E+01 0.  1.
</event>
<event>
 5   0  0.1574101E-04  0.1100246E+04  0.7818609E-02  0.9204952E-01
        2   -1    0    0  501    0  0.00000000000E+00  0.00000000000E+00  0.24525829494E+04  0.24525829494E+04  0.25500000920E-02 0. -1.
       -2   -1    0    0    0  501  0.00000000000E+00  0.00000000000E+00 -0.12339456084E+03  0.12339456087E+03  0.25500000920E-02 0.  1.
    10030    2    1    2    0    0  0.00000000000E+00  0.00000000000E+00  0.23291883885E+04  0.25759775102E+04  0.11002461470E+04 0.  0.
        4    1    3    3  502    0  0.42326459230E+03 -0.25430088751E+02  0.19851569928E+04  0.20299383004E+04  0.12699999809E+01 0. -1.
       -4    1    3    3    0  502 -0.42326459230E+03  0.25430088751E+02  0.34403139568E+03  0.54603920978E+03  0.12699999809E+01 0.  1.
</event>
<event>
 5   0  0.8921459E-05  0.1101521E+04  0.7818609E-02  0.9203711E-01
       -1   -1    0    0    0  501  0.00000000000E+00  0.00000000000E+00  0.41165228247E+03  0.41165228250E+03  0.50400001928E-02 0.  1.
        1   -1    0    0  501    0  0.00000000000E+00  0.00000000000E+00 -0.73687681203E+03  0.73687681204E+03  0.50400001928E-02 0. -1.
    10030    2    1    2    0    0  0.00000000000E+00  0.00000000000E+00 -0.32522452956E+03  0.11485290945E+04  0.11015208062E+04 0.  0.
        3    1    3    3  502    0  0.29204074544E+03  0.93792358084E+02 -0.63957485925E+03  0.70932419543E+03  0.10100000352E+00 0. -1.
       -3    1    3    3    0  502 -0.29204074544E+03 -0.93792358084E+02  0.31435032969E+03  0.43920489912E+03  0.10100000352E+00 0.  1.
</event>
<event>
 5   0  0.1574101E-04  0.1101900E+04  0.7818609E-02  0.9203342E-01
        2   -1    0    0  501    0  0.00000000000E+00  0.00000000000E+00  0.10741837460E+04  0.10741837460E+04  0.25500000920E-02 0. -1.
       -2   -1    0    0    0  501  0.00000000000E+00  0.00000000000E+00 -0.28258266294E+03  0.28258266295E+03  0.25500000920E-02 0.  1.
    10030    2    1    2    0    0  0.00000000000E+00  0.00000000000E+00  0.79160108308E+03  0.13567664090E+04  0.11018996387E+04 0.  0.
        4    1    3    3  502    0 -0.42971602882E+03  0.21142971504E+03  0.60431365683E+02  0.48271311633E+03  0.12699999809E+01 0.  1.
       -4    1    3    3    0  502  0.42971602882E+03 -0.21142971504E+03  0.73116971740E+03  0.87405329264E+03  0.12699999809E+01 0. -1.
</event>
<event>
 5   0  0.8657442E-05  0.1099938E+04  0.7818609E-02  0.9205252E-01
        1   -1    0    0  501    0  0.00000000000E+00  0.00000000000E+00  0.43774943534E+03  0.43774943537E+03  0.50400001928E-02 0.  1.
       -1   -1    0    0    0  501  0.00000000000E+00  0.00000000000E+00 -0.69095678464E+03  0.69095678466E+03  0.50400001928E-02 0. -1.
    10030    2    1    2    0    0  0.00000000000E+00  0.00000000000E+00 -0.25320734929E+03  0.11287062200E+04  0.10999380753E+04 0.  0.
        1    1    3    3  502    0 -0.51753030065E+03  0.71701214683E+02 -0.30281342532E+03  0.60388297447E+03  0.50400001928E-02 0.  1.
       -1    1    3    3    0  502  0.51753030065E+03 -0.71701214683E+02  0.49606076031E+02  0.52482324556E+03  0.50400001928E-02 0. -1.
</event>
<event>
 5   0  0.8657442E-05  0.1100230E+04  0.7818609E-02  0.9204968E-01
        1   -1    0    0  501    0  0.00000000000E+00  0.00000000000E+00  0.35272952328E+03  0.35272952332E+03  0.50400001928E-02 0. -1.
       -1   -1    0    0    0  501  0.00000000000E+00  0.00000000000E+00 -0.85795599038E+03  0.85795599040E+03  0.50400001928E-02 0.  1.
    10030    2    1    2    0    0  0.00000000000E+00  0.00000000000E+00 -0.50522646710E+03  0.12106855137E+04  0.11002298078E+04 0.  0.
        1    1    3    3  502    0  0.22961553292E+03  0.28076698727E+03 -0.70774661720E+03  0.79527270058E+03  0.50400001928E-02 0.  1.
       -1    1    3    3    0  502 -0.22961553292E+03 -0.28076698727E+03  0.20252015010E+03  0.41541281314E+03  0.50400001928E-02 0. -1.
</event>
<event>
 5   0  0.1574101E-04  0.1100149E+04  0.7818609E-02  0.9205046E-01
       -2   -1    0    0    0  501  0.00000000000E+00  0.00000000000E+00  0.83279554801E+03  0.83279554802E+03  0.25500000920E-02 0. -1.
        2   -1    0    0  501    0  0.00000000000E+00  0.00000000000E+00 -0.36333292850E+03  0.36333292851E+03  0.25500000920E-02 0.  1.
    10030    2    1    2    0    0  0.00000000000E+00  0.00000000000E+00  0.46946261951E+03  0.11961284765E+04  0.11001491632E+04 0.  0.
        4    1    3    3  502    0 -0.37767213746E+03  0.38362295764E+02  0.66754724652E+03  0.76793804984E+03  0.12699999809E+01 0. -1.
       -4    1    3    3    0  502  0.37767213746E+03 -0.38362295764E+02 -0.19808462701E+03  0.42819042669E+03  0.12699999809E+01 0.  1.
</event>
<event>
 5   0  0.1553937E-04  0.1099824E+04  0.7818609E-02  0.9205363E-01
        2   -1    0    0  501    0  0.00000000000E+00  0.00000000000E+00  0.53203487721E+03  0.53203487721E+03  0.25500000920E-02 0. -1.
       -2   -1    0    0    0  501  0.00000000000E+00  0.00000000000E+00 -0.56838988612E+03  0.56838988613E+03  0.25500000920E-02 0.  1.
    10030    2    1    2    0    0  0.00000000000E+00  0.00000000000E+00 -0.36355008915E+02  0.11004247633E+04  0.10998240646E+04 0.  0.
        1    1    3    3  502    0 -0.72466055514E+02 -0.40605065791E+03  0.34571713362E+03  0.53819030324E+03  0.50400001928E-02 0. -1.
       -1    1    3    3    0  502  0.72466055514E+02  0.40605065791E+03 -0.38207214254E+03  0.56223446010E+03  0.50400001928E-02 0.  1.
</event>
<event>
 5   0  0.1540772E-04  0.1098852E+04  0.7818609E-02  0.9206312E-01
        2   -1    0    0  501    0  0.00000000000E+00  0.00000000000E+00  0.21293484709E+04  0.21293484709E+04  0.25500000920E-02 0. -1.
       -2   -1    0    0    0  501  0.00000000000E+00  0.00000000000E+00 -0.14176581138E+03  0.14176581141E+03  0.25500000920E-02 0.  1.
    10030    2    1    2    0    0  0.00000000000E+00  0.00000000000E+00  0.19875826595E+04  0.22711142823E+04  0.10988517893E+04 0.  0.
        2    1    3    3  502    0  0.14760076521E+03  0.33518190887E+03  0.18402639222E+04  0.18763539648E+04  0.25500000920E-02 0. -1.
       -2    1    3    3    0  502 -0.14760076521E+03 -0.33518190887E+03  0.14731873737E+03  0.39476031755E+03  0.25500000920E-02 0.  1.
</event>
<event>
 5   0  0.1574101E-04  0.1100158E+04  0.7818609E-02  0.9205038E-01
       -2   -1    0    0    0  501  0.00000000000E+00  0.00000000000E+00  0.65536914569E+03  0.65536914569E+03  0.25500000920E-02 0. -1.
        2   -1    0    0  501    0  0.00000000000E+00  0.00000000000E+00 -0.46170448250E+03  0.46170448251E+03  0.25500000920E-02 0.  1.
    10030    2    1    2    0    0  0.00000000000E+00  0.00000000000E+00  0.19366466319E+03  0.11170736282E+04  0.11001579382E+04 0.  0.
        4    1    3    3  502    0 -0.39627398444E+03 -0.34784399364E+03 -0.62283048290E+02  0.53095132136E+03  0.12699999809E+01 0.  1.
       -4    1    3    3    0  502  0.39627398444E+03  0.34784399364E+03  0.25594771148E+03  0.58612230683E+03  0.12699999809E+01 0. -1.
</event>
<event>
 5   0  0.8657442E-05  0.1100386E+04  0.7818609E-02  0.9204815E-01
        1   -1    0    0  501    0  0.00000000000E+00  0.00000000000E+00  0.17649665449E+04  0.17649665449E+04  0.50400001928E-02 0.  1.
       -1   -1    0    0    0  501  0.00000000000E+00  0.00000000000E+00 -0.17151172968E+03  0.17151172975E+03  0.50400001928E-02 0. -1.
    10030    2    1    2    0    0  0.00000000000E+00  0.00000000000E+00  0.15934548153E+04  0.19364782747E+04  0.11003862322E+04 0.  0.
        1    1    3    3  502    0  0.70640072063E+02  0.25908739781E+03  0.16417990367E+04  0.16636166555E+04  0.50400001928E-02 0.  1.
       -1    1    3    3    0  502 -0.70640072063E+02 -0.25908739781E+03 -0.48344221408E+02  0.27286161924E+03  0.50400001928E-02 0. -1.
</event>
<event>
 5   0  0.8921459E-05  0.1100212E+04  0.7818609E-02  0.9204985E-01
       -1   -1    0    0    0  501  0.00000000000E+00  0.00000000000E+00  0.34671243493E+03  0.34671243497E+03  0.50400001928E-02 0. -1.
        1   -1    0    0  501    0  0.00000000000E+00  0.00000000000E+00 -0.87281802916E+03  0.87281802918E+03  0.50400001928E-02 0.  1.
    10030    2    1    2    0    0  0.00000000000E+00  0.00000000000E+00 -0.52610559423E+03  0.12195304641E+04  0.11002124598E+04 0.  0.
        3    1    3    3  502    0 -0.35920685189E+03 -0.10790128830E+03  0.18301342176E+03  0.41733220965E+03  0.10100000352E+00 0. -1.
       -3    1    3    3    0  502  0.35920685189E+03  0.10790128830E+03 -0.70911901600E+03  0.80219825449E+03  0.10100000352E+00 0.  1.
</event>
<event>
 5   0  0.1540772E-04  0.1099522E+04  0.7818609E-02  0.9205658E-01
        2   -1    0    0  501    0  0.00000000000E+00  0.00000000000E+00  0.14328362314E+04  0.14328362314E+04  0.25500000920E-02 0. -1.
       -2   -1    0    0    0  501  0.00000000000E+00  0.00000000000E+00 -0.21093632604E+03  0.21093632606E+03  0.25500000920E-02 0.  1.
    10030    2    1    2    0    0  0.00000000000E+00  0.00000000000E+00  0.12218999053E+04  0.16437725574E+04  0.10995220971E+04 0.  0.
        2    1    3    3  502    0 -0.22086058764E+03  0.66290982376E+02  0.13570424069E+04  0.13764948194E+04  0.25500000920E-02 0. -1.
       -2    1    3    3    0  502  0.22086058764E+03 -0.66290982376E+02 -0.13514250161E+03  0.26727773806E+03  0.25500000920E-02 0.  1.
</event>
<event>
 5   0  0.6010125E-05  0.1099965E+04  0.7818609E-02  0.9205226E-01
       -3   -1    0    0    0  501  0.00000000000E+00  0.00000000000E+00  0.35503311730E+03  0.35503313167E+03  0.10100000352E+00 0. -1.
        3   -1    0    0  501    0  0.00000000000E+00  0.00000000000E+00 -0.85197863480E+03  0.85197864079E+03  0.10100000352E+00 0.  1.
    10030    2    1    2    0    0  0.00000000000E+00  0.00000000000E+00 -0.49694551750E+03  0.12070117725E+04  0.10999648047E+04 0.  0.
        3    1    3    3  502    0 -0.34795244072E+03  0.20988408783E+03 -0.65515979647E+03  0.77094526423E+03  0.10100000352E+00 0.  1.
       -3    1    3    3    0  502  0.34795244072E+03 -0.20988408783E+03  0.15821427897E+03  0.43606650823E+03  0.10100000352E+00 0. -1.
</event>
<event>
 5   0  0.8621738E-05  0.1099898E+04  0.7818609E-02  0.9205291E-01
       -1   -1    0    0    0  501  0.00000000000E+00  0.00000000000E+00  0.73392769908E+03  0.73392769910E+03  0.50400001928E-02 0.  1.
        1   -1    0    0  501    0  0.00000000000E+00  0.00000000000E+00 -0.41208945963E+03  0.41208945966E+03  0.50400001928E-02 0. -1.
    10030    2    1    2    0    0  0.00000000000E+00  0.00000000000E+00  0.32183823945E+03  0.11460171588E+04  0.10998979388E+04 0.  0.
        2    1    3    3  502    0 -0.47926267069E+03 -0.19192695311E+03  0.35837856539E+03  0.62846150159E+03  0.25500000920E-02 0.  1.
       -2    1    3    3    0  502  0.47926267069E+03  0.19192695311E+03 -0.36540325943E+02  0.51755565717E+03  0.25500000920E-02 0. -1.
</event>
<event>
 5   0  0.8621738E-05  0.1099457E+04  0.7818609E-02  0.9205721E-01
        1   -1    0    0  501    0  0.00000000000E+00  0.00000000000E+00  0.10845114871E+04  0.10845114871E+04  0.50400001928E-02 0. -1.
       -1   -1    0    0    0  501  0.00000000000E+00  0.00000000000E+00 -0.27865227390E+03  0.27865227395E+03  0.50400001928E-02 0.  1.
    10030    2    1    2    0    0  0.00000000000E+00  0.00000000000E+00  0.80585921323E+03  0.13631637611E+04  0.10994573061E+04 0.  0.
        2    1    3    3  502    0 -0.14882254648E+03 -0.21389125519E+03 -0.19721994859E+03  0.32679248387E+03  0.25500000920E-02 0.  1.
       -2    1    3    3    0  502  0.14882254648E+03  0.21389125519E+03  0.10030791618E+04  0.10363712772E+04  0.25500000920E-02 0. -1.
</event>
<event>
 5   0  0.9016738E-05  0.1098867E+04  0.7818609E-02  0.9206297E-01
       -1   -1    0    0    0  501  0.00000000000E+00  0.00000000000E+00  0.22050821225E+04  0.22050821225E+04  0.50400001928E-02 0.  1.
        1   -1    0    0  501    0  0.00000000000E+00  0.00000000000E+00 -0.13690073903E+03  0.13690073912E+03  0.50400001928E-02 0. -1.
    10030    2    1    2    0    0  0.00000000000E+00  0.00000000000E+00  0.20681813834E+04  0.23419828616E+04  0.10988673665E+04 0.  0.
        4    1    3    3  502    0  0.56076284456E+02  0.26320021796E+03  0.13177172722E+02  0.26943302544E+03  0.12699999809E+01 0. -1.
       -4    1    3    3    0  502 -0.56076284456E+02 -0.26320021796E+03  0.20550042107E+04  0.20725498361E+04  0.12699999809E+01 0.  1.
</event>
<event>
 5   0  0.1540772E-04  0.1100187E+04  0.7818609E-02  0.9205010E-01
       -2   -1    0    0    0  501  0.00000000000E+00  0.00000000000E+00  0.70934479643E+03  0.70934479643E+03  0.25500000920E-02 0.  1.
        2   -1    0    0  501    0  0.00000000000E+00  0.00000000000E+00 -0.42659468361E+03  0.42659468362E+03  0.25500000920E-02 0. -1.
    10030    2    1    2    0    0  0.00000000000E+00  0.00000000000E+00  0.28275011282E+03  0.11359394801E+04  0.11001867460E+04 0.  0.
        2    1    3    3  502    0  0.34579022713E+03 -0.39255778627E+03  0.31699129473E+03  0.61168290615E+03  0.25500000920E-02 0.  1.
       -2    1    3    3    0  502 -0.34579022713E+03  0.39255778627E+03 -0.34241181911E+02  0.52425657390E+03  0.25500000920E-02 0. -1.
</event>
<event>
 5   0  0.8657442E-05  0.1100784E+04  0.7818609E-02  0.9204428E-01
        1   -1    0    0  501    0  0.00000000000E+00  0.00000000000E+00  0.58394575003E+03  0.58394575005E+03  0.50400001928E-02 0.  1.
       -1   -1    0    0    0  501  0.00000000000E+00  0.00000000000E+00 -0.51876587406E+03  0.51876587408E+03  0.50400001928E-02 0. -1.
    10030    2    1    2    0    0  0.00000000000E+00  0.00000000000E+00  0.65179875966E+02  0.11027116241E+04  0.11007835890E+04 0.  0.
        1    1    3    3  502    0  0.12503275122E+03  0.23716866662E+03  0.51410737356E+03  0.57981769280E+03  0.50400001928E-02 0.  1.
       -1    1    3    3    0  502 -0.12503275122E+03 -0.23716866662E+03 -0.44892749759E+03  0.52289393133E+03  0.50400001928E-02 0. -1.
</event>
<event>
 5   0  0.1540772E-04  0.1101219E+04  0.7818609E-02  0.9204004E-01
       -2   -1    0    0    0  501  0.00000000000E+00  0.00000000000E+00  0.49024124907E+03  0.49024124908E+03  0.25500000920E-02 0. -1.
        2   -1    0    0  501    0  0.00000000000E+00  0.00000000000E+00 -0.61841192154E+03  0.61841192154E+03  0.25500000920E-02 0.  1.
    10030    2    1    2    0    0  0.00000000000E+00  0.00000000000E+00 -0.12817067246E+03  0.11086531706E+04  0.11012193839E+04 0.  0.
        2    1    3    3  502    0 -0.54556068906E+03 -0.31394776452E+02 -0.13198642556E+03  0.56217658611E+03  0.25500000920E-02 0. -1.
       -2    1    3    3    0  502  0.54556068906E+03  0.31394776452E+02  0.38157530972E+01  0.54647658451E+03  0.25500000920E-02 0.  1.
</event>
<event>
 5   0  0.1540772E-04  0.1100046E+04  0.7818609E-02  0.9205147E-01
        2   -1    0    0  501    0  0.00000000000E+00  0.00000000000E+00  0.52126864392E+03  0.52126864392E+03  0.25500000920E-02 0.  1.
       -2   -1    0    0    0  501  0.00000000000E+00  0.00000000000E+00 -0.58036306629E+03  0.58036306630E+03  0.25500000920E-02 0. -1.
    10030    2    1    2    0    0  0.00000000000E+00  0.00000000000E+00 -0.59094422377E+02  0.11016317102E+04  0.11000455782E+04 0.  0.
        2    1    3    3  502    0  0.14082365922E+03  0.19062771407E+03 -0.52660433045E+03  0.57747930632E+03  0.25500000920E-02 0. -1.
       -2    1    3    3    0  502 -0.14082365922E+03 -0.19062771407E+03  0.46750990807E+03  0.52415240391E+03  0.25500000920E-02 0.  1.
</event>
<event>
 5   0  0.1540772E-04  0.1100215E+04  0.7818609E-02  0.9204982E-01
        2   -1    0    0  501    0  0.00000000000E+00  0.00000000000E+00  0.97457053433E+03  0.97457053434E+03  0.25500000920E-02 0. -1.
       -2   -1    0    0    0  501  0.00000000000E+00  0.00000000000E+00 -0.31051454296E+03  0.31051454297E+03  0.25500000920E-02 0.  1.
    10030    2    1    2    0    0  0.00000000000E+00  0.00000000000E+00  0.66405599137E+03  0.12850850773E+04  0.11002151136E+04 0.  0.
        2    1    3    3  502    0 -0.43041038383E+03 -0.28118943344E+03  0.56060933842E+03  0.76065986243E+03  0.25500000920E-02 0. -1.
       -2    1    3    3    0  502  0.43041038383E+03  0.28118943344E+03  0.10344665295E+03  0.52442521488E+03  0.25500000920E-02 0.  1.
</event>
<event>
 5   0  0.1553937E-04  0.1100701E+04  0.7818609E-02  0.9204509E-01
        2   -1    0    0  501    0  0.00000000000E+00  0.00000000000E+00  0.40031626828E+03  0.40031626829E+03  0.25500000920E-02 0.  1.
       -2   -1    0    0    0  501  0.00000000000E+00  0.00000000000E+00 -0.75661583248E+03  0.75661583248E+03  0.25500000920E-02 0. -1.
    10030    2    1    2    0    0  0.00000000000E+00  0.00000000000E+00 -0.35629956419E+03  0.11569321008E+04  0.11007009159E+04 0.  0.
        1    1    3    3  502    0 -0.16625363071E+03 -0.51445982978E+03 -0.28624545426E+03  0.61175619841E+03  0.50400001928E-02 0. -1.
       -1    1    3    3    0  502  0.16625363071E+03  0.51445982978E+03 -0.70054109935E+02  0.54517590237E+03  0.50400001928E-02 0.  1.
</event>
<event>
 5   0  0.8621738E-05  0.1099133E+04  0.7818609E-02  0.9206038E-01
       -1   -1    0    0    0  501  0.00000000000E+00  0.00000000000E+00  0.52798122345E+03  0.52798122347E+03  0.50400001928E-02 0. -1.
        1   -1    0    0  501    0  0.00000000000E+00  0.00000000000E+00 -0.57203374330E+03  0.57203374332E+03  0.50400001928E-02 0.  1.
    10030    2    1    2    0    0  0.00000000000E+00  0.00000000000E+00 -0.44052519850E+02  0.11000149668E+04  0.10991325228E+04 0.  0.
        2    1    3    3  502    0 -0.45789527299E+03  0.14005258724E+03 -0.29194682991E+03  0.56081704656E+03  0.25500000920E-02 0. -1.
       -2    1    3    3    0  502  0.45789527299E+03 -0.14005258724E+03  0.24789431006E+03  0.53919792023E+03  0.25500000920E-02 0.  1.
</event>
<event>
 5   0  0.1574101E-04  0.1100341E+04  0.7818609E-02  0.9204859E-01
        2   -1    0    0  501    0  0.00000000000E+00  0.00000000000E+00  0.32722073450E+03  0.32722073451E+03  0.25500000920E-02 0.  1.
       -2   -1    0    0    0  501  0.00000000000E+00  0.00000000000E+00 -0.92502617160E+03  0.92502617160E+03  0.25500000920E-02 0. -1.
    10030    2    1    2    0    0  0.00000000000E+00  0.00000000000E+00 -0.59780543710E+03  0.12522469061E+04  0.11003412985E+04 0.  0.
        4    1    3    3  502    0  0.21745711970E+03 -0.45926170971E+03 -0.58891611925E+02  0.51154545426E+03  0.12699999809E+01 0.  1.
       -4    1    3    3    0  502 -0.21745711970E+03  0.45926170971E+03 -0.53891382517E+03  0.74070145186E+03  0.12699999809E+01 0. -1.
</event>
<event>
 5   0  0.1503277E-04  0.1104406E+04  0.7818609E-02  0.9200908E-01
        2   -1    0    0  501    0  0.00000000000E+00  0.00000000000E+00  0.19219033841E+04  0.19219033841E+04  0.25500000920E-02 0. -1.
       -2   -1    0    0    0  501  0.00000000000E+00  0.00000000000E+00 -0.15865936256E+03  0.15865936258E+03  0.25500000920E-02 0.  1.
    10030    2    1    2    0    0  0.00000000000E+00  0.00000000000E+00  0.17632440215E+04  0.20805627467E+04  0.11044056607E+04 0.  0.
        5    1    3    3  502    0  0.22469046478E+02 -0.33729679214E+03  0.17041486510E+04  0.17373596918E+04  0.46999998093E+01 0. -1.
       -5    1    3    3    0  502 -0.22469046478E+02  0.33729679214E+03  0.59095370523E+02  0.34320305484E+03  0.46999998093E+01 0.  1.
</event>
<event>
 5   0  0.8921459E-05  0.1099885E+04  0.7818609E-02  0.9205304E-01
        1   -1    0    0  501    0  0.00000000000E+00  0.00000000000E+00  0.79302407340E+03  0.79302407342E+03  0.50400001928E-02 0.  1.
       -1   -1    0    0    0  501  0.00000000000E+00  0.00000000000E+00 -0.38137163265E+03  0.38137163268E+03  0.50400001928E-02 0. -1.
    10030    2    1    2    0    0  0.00000000000E+00  0.00000000000E+00  0.41165244076E+03  0.11743957061E+04  0.10998852406E+04 0.  0.
        3    1    3    3  502    0 -0.21882395986E+02 -0.47074553241E+03  0.50850228086E+03  0.69329270541E+03  0.10100000352E+00 0.  1.
       -3    1    3    3    0  502  0.21882395986E+02  0.47074553241E+03 -0.96849840109E+02  0.48110300068E+03  0.10100000352E+00 0. -1.
</event>
<event>
 5   0  0.1503277E-04  0.1096687E+04  0.7818609E-02  0.9208427E-01
       -2   -1    0    0    0  501  0.00000000000E+00  0.00000000000E+00  0.24097711165E+03  0.24097711166E+03  0.25500000920E-02 0. -1.
        2   -1    0    0  501    0  0.00000000000E+00  0.00000000000E+00 -0.12477547403E+04  0.12477547404E+04  0.25500000920E-02 0.  1.
    10030    2    1    2    0    0  0.00000000000E+00  0.00000000000E+00 -0.10067776287E+04  0.14887318520E+04  0.10966865247E+04 0.  0.
        5    1    3    3  502    0  0.54179710434E+03  0.64293655140E+02 -0.57749869841E+03  0.79448386581E+03  0.46999998093E+01 0.  1.
       -5    1    3    3    0  502 -0.54179710434E+03 -0.64293655140E+02 -0.42927893029E+03  0.69424798621E+03  0.46999998093E+01 0. -1.
</event>
<event>
 5   0  0.8921459E-05  0.1098715E+04  0.7818609E-02  0.9206445E-01
        1   -1    0    0  501    0  0.00000000000E+00  0.00000000000E+00  0.11577704797E+04  0.11577704797E+04  0.50400001928E-02 0.  1.
       -1   -1    0    0    0  501  0.00000000000E+00  0.00000000000E+00 -0.26066804931E+03  0.26066804935E+03  0.50400001928E-02 0. -1.
    10030    2    1    2    0    0  0.00000000000E+00  0.00000000000E+00  0.89710243038E+03  0.14184385291E+04  0.10987151997E+04 0.  0.
        3    1    3    3  502    0  0.40800855119E+03 -0.33111737320E+03  0.65544969816E+03  0.84007381205E+03  0.10100000352E+00 0.  1.
       -3    1    3    3    0  502 -0.40800855119E+03  0.33111737320E+03  0.24165273222E+03  0.57836471700E+03  0.10100000352E+00 0. -1.
</event>
<event>
 5   0  0.1503277E-04  0.1100409E+04  0.7818609E-02  0.9204794E-01
       -2   -1    0    0    0  501  0.00000000000E+00  0.00000000000E+00  0.18754348729E+03  0.18754348731E+03  0.25500000920E-02 0.  1.
        2   -1    0    0  501    0  0.00000000000E+00  0.00000000000E+00 -0.16141581247E+04  0.16141581247E+04  0.25500000920E-02 0. -1.
    10030    2    1    2    0    0  0.00000000000E+00  0.00000000000E+00 -0.14266146374E+04  0.18017016121E+04  0.11004087309E+04 0.  0.
        5    1    3    3  502    0 -0.31627809637E+03 -0.25182105399E+03 -0.13243020652E+04  0.13846457046E+04  0.46999998093E+01 0. -1.
       -5    1    3    3    0  502  0.31627809637E+03  0.25182105399E+03 -0.10231257225E+03  0.41705590742E+03  0.46999998093E+01 0.  1.
</event>
<event>
 5   0  0.1540772E-04  0.1100476E+04  0.7818609E-02  0.9204728E-01
        2   -1    0    0  501    0  0.00000000000E+00  0.00000000000E+00  0.11765677458E+04  0.11765677458E+04  0.25500000920E-02 0.  1.
       -2   -1    0    0    0  501  0.00000000000E+00  0.00000000000E+00 -0.25732638479E+03  0.25732638480E+03  0.25500000920E-02 0. -1.
    10030    2    1    2    0    0  0.00000000000E+00  0.00000000000E+00  0.91924136106E+03  0.14338941306E+04  0.11004761233E+04 0.  0.
        2    1    3    3  502    0 -0.24086826322E+03 -0.35135467769E+03  0.58288745846E+01  0.42603005240E+03  0.25500000920E-02 0.  1.
       -2    1    3    3    0  502  0.24086826322E+03  0.35135467769E+03  0.91341248647E+03  0.10078640782E+04  0.25500000920E-02 0. -1.
</event>
<event>
 5   0  0.8657442E-05  0.1099487E+04  0.7818609E-02  0.9205692E-01
        1   -1    0    0  501    0  0.00000000000E+00  0.00000000000E+00  0.15621588902E+04  0.15621588902E+04  0.50400001928E-02 0.  1.
       -1   -1    0    0    0  501  0.00000000000E+00  0.00000000000E+00 -0.19346163760E+03  0.19346163767E+03  0.50400001928E-02 0. -1.
    10030    2    1    2    0    0  0.00000000000E+00  0.00000000000E+00  0.13686972526E+04  0.17556205279E+04  0.10994868206E+04 0.  0.
        1    1    3    3  502    0 -0.53136684717E+03  0.90613091975E+02  0.51195465710E+03  0.74341040459E+03  0.50400001928E-02 0.  1.
       -1    1    3    3    0  502  0.53136684717E+03 -0.90613091975E+02  0.85674259548E+03  0.10122101233E+04  0.50400001928E-02 0. -1.
</event>
<event>
 5   0  0.8657442E-05  0.1100344E+04  0.7818609E-02  0.9204856E-01
       -1   -1    0    0    0  501  0.00000000000E+00  0.00000000000E+00  0.27779873145E+03  0.27779873149E+03  0.50400001928E-02 0.  1.
        1   -1    0    0  501    0  0.00000000000E+00  0.00000000000E+00 -0.10895999291E+04  0.10895999291E+04  0.50400001928E-02 0. -1.
    10030    2    1    2    0    0  0.00000000000E+00  0.00000000000E+00 -0.81180119767E+03  0.13673986606E+04  0.11003444518E+04 0.  0.
        1    1    3    3  502    0  0.29793088328E+03 -0.14164230983E+03  0.14126050194E+03  0.35885914309E+03  0.50400001928E-02 0.  1.
       -1    1    3    3    0  502 -0.29793088328E+03  0.14164230983E+03 -0.95306169960E+03  0.10085395175E+04  0.50400001928E-02 0. -1.
</event>
<event>
 5   0  0.1574101E-04  0.1100077E+04  0.7818609E-02  0.9205117E-01
        2   -1    0    0  501    0  0.00000000000E+00  0.00000000000E+00  0.51346503875E+03  0.51346503876E+03  0.25500000920E-02 0. -1.
       -2   -1    0    0    0  501  0.00000000000E+00  0.00000000000E+00 -0.58921663893E+03  0.58921663893E+03  0.25500000920E-02 0.  1.
    10030    2    1    2    0    0  0.00000000000E+00  0.00000000000E+00 -0.75751600179E+02  0.11026816777E+04  0.11000766234E+04 0.  0.
        4    1    3    3  502    0  0.57627343124E+02 -0.50494846818E+03 -0.24872283336E+03  0.56582552693E+03  0.12699999809E+01 0.  1.
       -4    1    3    3    0  502 -0.57627343124E+02  0.50494846818E+03  0.17297123318E+03  0.53685615076E+03  0.12699999809E+01 0. -1.
</event>
<event>
 5   0  0.1574101E-04  0.1100049E+04  0.7818609E-02  0.9205144E-01
        2   -1    0    0  501    0  0.00000000000E+00  0.00000000000E+00  0.10437013787E+04  0.10437013787E+04  0.25500000920E-02 0. -1.
       -2   -1    0    0    0  501  0.00000000000E+00  0.00000000000E+00 -0.28985990370E+03  0.28985990371E+03  0.25500000920E-02 0.  1.
    10030    2    1    2    0    0  0.00000000000E+00  0.00000000000E+00  0.75384147497E+03  0.13335612824E+04  0.11000494191E+04 0.  0.
        4    1    3    3  502    0  0.54529782150E+03 -0.52904036418E+02  0.43602474488E+03  0.70019121835E+03  0.12699999809E+01 0. -1.
       -4    1    3    3    0  502 -0.54529782150E+03  0.52904036418E+02  0.31781673009E+03  0.63337006404E+03  0.12699999809E+01 0.  1.
</event>
<event>
 5   0  0.1553937E-04  0.1099006E+04  0.7818609E-02  0.9206161E-01
        2   -1    0    0  501    0  0.00000000000E+00  0.00000000000E+00  0.87862540159E+03  0.87862540160E+03  0.25500000920E-02 0.  1.
       -2   -1    0    0    0  501  0.00000000000E+00  0.00000000000E+00 -0.34366606942E+03  0.34366606943E+03  0.25500000920E-02 0. -1.
    10030    2    1    2    0    0  0.00000000000E+00  0.00000000000E+00  0.53495933217E+03  0.12222914710E+04  0.10990063481E+04 0.  0.
        1    1    3    3  502    0  0.28678036380E+03  0.39475748843E+03  0.54857122876E+03  0.73417085531E+03  0.50400001928E-02 0.  1.
       -1    1    3    3    0  502 -0.28678036380E+03 -0.39475748843E+03 -0.13611896587E+02  0.48812061572E+03  0.50400001928E-02 0. -1.
</event>
<event>
 5   0  0.1503277E-04  0.1097820E+04  0.7818609E-02  0.9207319E-01
       -2   -1    0    0    0  501  0.00000000000E+00  0.00000000000E+00  0.57293080886E+03  0.57293080887E+03  0.25500000920E-02 0. -1.
        2   -1    0    0  501    0  0.00000000000E+00  0.00000000000E+00 -0.52589624131E+03  0.52589624132E+03  0.25500000920E-02 0.  1.
    10030    2    1    2    0    0  0.00000000000E+00  0.00000000000E+00  0.47034567548E+02  0.10988270502E+04  0.10978199468E+04 0.  0.
        5    1    3    3  502    0 -0.74308188722E+02  0.19576339373E+03 -0.48432875291E+03  0.52767551026E+03  0.46999998093E+01 0.  1.
       -5    1    3    3    0  502  0.74308188722E+02 -0.19576339373E+03  0.53136332046E+03  0.57115153993E+03  0.46999998093E+01 0. -1.
</event>
<event>
 5   0  0.8921459E-05  0.1097592E+04  0.7818609E-02  0.9207542E-01
       -1   -1    0    0    0  501  0.00000000000E+00  0.00000000000E+00  0.16750940050E+03  0.16750940058E+03  0.50400001928E-02 0. -1.
        1   -1    0    0  501    0  0.00000000000E+00  0.00000000000E+00 -0.17979713769E+04  0.17979713769E+04  0.50400001928E-02 0.  1.
    10030    2    1    2    0    0  0.00000000000E+00  0.00000000000E+00 -0.16304619764E+04  0.19654807775E+04  0.10975921056E+04 0.  0.
        3    1    3    3  502    0  0.81099116233E+02 -0.13777170987E+03 -0.17553490398E+04  0.17626140736E+04  0.10100000352E+00 0.  1.
       -3    1    3    3    0  502 -0.81099116233E+02  0.13777170987E+03  0.12488706348E+03  0.20286670382E+03  0.10100000352E+00 0. -1.
</event>
<event>
 5   0  0.8657442E-05  0.1103552E+04  0.7818609E-02  0.9201737E-01
        1   -1    0    0  501    0  0.00000000000E+00  0.00000000000E+00  0.13127440948E+04  0.13127440948E+04  0.50400001928E-02 0. -1.
       -1   -1    0    0    0  501  0.00000000000E+00  0.00000000000E+00 -0.23192385964E+03  0.23192385969E+03  0.50400001928E-02 0.  1.
    10030    2    1    2    0    0  0.00000000000E+00  0.00000000000E+00  0.10808202352E+04  0.15446679545E+04  0.11035518606E+04 0.  0.
        1    1    3    3  502    0 -0.14458771315E+03 -0.17758780820E+03  0.12430849743E+04  0.12640028836E+04  0.50400001928E-02 0. -1.
       -1    1    3    3    0  502  0.14458771315E+03  0.17758780820E+03 -0.16226473915E+03  0.28066507088E+03  0.50400001928E-02 0.  1.
</event>
<event>
 5   0  0.1540772E-04  0.1100220E+04  0.7818609E-02  0.9204977E-01
       -2   -1    0    0    0  501  0.00000000000E+00  0.00000000000E+00  0.17826596842E+03  0.17826596844E+03  0.25500000920E-02 0.  1.
        2   -1    0    0  501    0  0.00000000000E+00  0.00000000000E+00 -0.16975828149E+04  0.16975828149E+04  0.25500000920E-02 0. -1.
    10030    2    1    2    0    0  0.00000000000E+00  0.00000000000E+00 -0.15193168465E+04  0.18758487833E+04  0.11002204224E+04 0.  0.
        2    1    3    3  502    0 -0.16821560972E+03  0.48982409613E+03 -0.44344588323E+03  0.68181257532E+03  0.25500000920E-02 0.  1.
       -2    1    3    3    0  502  0.16821560972E+03 -0.48982409613E+03 -0.10758709632E+04  0.11940362080E+04  0.25500000920E-02 0. -1.
</event>
<event>
 5   0  0.9346836E-05  0.1100015E+04  0.7818609E-02  0.9205177E-01
        1   -1    0    0  501    0  0.00000000000E+00  0.00000000000E+00  0.16404777934E+04  0.16404777934E+04  0.50400001928E-02 0. -1.
       -1   -1    0    0    0  501  0.00000000000E+00  0.00000000000E+00 -0.18440266846E+03  0.18440266853E+03  0.50400001928E-02 0.  1.
    10030    2    1    2    0    0  0.00000000000E+00  0.00000000000E+00  0.14560751250E+04  0.18248804620E+04  0.11000154230E+04 0.  0.
        5    1    3    3  502    0 -0.44937947523E+02 -0.17045630982E+03 -0.13623328821E+03  0.22283709633E+03  0.46999998093E+01 0.  1.
       -5    1    3    3    0  502  0.44937947523E+02  0.17045630982E+03  0.15923084132E+04  0.16020433656E+04  0.46999998093E+01 0. -1.
</event>
<event>
 5   0  0.8657442E-05  0.1099967E+04  0.7818609E-02  0.9205224E-01
        1   -1    0    0  501    0  0.00000000000E+00  0.00000000000E+00  0.66247999518E+03  0.66247999520E+03  0.50400001928E-02 0. -1.
       -1   -1    0    0    0  501  0.00000000000E+00  0.00000000000E+00 -0.45659045854E+03  0.45659045857E+03  0.50400001928E-02 0.  1.
    10030    2    1    2    0    0  0.00000000000E+00  0.00000000000E+00  0.20588953664E+03  0.11190704538E+04  0.10999673537E+04 0.  0.
        1    1    3    3  502    0 -0.44109165814E+03  0.29439058733E+03 -0.45375947597E+02  0.53224678997E+03  0.50400001928E-02 0.  1.
       -1    1    3    3    0  502  0.44109165814E+03 -0.29439058733E+03  0.25126548423E+03  0.58682366379E+03  0.50400001928E-02 0. -1.
</event>
<event>
 5   0  0.8621738E-05  0.1101002E+04  0.7818609E-02  0.9204216E-01
       -1   -1    0    0    0  501  0.00000000000E+00  0.00000000000E+00  0.10300595507E+04  0.10300595507E+04  0.50400001928E-02 0. -1.
        1   -1    0    0  501    0  0.00000000000E+00  0.00000000000E+00 -0.29420757988E+03  0.29420757993E+03  0.50400001928E-02 0.  1.
    10030    2    1    2    0    0  0.00000000000E+00  0.00000000000E+00  0.73585197080E+03  0.13242671306E+04  0.11010019574E+04 0.  0.
        2    1    3    3  502    0  0.14420980463E+03 -0.12112208158E+02 -0.27091876188E+03  0.30714841507E+03  0.25500000920E-02 0.  1.
       -2    1    3    3    0  502 -0.14420980463E+03  0.12112208158E+02  0.10067707327E+04  0.10171187155E+04  0.25500000920E-02 0. -1.
</event>
<event>
 5   0  0.1540772E-04  0.1099962E+04  0.7818609E-02  0.9205229E-01
        2   -1    0    0  501    0  0.00000000000E+00  0.00000000000E+00  0.73366529539E+03  0.73366529540E+03  0.25500000920E-02 0.  1.
       -2   -1    0    0    0  501  0.00000000000E+00  0.00000000000E+00 -0.41228482577E+03  0.41228482578E+03  0.25500000920E-02 0. -1.
    10030    2    1    2    0    0  0.00000000000E+00  0.00000000000E+00  0.32138046963E+03  0.11459501212E+04  0.10999619421E+04 0.  0.
        2    1    3    3  502    0 -0.34583368844E+03  0.29166823356E+03  0.48650798031E+03  0.66435029423E+03  0.25500000920E-02 0.  1.
       -2    1    3    3    0  502  0.34583368844E+03 -0.29166823356E+03 -0.16512751068E+03  0.48159982695E+03  0.25500000920E-02 0. -1.
</event>
<event>
 5   0  0.1464205E-04  0.1099768E+04  0.7818609E-02  0.9205418E-01
       -2   -1    0    0    0  501  0.00000000000E+00  0.00000000000E+00  0.20006485524E+03  0.20006485525E+03  0.25500000920E-02 0.  1.
        2   -1    0    0  501    0  0.00000000000E+00  0.00000000000E+00 -0.15113709007E+04  0.15113709007E+04  0.25500000920E-02 0. -1.
    10030    2    1    2    0    0  0.00000000000E+00  0.00000000000E+00 -0.13113060454E+04  0.17114357559E+04  0.10997676127E+04 0.  0.
        3    1    3    3  502    0 -0.44717294366E+02  0.28036554111E+02 -0.15074200006E+04  0.15083437118E+04  0.10100000352E+00 0. -1.
       -3    1    3    3    0  502  0.44717294366E+02 -0.28036554111E+02  0.19611395511E+03  0.20309204409E+03  0.10100000352E+00 0.  1.
</event>
<event>
 5   0  0.9346836E-05  0.1101113E+04  0.7818609E-02  0.9204107E-01
       -1   -1    0    0    0  501  0.00000000000E+00  0.00000000000E+00  0.44588551929E+03  0.44588551932E+03  0.50400001928E-02 0.  1.
        1   -1    0    0  501    0  0.00000000000E+00  0.00000000000E+00 -0.67979934666E+03  0.67979934668E+03  0.50400001928E-02 0. -1.
    10030    2    1    2    0    0  0.00000000000E+00  0.00000000000E+00 -0.23391382737E+03  0.11256848660E+04  0.11011134087E+04 0.  0.
        5    1    3    3  502    0 -0.33822528122E+03 -0.35412290066E+03  0.14023453647E+03  0.50939884653E+03  0.46999998093E+01 0.  1.
       -5    1    3    3    0  502  0.33822528122E+03  0.35412290066E+03 -0.37414836384E+03  0.61628601946E+03  0.46999998093E+01 0. -1.
</event>
<event>
 5   0  0.8657442E-05  0.1103097E+04  0.7818609E-02  0.9202178E-01
        1   -1    0    0  501    0  0.00000000000E+00  0.00000000000E+00  0.11123309320E+04  0.11123309320E+04  0.50400001928E-02 0.  1.
       -1   -1    0    0    0  501  0.00000000000E+00  0.00000000000E+00 -0.27348500616E+03  0.27348500621E+03  0.50400001928E-02 0. -1.
    10030    2    1    2    0    0  0.00000000000E+00  0.00000000000E+00  0.83884592583E+03  0.13858159382E+04  0.11030971523E+04 0.  0.
        1    1    3    3  502    0 -0.22983328176E+03  0.49082178652E+03  0.54801060704E+03  0.77074314073E+03  0.50400001928E-02 0.  1.
       -1    1    3    3    0  502  0.22983328176E+03 -0.49082178652E+03  0.29083531879E+03  0.61507279748E+03  0.50400001928E-02 0. -1.
</event>
<event>
 5   0  0.8921459E-05  0.1100272E+04  0.7818609E-02  0.9204926E-01
        1   -1    0    0  501    0  0.00000000000E+00  0.00000000000E+00  0.40013060110E+03  0.40013060113E+03  0.50400001928E-02 0.  1.
       -1   -1    0    0    0  501  0.00000000000E+00  0.00000000000E+00 -0.75637766364E+03  0.75637766366E+03  0.50400001928E-02 0. -1.
    10030    2    1    2    0    0  0.00000000000E+00  0.00000000000E+00 -0.35624706254E+03  0.11565082648E+04  0.11002724194E+04 0.  0.
        3    1    3    3  502    0  0.54939144579E+03 -0.27605856862E+02 -0.17020210202E+03  0.57581404097E+03  0.10100000352E+00 0. -1.
       -3    1    3    3    0  502 -0.54939144579E+03  0.27605856862E+02 -0.18604496052E+03  0.58069422382E+03  0.10100000352E+00 0.  1.
</event>
<event>
 5   0  0.1503277E-04  0.1099440E+04  0.7818609E-02  0.9205738E-01
       -2   -1    0    0    0  501  0.00000000000E+00  0.00000000000E+00  0.77261866131E+03  0.77261866131E+03  0.25500000920E-02 0.  1.
        2   -1    0    0  501    0  0.00000000000E+00  0.00000000000E+00 -0.39112716783E+03  0.39112716783E+03  0.25500000920E-02 0. -1.
    10030    2    1    2    0    0  0.00000000000E+00  0.00000000000E+00  0.38149149348E+03  0.11637458291E+04  0.10994401281E+04 0.  0.
        5    1    3    3  502    0 -0.30492267526E+03 -0.25401490973E+03  0.59334573940E+03  0.71385059271E+03  0.46999998093E+01 0.  1.
       -5    1    3    3    0  502  0.30492267526E+03  0.25401490973E+03 -0.21185424592E+03  0.44989523643E+03  0.46999998093E+01 0. -1.
</event>
<event>
 5   0  0.9346836E-05  0.1099889E+04  0.7818609E-02  0.9205300E-01
        1   -1    0    0  501    0  0.00000000000E+00  0.00000000000E+00  0.78793834443E+03  0.78793834445E+03  0.50400001928E-02 0.  1.
       -1   -1    0    0    0  501  0.00000000000E+00  0.00000000000E+00 -0.38383587981E+03  0.38383587984E+03  0.50400001928E-02 0. -1.
    10030    2    1    2    0    0  0.00000000000E+00  0.00000000000E+00  0.40410246463E+03  0.11717742243E+04  0.10998890993E+04 0.  0.
        5    1    3    3  502    0 -0.25310600856E+03  0.20740968512E+03 -0.26880206848E+03  0.42350687252E+03  0.46999998093E+01 0. -1.
       -5    1    3    3    0  502  0.25310600856E+03 -0.20740968512E+03  0.67290453311E+03  0.74826735177E+03  0.46999998093E+01 0.  1.
</event>
<event>
 5   0  0.1540772E-04  0.1099785E+04  0.7818609E-02  0.9205402E-01
        2   -1    0    0  501    0  0.00000000000E+00  0.00000000000E+00  0.27503639620E+03  0.27503639621E+03  0.25500000920E-02 0.  1.
       -2   -1    0    0    0  501  0.00000000000E+00  0.00000000000E+00 -0.10994243670E+04  0.10994243670E+04  0.25500000920E-02 0. -1.
    10030    2    1    2    0    0  0.00000000000E+00  0.00000000000E+00 -0.82438797077E+03  0.13744607632E+04  0.10997849168E+04 0.  0.
        2    1    3    3  502    0 -0.52962800872E+02  0.33187042984E+03  0.13175592737E+03  0.36097460421E+03  0.25500000920E-02 0.  1.
       -2    1    3    3    0  502  0.52962800872E+02 -0.33187042984E+03 -0.95614389814E+03  0.10134861590E+04  0.25500000920E-02 0. -1.
</event>
<event>
 5   0  0.1540772E-04  0.1099951E+04  0.7818609E-02  0.9205240E-01
       -2   -1    0    0    0  501  0.00000000000E+00  0.00000000000E+00  0.79350817285E+03  0.79350817285E+03  0.25500000920E-02 0. -1.
        2   -1    0    0  501    0  0.00000000000E+00  0.00000000000E+00 -0.38118419974E+03  0.38118419975E+03  0.25500000920E-02 0.  1.
    10030    2    1    2    0    0  0.00000000000E+00  0.00000000000E+00  0.41232397310E+03  0.11746923726E+04  0.10999505041E+04 0.  0.
        2    1    3    3  502    0  0.38801374739E+03  0.24274136738E+03 -0.11950984301E+03  0.47303344722E+03  0.25500000920E-02 0.  1.
       -2    1    3    3    0  502 -0.38801374739E+03 -0.24274136738E+03  0.53183381612E+03  0.70165892539E+03  0.25500000920E-02 0. -1.
</event>
<event>
 5   0  0.1503277E-04  0.1100028E+04  0.7818609E-02  0.9205165E-01
        2   -1    0    0  501    0  0.00000000000E+00  0.00000000000E+00  0.57855615331E+03  0.57855615332E+03  0.25500000920E-02 0.  1.
       -2   -1    0    0    0  501  0.00000000000E+00  0.00000000000E+00 -0.52287983510E+03  0.52287983511E+03  0.25500000920E-02 0. -1.
    10030    2    1    2    0    0  0.00000000000E+00  0.00000000000E+00  0.55676318211E+02  0.11014359884E+04  0.11000279016E+04 0.  0.
        5    1    3    3  502    0  0.47362610375E+03 -0.26148652074E+03  0.12694146400E+03  0.55572755192E+03  0.46999998093E+01 0.  1.
       -5    1    3    3    0  502 -0.47362610375E+03  0.26148652074E+03 -0.71265145786E+02  0.54570843651E+03  0.46999998093E+01 0. -1.
</event>
<event>
 5   0  0.1553937E-04  0.1100054E+04  0.7818609E-02  0.9205139E-01
       -2   -1    0    0    0  501  0.00000000000E+00  0.00000000000E+00  0.44445554787E+03  0.44445554787E+03  0.25500000920E-02 0.  1.
        2   -1    0    0  501    0  0.00000000000E+00  0.00000000000E+00 -0.68067457077E+03  0.68067457078E+03  0.25500000920E-02 0. -1.
    10030    2    1    2    0    0  0.00000000000E+00  0.00000000000E+00 -0.23621902291E+03  0.11251301186E+04  0.11000537974E+04 0.  0.
        1    1    3    3  502    0  0.41158085145E+03 -0.34115417048E+03  0.14241274633E+02  0.53477825240E+03  0.50400001928E-02 0.  1.
       -1    1    3    3    0  502 -0.41158085145E+03  0.34115417048E+03 -0.25046029754E+03  0.59035186625E+03  0.50400001928E-02 0. -1.
</event>
<event>
 5   0  0.1540772E-04  0.1099140E+04  0.7818609E-02  0.9206030E-01
       -2   -1    0    0    0  501  0.00000000000E+00  0.00000000000E+00  0.64735911533E+03  0.64735911533E+03  0.25500000920E-02 0.  1.
        2   -1    0    0  501    0  0.00000000000E+00  0.00000000000E+00 -0.46655288258E+03  0.46655288258E+03  0.25500000920E-02 0. -1.
    10030    2    1    2    0    0  0.00000000000E+00  0.00000000000E+00  0.18080623275E+03  0.11139119979E+04  0.10991401391E+04 0.  0.
        2    1    3    3  502    0  0.36047135339E+03 -0.14998002723E+03  0.48237453623E+03  0.62057940539E+03  0.25500000920E-02 0.  1.
       -2    1    3    3    0  502 -0.36047135339E+03  0.14998002723E+03 -0.30156830348E+03  0.49333259253E+03  0.25500000920E-02 0. -1.
</event>
<event>
 5   0  0.1553937E-04  0.1101857E+04  0.7818609E-02  0.9203384E-01
        2   -1    0    0  501    0  0.00000000000E+00  0.00000000000E+00  0.12159595068E+04  0.12159595068E+04  0.25500000920E-02 0.  1.
       -2   -1    0    0    0  501  0.00000000000E+00  0.00000000000E+00 -0.24961544055E+03  0.24961544057E+03  0.25500000920E-02 0. -1.
    10030    2    1    2    0    0  0.00000000000E+00  0.00000000000E+00  0.96634406626E+03  0.14655749474E+04  0.11018571014E+04 0.  0.
        1    1    3    3  502    0  0.32355004662E+03  0.15796397237E+03 -0.71471355763E+02  0.36707683658E+03  0.50400001928E-02 0. -1.
       -1    1    3    3    0  502 -0.32355004662E+03 -0.15796397237E+03  0.10378154220E+04  0.10984981108E+04  0.50400001928E-02 0.  1.
</event>
<event>
 5   0  0.8621738E-05  0.1099839E+04  0.7818609E-02  0.9205349E-01
        1   -1    0    0  501    0  0.00000000000E+00  0.00000000000E+00  0.52424037533E+03  0.52424037535E+03  0.50400001928E-02 0.  1.
       -1   -1    0    0    0  501  0.00000000000E+00  0.00000000000E+00 -0.57685638099E+03  0.57685638101E+03  0.50400001928E-02 0. -1.
    10030    2    1    2    0    0  0.00000000000E+00  0.00000000000E+00 -0.52616005657E+02  0.11010967564E+04  0.10998389077E+04 0.  0.
        2    1    3    3  502    0  0.43964508229E+03  0.12857131335E+03  0.27833102431E+03  0.53599117539E+03  0.25500000920E-02 0.  1.
       -2    1    3    3    0  502 -0.43964508229E+03 -0.12857131335E+03 -0.33094702997E+03  0.56510558097E+03  0.25500000920E-02 0. -1.
</event>
<event>
 5   0  0.9016738E-05  0.1099938E+04  0.7818609E-02  0.9205252E-01
        1   -1    0    0  501    0  0.00000000000E+00  0.00000000000E+00  0.39757483792E+03  0.39757483796E+03  0.50400001928E-02 0. -1.
       -1   -1    0    0    0  501  0.00000000000E+00  0.00000000000E+00 -0.76077763541E+03  0.76077763542E+03  0.50400001928E-02 0.  1.
    10030    2    1    2    0    0  0.00000000000E+00  0.00000000000E+00 -0.36320279748E+03  0.11583524734E+04  0.10999382621E+04 0.  0.
        4    1    3    3  502    0 -0.30535513320E+03 -0.34128009775E+03  0.13912205041E+03  0.47861301727E+03  0.12699999809E+01 0. -1.
       -4    1    3    3    0  502  0.30535513320E+03  0.34128009775E+03 -0.50232484789E+03  0.67973945611E+03  0.12699999809E+01 0.  1.
</event>
<event>
 5   0  0.9016738E-05  0.1100141E+04  0.7818609E-02  0.9205054E-01
       -1   -1    0    0    0  501  0.00000000000E+00  0.00000000000E+00  0.20315437122E+03  0.20315437128E+03  0.50400001928E-02 0.  1.
        1   -1    0    0  501    0  0.00000000000E+00  0.00000000000E+00 -0.14893971722E+04  0.14893971722E+04  0.50400001928E-02 0. -1.
    10030    2    1    2    0    0  0.00000000000E+00  0.00000000000E+00 -0.12862428010E+04  0.16925515435E+04  0.11001409838E+04 0.  0.
        4    1    3    3  502    0  0.40364069204E+02 -0.22296343433E+03 -0.14142605468E+04  0.14322976151E+04  0.12699999809E+01 0. -1.
       -4    1    3    3    0  502 -0.40364069204E+02  0.22296343433E+03  0.12801774576E+03  0.26025392842E+03  0.12699999809E+01 0.  1.
</event>
<event>
 5   0  0.1574101E-04  0.1100073E+04  0.7818609E-02  0.9205120E-01
       -2   -1    0    0    0  501  0.00000000000E+00  0.00000000000E+00  0.25909244981E+03  0.25909244982E+03  0.25500000920E-02 0. -1.
        2   -1    0    0  501    0  0.00000000000E+00  0.00000000000E+00 -0.11676928557E+04  0.11676928557E+04  0.25500000920E-02 0.  1.
    10030    2    1    2    0    0  0.00000000000E+00  0.00000000000E+00 -0.90860040588E+03  0.14267853055E+04  0.11000734568E+04 0.  0.
        4    1    3    3  502    0  0.17868825767E+03 -0.31063590750E+03 -0.99549619687E+03  0.10580351844E+04  0.12699999809E+01 0.  1.
       -4    1    3    3    0  502 -0.17868825767E+03  0.31063590750E+03  0.86895790994E+02  0.36875012115E+03  0.12699999809E+01 0. -1.
</event>
<event>
 5   0  0.9346836E-05  0.1098831E+04  0.7818609E-02  0.9206332E-01
       -1   -1    0    0    0  501  0.00000000000E+00  0.00000000000E+00  0.20669059638E+03  0.20669059644E+03  0.50400001928E-02 0. -1.
        1   -1    0    0  501    0  0.00000000000E+00  0.00000000000E+00 -0.14604323239E+04  0.14604323239E+04  0.50400001928E-02 0.  1.
    10030    2    1    2    0    0  0.00000000000E+00  0.00000000000E+00 -0.12537417275E+04  0.16671229204E+04  0.10988314303E+04 0.  0.
        5    1    3    3  502    0  0.36467246437E+03  0.22824243894E+03 -0.11452817898E+04  0.12234267796E+04  0.46999998093E+01 0.  1.
       -5    1    3    3    0  502 -0.36467246437E+03 -0.22824243894E+03 -0.10845993779E+03  0.44369614073E+03  0.46999998093E+01 0. -1.
</event>
<event>
 5   0  0.8621738E-05  0.1100006E+04  0.7818609E-02  0.9205186E-01
        1   -1    0    0  501    0  0.00000000000E+00  0.00000000000E+00  0.69625937626E+03  0.69625937628E+03  0.50400001928E-02 0.  1.
       -1   -1    0    0    0  501  0.00000000000E+00  0.00000000000E+00 -0.43446942431E+03  0.43446942434E+03  0.50400001928E-02 0. -1.
    10030    2    1    2    0    0  0.00000000000E+00  0.00000000000E+00  0.26178995195E+03  0.11307288006E+04  0.11000062007E+04 0.  0.
        2    1    3    3  502    0  0.99719128819E+02 -0.10174002797E+03 -0.41517505793E+03  0.43893651782E+03  0.25500000920E-02 0. -1.
       -2    1    3    3    0  502 -0.99719128819E+02  0.10174002797E+03  0.67696500987E+03  0.69179228280E+03  0.25500000920E-02 0.  1.
</event>
<event>
 5   0  0.9016738E-05  0.1100100E+04  0.7818609E-02  0.9205095E-01
       -1   -1    0    0    0  501  0.00000000000E+00  0.00000000000E+00  0.27047372728E+03  0.27047372733E+03  0.50400001928E-02 0. -1.
        1   -1    0    0  501    0  0.00000000000E+00  0.00000000000E+00 -0.11186110205E+04  0.11186110205E+04  0.50400001928E-02 0.  1.
    10030    2    1    2    0    0  0.00000000000E+00  0.00000000000E+00 -0.84813729322E+03  0.13890847478E+04  0.11000997994E+04 0.  0.
        4    1    3    3  502    0 -0.16182951823E+03  0.50179066863E+03 -0.22614183136E+03  0.57369365422E+03  0.12699999809E+01 0.  1.
       -4    1    3    3    0  502  0.16182951823E+03 -0.50179066863E+03 -0.62199546186E+03  0.81539109363E+03  0.12699999809E+01 0. -1.
</event>
<event>
 5   0  0.9016738E-05  0.1103539E+04  0.7818609E-02  0.9201749E-01
       -1   -1    0    0    0  501  0.00000000000E+00  0.00000000000E+00  0.29223579380E+03  0.29223579384E+03  0.50400001928E-02 0.  1.
        1   -1    0    0  501    0  0.00000000000E+00  0.00000000000E+00 -0.10417945636E+04  0.10417945636E+04  0.50400001928E-02 0. -1.
    10030    2    1    2    0    0  0.00000000000E+00  0.00000000000E+00 -0.74955876978E+03  0.13340303574E+04  0.11035391453E+04 0.  0.
        4    1    3    3  502    0  0.36721065731E+02 -0.15441867252E+03  0.26403994366E+03  0.30807834692E+03  0.12699999809E+01 0.  1.
       -4    1    3    3    0  502 -0.36721065731E+02  0.15441867252E+03 -0.10135987134E+04  0.10259520105E+04  0.12699999809E+01 0. -1.
</event>
<event>
 5   0  0.1464205E-04  0.1099977E+04  0.7818609E-02  0.9205214E-01
       -2   -1    0    0    0  501  0.00000000000E+00  0.00000000000E+00  0.27767427157E+03  0.27767427158E+03  0.25500000920E-02 0. -1.
        2   -1    0    0  501    0  0.00000000000E+00  0.00000000000E+00 -0.10893612202E+04  0.10893612202E+04  0.25500000920E-02 0.  1.
    10030    2    1    2    0    0  0.00000000000E+00  0.00000000000E+00 -0.81168694863E+03  0.13670354918E+04  0.10999774240E+04 0.  0.
        3    1    3    3  502    0 -0.24791243767E+03 -0.56669560754E+02  0.20021726205E+03  0.32366491637E+03  0.10100000352E+00 0. -1.
       -3    1    3    3    0  502  0.24791243767E+03  0.56669560754E+02 -0.10119042107E+04  0.10433705754E+04  0.10100000352E+00 0.  1.
</event>
<event>
 5   0  0.8621738E-05  0.1098952E+04  0.7818609E-02  0.9206214E-01
       -1   -1    0    0    0  501  0.00000000000E+00  0.00000000000E+00  0.22903735847E+03  0.22903735852E+03  0.50400001928E-02 0.  1.
        1   -1    0    0  501    0  0.00000000000E+00  0.00000000000E+00 -0.13182307209E+04  0.13182307209E+04  0.50400001928E-02 0. -1.
    10030    2    1    2    0    0  0.00000000000E+00  0.00000000000E+00 -0.10891933625E+04  0.15472680795E+04  0.10989523779E+04 0.  0.
        2    1    3    3  502    0  0.16409761163E+03 -0.19287398820E+02 -0.12824261189E+04  0.12930262102E+04  0.25500000920E-02 0. -1.
       -2    1    3    3    0  502 -0.16409761163E+03  0.19287398820E+02  0.19323275645E+03  0.25424186923E+03  0.25500000920E-02 0.  1.
</event>
<event>
 5   0  0.1464205E-04  0.1099839E+04  0.7818609E-02  0.9205349E-01
       -2   -1    0    0    0  501  0.00000000000E+00  0.00000000000E+00  0.34671974472E+03  0.34671974473E+03  0.25500000920E-02 0.  1.
        2   -1    0    0  501    0  0.00000000000E+00  0.00000000000E+00 -0.87220654508E+03  0.87220654508E+03  0.25500000920E-02 0. -1.
    10030    2    1    2    0    0  0.00000000000E+00  0.00000000000E+00 -0.52548680036E+03  0.12189262898E+04  0.10998385894E+04 0.  0.
        3    1    3    3  502    0  0.10102452100E+03  0.38820463540E+03  0.15415519914E+03  0.42973553310E+03  0.10100000352E+00 0.  1.
       -3    1    3    3    0  502 -0.10102452100E+03 -0.38820463540E+03 -0.67964199949E+03  0.78919075670E+03  0.10100000352E+00 0. -1.
</event>
<event>
 5   0  0.9346836E-05  0.1100702E+04  0.7818609E-02  0.9204508E-01
        1   -1    0    0  501    0  0.00000000000E+00  0.00000000000E+00  0.12226364102E+04  0.12226364102E+04  0.50400001928E-02 0.  1.
       -1   -1    0    0    0  501  0.00000000000E+00  0.00000000000E+00 -0.24773201235E+03  0.24773201240E+03  0.50400001928E-02 0. -1.
    10030    2    1    2    0    0  0.00000000000E+00  0.00000000000E+00  0.97490439781E+03  0.14703684226E+04  0.11007019184E+04 0.  0.
        5    1    3    3  502    0 -0.43161502610E+03 -0.33937424510E+03  0.53739354133E+03  0.76829702411E+03  0.46999998093E+01 0. -1.
       -5    1    3    3    0  502  0.43161502610E+03  0.33937424510E+03  0.43751085648E+03  0.70207139846E+03  0.46999998093E+01 0.  1.
</event>
<event>
 5   0  0.1464205E-04  0.1100233E+04  0.7818609E-02  0.9204965E-01
       -2   -1    0    0    0  501  0.00000000000E+00  0.00000000000E+00  0.19376673196E+03  0.19376673198E+03  0.25500000920E-02 0.  1.
        2   -1    0    0  501    0  0.00000000000E+00  0.00000000000E+00 -0.15618173327E+04  0.15618173327E+04  0.25500000920E-02 0. -1.
    10030    2    1    2    0    0  0.00000000000E+00  0.00000000000E+00 -0.13680506007E+04  0.17555840646E+04  0.11002331398E+04 0.  0.
        3    1    3    3  502    0  0.35627277157E+03  0.97390347394E+02 -0.33492072751E+02  0.37085967247E+03  0.10100000352E+00 0.  1.
       -3    1    3    3    0  502 -0.35627277157E+03 -0.97390347394E+02 -0.13345585279E+04  0.13847243922E+04  0.10100000352E+00 0. -1.
</event>
<event>
 5   0  0.8657442E-05  0.1099139E+04  0.7818609E-02  0.9206031E-01
        1   -1    0    0  501    0  0.00000000000E+00  0.00000000000E+00  0.51896344909E+03  0.51896344911E+03  0.50400001928E-02 0. -1.
       -1   -1    0    0    0  501  0.00000000000E+00  0.00000000000E+00 -0.58198058012E+03  0.58198058014E+03  0.50400001928E-02 0.  1.
    10030    2    1    2    0    0  0.00000000000E+00  0.00000000000E+00 -0.63017131028E+02  0.11009440293E+04  0.10991390252E+04 0.  0.
        1    1    3    3  502    0 -0.28138258387E+03  0.98343381091E+02  0.43096284927E+03  0.52400053109E+03  0.50400001928E-02 0. -1.
       -1    1    3    3    0  502  0.28138258387E+03 -0.98343381091E+02 -0.49397998030E+03  0.57694349816E+03  0.50400001928E-02 0.  1.
</event>
<event>
 5   0  0.9346836E-05  0.1100530E+04  0.7818609E-02  0.9204676E-01
       -1   -1    0    0    0  501  0.00000000000E+00  0.00000000000E+00  0.94765602176E+03  0.94765602178E+03  0.50400001928E-02 0. -1.
        1   -1    0    0  501    0  0.00000000000E+00  0.00000000000E+00 -0.31951606164E+03  0.31951606168E+03  0.50400001928E-02 0.  1.
    10030    2    1    2    0    0  0.00000000000E+00  0.00000000000E+00  0.62813996013E+03  0.12671720835E+04  0.11005295451E+04 0.  0.
        5    1    3    3  502    0 -0.26738074371E+03  0.46206127110E+03  0.16055430103E+03  0.55748798546E+03  0.46999998093E+01 0. -1.
       -5    1    3    3    0  502  0.26738074371E+03 -0.46206127110E+03  0.46758565910E+03  0.70968409800E+03  0.46999998093E+01 0.  1.
</event>
<event>
 5   0  0.1503277E-04  0.1100946E+04  0.7818609E-02  0.9204271E-01
       -2   -1    0    0    0  501  0.00000000000E+00  0.00000000000E+00  0.14803184799E+03  0.14803184801E+03  0.25500000920E-02 0.  1.
        2   -1    0    0  501    0  0.00000000000E+00  0.00000000000E+00 -0.20469944716E+04  0.20469944716E+04  0.25500000920E-02 0. -1.
    10030    2    1    2    0    0  0.00000000000E+00  0.00000000000E+00 -0.18989626236E+04  0.21950263196E+04  0.11009457289E+04 0.  0.
        5    1    3    3  502    0  0.39210842206E+03 -0.36168952097E+03 -0.67881386874E+03  0.86335316217E+03  0.46999998093E+01 0.  1.
       -5    1    3    3    0  502 -0.39210842206E+03  0.36168952097E+03 -0.12201487549E+04  0.13316731574E+04  0.46999998093E+01 0. -1.
</event>
<event>
 5   0  0.8657442E-05  0.1099369E+04  0.7818609E-02  0.9205807E-01
       -1   -1    0    0    0  501  0.00000000000E+00  0.00000000000E+00  0.37188166464E+03  0.37188166467E+03  0.50400001928E-02 0. -1.
        1   -1    0    0  501    0  0.00000000000E+00  0.00000000000E+00 -0.81249791520E+03  0.81249791521E+03  0.50400001928E-02 0.  1.
    10030    2    1    2    0    0  0.00000000000E+00  0.00000000000E+00 -0.44061625056E+03  0.11843795799E+04  0.10993690504E+04 0.  0.
        1    1    3    3  502    0  0.55409032234E+02  0.51500346367E+03 -0.22084855094E+02  0.51844620675E+03  0.50400001928E-02 0. -1.
       -1    1    3    3    0  502 -0.55409032234E+02 -0.51500346367E+03 -0.41853139546E+03  0.66593337314E+03  0.50400001928E-02 0.  1.
</event>
<event>
 5   0  0.8621738E-05  0.1099881E+04  0.7818609E-02  0.9205308E-01
       -1   -1    0    0    0  501  0.00000000000E+00  0.00000000000E+00  0.92252210292E+03  0.92252210293E+03  0.50400001928E-02 0.  1.
        1   -1    0    0  501    0  0.00000000000E+00  0.00000000000E+00 -0.32783460120E+03  0.32783460124E+03  0.50400001928E-02 0. -1.
    10030    2    1    2    0    0  0.00000000000E+00  0.00000000000E+00  0.59468750172E+03  0.12503567042E+04  0.10998812040E+04 0.  0.
        2    1    3    3  502    0 -0.25165606036E+03 -0.37595130528E+03 -0.58106445551E+02  0.45612116338E+03  0.25500000920E-02 0. -1.
       -2    1    3    3    0  502  0.25165606036E+03  0.37595130528E+03  0.65279394727E+03  0.79423554079E+03  0.25500000920E-02 0.  1.
</event>
<event>
 5   0  0.1540772E-04  0.1094678E+04  0.7818609E-02  0.9210394E-01
       -2   -1    0    0    0  501  0.00000000000E+00  0.00000000000E+00  0.31923586770E+03  0.31923586771E+03  0.25500000920E-02 0.  1.
        2   -1    0    0  501    0  0.00000000000E+00  0.00000000000E+00 -0.93842905110E+03  0.93842905110E+03  0.25500000920E-02 0. -1.
    10030    2    1    2    0    0  0.00000000000E+00  0.00000000000E+00 -0.61919318340E+03  0.12576649188E+04  0.10946784229E+04 0.  0.
        2    1    3    3  502    0 -0.52524863446E+03  0.45573357311E+02 -0.47851525741E+03  0.71199712814E+03  0.25500000920E-02 0. -1.
       -2    1    3    3    0  502  0.52524863446E+03 -0.45573357311E+02 -0.14067792598E+03  0.54566779066E+03  0.25500000920E-02 0.  1.
</event>
<event>
 5   0  0.1540772E-04  0.1100249E+04  0.7818609E-02  0.9204949E-01
        2   -1    0    0  501    0  0.00000000000E+00  0.00000000000E+00  0.56621042266E+03  0.56621042267E+03  0.25500000920E-02 0.  1.
       -2   -1    0    0    0  501  0.00000000000E+00  0.00000000000E+00 -0.53449590515E+03  0.53449590515E+03  0.25500000920E-02 0. -1.
    10030    2    1    2    0    0  0.00000000000E+00  0.00000000000E+00  0.31714517517E+02  0.11007063278E+04  0.11002493397E+04 0.  0.
        2    1    3    3  502    0  0.54456368229E+03  0.78022740935E+02  0.15871099848E+02  0.55035356271E+03  0.25500000920E-02 0. -1.
       -2    1    3    3    0  502 -0.54456368229E+03 -0.78022740935E+02  0.15843417670E+02  0.55035276511E+03  0.25500000920E-02 0.  1.
</event>
<event>
 5   0  0.1574101E-04  0.1104587E+04  0.7818609E-02  0.9200733E-01
        2   -1    0    0  501    0  0.00000000000E+00  0.00000000000E+00  0.21640619467E+04  0.21640619467E+04  0.25500000920E-02 0. -1.
       -2   -1    0    0    0  501  0.00000000000E+00  0.00000000000E+00 -0.14095153957E+03  0.14095153959E+03  0.25500000920E-02 0.  1.
    10030    2    1    2    0    0  0.00000000000E+00  0.00000000000E+00  0.20231104071E+04  0.23050134863E+04  0.11045865528E+04 0.  0.
        4    1    3    3  502    0 -0.42268241052E+02  0.39127018649E+03  0.20295757393E+03  0.44280057899E+03  0.12699999809E+01 0.  1.
       -4    1    3    3    0  502  0.42268241052E+02 -0.39127018649E+03  0.18201528332E+04  0.18622129073E+04  0.12699999809E+01 0. -1.
</event>
<event>
 5   0  0.1553937E-04  0.1099199E+04  0.7818609E-02  0.9205973E-01
       -2   -1    0    0    0  501  0.00000000000E+00  0.00000000000E+00  0.49086444571E+03  0.49086444571E+03  0.25500000920E-02 0.  1.
        2   -1    0    0  501    0  0.00000000000E+00  0.00000000000E+00 -0.61536289223E+03  0.61536289224E+03  0.25500000920E-02 0. -1.
    10030    2    1    2    0    0  0.00000000000E+00  0.00000000000E+00 -0.12449844653E+03  0.11062273380E+04  0.10991992813E+04 0.  0.
        1    1    3    3  502    0 -0.49705106745E+03 -0.22522612366E+03  0.35384132280E+01  0.54570971297E+03  0.50400001928E-02 0. -1.
       -1    1    3    3    0  502  0.49705106745E+03  0.22522612366E+03 -0.12803685975E+03  0.56051762498E+03  0.50400001928E-02 0.  1.
</event>
<event>
 5   0  0.1503277E-04  0.1099771E+04  0.7818609E-02  0.9205415E-01
        2   -1    0    0  501    0  0.00000000000E+00  0.00000000000E+00  0.45948230931E+03  0.45948230931E+03  0.25500000920E-02 0.  1.
       -2   -1    0    0    0  501  0.00000000000E+00  0.00000000000E+00 -0.65807511413E+03  0.65807511414E+03  0.25500000920E-02 0. -1.
    10030    2    1    2    0    0  0.00000000000E+00  0.00000000000E+00 -0.19859280482E+03  0.11175574235E+04  0.10997706545E+04 0.  0.
        5    1    3    3  502    0  0.22260409453E+03  0.15319160333E+03 -0.58592721882E+03  0.64525424910E+03  0.46999998093E+01 0. -1.
       -5    1    3    3    0  502 -0.22260409453E+03 -0.15319160333E+03  0.38733441400E+03  0.47230317435E+03  0.46999998093E+01 0.  1.
</event>
<event>
 5   0  0.1540772E-04  0.1099893E+04  0.7818609E-02  0.9205296E-01
        2   -1    0    0  501    0  0.00000000000E+00  0.00000000000E+00  0.24338322379E+04  0.24338322379E+04  0.25500000920E-02 0.  1.
       -2   -1    0    0    0  501  0.00000000000E+00  0.00000000000E+00 -0.12426543229E+03  0.12426543231E+03  0.25500000920E-02 0. -1.
    10030    2    1    2    0    0  0.00000000000E+00  0.00000000000E+00  0.23095668057E+04  0.25580976703E+04  0.10998931133E+04 0.  0.
        2    1    3    3  502    0  0.21113672753E+03  0.24346803629E+03  0.11835155733E+03  0.34331107401E+03  0.25500000920E-02 0. -1.
       -2    1    3    3    0  502 -0.21113672753E+03 -0.24346803629E+03  0.21912152483E+04  0.22147865962E+04  0.25500000920E-02 0.  1.
</event>
<event>
 5   0  0.1464205E-04  0.1099539E+04  0.7818609E-02  0.9205641E-01
        2   -1    0    0  501    0  0.00000000000E+00  0.00000000000E+00  0.57499377168E+03  0.57499377168E+03  0.25500000920E-02 0.  1.
       -2   -1    0    0    0  501  0.00000000000E+00  0.00000000000E+00 -0.52565179458E+03  0.52565179459E+03  0.25500000920E-02 0. -1.
    10030    2    1    2    0    0  0.00000000000E+00  0.00000000000E+00  0.49341977094E+02  0.11006455663E+04  0.10995390088E+04 0.  0.
        3    1    3    3  502    0 -0.42716407055E+03  0.34568730321E+03  0.79915967964E+01  0.54957504545E+03  0.10100000352E+00 0.  1.
       -3    1    3    3    0  502  0.42716407055E+03 -0.34568730321E+03  0.41350380298E+02  0.55107052082E+03  0.10100000352E+00 0. -1.
</event>
<event>
 5   0  0.9346836E-05  0.1099706E+04  0.7818609E-02  0.9205479E-01
        1   -1    0    0  501    0  0.00000000000E+00  0.00000000000E+00  0.12883936789E+04  0.12883936789E+04  0.50400001928E-02 0.  1.
       -1   -1    0    0    0  501  0.00000000000E+00  0.00000000000E+00 -0.23466282815E+03  0.23466282820E+03  0.50400001928E-02 0. -1.
    10030    2    1    2    0    0  0.00000000000E+00  0.00000000000E+00  0.10537308508E+04  0.15230565071E+04  0.10997056052E+04 0.  0.
        5    1    3    3  502    0 -0.47462714311E+03 -0.98872452341E+02  0.88607517974E+03  0.10100485142E+04  0.46999998093E+01 0.  1.
       -5    1    3    3    0  502  0.47462714311E+03  0.98872452341E+02  0.16765567102E+03  0.51300799295E+03  0.46999998093E+01 0. -1.
</event>
<event>
 5   0  0.9346836E-05  0.1100662E+04  0.7818609E-02  0.9204547E-01
       -1   -1    0    0    0  501  0.00000000000E+00  0.00000000000E+00  0.23266630405E+03  0.23266630410E+03  0.50400001928E-02 0. -1.
        1   -1    0    0  501    0  0.00000000000E+00  0.00000000000E+00 -0.13017103884E+04  0.13017103885E+04  0.50400001928E-02 0.  1.
    10030    2    1    2    0    0  0.00000000000E+00  0.00000000000E+00 -0.10690440844E+04  0.15343766926E+04  0.11006618828E+04 0.  0.
        5    1    3    3  502    0 -0.24576584240E+03  0.97408659261E+02  0.13831825713E+03  0.29840128425E+03  0.46999998093E+01 0. -1.
       -5    1    3    3    0  502  0.24576584240E+03 -0.97408659261E+02 -0.12073623415E+04  0.12359754083E+04  0.46999998093E+01 0.  1.
</event>
<event>
 5   0  0.8657442E-05  0.1100102E+04  0.7818609E-02  0.9205092E-01
        1   -1    0    0  501    0  0.00000000000E+00  0.00000000000E+00  0.92504377727E+03  0.92504377729E+03  0.50400001928E-02 0.  1.
       -1   -1    0    0    0  501  0.00000000000E+00  0.00000000000E+00 -0.32707235820E+03  0.32707235824E+03  0.50400001928E-02 0. -1.
    10030    2    1    2    0    0  0.00000000000E+00  0.00000000000E+00  0.59797141907E+03  0.12521161355E+04  0.11001022674E+04 0.  0.
        1    1    3    3  502    0  0.84000666127E+02 -0.17699681783E+02 -0.31940087928E+03  0.33073601611E+03  0.50400001928E-02 0. -1.
       -1    1    3    3    0  502 -0.84000666127E+02  0.17699681783E+02  0.91737229835E+03  0.92138011942E+03  0.50400001928E-02 0.  1.
</event>
<event>
 5   0  0.1503277E-04  0.1099562E+04  0.7818609E-02  0.9205619E-01
        2   -1    0    0  501    0  0.00000000000E+00  0.00000000000E+00  0.98272941399E+03  0.98272941399E+03  0.25500000920E-02 0.  1.
       -2   -1    0    0    0  501  0.00000000000E+00  0.00000000000E+00 -0.30757112971E+03  0.30757112972E+03  0.25500000920E-02 0. -1.
    10030    2    1    2    0    0  0.00000000000E+00  0.00000000000E+00  0.67515828428E+03  0.12903005437E+04  0.10995620875E+04 0.  0.
        5    1    3    3  502    0  0.24964413181E+03  0.48660385713E+03  0.27191107281E+03  0.61078902072E+03  0.46999998093E+01 0.  1.
       -5    1    3    3    0  502 -0.24964413181E+03 -0.48660385713E+03  0.40324721147E+03  0.67951152299E+03  0.46999998093E+01 0. -1.
</event>
<event>
 5   0  0.9016738E-05  0.1100169E+04  0.7818609E-02  0.9205027E-01
       -1   -1    0    0    0  501  0.00000000000E+00  0.00000000000E+00  0.10696556714E+04  0.10696556714E+04  0.50400001928E-02 0. -1.
        1   -1    0    0  501    0  0.00000000000E+00  0.00000000000E+00 -0.28288824935E+03  0.28288824940E+03  0.50400001928E-02 0.  1.
    10030    2    1    2    0    0  0.00000000000E+00  0.00000000000E+00  0.78676742205E+03  0.13525439208E+04  0.11001691149E+04 0.  0.
        4    1    3    3  502    0 -0.38350559880E+03 -0.20331866775E+03 -0.22029273718E+02  0.43462849282E+03  0.12699999809E+01 0.  1.
       -4    1    3    3    0  502  0.38350559880E+03  0.20331866775E+03  0.80879669577E+03  0.91791542799E+03  0.12699999809E+01 0. -1.
</event>
<event>
 5   0  0.1553937E-04  0.1100011E+04  0.7818609E-02  0.9205182E-01
        2   -1    0    0  501    0  0.00000000000E+00  0.00000000000E+00  0.66643661778E+03  0.66643661779E+03  0.25500000920E-02 0. -1.
       -2   -1    0    0    0  501  0.00000000000E+00  0.00000000000E+00 -0.45391532320E+03  0.45391532321E+03  0.25500000920E-02 0.  1.
    10030    2    1    2    0    0  0.00000000000E+00  0.00000000000E+00  0.21252129458E+03  0.11203519410E+04  0.11000105322E+04 0.  0.
        1    1    3    3  502    0 -0.68744996956E+02 -0.33201565153E+03 -0.33481286788E+03  0.47650805239E+03  0.50400001928E-02 0.  1.
       -1    1    3    3    0  502  0.68744996956E+02  0.33201565153E+03  0.54733416247E+03  0.64384388861E+03  0.50400001928E-02 0. -1.
</event>
<event>
 5   0  0.6010125E-05  0.1099854E+04  0.7818609E-02  0.9205334E-01
       -3   -1    0    0    0  501  0.00000000000E+00  0.00000000000E+00  0.37689530045E+03  0.37689531399E+03  0.10100000352E+00 0. -1.
        3   -1    0    0  501    0  0.00000000000E+00  0.00000000000E+00 -0.80239689402E+03  0.80239690038E+03  0.10100000352E+00 0.  1.
    10030    2    1    2    0    0  0.00000000000E+00  0.00000000000E+00 -0.42550159357E+03  0.11792922144E+04  0.10998538634E+04 0.  0.
        4    1    3    3  502    0 -0.52064683981E+03  0.11283160185E+03 -0.66463939108E+02  0.53686420097E+03  0.12699999809E+01 0.  1.
       -4    1    3    3    0  502  0.52064683981E+03 -0.11283160185E+03 -0.35903765446E+03  0.64242801340E+03  0.12699999809E+01 0. -1.
</event>
<event>
 5   0  0.1540772E-04  0.1099835E+04  0.7818609E-02  0.9205353E-01
       -2   -1    0    0    0  501  0.00000000000E+00  0.00000000000E+00  0.63626214764E+03  0.63626214764E+03  0.25500000920E-02 0.  1.
        2   -1    0    0  501    0  0.00000000000E+00  0.00000000000E+00 -0.47529029156E+03  0.47529029157E+03  0.25500000920E-02 0. -1.
    10030    2    1    2    0    0  0.00000000000E+00  0.00000000000E+00  0.16097185608E+03  0.11115524392E+04  0.10998349361E+04 0.  0.
        2    1    3    3  502    0 -0.34312180071E+03 -0.40877667303E+03 -0.53509713622E+02  0.53637135270E+03  0.25500000920E-02 0. -1.
       -2    1    3    3    0  502  0.34312180071E+03  0.40877667303E+03  0.21448156970E+03  0.57518108651E+03  0.25500000920E-02 0.  1.
</event>
<event>
 5   0  0.9346836E-05  0.1100589E+04  0.7818609E-02  0.9204618E-01
        1   -1    0    0  501    0  0.00000000000E+00  0.00000000000E+00  0.32844085712E+03  0.32844085716E+03  0.50400001928E-02 0. -1.
       -1   -1    0    0    0  501  0.00000000000E+00  0.00000000000E+00 -0.92200439279E+03  0.92200439280E+03  0.50400001928E-02 0.  1.
    10030    2    1    2    0    0  0.00000000000E+00  0.00000000000E+00 -0.59356353567E+03  0.12504452500E+04  0.11005887753E+04 0.  0.
        5    1    3    3  502    0  0.36116895721E+03  0.39686817606E+03 -0.15830784016E+03  0.55949157909E+03  0.46999998093E+01 0. -1.
       -5    1    3    3    0  502 -0.36116895721E+03 -0.39686817606E+03 -0.43525569551E+03  0.69095367087E+03  0.46999998093E+01 0.  1.
</event>
<event>
 5   0  0.1574101E-04  0.1100055E+04  0.7818609E-02  0.9205138E-01
        2   -1    0    0  501    0  0.00000000000E+00  0.00000000000E+00  0.47789555861E+03  0.47789555862E+03  0.25500000920E-02 0.  1.
       -2   -1    0    0    0  501  0.00000000000E+00  0.00000000000E+00 -0.63304728500E+03  0.63304728501E+03  0.25500000920E-02 0. -1.
    10030    2    1    2    0    0  0.00000000000E+00  0.00000000000E+00 -0.15515172639E+03  0.11109428436E+04  0.11000554275E+04 0.  0.
        4    1    3    3  502    0 -0.42173425689E+03  0.24031433604E+03 -0.33882145985E+03  0.59195638192E+03  0.12699999809E+01 0. -1.
       -4    1    3    3    0  502  0.42173425689E+03 -0.24031433604E+03  0.18366973346E+03  0.51898646170E+03  0.12699999809E+01 0.  1.
</event>
<event>
 5   0  0.1503277E-04  0.1100627E+04  0.7818609E-02  0.9204580E-01
       -2   -1    0    0    0  501  0.00000000000E+00  0.00000000000E+00  0.24043990530E+03  0.24043990531E+03  0.25500000920E-02 0. -1.
        2   -1    0    0  501    0  0.00000000000E+00  0.00000000000E+00 -0.12595464098E+04  0.12595464098E+04  0.25500000920E-02 0.  1.
    10030    2    1    2    0    0  0.00000000000E+00  0.00000000000E+00 -0.10191065045E+04  0.14999863151E+04  0.11006274929E+04 0.  0.
        5    1    3    3  502    0  0.27328477541E+03  0.36867527712E+03 -0.92341250835E+03  0.10311734961E+04  0.46999998093E+01 0.  1.
       -5    1    3    3    0  502 -0.27328477541E+03 -0.36867527712E+03 -0.95693996180E+02  0.46881281908E+03  0.46999998093E+01 0. -1.
</event>
<event>
 5   0  0.9016738E-05  0.1098650E+04  0.7818609E-02  0.9206509E-01
        1   -1    0    0  501    0  0.00000000000E+00  0.00000000000E+00  0.13317968815E+04  0.13317968816E+04  0.50400001928E-02 0.  1.
       -1   -1    0    0    0  501  0.00000000000E+00  0.00000000000E+00 -0.22657962274E+03  0.22657962280E+03  0.50400001928E-02 0. -1.
    10030    2    1    2    0    0  0.00000000000E+00  0.00000000000E+00  0.11052172588E+04  0.15583765044E+04  0.10986501446E+04 0.  0.
        4    1    3    3  502    0  0.22659649758E+03 -0.52144393912E+02  0.12585496990E+04  0.12798491975E+04  0.12699999809E+01 0.  1.
       -4    1    3    3    0  502 -0.22659649758E+03  0.52144393912E+02 -0.15333244023E+03  0.27852730685E+03  0.12699999809E+01 0. -1.
</event>
<event>
 5   0  0.1464205E-04  0.1100597E+04  0.7818609E-02  0.9204610E-01
        2   -1    0    0  501    0  0.00000000000E+00  0.00000000000E+00  0.15025223284E+04  0.15025223284E+04  0.25500000920E-02 0. -1.
       -2   -1    0    0    0  501  0.00000000000E+00  0.00000000000E+00 -0.20154675351E+03  0.20154675353E+03  0.25500000920E-02 0.  1.
    10030    2    1    2    0    0  0.00000000000E+00  0.00000000000E+00  0.13009755749E+04  0.17040690820E+04  0.11005971059E+04 0.  0.
        3    1    3    3  502    0  0.39668061093E+03 -0.23543886575E+03  0.11150888949E+04  0.12067353564E+04  0.10100000352E+00 0. -1.
       -3    1    3    3    0  502 -0.39668061093E+03  0.23543886575E+03  0.18588668002E+03  0.49733372558E+03  0.10100000352E+00 0.  1.
</event>
<event>
 5   0  0.9346836E-05  0.1100045E+04  0.7818609E-02  0.9205148E-01
       -1   -1    0    0    0  501  0.00000000000E+00  0.00000000000E+00  0.62066234863E+03  0.62066234865E+03  0.50400001928E-02 0.  1.
        1   -1    0    0  501    0  0.00000000000E+00  0.00000000000E+00 -0.48742243315E+03  0.48742243317E+03  0.50400001928E-02 0. -1.
    10030    2    1    2    0    0  0.00000000000E+00  0.00000000000E+00  0.13323991549E+03  0.11080847818E+04  0.11000450030E+04 0.  0.
        5    1    3    3  502    0  0.48467612843E+03  0.95037494833E+02  0.31037945270E+03  0.58335286881E+03  0.46999998093E+01 0.  1.
       -5    1    3    3    0  502 -0.48467612843E+03 -0.95037494833E+02 -0.17713953722E+03  0.52473191301E+03  0.46999998093E+01 0. -1.
</event>
<event>
 5   0  0.8657442E-05  0.1099848E+04  0.7818609E-02  0.9205340E-01
       -1   -1    0    0    0  501  0.00000000000E+00  0.00000000000E+00  0.22970593720E+03  0.22970593726E+03  0.50400001928E-02 0. -1.
        1   -1    0    0  501    0  0.00000000000E+00  0.00000000000E+00 -0.13165381386E+04  0.13165381386E+04  0.50400001928E-02 0.  1.
    10030    2    1    2    0    0  0.00000000000E+00  0.00000000000E+00 -0.10868322014E+04  0.15462440758E+04  0.10998484023E+04 0.  0.
        1    1    3    3  502    0 -0.13050737118E+03 -0.37246666974E+02 -0.12926237500E+04  0.12997290669E+04  0.50400001928E-02 0.  1.
       -1    1    3    3    0  502  0.13050737118E+03  0.37246666974E+02  0.20579154864E+03  0.24651500897E+03  0.50400001928E-02 0. -1.
</event>
<event>
 5   0  0.8921459E-05  0.1100130E+04  0.7818609E-02  0.9205065E-01
        1   -1    0    0  501    0  0.00000000000E+00  0.00000000000E+00  0.62158000559E+03  0.62158000561E+03  0.50400001928E-02 0. -1.
       -1   -1    0    0    0  501  0.00000000000E+00  0.00000000000E+00 -0.48677837999E+03  0.48677838001E+03  0.50400001928E-02 0.  1.
    10030    2    1    2    0    0  0.00000000000E+00  0.00000000000E+00  0.13480162561E+03  0.11083583856E+04  0.11001303708E+04 0.  0.
        3    1    3    3  502    0  0.32926637587E+01 -0.68702167832E+02 -0.48242889566E+03  0.48730737638E+03  0.10100000352E+00 0.  1.
       -3    1    3    3    0  502 -0.32926637587E+01  0.68702167832E+02  0.61723052127E+03  0.62105100925E+03  0.10100000352E+00 0. -1.
</event>
<event>
 5   0  0.9016738E-05  0.1099695E+04  0.7818609E-02  0.9205489E-01
        1   -1    0    0  501    0  0.00000000000E+00  0.00000000000E+00  0.10317967700E+04  0.10317967700E+04  0.50400001928E-02 0. -1.
       -1   -1    0    0    0  501  0.00000000000E+00  0.00000000000E+00 -0.29301558216E+03  0.29301558220E+03  0.50400001928E-02 0.  1.
    10030    2    1    2    0    0  0.00000000000E+00  0.00000000000E+00  0.73878118788E+03  0.13248123522E+04  0.10996954693E+04 0.  0.
        4    1    3    3  502    0  0.48864705617E+03 -0.24588880297E+03  0.30238379254E+03  0.62503985459E+03  0.12699999809E+01 0.  1.
       -4    1    3    3    0  502 -0.48864705617E+03  0.24588880297E+03  0.43639739533E+03  0.69977249766E+03  0.12699999809E+01 0. -1.
</event>
<event>
 5   0  0.1464205E-04  0.1100493E+04  0.7818609E-02  0.9204711E-01
       -2   -1    0    0    0  501  0.00000000000E+00  0.00000000000E+00  0.57770821372E+03  0.57770821373E+03  0.25500000920E-02 0.  1.
        2   -1    0    0  501    0  0.00000000000E+00  0.00000000000E+00 -0.52409042508E+03  0.52409042509E+03  0.25500000920E-02 0. -1.
    10030    2    1    2    0    0  0.00000000000E+00  0.00000000000E+00  0.53617788640E+02  0.11017986388E+04  0.11004932409E+04 0.  0.
        3    1    3    3  502    0  0.42816983346E+03  0.26087501356E+03  0.25376292991E+03  0.56194378169E+03  0.10100000352E+00 0.  1.
       -3    1    3    3    0  502 -0.42816983346E+03 -0.26087501356E+03 -0.20014514127E+03  0.53985485712E+03  0.10100000352E+00 0. -1.
</event>
<event>
 5   0  0.9346836E-05  0.1100140E+04  0.7818609E-02  0.9205055E-01
       -1   -1    0    0    0  501  0.00000000000E+00  0.00000000000E+00  0.36196936538E+03  0.36196936541E+03  0.50400001928E-02 0.  1.
        1   -1    0    0  501    0  0.00000000000E+00  0.00000000000E+00 -0.83591905250E+03  0.83591905252E+03  0.50400001928E-02 0. -1.
    10030    2    1    2    0    0  0.00000000000E+00  0.00000000000E+00 -0.47394968713E+03  0.11978884179E+04  0.11001401528E+04 0.  0.
        5    1    3    3  502    0 -0.24997348522E+03  0.43630455001E+03 -0.47973385396E+03  0.69499285198E+03  0.46999998093E+01 0. -1.
       -5    1    3    3    0  502  0.24997348522E+03 -0.43630455001E+03  0.57841668325E+01  0.50289556595E+03  0.46999998093E+01 0.  1.
</event>
<event>
 5   0  0.1464205E-04  0.1099786E+04  0.7818609E-02  0.9205400E-01
        2   -1    0    0  501    0  0.00000000000E+00  0.00000000000E+00  0.30403177116E+03  0.30403177117E+03  0.25500000920E-02 0.  1.
       -2   -1    0    0    0  501  0.00000000000E+00  0.00000000000E+00 -0.99457529368E+03  0.99457529368E+03  0.25500000920E-02 0. -1.
    10030    2    1    2    0    0  0.00000000000E+00  0.00000000000E+00 -0.69054352252E+03  0.12986070648E+04  0.10997863212E+04 0.  0.
        3    1    3    3  502    0  0.49976286647E+03 -0.10300033893E+03 -0.10325341051E+03  0.52060855689E+03  0.10100000352E+00 0.  1.
       -3    1    3    3    0  502 -0.49976286647E+03  0.10300033893E+03 -0.58729011201E+03  0.77799850796E+03  0.10100000352E+00 0. -1.
</event>
<event>
 5   0  0.1503277E-04  0.1100824E+04  0.7818609E-02  0.9204389E-01
        2   -1    0    0  501    0  0.00000000000E+00  0.00000000000E+00  0.84235918663E+03  0.84235918663E+03  0.25500000920E-02 0. -1.
       -2   -1    0    0    0  501  0.00000000000E+00  0.00000000000E+00 -0.35964894571E+03  0.35964894572E+03  0.25500000920E-02 0.  1.
    10030    2    1    2    0    0  0.00000000000E+00  0.00000000000E+00  0.48271024092E+03  0.12020081324E+04  0.11008244063E+04 0.  0.
        5    1    3    3  502    0  0.30971317344E+03 -0.34684100327E+02 -0.25400227781E+03  0.40207522150E+03  0.46999998093E+01 0.  1.
       -5    1    3    3    0  502 -0.30971317344E+03  0.34684100327E+02  0.73671251873E+03  0.79993291085E+03  0.46999998093E+01 0. -1.
</event>
<event>
 5   0  0.8621738E-05  0.1102044E+04  0.7818609E-02  0.9203202E-01
        1   -1    0    0  501    0  0.00000000000E+00  0.00000000000E+00  0.16793629353E+04  0.16793629353E+04  0.50400001928E-02 0. -1.
       -1   -1    0    0    0  501  0.00000000000E+00  0.00000000000E+00 -0.18079795159E+03  0.18079795166E+03  0.50400001928E-02 0.  1.
    10030    2    1    2    0    0  0.00000000000E+00  0.00000000000E+00  0.14985649837E+04  0.18601608870E+04  0.11020442437E+04 0.  0.
        2    1    3    3  502    0  0.49552697325E+03  0.38795785105E+02  0.34780872302E+03  0.60664899405E+03  0.25500000920E-02 0. -1.
       -2    1    3    3    0  502 -0.49552697325E+03 -0.38795785105E+02  0.11507562607E+04  0.12535118929E+04  0.25500000920E-02 0.  1.
</event>
<event>
 5   0  0.9016738E-05  0.1100239E+04  0.7818609E-02  0.9204959E-01
        1   -1    0    0  501    0  0.00000000000E+00  0.00000000000E+00  0.76250212298E+03  0.76250212299E+03  0.50400001928E-02 0.  1.
       -1   -1    0    0    0  501  0.00000000000E+00  0.00000000000E+00 -0.39689240995E+03  0.39689240998E+03  0.50400001928E-02 0. -1.
    10030    2    1    2    0    0  0.00000000000E+00  0.00000000000E+00  0.36560971302E+03  0.11593945330E+04  0.11002387108E+04 0.  0.
        4    1    3    3  502    0  0.16657023340E+03  0.37010948454E+03  0.57412410804E+03  0.70309798573E+03  0.12699999809E+01 0.  1.
       -4    1    3    3    0  502 -0.16657023340E+03 -0.37010948454E+03 -0.20851439502E+03  0.45629654725E+03  0.12699999809E+01 0. -1.
</event>
<event>
 5   0  0.1540772E-04  0.1101124E+04  0.7818609E-02  0.9204097E-01
       -2   -1    0    0    0  501  0.00000000000E+00  0.00000000000E+00  0.55297530559E+03  0.55297530560E+03  0.25500000920E-02 0.  1.
        2   -1    0    0  501    0  0.00000000000E+00  0.00000000000E+00 -0.54815927812E+03  0.54815927813E+03  0.25500000920E-02 0. -1.
    10030    2    1    2    0    0  0.00000000000E+00  0.00000000000E+00  0.48160274713E+01  0.11011345837E+04  0.11011240518E+04 0.  0.
        2    1    3    3  502    0  0.38539659157E+03 -0.13609487755E+03 -0.36646703115E+03  0.54895394471E+03  0.25500000920E-02 0. -1.
       -2    1    3    3    0  502 -0.38539659157E+03  0.13609487755E+03  0.37128305862E+03  0.55218063902E+03  0.25500000920E-02 0.  1.
</event>
<event>
 5   0  0.1464205E-04  0.1099969E+04  0.7818609E-02  0.9205222E-01
        2   -1    0    0  501    0  0.00000000000E+00  0.00000000000E+00  0.10214750824E+04  0.10214750825E+04  0.25500000920E-02 0. -1.
       -2   -1    0    0    0  501  0.00000000000E+00  0.00000000000E+00 -0.29612352926E+03  0.29612352927E+03  0.25500000920E-02 0.  1.
    10030    2    1    2    0    0  0.00000000000E+00  0.00000000000E+00  0.72535155319E+03  0.13175986117E+04  0.10999687386E+04 0.  0.
        3    1    3    3  502    0  0.24623100758E+03  0.80423455696E+02  0.94383123454E+03  0.97873134762E+03  0.10100000352E+00 0. -1.
       -3    1    3    3    0  502 -0.24623100758E+03 -0.80423455696E+02 -0.21847968134E+03  0.33886726411E+03  0.10100000352E+00 0.  1.
</event>
<event>
 5   0  0.8657442E-05  0.1099930E+04  0.7818609E-02  0.9205261E-01
       -1   -1    0    0    0  501  0.00000000000E+00  0.00000000000E+00  0.75598942441E+03  0.75598942443E+03  0.50400001928E-02 0.  1.
        1   -1    0    0  501    0  0.00000000000E+00  0.00000000000E+00 -0.40008659102E+03  0.40008659105E+03  0.50400001928E-02 0. -1.
    10030    2    1    2    0    0  0.00000000000E+00  0.00000000000E+00  0.35590283339E+03  0.11560760155E+04  0.10999295099E+04 0.  0.
        1    1    3    3  502    0 -0.43837986090E+03 -0.13805989203E+02  0.52669226391E+03  0.68539933518E+03  0.50400001928E-02 0.  1.
       -1    1    3    3    0  502  0.43837986090E+03  0.13805989203E+02 -0.17078943052E+03  0.47067668030E+03  0.50400001928E-02 0. -1.
</event>
<event>
 5   0  0.1503277E-04  0.1099975E+04  0.7818609E-02  0.9205217E-01
       -2   -1    0    0    0  501  0.00000000000E+00  0.00000000000E+00  0.22750005170E+03  0.22750005172E+03  0.25500000920E-02 0. -1.
        2   -1    0    0  501    0  0.00000000000E+00  0.00000000000E+00 -0.13296086965E+04  0.13296086965E+04  0.25500000920E-02 0.  1.
    10030    2    1    2    0    0  0.00000000000E+00  0.00000000000E+00 -0.11021086448E+04  0.15571087482E+04  0.10999746310E+04 0.  0.
        5    1    3    3  502    0  0.20193473594E+03 -0.62827215514E+01  0.17303814313E+03  0.26604773846E+03  0.46999998093E+01 0. -1.
       -5    1    3    3    0  502 -0.20193473594E+03  0.62827215514E+01 -0.12751467880E+04  0.12910610098E+04  0.46999998093E+01 0.  1.
</event>
<event>
 5   0  0.9016738E-05  0.1099641E+04  0.7818609E-02  0.9205542E-01
       -1   -1    0    0    0  501  0.00000000000E+00  0.00000000000E+00  0.64289935678E+03  0.64289935680E+03  0.50400001928E-02 0.  1.
        1   -1    0    0  501    0  0.00000000000E+00  0.00000000000E+00 -0.47021715628E+03  0.47021715630E+03  0.50400001928E-02 0. -1.
    10030    2    1    2    0    0  0.00000000000E+00  0.00000000000E+00  0.17268220050E+03  0.11131165131E+04  0.10996405001E+04 0.  0.
        4    1    3    3  502    0  0.42658283863E+03  0.34172319332E+03  0.14667892718E+03  0.56591870409E+03  0.12699999809E+01 0.  1.
       -4    1    3    3    0  502 -0.42658283863E+03 -0.34172319332E+03  0.26003273315E+02  0.54719780901E+03  0.12699999809E+01 0. -1.
</event>
<event>
 5   0  0.9346836E-05  0.1099755E+04  0.7818609E-02  0.9205431E-01
        1   -1    0    0  501    0  0.00000000000E+00  0.00000000000E+00  0.17539277625E+03  0.17539277632E+03  0.50400001928E-02 0.  1.
       -1   -1    0    0    0  501  0.00000000000E+00  0.00000000000E+00 -0.17239327704E+04  0.17239327704E+04  0.50400001928E-02 0. -1.
    10030    2    1    2    0    0  0.00000000000E+00  0.00000000000E+00 -0.15485399941E+04  0.18993255467E+04  0.10997551632E+04 0.  0.
        5    1    3    3  502    0 -0.51571650742E+03 -0.18687425997E+03 -0.84020960601E+03  0.10034240266E+04  0.46999998093E+01 0. -1.
       -5    1    3    3    0  502  0.51571650742E+03  0.18687425997E+03 -0.70833038811E+03  0.89590152014E+03  0.46999998093E+01 0.  1.
</event>
<event>
 5   0  0.1540772E-04  0.1099598E+04  0.7818609E-02  0.9205584E-01
        2   -1    0    0  501    0  0.00000000000E+00  0.00000000000E+00  0.10553709093E+04  0.10553709093E+04  0.25500000920E-02 0. -1.
       -2   -1    0    0    0  501  0.00000000000E+00  0.00000000000E+00 -0.28641961399E+03  0.28641961400E+03  0.25500000920E-02 0.  1.
    10030    2    1    2    0    0  0.00000000000E+00  0.00000000000E+00  0.76895129530E+03  0.13417905233E+04  0.10995979783E+04 0.  0.
        2    1    3    3  502    0 -0.12599277651E+03  0.15623640729E+03  0.10090688225E+04  0.10288361790E+04  0.25500000920E-02 0. -1.
       -2    1    3    3    0  502  0.12599277651E+03 -0.15623640729E+03 -0.24011752723E+03  0.31295434425E+03  0.25500000920E-02 0.  1.
</event>
<event>
 5   0  0.8657442E-05  0.1094675E+04  0.7818609E-02  0.9210397E-01
        1   -1    0    0  501    0  0.00000000000E+00  0.00000000000E+00  0.36064440501E+03  0.36064440505E+03  0.50400001928E-02 0. -1.
       -1   -1    0    0    0  501  0.00000000000E+00  0.00000000000E+00 -0.83067524156E+03  0.83067524157E+03  0.50400001928E-02 0.  1.
    10030    2    1    2    0    0  0.00000000000E+00  0.00000000000E+00 -0.47003083655E+03  0.11913196466E+04  0.10946750719E+04 0.  0.
        1    1    3    3  502    0 -0.38452210803E+03 -0.21323920468E+03 -0.58975356181E+03  0.73562046849E+03  0.50400001928E-02 0.  1.
       -1    1    3    3    0  502  0.38452210803E+03  0.21323920468E+03  0.11972272527E+03  0.45569917812E+03  0.50400001928E-02 0. -1.
</event>
<event>
 5   0  0.8621738E-05  0.1099942E+04  0.7818609E-02  0.9205249E-01
        1   -1    0    0  501    0  0.00000000000E+00  0.00000000000E+00  0.46512093082E+03  0.46512093085E+03  0.50400001928E-02 0.  1.
       -1   -1    0    0    0  501  0.00000000000E+00  0.00000000000E+00 -0.65029948420E+03  0.65029948421E+03  0.50400001928E-02 0. -1.
    10030    2    1    2    0    0  0.00000000000E+00  0.00000000000E+00 -0.18517855337E+03  0.11154204151E+04  0.10999416374E+04 0.  0.
        2    1    3    3  502    0  0.29189652694E+03  0.36208060367E+03  0.20507500194E+03  0.50829292974E+03  0.25500000920E-02 0.  1.
       -2    1    3    3    0  502 -0.29189652694E+03 -0.36208060367E+03 -0.39025355532E+03  0.60712748533E+03  0.25500000920E-02 0. -1.
</event>
<event>
 5   0  0.1503277E-04  0.1098806E+04  0.7818609E-02  0.9206356E-01
        2   -1    0    0  501    0  0.00000000000E+00  0.00000000000E+00  0.65444380915E+03  0.65444380915E+03  0.25500000920E-02 0.  1.
       -2   -1    0    0    0  501  0.00000000000E+00  0.00000000000E+00 -0.46122163807E+03  0.46122163807E+03  0.25500000920E-02 0. -1.
    10030    2    1    2    0    0  0.00000000000E+00  0.00000000000E+00  0.19322217108E+03  0.11156654472E+04  0.10988059805E+04 0.  0.
        5    1    3    3  502    0 -0.21596503392E+03  0.47823479580E+03 -0.68587944504E+02  0.52922189290E+03  0.46999998093E+01 0. -1.
       -5    1    3    3    0  502  0.21596503392E+03 -0.47823479580E+03  0.26181011559E+03  0.58644355433E+03  0.46999998093E+01 0.  1.
</event>
<event>
 5   0  0.1574101E-04  0.1100339E+04  0.7818609E-02  0.9204862E-01
       -2   -1    0    0    0  501  0.00000000000E+00  0.00000000000E+00  0.59345240415E+03  0.59345240415E+03  0.25500000920E-02 0.  1.
        2   -1    0    0  501    0  0.00000000000E+00  0.00000000000E+00 -0.51004306923E+03  0.51004306924E+03  0.25500000920E-02 0. -1.
    10030    2    1    2    0    0  0.00000000000E+00  0.00000000000E+00  0.83409334911E+02  0.11034954734E+04  0.11003386491E+04 0.  0.
        4    1    3    3  502    0 -0.11452028991E+03  0.53553344232E+02 -0.49527693883E+03  0.51115918901E+03  0.12699999809E+01 0. -1.
       -4    1    3    3    0  502  0.11452028991E+03 -0.53553344232E+02  0.57868627374E+03  0.59233628438E+03  0.12699999809E+01 0.  1.
</event>
<event>
 5   0  0.8621738E-05  0.1100400E+04  0.7818609E-02  0.9204802E-01
        1   -1    0    0  501    0  0.00000000000E+00  0.00000000000E+00  0.15423394249E+04  0.15423394249E+04  0.50400001928E-02 0.  1.
       -1   -1    0    0    0  501  0.00000000000E+00  0.00000000000E+00 -0.19627332478E+03  0.19627332485E+03  0.50400001928E-02 0. -1.
    10030    2    1    2    0    0  0.00000000000E+00  0.00000000000E+00  0.13460661002E+04  0.17386127498E+04  0.11004000853E+04 0.  0.
        2    1    3    3  502    0 -0.25800579675E+03  0.48192442004E+03  0.57433852829E+03  0.79289525340E+03  0.25500000920E-02 0. -1.
       -2    1    3    3    0  502  0.25800579675E+03 -0.48192442004E+03  0.77172757187E+03  0.94571749639E+03  0.25500000920E-02 0.  1.
</event>
<event>
 5   0  0.8921459E-05  0.1100144E+04  0.7818609E-02  0.9205052E-01
       -1   -1    0    0    0  501  0.00000000000E+00  0.00000000000E+00  0.38544291099E+03  0.38544291103E+03  0.50400001928E-02 0. -1.
        1   -1    0    0  501    0  0.00000000000E+00  0.00000000000E+00 -0.78501622593E+03  0.78501622594E+03  0.50400001928E-02 0.  1.
    10030    2    1    2    0    0  0.00000000000E+00  0.00000000000E+00 -0.39957331494E+03  0.11704591370E+04  0.11001435167E+04 0.  0.
        3    1    3    3  502    0  0.32169564024E+03  0.16618827097E+03 -0.64034547984E+03  0.73562828256E+03  0.10100000352E+00 0.  1.
       -3    1    3    3    0  502 -0.32169564024E+03 -0.16618827097E+03  0.24077216490E+03  0.43483085441E+03  0.10100000352E+00 0. -1.
</event>
<event>
 5   0  0.8621738E-05  0.1100131E+04  0.7818609E-02  0.9205064E-01
       -1   -1    0    0    0  501  0.00000000000E+00  0.00000000000E+00  0.31759873105E+03  0.31759873109E+03  0.50400001928E-02 0.  1.
        1   -1    0    0  501    0  0.00000000000E+00  0.00000000000E+00 -0.95268605110E+03  0.95268605112E+03  0.50400001928E-02 0. -1.
    10030    2    1    2    0    0  0.00000000000E+00  0.00000000000E+00 -0.63508732005E+03  0.12702847822E+04  0.11001306849E+04 0.  0.
        2    1    3    3  502    0  0.37963560371E+02 -0.28062589816E+03  0.22696455979E+03  0.36291188743E+03  0.25500000920E-02 0.  1.
       -2    1    3    3    0  502 -0.37963560371E+02  0.28062589816E+03 -0.86205187984E+03  0.90737289478E+03  0.25500000920E-02 0. -1.
</event>
<event>
 5   0  0.1464205E-04  0.1100091E+04  0.7818609E-02  0.9205103E-01
        2   -1    0    0  501    0  0.00000000000E+00  0.00000000000E+00  0.17238693442E+04  0.17238693442E+04  0.25500000920E-02 0. -1.
       -2   -1    0    0    0  501  0.00000000000E+00  0.00000000000E+00 -0.17550627333E+03  0.17550627335E+03  0.25500000920E-02 0.  1.
    10030    2    1    2    0    0  0.00000000000E+00  0.00000000000E+00  0.15483630709E+04  0.18993756176E+04  0.11000906950E+04 0.  0.
        3    1    3    3  502    0 -0.42466317068E+03 -0.34722890022E+03  0.70419381859E+03  0.89263411430E+03  0.10100000352E+00 0.  1.
       -3    1    3    3    0  502  0.42466317068E+03  0.34722890022E+03  0.84416925228E+03  0.10067415033E+04  0.10100000352E+00 0. -1.
</event>
<event>
 5   0  0.9346836E-05  0.1098929E+04  0.7818609E-02  0.9206236E-01
        1   -1    0    0  501    0  0.00000000000E+00  0.00000000000E+00  0.51369005926E+03  0.51369005929E+03  0.50400001928E-02 0. -1.
       -1   -1    0    0    0  501  0.00000000000E+00  0.00000000000E+00 -0.58773064381E+03  0.58773064383E+03  0.50400001928E-02 0.  1.
    10030    2    1    2    0    0  0.00000000000E+00  0.00000000000E+00 -0.74040584548E+02  0.11014207031E+04  0.10989292776E+04 0.  0.
        5    1    3    3  502    0 -0.36831121911E+02 -0.34048361607E+02  0.51137049740E+03  0.51384598673E+03  0.46999998093E+01 0. -1.
       -5    1    3    3    0  502  0.36831121911E+02  0.34048361607E+02 -0.58541108195E+03  0.58757471639E+03  0.46999998093E+01 0.  1.
</event>
<event>
 5   0  0.9016738E-05  0.1100540E+04  0.7818609E-02  0.9204666E-01
       -1   -1    0    0    0  501  0.00000000000E+00  0.00000000000E+00  0.36987549580E+03  0.36987549584E+03  0.50400001928E-02 0. -1.
        1   -1    0    0  501    0  0.00000000000E+00  0.00000000000E+00 -0.81864603562E+03  0.81864603563E+03  0.50400001928E-02 0.  1.
    10030    2    1    2    0    0  0.00000000000E+00  0.00000000000E+00 -0.44877053981E+03  0.11885215315E+04  0.11005400644E+04 0.  0.
        4    1    3    3  502    0 -0.15389905139E+03  0.42645864633E+02  0.34429713886E+03  0.37953355650E+03  0.12699999809E+01 0. -1.
       -4    1    3    3    0  502  0.15389905139E+03 -0.42645864633E+02 -0.79306767867E+03  0.80898797497E+03  0.12699999809E+01 0.  1.
</event>
<event>
 5   0  0.8657442E-05  0.1099648E+04  0.7818609E-02  0.9205535E-01
        1   -1    0    0  501    0  0.00000000000E+00  0.00000000000E+00  0.27292808644E+04  0.27292808644E+04  0.50400001928E-02 0. -1.
       -1   -1    0    0    0  501  0.00000000000E+00  0.00000000000E+00 -0.11076422515E+03  0.11076422526E+03  0.50400001928E-02 0.  1.
    10030    2    1    2    0    0  0.00000000000E+00  0.00000000000E+00  0.26185166392E+04  0.28400450896E+04  0.10996484535E+04 0.  0.
        1    1    3    3  502    0  0.33450247981E+03 -0.34887678223E+03  0.63232017929E+03  0.79588675535E+03  0.50400001928E-02 0.  1.
       -1    1    3    3    0  502 -0.33450247981E+03  0.34887678223E+03  0.19861964599E+04  0.20441583343E+04  0.50400001928E-02 0. -1.
</event>
<event>
 5   0  0.1553937E-04  0.1100077E+04  0.7818609E-02  0.9205117E-01
       -2   -1    0    0    0  501  0.00000000000E+00  0.00000000000E+00  0.14734161651E+03  0.14734161653E+03  0.25500000920E-02 0. -1.
        2   -1    0    0  501    0  0.00000000000E+00  0.00000000000E+00 -0.20533377432E+04  0.20533377432E+04  0.25500000920E-02 0.  1.
    10030    2    1    2    0    0  0.00000000000E+00  0.00000000000E+00 -0.19059961267E+04  0.22006793597E+04  0.11000765471E+04 0.  0.
        1    1    3    3  502    0  0.39252386245E+03  0.38442671834E+03 -0.90070868257E+03  0.10550521386E+04  0.50400001928E-02 0.  1.
       -1    1    3    3    0  502 -0.39252386245E+03 -0.38442671834E+03 -0.10052874441E+04  0.11456272211E+04  0.50400001928E-02 0. -1.
</event>
<event>
 5   0  0.8657442E-05  0.1100148E+04  0.7818609E-02  0.9205048E-01
       -1   -1    0    0    0  501  0.00000000000E+00  0.00000000000E+00  0.18506014531E+03  0.18506014538E+03  0.50400001928E-02 0. -1.
        1   -1    0    0  501    0  0.00000000000E+00  0.00000000000E+00 -0.16350437685E+04  0.16350437685E+04  0.50400001928E-02 0.  1.
    10030    2    1    2    0    0  0.00000000000E+00  0.00000000000E+00 -0.14499836232E+04  0.18201039139E+04  0.11001480581E+04 0.  0.
        1    1    3    3  502    0 -0.34792757573E+03  0.29530860295E+03 -0.12330909777E+04  0.13148285547E+04  0.50400001928E-02 0.  1.
       -1    1    3    3    0  502  0.34792757573E+03 -0.29530860295E+03 -0.21689264553E+03  0.50527535922E+03  0.50400001928E-02 0. -1.
</event>
<event>
 5   0  0.1464205E-04  0.1096737E+04  0.7818609E-02  0.9208378E-01
        2   -1    0    0  501    0  0.00000000000E+00  0.00000000000E+00  0.59123739980E+03  0.59123739981E+03  0.25500000920E-02 0.  1.
       -2   -1    0    0    0  501  0.00000000000E+00  0.00000000000E+00 -0.50860819153E+03  0.50860819153E+03  0.25500000920E-02 0. -1.
    10030    2    1    2    0    0  0.00000000000E+00  0.00000000000E+00  0.82629208276E+02  0.10998455913E+04  0.10967373153E+04 0.  0.
        3    1    3    3  502    0  0.11552449252E+03  0.51679949110E+03  0.18412801285E+03  0.56065208257E+03  0.10100000352E+00 0. -1.
       -3    1    3    3    0  502 -0.11552449252E+03 -0.51679949110E+03 -0.10149880457E+03  0.53919350877E+03  0.10100000352E+00 0.  1.
</event>
<event>
 5   0  0.1464205E-04  0.1099999E+04  0.7818609E-02  0.9205192E-01
       -2   -1    0    0    0  501  0.00000000000E+00  0.00000000000E+00  0.28988702151E+03  0.28988702152E+03  0.25500000920E-02 0.  1.
        2   -1    0    0  501    0  0.00000000000E+00  0.00000000000E+00 -0.10435088916E+04  0.10435088916E+04  0.25500000920E-02 0. -1.
    10030    2    1    2    0    0  0.00000000000E+00  0.00000000000E+00 -0.75362187011E+03  0.13333959131E+04  0.10999994264E+04 0.  0.
        3    1    3    3  502    0  0.19329372900E+03  0.42436475356E+03 -0.23295545060E+02  0.46689463732E+03  0.10100000352E+00 0.  1.
       -3    1    3    3    0  502 -0.19329372900E+03 -0.42436475356E+03 -0.73032632505E+03  0.86650127583E+03  0.10100000352E+00 0. -1.
</event>
<event>
 5   0  0.1574101E-04  0.1100079E+04  0.7818609E-02  0.9205114E-01
       -2   -1    0    0    0  501  0.00000000000E+00  0.00000000000E+00  0.23032249274E+03  0.23032249276E+03  0.25500000920E-02 0.  1.
        2   -1    0    0  501    0  0.00000000000E+00  0.00000000000E+00 -0.13135654677E+04  0.13135654677E+04  0.25500000920E-02 0. -1.
    10030    2    1    2    0    0  0.00000000000E+00  0.00000000000E+00 -0.10832429750E+04  0.15438879605E+04  0.11000794024E+04 0.  0.
        4    1    3    3  502    0 -0.41001490416E+03 -0.16577160921E+03 -0.10005883747E+04  0.10939703637E+04  0.12699999809E+01 0. -1.
       -4    1    3    3    0  502  0.41001490416E+03  0.16577160921E+03 -0.82654600210E+02  0.44991759677E+03  0.12699999809E+01 0.  1.
</event>
<event>
 5   0  0.8921459E-05  0.1099060E+04  0.7818609E-02  0.9206108E-01
       -1   -1    0    0    0  501  0.00000000000E+00  0.00000000000E+00  0.19488761952E+03  0.19488761959E+03  0.50400001928E-02 0. -1.
        1   -1    0    0  501    0  0.00000000000E+00  0.00000000000E+00 -0.15495256372E+04  0.15495256372E+04  0.50400001928E-02 0.  1.
    10030    2    1    2    0    0  0.00000000000E+00  0.00000000000E+00 -0.13546380177E+04  0.17444132568E+04  0.10990602584E+04 0.  0.
        3    1    3    3  502    0  0.10828935831E+03  0.36338877163E+03 -0.46015094433E+02  0.38196254212E+03  0.10100000352E+00 0.  1.
       -3    1    3    3    0  502 -0.10828935831E+03 -0.36338877163E+03 -0.13086229233E+04  0.13624507147E+04  0.10100000352E+00 0. -1.
</event>
<event>
 5   0  0.1574101E-04  0.1100159E+04  0.7818609E-02  0.9205037E-01
        2   -1    0    0  501    0  0.00000000000E+00  0.00000000000E+00  0.90369275064E+03  0.90369275064E+03  0.25500000920E-02 0.  1.
       -2   -1    0    0    0  501  0.00000000000E+00  0.00000000000E+00 -0.33483468788E+03  0.33483468789E+03  0.25500000920E-02 0. -1.
    10030    2    1    2    0    0  0.00000000000E+00  0.00000000000E+00  0.56885806276E+03  0.12385274385E+04  0.11001594068E+04 0.  0.
        4    1    3    3  502    0  0.46749309526E+03 -0.13570735499E+03  0.57281054951E+03  0.75171791175E+03  0.12699999809E+01 0.  1.
       -4    1    3    3    0  502 -0.46749309526E+03  0.13570735499E+03 -0.39524867459E+01  0.48680952678E+03  0.12699999809E+01 0. -1.
</event>
<event>
 5   0  0.9346836E-05  0.1096896E+04  0.7818609E-02  0.9208222E-01
       -1   -1    0    0    0  501  0.00000000000E+00  0.00000000000E+00  0.17551164426E+03  0.17551164433E+03  0.50400001928E-02 0. -1.
        1   -1    0    0  501    0  0.00000000000E+00  0.00000000000E+00 -0.17138196877E+04  0.17138196877E+04  0.50400001928E-02 0.  1.
    10030    2    1    2    0    0  0.00000000000E+00  0.00000000000E+00 -0.15383080434E+04  0.18893313320E+04  0.10968961873E+04 0.  0.
        5    1    3    3  502    0  0.23129673334E+03  0.12890304009E+03  0.58078973179E+02  0.27112622470E+03  0.46999998093E+01 0. -1.
       -5    1    3    3    0  502 -0.23129673334E+03 -0.12890304009E+03 -0.15963870166E+04  0.16182051073E+04  0.46999998093E+01 0.  1.
</event>
<event>
 5   0  0.1553937E-04  0.1101634E+04  0.7818609E-02  0.9203601E-01
       -2   -1    0    0    0  501  0.00000000000E+00  0.00000000000E+00  0.25052369441E+03  0.25052369442E+03  0.25500000920E-02 0. -1.
        2   -1    0    0  501    0  0.00000000000E+00  0.00000000000E+00 -0.12110601382E+04  0.12110601382E+04  0.25500000920E-02 0.  1.
    10030    2    1    2    0    0  0.00000000000E+00  0.00000000000E+00 -0.96053644383E+03  0.14615838327E+04  0.11016338048E+04 0.  0.
        1    1    3    3  502    0 -0.16730019986E+03  0.22374239875E+03 -0.11100854367E+04  0.11447007009E+04  0.50400001928E-02 0.  1.
       -1    1    3    3    0  502  0.16730019986E+03 -0.22374239875E+03  0.14954899290E+03  0.31688313173E+03  0.50400001928E-02 0. -1.
</event>
<event>
 5   0  0.8621738E-05  0.1100177E+04  0.7818609E-02  0.9205020E-01
       -1   -1    0    0    0  501  0.00000000000E+00  0.00000000000E+00  0.16543065079E+03  0.16543065087E+03  0.50400001928E-02 0. -1.
        1   -1    0    0  501    0  0.00000000000E+00  0.00000000000E+00 -0.18291480850E+04  0.18291480850E+04  0.50400001928E-02 0.  1.
    10030    2    1    2    0    0  0.00000000000E+00  0.00000000000E+00 -0.16637174342E+04  0.19945787358E+04  0.11001766370E+04 0.  0.
        2    1    3    3  502    0  0.23441497793E+03 -0.43285105892E+03 -0.12770018275E+04  0.13685920095E+04  0.25500000920E-02 0.  1.
       -2    1    3    3    0  502 -0.23441497793E+03  0.43285105892E+03 -0.38671560672E+03  0.62598672635E+03  0.25500000920E-02 0. -1.
</event>
<event>
 5   0  0.1503277E-04  0.1099870E+04  0.7818609E-02  0.9205319E-01
       -2   -1    0    0    0  501  0.00000000000E+00  0.00000000000E+00  0.20057179742E+03  0.20057179744E+03  0.25500000920E-02 0. -1.
        2   -1    0    0  501    0  0.00000000000E+00  0.00000000000E+00 -0.15078311782E+04  0.15078311782E+04  0.25500000920E-02 0.  1.
    10030    2    1    2    0    0  0.00000000000E+00  0.00000000000E+00 -0.13072593808E+04  0.17084029757E+04  0.10998698280E+04 0.  0.
        5    1    3    3  502    0  0.91414387415E+02 -0.34233733275E+03 -0.13068468046E+04  0.13540391798E+04  0.46999998093E+01 0.  1.
       -5    1    3    3    0  502 -0.91414387415E+02  0.34233733275E+03 -0.41257617713E+00  0.35436379589E+03  0.46999998093E+01 0. -1.
</event>
<event>
 5   0  0.8921459E-05  0.1097891E+04  0.7818609E-02  0.9207250E-01
       -1   -1    0    0    0  501  0.00000000000E+00  0.00000000000E+00  0.48356420414E+03  0.48356420417E+03  0.50400001928E-02 0.  1.
        1   -1    0    0  501    0  0.00000000000E+00  0.00000000000E+00 -0.62316631970E+03  0.62316631972E+03  0.50400001928E-02 0. -1.
    10030    2    1    2    0    0  0.00000000000E+00  0.00000000000E+00 -0.13960211556E+03  0.11067305239E+04  0.10978905692E+04 0.  0.
        3    1    3    3  502    0 -0.88228399972E+02  0.19707120262E+03  0.43896018615E+03  0.48919051982E+03  0.10100000352E+00 0.  1.
       -3    1    3    3    0  502  0.88228399972E+02 -0.19707120262E+03 -0.57856230170E+03  0.61754000406E+03  0.10100000352E+00 0. -1.
</event>
<event>
 5   0  0.8657442E-05  0.1099819E+04  0.7818609E-02  0.9205368E-01
       -1   -1    0    0    0  501  0.00000000000E+00  0.00000000000E+00  0.26278737619E+03  0.26278737624E+03  0.50400001928E-02 0. -1.
        1   -1    0    0  501    0  0.00000000000E+00  0.00000000000E+00 -0.11507420985E+04  0.11507420985E+04  0.50400001928E-02 0.  1.
    10030    2    1    2    0    0  0.00000000000E+00  0.00000000000E+00 -0.88795472232E+03  0.14135294748E+04  0.10998190702E+04 0.  0.
        1    1    3    3  502    0  0.45252995473E+03  0.20030672264E+03 -0.75215152135E+03  0.90035440475E+03  0.50400001928E-02 0.  1.
       -1    1    3    3    0  502 -0.45252995473E+03 -0.20030672264E+03 -0.13580320098E+03  0.51317507001E+03  0.50400001928E-02 0. -1.
</event>
<event>
 5   0  0.9346836E-05  0.1099860E+04  0.7818609E-02  0.9205328E-01
       -1   -1    0    0    0  501  0.00000000000E+00  0.00000000000E+00  0.34184555475E+03  0.34184555479E+03  0.50400001928E-02 0.  1.
        1   -1    0    0  501    0  0.00000000000E+00  0.00000000000E+00 -0.88467714653E+03  0.88467714654E+03  0.50400001928E-02 0. -1.
    10030    2    1    2    0    0  0.00000000000E+00  0.00000000000E+00 -0.54283159178E+03  0.12265227013E+04  0.10998599001E+04 0.  0.
        5    1    3    3  502    0  0.61184638569E+02 -0.14158794892E+03 -0.86003806915E+03  0.87377244043E+03  0.46999998093E+01 0. -1.
       -5    1    3    3    0  502 -0.61184638569E+02  0.14158794892E+03  0.31720647737E+03  0.35275026089E+03  0.46999998093E+01 0.  1.
</event>
<event>
 5   0  0.8657442E-05  0.1100020E+04  0.7818609E-02  0.9205172E-01
        1   -1    0    0  501    0  0.00000000000E+00  0.00000000000E+00  0.69703854754E+03  0.69703854756E+03  0.50400001928E-02 0.  1.
       -1   -1    0    0    0  501  0.00000000000E+00  0.00000000000E+00 -0.43399471413E+03  0.43399471416E+03  0.50400001928E-02 0. -1.
    10030    2    1    2    0    0  0.00000000000E+00  0.00000000000E+00  0.26304383341E+03  0.11310332617E+04  0.11000200820E+04 0.  0.
        1    1    3    3  502    0  0.18162602536E+01 -0.23103125875E+03  0.64472562441E+03  0.68487215750E+03  0.50400001928E-02 0.  1.
       -1    1    3    3    0  502 -0.18162602536E+01  0.23103125875E+03 -0.38168179100E+03  0.44616110423E+03  0.50400001928E-02 0. -1.
</event>
<event>
 5   0  0.8621738E-05  0.1099097E+04  0.7818609E-02  0.9206073E-01
        1   -1    0    0  501    0  0.00000000000E+00  0.00000000000E+00  0.20902115418E+04  0.20902115418E+04  0.50400001928E-02 0. -1.
       -1   -1    0    0    0  501  0.00000000000E+00  0.00000000000E+00 -0.14448460142E+03  0.14448460151E+03  0.50400001928E-02 0.  1.
    10030    2    1    2    0    0  0.00000000000E+00  0.00000000000E+00  0.19457269404E+04  0.22346961433E+04  0.10990966866E+04 0.  0.
        2    1    3    3  502    0 -0.48544239345E+03  0.20517965465E+03  0.12894859874E+04  0.13930280398E+04  0.25500000920E-02 0. -1.
       -2    1    3    3    0  502  0.48544239345E+03 -0.20517965465E+03  0.65624095298E+03  0.84166810348E+03  0.25500000920E-02 0.  1.
</event>
<event>
 5   0  0.8921459E-05  0.1098973E+04  0.7818609E-02  0.9206193E-01
        1   -1    0    0  501    0  0.00000000000E+00  0.00000000000E+00  0.83965156663E+03  0.83965156665E+03  0.50400001928E-02 0. -1.
       -1   -1    0    0    0  501  0.00000000000E+00  0.00000000000E+00 -0.35959626448E+03  0.35959626452E+03  0.50400001928E-02 0.  1.
    10030    2    1    2    0    0  0.00000000000E+00  0.00000000000E+00  0.48005530215E+03  0.11992478312E+04  0.10989732788E+04 0.  0.
        3    1    3    3  502    0 -0.47136181570E+01  0.98751037566E+02 -0.34981117225E+03  0.36351320753E+03  0.10100000352E+00 0.  1.
       -3    1    3    3    0  502  0.47136181570E+01 -0.98751037566E+02  0.82986647440E+03  0.83573462364E+03  0.10100000352E+00 0. -1.
</event>
<event>
 5   0  0.1503277E-04  0.1099650E+04  0.7818609E-02  0.9205533E-01
       -2   -1    0    0    0  501  0.00000000000E+00  0.00000000000E+00  0.27745080220E+03  0.27745080222E+03  0.25500000920E-02 0.  1.
        2   -1    0    0  501    0  0.00000000000E+00  0.00000000000E+00 -0.10895890577E+04  0.10895890577E+04  0.25500000920E-02 0. -1.
    10030    2    1    2    0    0  0.00000000000E+00  0.00000000000E+00 -0.81213825546E+03  0.13670398599E+04  0.10996496863E+04 0.  0.
        5    1    3    3  502    0 -0.21525055067E+03 -0.25424023907E+03  0.13768256066E+03  0.36048505688E+03  0.46999998093E+01 0.  1.
       -5    1    3    3    0  502  0.21525055067E+03  0.25424023907E+03 -0.94982081611E+03  0.10065548030E+04  0.46999998093E+01 0. -1.
</event>
<event>
 5   0  0.9346836E-05  0.1100096E+04  0.7818609E-02  0.9205098E-01
       -1   -1    0    0    0  501  0.00000000000E+00  0.00000000000E+00  0.98735494432E+03  0.98735494434E+03  0.50400001928E-02 0. -1.
        1   -1    0    0  501    0  0.00000000000E+00  0.00000000000E+00 -0.30642784725E+03  0.30642784729E+03  0.50400001928E-02 0.  1.
    10030    2    1    2    0    0  0.00000000000E+00  0.00000000000E+00  0.68092709708E+03  0.12937827916E+04  0.11000964505E+04 0.  0.
        5    1    3    3  502    0  0.31686919653E+03  0.31540309437E+03  0.71725506432E+03  0.84519945394E+03  0.46999998093E+01 0. -1.
       -5    1    3    3    0  502 -0.31686919653E+03 -0.31540309437E+03 -0.36327967245E+02  0.44858333768E+03  0.46999998093E+01 0.  1.
</event>
<event>
 5   0  0.1553937E-04  0.1100206E+04  0.7818609E-02  0.9204991E-01
        2   -1    0    0  501    0  0.00000000000E+00  0.00000000000E+00  0.92626998722E+03  0.92626998722E+03  0.25500000920E-02 0.  1.
       -2   -1    0    0    0  501  0.00000000000E+00  0.00000000000E+00 -0.32670104162E+03  0.32670104163E+03  0.25500000920E-02 0. -1.
    10030    2    1    2    0    0  0.00000000000E+00  0.00000000000E+00  0.59956894560E+03  0.12529710288E+04  0.11002061073E+04 0.  0.
        1    1    3    3  502    0 -0.29885645598E+03  0.39601780344E+03  0.57040984951E+03  0.75598457548E+03  0.50400001928E-02 0.  1.
       -1    1    3    3    0  502  0.29885645598E+03 -0.39601780344E+03  0.29159096091E+02  0.49698645337E+03  0.50400001928E-02 0. -1.
</event>
<event>
 5   0  0.8657442E-05  0.1100684E+04  0.7818609E-02  0.9204526E-01
        1   -1    0    0  501    0  0.00000000000E+00  0.00000000000E+00  0.29263580878E+03  0.29263580882E+03  0.50400001928E-02 0.  1.
       -1   -1    0    0    0  501  0.00000000000E+00  0.00000000000E+00 -0.10349936406E+04  0.10349936406E+04  0.50400001928E-02 0. -1.
    10030    2    1    2    0    0  0.00000000000E+00  0.00000000000E+00 -0.74235783178E+03  0.13276294494E+04  0.11006837895E+04 0.  0.
        1    1    3    3  502    0 -0.27375118502E+03 -0.13991164393E+03 -0.92176186101E+03  0.97167891191E+03  0.50400001928E-02 0. -1.
       -1    1    3    3    0  502  0.27375118502E+03  0.13991164393E+03  0.17940402923E+03  0.35595053749E+03  0.50400001928E-02 0.  1.
</event>
<event>
 5   0  0.1574101E-04  0.1100382E+04  0.7818609E-02  0.9204819E-01
        2   -1    0    0  501    0  0.00000000000E+00  0.00000000000E+00  0.12211513989E+04  0.12211513990E+04  0.25500000920E-02 0.  1.
       -2   -1    0    0    0  501  0.00000000000E+00  0.00000000000E+00 -0.24788932433E+03  0.24788932434E+03  0.25500000920E-02 0. -1.
    10030    2    1    2    0    0  0.00000000000E+00  0.00000000000E+00  0.97326207462E+03  0.14690407233E+04  0.11003824702E+04 0.  0.
        4    1    3    3  502    0  0.52342135754E+03 -0.22447280195E+02  0.71095927666E+03  0.88314127063E+03  0.12699999809E+01 0.  1.
       -4    1    3    3    0  502 -0.52342135754E+03  0.22447280195E+02  0.26230279796E+03  0.58589945266E+03  0.12699999809E+01 0. -1.
</event>
<event>
 5   0  0.1464205E-04  0.1101995E+04  0.7818609E-02  0.9203250E-01
       -2   -1    0    0    0  501  0.00000000000E+00  0.00000000000E+00  0.36038656679E+03  0.36038656680E+03  0.25500000920E-02 0. -1.
        2   -1    0    0  501    0  0.00000000000E+00  0.00000000000E+00 -0.84242381220E+03  0.84242381220E+03  0.25500000920E-02 0.  1.
    10030    2    1    2    0    0  0.00000000000E+00  0.00000000000E+00 -0.48203724541E+03  0.12028103790E+04  0.11019949645E+04 0.  0.
        3    1    3    3  502    0  0.50969950617E+03  0.16376759069E+03 -0.38326716952E+03  0.65841259388E+03  0.10100000352E+00 0.  1.
       -3    1    3    3    0  502 -0.50969950617E+03 -0.16376759069E+03 -0.98770075885E+02  0.54439778512E+03  0.10100000352E+00 0. -1.
</event>
<event>
 5   0  0.8657442E-05  0.1099720E+04  0.7818609E-02  0.9205465E-01
       -1   -1    0    0    0  501  0.00000000000E+00  0.00000000000E+00  0.81949152877E+03  0.81949152878E+03  0.50400001928E-02 0.  1.
        1   -1    0    0  501    0  0.00000000000E+00  0.00000000000E+00 -0.36894326076E+03  0.36894326080E+03  0.50400001928E-02 0. -1.
    10030    2    1    2    0    0  0.00000000000E+00  0.00000000000E+00  0.45054826800E+03  0.11884347896E+04  0.10997197403E+04 0.  0.
        1    1    3    3  502    0  0.20598942955E+03 -0.38869397158E+03 -0.13123454001E+03  0.45906116492E+03  0.50400001928E-02 0. -1.
       -1    1    3    3    0  502 -0.20598942955E+03  0.38869397158E+03  0.58178280801E+03  0.72937362466E+03  0.50400001928E-02 0.  1.
</event>
<event>
 5   0  0.9346836E-05  0.1100892E+04  0.7818609E-02  0.9204323E-01
        1   -1    0    0  501    0  0.00000000000E+00  0.00000000000E+00  0.19229166617E+04  0.19229166617E+04  0.50400001928E-02 0.  1.
       -1   -1    0    0    0  501  0.00000000000E+00  0.00000000000E+00 -0.15756836132E+03  0.15756836140E+03  0.50400001928E-02 0. -1.
    10030    2    1    2    0    0  0.00000000000E+00  0.00000000000E+00  0.17653483003E+04  0.20804850231E+04  0.11008920518E+04 0.  0.
        5    1    3    3  502    0 -0.20900802202E+03  0.39725858760E+02  0.18420357367E+04  0.18542869903E+04  0.46999998093E+01 0.  1.
       -5    1    3    3    0  502  0.20900802202E+03 -0.39725858760E+02 -0.76687436375E+02  0.22619803274E+03  0.46999998093E+01 0. -1.
</event>
<event>
 5   0  0.9346836E-05  0.1099915E+04  0.7818609E-02  0.9205274E-01
       -1   -1    0    0    0  501  0.00000000000E+00  0.00000000000E+00  0.69219736471E+03  0.69219736473E+03  0.50400001928E-02 0. -1.
        1   -1    0    0  501    0  0.00000000000E+00  0.00000000000E+00 -0.43694691193E+03  0.43694691196E+03  0.50400001928E-02 0.  1.
    10030    2    1    2    0    0  0.00000000000E+00  0.00000000000E+00  0.25525045278E+03  0.11291442767E+04  0.10999154531E+04 0.  0.
        5    1    3    3  502    0 -0.48294231174E+03  0.26029747894E+03  0.16662634042E+03  0.57338859539E+03  0.46999998093E+01 0. -1.
       -5    1    3    3    0  502  0.48294231174E+03 -0.26029747894E+03  0.88624112359E+02  0.55575568130E+03  0.46999998093E+01 0.  1.
</event>
<event>
 5   0  0.8621738E-05  0.1099898E+04  0.7818609E-02  0.9205291E-01
        1   -1    0    0  501    0  0.00000000000E+00  0.00000000000E+00  0.53320934153E+03  0.53320934155E+03  0.50400001928E-02 0. -1.
       -1   -1    0    0    0  501  0.00000000000E+00  0.00000000000E+00 -0.56721440579E+03  0.56721440581E+03  0.50400001928E-02 0.  1.
    10030    2    1    2    0    0  0.00000000000E+00  0.00000000000E+00 -0.34005064258E+02  0.11004237474E+04  0.10998982132E+04 0.  0.
        2    1    3    3  502    0  0.31695635241E+03 -0.26113953265E+03  0.34894379567E+03  0.53890347687E+03  0.25500000920E-02 0. -1.
       -2    1    3    3    0  502 -0.31695635241E+03  0.26113953265E+03 -0.38294885993E+03  0.56152027049E+03  0.25500000920E-02 0.  1.
</event>
<event>
 5   0  0.1464205E-04  0.1099404E+04  0.7818609E-02  0.9205773E-01
        2   -1    0    0  501    0  0.00000000000E+00  0.00000000000E+00  0.40031535554E+03  0.40031535555E+03  0.25500000920E-02 0.  1.
       -2   -1    0    0    0  501  0.00000000000E+00  0.00000000000E+00 -0.75483538425E+03  0.75483538425E+03  0.25500000920E-02 0. -1.
    10030    2    1    2    0    0  0.00000000000E+00  0.00000000000E+00 -0.35452002871E+03  0.11551507398E+04  0.10994038298E+04 0.  0.
        3    1    3    3  502    0 -0.45793160478E+03  0.38564083120E+02  0.13966978334E+03  0.48030844438E+03  0.10100000352E+00 0.  1.
       -3    1    3    3    0  502  0.45793160478E+03 -0.38564083120E+02 -0.49418981205E+03  0.67484229543E+03  0.10100000352E+00 0. -1.
</event>
<event>
 5   0  0.1540772E-04  0.1099729E+04  0.7818609E-02  0.9205456E-01
        2   -1    0    0  501    0  0.00000000000E+00  0.00000000000E+00  0.60605895707E+03  0.60605895707E+03  0.25500000920E-02 0.  1.
       -2   -1    0    0    0  501  0.00000000000E+00  0.00000000000E+00 -0.49888053668E+03  0.49888053668E+03  0.25500000920E-02 0. -1.
    10030    2    1    2    0    0  0.00000000000E+00  0.00000000000E+00  0.10717842039E+03  0.11049394938E+04  0.10997290898E+04 0.  0.
        2    1    3    3  502    0 -0.50132164795E+03 -0.21234448098E+03  0.13100910261E+03  0.55997942666E+03  0.25500000920E-02 0. -1.
       -2    1    3    3    0  502  0.50132164795E+03  0.21234448098E+03 -0.23830682215E+02  0.54496006710E+03  0.25500000920E-02 0.  1.
</event>
<event>
 5   0  0.1464205E-04  0.1100392E+04  0.7818609E-02  0.9204810E-01
       -2   -1    0    0    0  501  0.00000000000E+00  0.00000000000E+00  0.16831557248E+03  0.16831557250E+03  0.25500000920E-02 0. -1.
        2   -1    0    0  501    0  0.00000000000E+00  0.00000000000E+00 -0.17985007774E+04  0.17985007774E+04  0.25500000920E-02 0.  1.
    10030    2    1    2    0    0  0.00000000000E+00  0.00000000000E+00 -0.16301852049E+04  0.19668163499E+04  0.11003920901E+04 0.  0.
        3    1    3    3  502    0  0.12791668024E+03 -0.11061200130E+03  0.12071186901E+03  0.20777164733E+03  0.10100000352E+00 0. -1.
       -3    1    3    3    0  502 -0.12791668024E+03  0.11061200130E+03 -0.17508970739E+04  0.17590447026E+04  0.10100000352E+00 0.  1.
</event>
<event>
 5   0  0.1540772E-04  0.1099960E+04  0.7818609E-02  0.9205230E-01
        2   -1    0    0  501    0  0.00000000000E+00  0.00000000000E+00  0.98315304645E+03  0.98315304645E+03  0.25500000920E-02 0.  1.
       -2   -1    0    0    0  501  0.00000000000E+00  0.00000000000E+00 -0.30766140106E+03  0.30766140107E+03  0.25500000920E-02 0. -1.
    10030    2    1    2    0    0  0.00000000000E+00  0.00000000000E+00  0.67549164539E+03  0.12908144475E+04  0.10999604424E+04 0.  0.
        2    1    3    3  502    0  0.53245467928E+03  0.48399308971E+02  0.48906838670E+03  0.72459531151E+03  0.25500000920E-02 0.  1.
       -2    1    3    3    0  502 -0.53245467928E+03 -0.48399308971E+02  0.18642325869E+03  0.56621913600E+03  0.25500000920E-02 0. -1.
</event>
<event>
 5   0  0.1464205E-04  0.1099811E+04  0.7818609E-02  0.9205376E-01
       -2   -1    0    0    0  501  0.00000000000E+00  0.00000000000E+00  0.32666802708E+03  0.32666802709E+03  0.25500000920E-02 0. -1.
        2   -1    0    0  501    0  0.00000000000E+00  0.00000000000E+00 -0.92569913401E+03  0.92569913402E+03  0.25500000920E-02 0.  1.
    10030    2    1    2    0    0  0.00000000000E+00  0.00000000000E+00 -0.59903110693E+03  0.12523671611E+04  0.10998114562E+04 0.  0.
        3    1    3    3  502    0 -0.16553370709E+02  0.84049272007E+02  0.31902351104E+03  0.33032454496E+03  0.10100000352E+00 0. -1.
       -3    1    3    3    0  502  0.16553370709E+02 -0.84049272007E+02 -0.91805461797E+03  0.92204261614E+03  0.10100000352E+00 0.  1.
</event>
<event>
 5   0  0.1503277E-04  0.1099918E+04  0.7818609E-02  0.9205272E-01
        2   -1    0    0  501    0  0.00000000000E+00  0.00000000000E+00  0.77325179288E+03  0.77325179288E+03  0.25500000920E-02 0. -1.
       -2   -1    0    0    0  501  0.00000000000E+00  0.00000000000E+00 -0.39114687827E+03  0.39114687828E+03  0.25500000920E-02 0.  1.
    10030    2    1    2    0    0  0.00000000000E+00  0.00000000000E+00  0.38210491460E+03  0.11643986712E+04  0.10999182241E+04 0.  0.
        5    1    3    3  502    0  0.39166569362E+03 -0.21323998313E+03 -0.14961962592E+03  0.47040559990E+03  0.46999998093E+01 0.  1.
       -5    1    3    3    0  502 -0.39166569362E+03  0.21323998313E+03  0.53172454052E+03  0.69399307126E+03  0.46999998093E+01 0. -1.
</event>
<event>
 5   0  0.1574101E-04  0.1099790E+04  0.7818609E-02  0.9205396E-01
        2   -1    0    0  501    0  0.00000000000E+00  0.00000000000E+00  0.31158496604E+03  0.31158496605E+03  0.25500000920E-02 0. -1.
       -2   -1    0    0    0  501  0.00000000000E+00  0.00000000000E+00 -0.97047289010E+03  0.97047289010E+03  0.25500000920E-02 0.  1.
    10030    2    1    2    0    0  0.00000000000E+00  0.00000000000E+00 -0.65888792406E+03  0.12820578561E+04  0.10997904573E+04 0.  0.
        4    1    3    3  502    0 -0.22617183753E+01  0.10951132353E+03  0.29873732379E+03  0.31818775413E+03  0.12699999809E+01 0. -1.
       -4    1    3    3    0  502  0.22617183753E+01 -0.10951132353E+03 -0.95762524785E+03  0.96387010202E+03  0.12699999809E+01 0.  1.
</event>
<event>
 5   0  0.1574101E-04  0.1099944E+04  0.7818609E-02  0.9205246E-01
        2   -1    0    0  501    0  0.00000000000E+00  0.00000000000E+00  0.11388638802E+04  0.11388638802E+04  0.25500000920E-02 0. -1.
       -2   -1    0    0    0  501  0.00000000000E+00  0.00000000000E+00 -0.26558874667E+03  0.26558874668E+03  0.25500000920E-02 0.  1.
    10030    2    1    2    0    0  0.00000000000E+00  0.00000000000E+00  0.87327513356E+03  0.14044526269E+04  0.10999444179E+04 0.  0.
        4    1    3    3  502    0 -0.49256081990E+02  0.14908656621E+03 -0.23636091472E+03  0.28376233144E+03  0.12699999809E+01 0.  1.
       -4    1    3    3    0  502  0.49256081990E+02 -0.14908656621E+03  0.11096360483E+04  0.11206902955E+04  0.12699999809E+01 0. -1.
</event>
<event>
 5   0  0.8657442E-05  0.1100118E+04  0.7818609E-02  0.9205077E-01
       -1   -1    0    0    0  501  0.00000000000E+00  0.00000000000E+00  0.14328511525E+03  0.14328511533E+03  0.50400001928E-02 0.  1.
        1   -1    0    0  501    0  0.00000000000E+00  0.00000000000E+00 -0.21116274371E+04  0.21116274371E+04  0.50400001928E-02 0. -1.
    10030    2    1    2    0    0  0.00000000000E+00  0.00000000000E+00 -0.19683423218E+04  0.22549125524E+04  0.11001177769E+04 0.  0.
        1    1    3    3  502    0 -0.13934887114E+03  0.12345354606E+03  0.76746444740E+02  0.20136758113E+03  0.50400001928E-02 0.  1.
       -1    1    3    3    0  502  0.13934887114E+03 -0.12345354606E+03 -0.20450887666E+04  0.20535449713E+04  0.50400001928E-02 0. -1.
</event>
<event>
 5   0  0.1540772E-04  0.1101320E+04  0.7818609E-02  0.9203907E-01
        2   -1    0    0  501    0  0.00000000000E+00  0.00000000000E+00  0.22190112703E+04  0.22190112703E+04  0.25500000920E-02 0.  1.
       -2   -1    0    0    0  501  0.00000000000E+00  0.00000000000E+00 -0.13664925056E+03  0.13664925059E+03  0.25500000920E-02 0. -1.
    10030    2    1    2    0    0  0.00000000000E+00  0.00000000000E+00  0.20823620197E+04  0.23556605208E+04  0.11013196214E+04 0.  0.
        2    1    3    3  502    0 -0.15237988741E+03 -0.16883088397E+03  0.21138622322E+04  0.21260613900E+04  0.25500000920E-02 0.  1.
       -2    1    3    3    0  502  0.15237988741E+03  0.16883088397E+03 -0.31500212513E+02  0.22959913080E+03  0.25500000920E-02 0. -1.
</event>
<event>
 5   0  0.9346836E-05  0.1100080E+04  0.7818609E-02  0.9205114E-01
        1   -1    0    0  501    0  0.00000000000E+00  0.00000000000E+00  0.24705962268E+03  0.24705962274E+03  0.50400001928E-02 0.  1.
       -1   -1    0    0    0  501  0.00000000000E+00  0.00000000000E+00 -0.12245781361E+04  0.12245781361E+04  0.50400001928E-02 0. -1.
    10030    2    1    2    0    0  0.00000000000E+00  0.00000000000E+00 -0.97751851342E+03  0.14716377589E+04  0.11000796558E+04 0.  0.
        5    1    3    3  502    0  0.29007167560E+02 -0.50805575045E+03 -0.76796158434E+03  0.92127582534E+03  0.46999998093E+01 0. -1.
       -5    1    3    3    0  502 -0.29007167560E+02  0.50805575045E+03 -0.20955692908E+03  0.55036193351E+03  0.46999998093E+01 0.  1.
</event>
<event>
 5   0  0.9016738E-05  0.1099942E+04  0.7818609E-02  0.9205248E-01
       -1   -1    0    0    0  501  0.00000000000E+00  0.00000000000E+00  0.45197236196E+03  0.45197236198E+03  0.50400001928E-02 0. -1.
        1   -1    0    0  501    0  0.00000000000E+00  0.00000000000E+00 -0.66921859422E+03  0.66921859424E+03  0.50400001928E-02 0.  1.
    10030    2    1    2    0    0  0.00000000000E+00  0.00000000000E+00 -0.21724623226E+03  0.11211909562E+04  0.10999423780E+04 0.  0.
        4    1    3    3  502    0  0.12771054185E+01  0.54345124263E+03 -0.22577881619E+02  0.54392302557E+03  0.12699999809E+01 0. -1.
       -4    1    3    3    0  502 -0.12771054185E+01 -0.54345124263E+03 -0.19466835064E+03  0.57726793065E+03  0.12699999809E+01 0.  1.
</event>
<event>
 5   0  0.9346836E-05  0.1100377E+04  0.7818609E-02  0.9204825E-01
       -1   -1    0    0    0  501  0.00000000000E+00  0.00000000000E+00  0.39352242391E+03  0.39352242394E+03  0.50400001928E-02 0. -1.
        1   -1    0    0  501    0  0.00000000000E+00  0.00000000000E+00 -0.76922455335E+03  0.76922455337E+03  0.50400001928E-02 0.  1.
    10030    2    1    2    0    0  0.00000000000E+00  0.00000000000E+00 -0.37570212944E+03  0.11627469773E+04  0.11003765006E+04 0.  0.
        5    1    3    3  502    0  0.21382563648E+03  0.13806454538E+03  0.32754699041E+03  0.41484014082E+03  0.46999998093E+01 0. -1.
       -5    1    3    3    0  502 -0.21382563648E+03 -0.13806454538E+03 -0.70324911985E+03  0.74790683649E+03  0.46999998093E+01 0.  1.
</event>
<event>
 5   0  0.1553937E-04  0.1099825E+04  0.7818609E-02  0.9205363E-01
        2   -1    0    0  501    0  0.00000000000E+00  0.00000000000E+00  0.87727587910E+03  0.87727587911E+03  0.25500000920E-02 0. -1.
       -2   -1    0    0    0  501  0.00000000000E+00  0.00000000000E+00 -0.34470747994E+03  0.34470747995E+03  0.25500000920E-02 0.  1.
    10030    2    1    2    0    0  0.00000000000E+00  0.00000000000E+00  0.53256839916E+03  0.12219833591E+04  0.10998246360E+04 0.  0.
        1    1    3    3  502    0 -0.28360398367E+03 -0.37470324722E+03 -0.51042478451E+02  0.47269342884E+03  0.50400001928E-02 0.  1.
       -1    1    3    3    0  502  0.28360398367E+03  0.37470324722E+03  0.58361087761E+03  0.74928993022E+03  0.50400001928E-02 0. -1.
</event>
<event>
 5   0  0.1464205E-04  0.1099796E+04  0.7818609E-02  0.9205391E-01
       -2   -1    0    0    0  501  0.00000000000E+00  0.00000000000E+00  0.22548667170E+03  0.22548667172E+03  0.25500000920E-02 0.  1.
        2   -1    0    0  501    0  0.00000000000E+00  0.00000000000E+00 -0.13410450577E+04  0.13410450577E+04  0.25500000920E-02 0. -1.
    10030    2    1    2    0    0  0.00000000000E+00  0.00000000000E+00 -0.11155583860E+04  0.15665317294E+04  0.10997959568E+04 0.  0.
        3    1    3    3  502    0 -0.34940648421E+03  0.35174733856E+03 -0.89658111410E+03  0.10245334478E+04  0.10100000352E+00 0. -1.
       -3    1    3    3    0  502  0.34940648421E+03 -0.35174733856E+03 -0.21897727185E+03  0.54199828153E+03  0.10100000352E+00 0.  1.
</event>
<event>
 5   0  0.1503277E-04  0.1101670E+04  0.7818609E-02  0.9203566E-01
        2   -1    0    0  501    0  0.00000000000E+00  0.00000000000E+00  0.65819891133E+03  0.65819891133E+03  0.25500000920E-02 0.  1.
       -2   -1    0    0    0  501  0.00000000000E+00  0.00000000000E+00 -0.46098373477E+03  0.46098373478E+03  0.25500000920E-02 0. -1.
    10030    2    1    2    0    0  0.00000000000E+00  0.00000000000E+00  0.19721517656E+03  0.11191826461E+04  0.11016696281E+04 0.  0.
        5    1    3    3  502    0  0.11721005207E+03  0.45711636267E+03 -0.18999175424E+03  0.50873620080E+03  0.46999998093E+01 0. -1.
       -5    1    3    3    0  502 -0.11721005207E+03 -0.45711636267E+03  0.38720693080E+03  0.61044644531E+03  0.46999998093E+01 0.  1.
</event>
<event>
 5   0  0.9346836E-05  0.1100617E+04  0.7818609E-02  0.9204591E-01
       -1   -1    0    0    0  501  0.00000000000E+00  0.00000000000E+00  0.16509372660E+03  0.16509372668E+03  0.50400001928E-02 0.  1.
        1   -1    0    0  501    0  0.00000000000E+00  0.00000000000E+00 -0.18343476746E+04  0.18343476746E+04  0.50400001928E-02 0. -1.
    10030    2    1    2    0    0  0.00000000000E+00  0.00000000000E+00 -0.16692539480E+04  0.19994414012E+04  0.11006167245E+04 0.  0.
        5    1    3    3  502    0  0.53022668935E+03  0.83634881696E+02 -0.10547503620E+04  0.11834929453E+04  0.46999998093E+01 0.  1.
       -5    1    3    3    0  502 -0.53022668935E+03 -0.83634881696E+02 -0.61450358598E+03  0.81594845592E+03  0.46999998093E+01 0. -1.
</event>
<event>
 5   0  0.1464205E-04  0.1098255E+04  0.7818609E-02  0.9206895E-01
        2   -1    0    0  501    0  0.00000000000E+00  0.00000000000E+00  0.11001443055E+04  0.11001443055E+04  0.25500000920E-02 0. -1.
       -2   -1    0    0    0  501  0.00000000000E+00  0.00000000000E+00 -0.27409211169E+03  0.27409211171E+03  0.25500000920E-02 0.  1.
    10030    2    1    2    0    0  0.00000000000E+00  0.00000000000E+00  0.82605219377E+03  0.13742364172E+04  0.10982547534E+04 0.  0.
        3    1    3    3  502    0 -0.32809631664E+03  0.27996456404E+03 -0.12253710152E+02  0.43148292402E+03  0.10100000352E+00 0.  1.
       -3    1    3    3    0  502  0.32809631664E+03 -0.27996456404E+03  0.83830590392E+03  0.94275349316E+03  0.10100000352E+00 0. -1.
</event>
<event>
 5   0  0.1574101E-04  0.1100013E+04  0.7818609E-02  0.9205179E-01
       -2   -1    0    0    0  501  0.00000000000E+00  0.00000000000E+00  0.14730522715E+03  0.14730522717E+03  0.25500000920E-02 0.  1.
        2   -1    0    0  501    0  0.00000000000E+00  0.00000000000E+00 -0.20536095081E+04  0.20536095081E+04  0.25500000920E-02 0. -1.
    10030    2    1    2    0    0  0.00000000000E+00  0.00000000000E+00 -0.19063042810E+04  0.22009147353E+04  0.11000134819E+04 0.  0.
        4    1    3    3  502    0 -0.19386162467E+03  0.10766711941E+03 -0.19601988278E+04  0.19727026120E+04  0.12699999809E+01 0. -1.
       -4    1    3    3    0  502  0.19386162467E+03 -0.10766711941E+03  0.53894546833E+02  0.22821212326E+03  0.12699999809E+01 0.  1.
</event>
<event>
 5   0  0.1503277E-04  0.1100072E+04  0.7818609E-02  0.9205122E-01
       -2   -1    0    0    0  501  0.00000000000E+00  0.00000000000E+00  0.24285779599E+03  0.24285779600E+03  0.25500000920E-02 0.  1.
        2   -1    0    0  501    0  0.00000000000E+00  0.00000000000E+00 -0.12457469378E+04  0.12457469378E+04  0.25500000920E-02 0. -1.
    10030    2    1    2    0    0  0.00000000000E+00  0.00000000000E+00 -0.10028891419E+04  0.14886047338E+04  0.11000715535E+04 0.  0.
        5    1    3    3  502    0 -0.15525275612E+03 -0.49999792626E+03 -0.72955194798E+03  0.89798077894E+03  0.46999998093E+01 0. -1.
       -5    1    3    3    0  502  0.15525275612E+03  0.49999792626E+03 -0.27333719387E+03  0.59062395490E+03  0.46999998093E+01 0.  1.
</event>
<event>
 5   0  0.9346836E-05  0.1100255E+04  0.7818609E-02  0.9204944E-01
       -1   -1    0    0    0  501  0.00000000000E+00  0.00000000000E+00  0.59055568212E+03  0.59055568214E+03  0.50400001928E-02 0. -1.
        1   -1    0    0  501    0  0.00000000000E+00  0.00000000000E+00 -0.51246659911E+03  0.51246659913E+03  0.50400001928E-02 0.  1.
    10030    2    1    2    0    0  0.00000000000E+00  0.00000000000E+00  0.78089083014E+02  0.11030222813E+04  0.11002546288E+04 0.  0.
        5    1    3    3  502    0  0.11528619799E+03 -0.32087717175E+03 -0.39374140261E+03  0.52087181622E+03  0.46999998093E+01 0.  1.
       -5    1    3    3    0  502 -0.11528619799E+03  0.32087717175E+03  0.47183048563E+03  0.58215046506E+03  0.46999998093E+01 0. -1.
</event>
<event>
 5   0  0.1464205E-04  0.1099894E+04  0.7818609E-02  0.9205295E-01
       -2   -1    0    0    0  501  0.00000000000E+00  0.00000000000E+00  0.33130253954E+03  0.33130253955E+03  0.25500000920E-02 0. -1.
        2   -1    0    0  501    0  0.00000000000E+00  0.00000000000E+00 -0.91288709999E+03  0.91288709999E+03  0.25500000920E-02 0.  1.
    10030    2    1    2    0    0  0.00000000000E+00  0.00000000000E+00 -0.58158456045E+03  0.12441896395E+04  0.10998942032E+04 0.  0.
        3    1    3    3  502    0 -0.33062340387E+03 -0.31296227274E+03  0.58202537278E+02  0.45896052651E+03  0.10100000352E+00 0. -1.
       -3    1    3    3    0  502  0.33062340387E+03  0.31296227274E+03 -0.63978709773E+03  0.78522911304E+03  0.10100000352E+00 0.  1.
</event>
<event>
 5   0  0.1553937E-04  0.1099856E+04  0.7818609E-02  0.9205332E-01
        2   -1    0    0  501    0  0.00000000000E+00  0.00000000000E+00  0.53797529949E+03  0.53797529950E+03  0.25500000920E-02 0. -1.
       -2   -1    0    0    0  501  0.00000000000E+00  0.00000000000E+00 -0.56214655606E+03  0.56214655607E+03  0.25500000920E-02 0.  1.
    10030    2    1    2    0    0  0.00000000000E+00  0.00000000000E+00 -0.24171256573E+02  0.11001218556E+04  0.10998562849E+04 0.  0.
        1    1    3    3  502    0 -0.11152586254E+03 -0.30916402180E+03  0.42892961235E+03  0.54037118980E+03  0.50400001928E-02 0. -1.
       -1    1    3    3    0  502  0.11152586254E+03  0.30916402180E+03 -0.45310086892E+03  0.55975066577E+03  0.50400001928E-02 0.  1.
</event>
<event>
 5   0  0.1574101E-04  0.1099828E+04  0.7818609E-02  0.9205359E-01
        2   -1    0    0  501    0  0.00000000000E+00  0.00000000000E+00  0.53178125602E+03  0.53178125603E+03  0.25500000920E-02 0.  1.
       -2   -1    0    0    0  501  0.00000000000E+00  0.00000000000E+00 -0.56866523112E+03  0.56866523113E+03  0.25500000920E-02 0. -1.
    10030    2    1    2    0    0  0.00000000000E+00  0.00000000000E+00 -0.36883975098E+02  0.11004464872E+04  0.10998281882E+04 0.  0.
        4    1    3    3  502    0  0.22393466391E+03 -0.39310422516E+03 -0.33122968289E+03  0.56070703693E+03  0.12699999809E+01 0. -1.
       -4    1    3    3    0  502 -0.22393466391E+03  0.39310422516E+03  0.29434570779E+03  0.53973945023E+03  0.12699999809E+01 0.  1.
</event>
<event>
 5   0  0.1553937E-04  0.1100387E+04  0.7818609E-02  0.9204815E-01
        2   -1    0    0  501    0  0.00000000000E+00  0.00000000000E+00  0.52914762303E+03  0.52914762303E+03  0.25500000920E-02 0.  1.
       -2   -1    0    0    0  501  0.00000000000E+00  0.00000000000E+00 -0.57207668773E+03  0.57207668774E+03  0.25500000920E-02 0. -1.
    10030    2    1    2    0    0  0.00000000000E+00  0.00000000000E+00 -0.42929064704E+02  0.11012243108E+04  0.11003872400E+04 0.  0.
        1    1    3    3  502    0  0.37921315331E+02 -0.26440110649E+03 -0.50283672361E+03  0.56937750386E+03  0.50400001928E-02 0. -1.
       -1    1    3    3    0  502 -0.37921315331E+02  0.26440110649E+03  0.45990765891E+03  0.53184680691E+03  0.50400001928E-02 0.  1.
</event>
<event>
 5   0  0.1464205E-04  0.1100029E+04  0.7818609E-02  0.9205163E-01
       -2   -1    0    0    0  501  0.00000000000E+00  0.00000000000E+00  0.27382605882E+03  0.27382605883E+03  0.25500000920E-02 0. -1.
        2   -1    0    0  501    0  0.00000000000E+00  0.00000000000E+00 -0.11047748096E+04  0.11047748096E+04  0.25500000920E-02 0.  1.
    10030    2    1    2    0    0  0.00000000000E+00  0.00000000000E+00 -0.83094875082E+03  0.13786008685E+04  0.11000293305E+04 0.  0.
        3    1    3    3  502    0  0.44644206969E+03 -0.29373322524E+03 -0.25242599552E+03  0.59102336892E+03  0.10100000352E+00 0. -1.
       -3    1    3    3    0  502 -0.44644206969E+03  0.29373322524E+03 -0.57852275530E+03  0.78757749955E+03  0.10100000352E+00 0.  1.
</event>
<event>
 5   0  0.1540772E-04  0.1100048E+04  0.7818609E-02  0.9205146E-01
        2   -1    0    0  501    0  0.00000000000E+00  0.00000000000E+00  0.83900210872E+03  0.83900210872E+03  0.25500000920E-02 0.  1.
       -2   -1    0    0    0  501  0.00000000000E+00  0.00000000000E+00 -0.36057851910E+03  0.36057851911E+03  0.25500000920E-02 0. -1.
    10030    2    1    2    0    0  0.00000000000E+00  0.00000000000E+00  0.47842358961E+03  0.11995806278E+04  0.11000475224E+04 0.  0.
        2    1    3    3  502    0  0.64018950595E+02  0.31395309804E+03  0.72672030655E+03  0.79422123981E+03  0.25500000920E-02 0.  1.
       -2    1    3    3    0  502 -0.64018950595E+02 -0.31395309804E+03 -0.24829671694E+03  0.40535938802E+03  0.25500000920E-02 0. -1.
</event>
<event>
 5   0  0.1553937E-04  0.1099925E+04  0.7818609E-02  0.9205265E-01
        2   -1    0    0  501    0  0.00000000000E+00  0.00000000000E+00  0.67707949650E+03  0.67707949651E+03  0.25500000920E-02 0. -1.
       -2   -1    0    0    0  501  0.00000000000E+00  0.00000000000E+00 -0.44671070655E+03  0.44671070656E+03  0.25500000920E-02 0.  1.
    10030    2    1    2    0    0  0.00000000000E+00  0.00000000000E+00  0.23036878995E+03  0.11237902031E+04  0.10999248343E+04 0.  0.
        1    1    3    3  502    0  0.98172360293E+02 -0.37704613563E+03 -0.28138297524E+03  0.48060168487E+03  0.50400001928E-02 0.  1.
       -1    1    3    3    0  502 -0.98172360293E+02  0.37704613563E+03  0.51175176520E+03  0.64318851819E+03  0.50400001928E-02 0. -1.
</event>
<event>
 5   0  0.1540772E-04  0.1100003E+04  0.7818609E-02  0.9205189E-01
       -2   -1    0    0    0  501  0.00000000000E+00  0.00000000000E+00  0.31266706793E+03  0.31266706794E+03  0.25500000920E-02 0. -1.
        2   -1    0    0  501    0  0.00000000000E+00  0.00000000000E+00 -0.96748846939E+03  0.96748846940E+03  0.25500000920E-02 0.  1.
    10030    2    1    2    0    0  0.00000000000E+00  0.00000000000E+00 -0.65482140146E+03  0.12801555373E+04  0.11000032418E+04 0.  0.
        2    1    3    3  502    0 -0.46967149301E+03  0.67579678371E+01 -0.66039011163E+03  0.81040241918E+03  0.25500000920E-02 0.  1.
       -2    1    3    3    0  502  0.46967149301E+03 -0.67579678371E+01  0.55687101657E+01  0.46975311816E+03  0.25500000920E-02 0. -1.
</event>
<event>
 5   0  0.8657442E-05  0.1099852E+04  0.7818609E-02  0.9205336E-01
       -1   -1    0    0    0  501  0.00000000000E+00  0.00000000000E+00  0.22746300109E+03  0.22746300115E+03  0.50400001928E-02 0. -1.
        1   -1    0    0  501    0  0.00000000000E+00  0.00000000000E+00 -0.13295282118E+04  0.13295282118E+04  0.50400001928E-02 0.  1.
    10030    2    1    2    0    0  0.00000000000E+00  0.00000000000E+00 -0.11020652107E+04  0.15569912130E+04  0.10998517666E+04 0.  0.
        1    1    3    3  502    0  0.45203419106E+03 -0.31046834947E+03 -0.60928003843E+03  0.81972414334E+03  0.50400001928E-02 0. -1.
       -1    1    3    3    0  502 -0.45203419106E+03  0.31046834947E+03 -0.49278517230E+03  0.73726706964E+03  0.50400001928E-02 0.  1.
</event>
<event>
 5   0  0.8621738E-05  0.1101688E+04  0.7818609E-02  0.9203549E-01
       -1   -1    0    0    0  501  0.00000000000E+00  0.00000000000E+00  0.26699663515E+03  0.26699663520E+03  0.50400001928E-02 0.  1.
        1   -1    0    0  501    0  0.00000000000E+00  0.00000000000E+00 -0.11364519607E+04  0.11364519607E+04  0.50400001928E-02 0. -1.
    10030    2    1    2    0    0  0.00000000000E+00  0.00000000000E+00 -0.86945532551E+03  0.14034485959E+04  0.11016875229E+04 0.  0.
        2    1    3    3  502    0 -0.34249433425E+02  0.34109966304E+03 -0.98399752515E+03  0.10420043826E+04  0.25500000920E-02 0. -1.
       -2    1    3    3    0  502  0.34249433425E+02 -0.34109966304E+03  0.11454219964E+03  0.36144421329E+03  0.25500000920E-02 0.  1.
</event>
<event>
 5   0  0.9016738E-05  0.1099787E+04  0.7818609E-02  0.9205399E-01
        1   -1    0    0  501    0  0.00000000000E+00  0.00000000000E+00  0.11471540649E+04  0.11471540649E+04  0.50400001928E-02 0.  1.
       -1   -1    0    0    0  501  0.00000000000E+00  0.00000000000E+00 -0.26359400498E+03  0.26359400503E+03  0.50400001928E-02 0. -1.
    10030    2    1    2    0    0  0.00000000000E+00  0.00000000000E+00  0.88356005990E+03  0.14107480699E+04  0.10997871327E+04 0.  0.
        4    1    3    3  502    0  0.27386593095E+01  0.52090844612E+02 -0.26041133205E+03  0.26558733236E+03  0.12699999809E+01 0. -1.
       -4    1    3    3    0  502 -0.27386593095E+01 -0.52090844612E+02  0.11439713920E+04  0.11451607376E+04  0.12699999809E+01 0.  1.
</event>
<event>
 5   0  0.9346836E-05  0.1099655E+04  0.7818609E-02  0.9205528E-01
        1   -1    0    0  501    0  0.00000000000E+00  0.00000000000E+00  0.36735709164E+03  0.36735709168E+03  0.50400001928E-02 0. -1.
       -1   -1    0    0    0  501  0.00000000000E+00  0.00000000000E+00 -0.82293358639E+03  0.82293358640E+03  0.50400001928E-02 0.  1.
    10030    2    1    2    0    0  0.00000000000E+00  0.00000000000E+00 -0.45557649474E+03  0.11902906781E+04  0.10996553805E+04 0.  0.
        5    1    3    3  502    0  0.46928686551E+03  0.12091541737E+03 -0.50887980332E+03  0.70273141706E+03  0.46999998093E+01 0.  1.
       -5    1    3    3    0  502 -0.46928686551E+03 -0.12091541737E+03  0.53303308577E+02  0.48755926102E+03  0.46999998093E+01 0. -1.
</event>
<event>
 5   0  0.1464205E-04  0.1100014E+04  0.7818609E-02  0.9205178E-01
        2   -1    0    0  501    0  0.00000000000E+00  0.00000000000E+00  0.12200606583E+04  0.12200606583E+04  0.25500000920E-02 0. -1.
       -2   -1    0    0    0  501  0.00000000000E+00  0.00000000000E+00 -0.24794469973E+03  0.24794469975E+03  0.25500000920E-02 0.  1.
    10030    2    1    2    0    0  0.00000000000E+00  0.00000000000E+00  0.97211595859E+03  0.14680053581E+04  0.11000137701E+04 0.  0.
        3    1    3    3  502    0 -0.23167803138E+03 -0.14989236117E+03  0.11210003159E+04  0.11544627099E+04  0.10100000352E+00 0. -1.
       -3    1    3    3    0  502  0.23167803138E+03  0.14989236117E+03 -0.14888435731E+03  0.31354264815E+03  0.10100000352E+00 0.  1.
</event>
<event>
 5   0  0.6010125E-05  0.1100333E+04  0.7818609E-02  0.9204867E-01
        3   -1    0    0  501    0  0.00000000000E+00  0.00000000000E+00  0.12779868887E+04  0.12779868927E+04  0.10100000352E+00 0.  1.
       -3   -1    0    0    0  501  0.00000000000E+00  0.00000000000E+00 -0.23684386141E+03  0.23684388295E+03  0.10100000352E+00 0. -1.
    10030    2    1    2    0    0  0.00000000000E+00  0.00000000000E+00  0.10411430273E+04  0.15148307756E+04  0.11003333475E+04 0.  0.
        2    1    3    3  502    0 -0.66487848862E+02 -0.47927927074E+03  0.16011190205E+03  0.50967153599E+03  0.25500000920E-02 0. -1.
       -2    1    3    3    0  502  0.66487848862E+02  0.47927927074E+03  0.88103112520E+03  0.10051592396E+04  0.25500000920E-02 0.  1.
</event>
<event>
 5   0  0.1464205E-04  0.1099833E+04  0.7818609E-02  0.9205354E-01
       -2   -1    0    0    0  501  0.00000000000E+00  0.00000000000E+00  0.20490574901E+03  0.20490574902E+03  0.25500000920E-02 0. -1.
        2   -1    0    0  501    0  0.00000000000E+00  0.00000000000E+00 -0.14758412254E+04  0.14758412254E+04  0.25500000920E-02 0.  1.
    10030    2    1    2    0    0  0.00000000000E+00  0.00000000000E+00 -0.12709354764E+04  0.16807469745E+04  0.10998333542E+04 0.  0.
        3    1    3    3  502    0  0.28638901239E+03 -0.44984953387E+03 -0.84063778423E+03  0.99551753577E+03  0.10100000352E+00 0.  1.
       -3    1    3    3    0  502 -0.28638901239E+03  0.44984953387E+03 -0.43029769221E+03  0.68522943870E+03  0.10100000352E+00 0. -1.
</event>
<event>
 5   0  0.8921459E-05  0.1100242E+04  0.7818609E-02  0.9204956E-01
        1   -1    0    0  501    0  0.00000000000E+00  0.00000000000E+00  0.16548393314E+04  0.16548393314E+04  0.50400001928E-02 0. -1.
       -1   -1    0    0    0  501  0.00000000000E+00  0.00000000000E+00 -0.18287769257E+03  0.18287769264E+03  0.50400001928E-02 0.  1.
    10030    2    1    2    0    0  0.00000000000E+00  0.00000000000E+00  0.14719616389E+04  0.18377170241E+04  0.11002421526E+04 0.  0.
        3    1    3    3  502    0  0.43380679879E+03 -0.14697958723E+03  0.22704589626E+03  0.51121540171E+03  0.10100000352E+00 0.  1.
       -3    1    3    3    0  502 -0.43380679879E+03  0.14697958723E+03  0.12449157426E+04  0.13265016224E+04  0.10100000352E+00 0. -1.
</event>
<event>
 5   0  0.8621738E-05  0.1100284E+04  0.7818609E-02  0.9204915E-01
       -1   -1    0    0    0  501  0.00000000000E+00  0.00000000000E+00  0.54642107142E+03  0.54642107144E+03  0.50400001928E-02 0. -1.
        1   -1    0    0  501    0  0.00000000000E+00  0.00000000000E+00 -0.55388799272E+03  0.55388799274E+03  0.50400001928E-02 0.  1.
    10030    2    1    2    0    0  0.00000000000E+00  0.00000000000E+00 -0.74669212962E+01  0.11003090642E+04  0.11002837279E+04 0.  0.
        2    1    3    3  502    0 -0.14432591791E+03  0.25433236073E+03  0.46226133602E+03  0.54699219654E+03  0.25500000920E-02 0. -1.
       -2    1    3    3    0  502  0.14432591791E+03 -0.25433236073E+03 -0.46972825731E+03  0.55331686764E+03  0.25500000920E-02 0.  1.
</event>
<event>
 5   0  0.9346836E-05  0.1099785E+04  0.7818609E-02  0.9205401E-01
        1   -1    0    0  501    0  0.00000000000E+00  0.00000000000E+00  0.71240628780E+03  0.71240628782E+03  0.50400001928E-02 0.  1.
       -1   -1    0    0    0  501  0.00000000000E+00  0.00000000000E+00 -0.42445134815E+03  0.42445134818E+03  0.50400001928E-02 0. -1.
    10030    2    1    2    0    0  0.00000000000E+00  0.00000000000E+00  0.28795493966E+03  0.11368576360E+04  0.10997850868E+04 0.  0.
        5    1    3    3  502    0 -0.35123965219E+03 -0.27286476579E+03  0.47819531044E+03  0.65308293394E+03  0.46999998093E+01 0. -1.
       -5    1    3    3    0  502  0.35123965219E+03  0.27286476579E+03 -0.19024037078E+03  0.48377470206E+03  0.46999998093E+01 0.  1.
</event>
<event>
 5   0  0.1574101E-04  0.1099790E+04  0.7818609E-02  0.9205396E-01
        2   -1    0    0  501    0  0.00000000000E+00  0.00000000000E+00  0.66634894088E+03  0.66634894089E+03  0.25500000920E-02 0. -1.
       -2   -1    0    0    0  501  0.00000000000E+00  0.00000000000E+00 -0.45379329829E+03  0.45379329830E+03  0.25500000920E-02 0.  1.
    10030    2    1    2    0    0  0.00000000000E+00  0.00000000000E+00  0.21255564259E+03  0.11201422392E+04  0.10997903140E+04 0.  0.
        4    1    3    3  502    0  0.45429016254E+03  0.29121718006E+03 -0.14917476195E+01  0.53962101141E+03  0.12699999809E+01 0.  1.
       -4    1    3    3    0  502 -0.45429016254E+03 -0.29121718006E+03  0.21404739021E+03  0.58052122778E+03  0.12699999809E+01 0. -1.
</event>
<event>
 5   0  0.1574101E-04  0.1099824E+04  0.7818609E-02  0.9205364E-01
       -2   -1    0    0    0  501  0.00000000000E+00  0.00000000000E+00  0.35953232500E+03  0.35953232500E+03  0.25500000920E-02 0.  1.
        2   -1    0    0  501    0  0.00000000000E+00  0.00000000000E+00 -0.84110098990E+03  0.84110098991E+03  0.25500000920E-02 0. -1.
    10030    2    1    2    0    0  0.00000000000E+00  0.00000000000E+00 -0.48156866491E+03  0.12006333149E+04  0.10998236122E+04 0.  0.
        4    1    3    3  502    0 -0.45654841310E+03 -0.29168982838E+03 -0.34366696119E+03  0.64158242074E+03  0.12699999809E+01 0. -1.
       -4    1    3    3    0  502  0.45654841310E+03  0.29168982838E+03 -0.13790170372E+03  0.55905089417E+03  0.12699999809E+01 0.  1.
</event>
<event>
 5   0  0.1464205E-04  0.1100146E+04  0.7818609E-02  0.9205050E-01
        2   -1    0    0  501    0  0.00000000000E+00  0.00000000000E+00  0.26409996666E+03  0.26409996667E+03  0.25500000920E-02 0. -1.
       -2   -1    0    0    0  501  0.00000000000E+00  0.00000000000E+00 -0.11457030262E+04  0.11457030262E+04  0.25500000920E-02 0.  1.
    10030    2    1    2    0    0  0.00000000000E+00  0.00000000000E+00 -0.88160305952E+03  0.14098029929E+04  0.11001456831E+04 0.  0.
        3    1    3    3  502    0  0.40153513708E+03  0.34020553051E+02  0.39009516642E+02  0.40485752671E+03  0.10100000352E+00 0. -1.
       -3    1    3    3    0  502 -0.40153513708E+03 -0.34020553051E+02 -0.92061257616E+03  0.10049454661E+04  0.10100000352E+00 0.  1.
</event>
<event>
 5   0  0.9016738E-05  0.1100385E+04  0.7818609E-02  0.9204816E-01
        1   -1    0    0  501    0  0.00000000000E+00  0.00000000000E+00  0.21243673293E+04  0.21243673293E+04  0.50400001928E-02 0. -1.
       -1   -1    0    0    0  501  0.00000000000E+00  0.00000000000E+00 -0.14249510909E+03  0.14249510918E+03  0.50400001928E-02 0.  1.
    10030    2    1    2    0    0  0.00000000000E+00  0.00000000000E+00  0.19818722202E+04  0.22668624385E+04  0.11003853042E+04 0.  0.
        4    1    3    3  502    0  0.45117012708E+03 -0.51440899743E+02  0.16309152951E+04  0.16929521442E+04  0.12699999809E+01 0. -1.
       -4    1    3    3    0  502 -0.45117012708E+03  0.51440899743E+02  0.35095692510E+03  0.57391029430E+03  0.12699999809E+01 0.  1.
</event>
<event>
 5   0  0.1574101E-04  0.1101534E+04  0.7818609E-02  0.9203698E-01
       -2   -1    0    0    0  501  0.00000000000E+00  0.00000000000E+00  0.13105944746E+03  0.13105944749E+03  0.25500000920E-02 0.  1.
        2   -1    0    0  501    0  0.00000000000E+00  0.00000000000E+00 -0.23145538441E+04  0.23145538441E+04  0.25500000920E-02 0. -1.
    10030    2    1    2    0    0  0.00000000000E+00  0.00000000000E+00 -0.21834943966E+04  0.24456132916E+04  0.11015337452E+04 0.  0.
        4    1    3    3  502    0  0.19877740542E+02  0.45963209327E+03 -0.17640128143E+04  0.18230193657E+04  0.12699999809E+01 0. -1.
       -4    1    3    3    0  502 -0.19877740542E+02 -0.45963209327E+03 -0.41948158229E+03  0.62259392586E+03  0.12699999809E+01 0.  1.
</event>
<event>
 5   0  0.9016738E-05  0.1099588E+04  0.7818609E-02  0.9205593E-01
        1   -1    0    0  501    0  0.00000000000E+00  0.00000000000E+00  0.43365953049E+03  0.43365953052E+03  0.50400001928E-02 0. -1.
       -1   -1    0    0    0  501  0.00000000000E+00  0.00000000000E+00 -0.69702959608E+03  0.69702959610E+03  0.50400001928E-02 0.  1.
    10030    2    1    2    0    0  0.00000000000E+00  0.00000000000E+00 -0.26337006559E+03  0.11306891266E+04  0.10995881545E+04 0.  0.
        4    1    3    3  502    0 -0.17395276087E+03  0.18364676495E+02 -0.66765206041E+03  0.69018672186E+03  0.12699999809E+01 0.  1.
       -4    1    3    3    0  502  0.17395276087E+03 -0.18364676495E+02  0.40428199483E+03  0.44050240476E+03  0.12699999809E+01 0. -1.
</event>
<event>
 5   0  0.1553937E-04  0.1100407E+04  0.7818609E-02  0.9204795E-01
       -2   -1    0    0    0  501  0.00000000000E+00  0.00000000000E+00  0.97930655806E+03  0.97930655807E+03  0.25500000920E-02 0.  1.
        2   -1    0    0  501    0  0.00000000000E+00  0.00000000000E+00 -0.30912092936E+03  0.30912092937E+03  0.25500000920E-02 0. -1.
    10030    2    1    2    0    0  0.00000000000E+00  0.00000000000E+00  0.67018562871E+03  0.12884274874E+04  0.11004074761E+04 0.  0.
        1    1    3    3  502    0  0.45289460206E+03  0.11455735141E+03  0.67542421895E+03  0.82123978405E+03  0.50400001928E-02 0.  1.
       -1    1    3    3    0  502 -0.45289460206E+03 -0.11455735141E+03 -0.52385902454E+01  0.46718770338E+03  0.50400001928E-02 0. -1.
</event>
<event>
 5   0  0.1503277E-04  0.1099874E+04  0.7818609E-02  0.9205315E-01
        2   -1    0    0  501    0  0.00000000000E+00  0.00000000000E+00  0.27793729089E+03  0.27793729090E+03  0.25500000920E-02 0. -1.
       -2   -1    0    0    0  501  0.00000000000E+00  0.00000000000E+00 -0.10881251159E+04  0.10881251159E+04  0.25500000920E-02 0.  1.
    10030    2    1    2    0    0  0.00000000000E+00  0.00000000000E+00 -0.81018782504E+03  0.13660624068E+04  0.10998737143E+04 0.  0.
        5    1    3    3  502    0  0.17965412225E+03  0.40469544311E+03 -0.46788248152E-01  0.44280480745E+03  0.46999998093E+01 0. -1.
       -5    1    3    3    0  502 -0.17965412225E+03 -0.40469544311E+03 -0.81014103679E+03  0.92325759937E+03  0.46999998093E+01 0.  1.
</event>
<event>
 5   0  0.9016738E-05  0.1100022E+04  0.7818609E-02  0.9205170E-01
        1   -1    0    0  501    0  0.00000000000E+00  0.00000000000E+00  0.70506005569E+03  0.70506005570E+03  0.50400001928E-02 0.  1.
       -1   -1    0    0    0  501  0.00000000000E+00  0.00000000000E+00 -0.42905890740E+03  0.42905890743E+03  0.50400001928E-02 0. -1.
    10030    2    1    2    0    0  0.00000000000E+00  0.00000000000E+00  0.27600114828E+03  0.11341189631E+04  0.11000223583E+04 0.  0.
        4    1    3    3  502    0  0.42335335481E+03  0.32985245942E+03  0.13937932407E+02  0.53686738295E+03  0.12699999809E+01 0. -1.
       -4    1    3    3    0  502 -0.42335335481E+03 -0.32985245942E+03  0.26206321588E+03  0.59725158018E+03  0.12699999809E+01 0.  1.
</event>
<event>
 5   0  0.9016738E-05  0.1099780E+04  0.7818609E-02  0.9205407E-01
        1   -1    0    0  501    0  0.00000000000E+00  0.00000000000E+00  0.73649113436E+03  0.73649113438E+03  0.50400001928E-02 0. -1.
       -1   -1    0    0    0  501  0.00000000000E+00  0.00000000000E+00 -0.41056691306E+03  0.41056691309E+03  0.50400001928E-02 0.  1.
    10030    2    1    2    0    0  0.00000000000E+00  0.00000000000E+00  0.32592422130E+03  0.11470580475E+04  0.10997797808E+04 0.  0.
        4    1    3    3  502    0  0.20360400768E+01  0.33936228487E+02 -0.40946820241E+03  0.41087909992E+03  0.12699999809E+01 0.  1.
       -4    1    3    3    0  502 -0.20360400768E+01 -0.33936228487E+02  0.73539242371E+03  0.73617894755E+03  0.12699999809E+01 0. -1.
</event>
<event>
 5   0  0.9016738E-05  0.1100273E+04  0.7818609E-02  0.9204926E-01
       -1   -1    0    0    0  501  0.00000000000E+00  0.00000000000E+00  0.28623330025E+03  0.28623330029E+03  0.50400001928E-02 0.  1.
        1   -1    0    0  501    0  0.00000000000E+00  0.00000000000E+00 -0.10573539161E+04  0.10573539162E+04  0.50400001928E-02 0. -1.
    10030    2    1    2    0    0  0.00000000000E+00  0.00000000000E+00 -0.77112061590E+03  0.13435872165E+04  0.11002725135E+04 0.  0.
        4    1    3    3  502    0 -0.21043135913E+02 -0.30408975075E+03  0.17368319705E+03  0.35082881284E+03  0.12699999809E+01 0.  1.
       -4    1    3    3    0  502  0.21043135913E+02  0.30408975075E+03 -0.94480381295E+03  0.99275840361E+03  0.12699999809E+01 0. -1.
</event>
<event>
 5   0  0.1574101E-04  0.1100664E+04  0.7818609E-02  0.9204545E-01
       -2   -1    0    0    0  501  0.00000000000E+00  0.00000000000E+00  0.34807006141E+03  0.34807006142E+03  0.25500000920E-02 0.  1.
        2   -1    0    0  501    0  0.00000000000E+00  0.00000000000E+00 -0.87012776542E+03  0.87012776542E+03  0.25500000920E-02 0. -1.
    10030    2    1    2    0    0  0.00000000000E+00  0.00000000000E+00 -0.52205770401E+03  0.12181978268E+04  0.11006642081E+04 0.  0.
        4    1    3    3  502    0  0.44093104660E+03  0.11596244529E+03  0.80098389275E+02  0.46290910711E+03  0.12699999809E+01 0.  1.
       -4    1    3    3    0  502 -0.44093104660E+03 -0.11596244529E+03 -0.60215609329E+03  0.75528871973E+03  0.12699999809E+01 0. -1.
</event>
<event>
 5   0  0.8657442E-05  0.1099588E+04  0.7818609E-02  0.9205593E-01
       -1   -1    0    0    0  501  0.00000000000E+00  0.00000000000E+00  0.48804681501E+03  0.48804681504E+03  0.50400001928E-02 0.  1.
        1   -1    0    0  501    0  0.00000000000E+00  0.00000000000E+00 -0.61935366670E+03  0.61935366673E+03  0.50400001928E-02 0. -1.
    10030    2    1    2    0    0  0.00000000000E+00  0.00000000000E+00 -0.13130685169E+03  0.11074004818E+04  0.10995882583E+04 0.  0.
        1    1    3    3  502    0 -0.49899909722E+03 -0.23075827843E+03 -0.70597715839E+02  0.55428649596E+03  0.50400001928E-02 0. -1.
       -1    1    3    3    0  502  0.49899909722E+03  0.23075827843E+03 -0.60709135853E+02  0.55311398581E+03  0.50400001928E-02 0.  1.
</event>
<event>
 5   0  0.1553937E-04  0.1099447E+04  0.7818609E-02  0.9205731E-01
       -2   -1    0    0    0  501  0.00000000000E+00  0.00000000000E+00  0.37923559140E+03  0.37923559141E+03  0.25500000920E-02 0. -1.
        2   -1    0    0  501    0  0.00000000000E+00  0.00000000000E+00 -0.79685588008E+03  0.79685588009E+03  0.25500000920E-02 0.  1.
    10030    2    1    2    0    0  0.00000000000E+00  0.00000000000E+00 -0.41762028868E+03  0.11760914715E+04  0.10994473356E+04 0.  0.
        1    1    3    3  502    0 -0.53572742080E+03 -0.84187752411E+02 -0.30511189312E+03  0.62224168487E+03  0.50400001928E-02 0. -1.
       -1    1    3    3    0  502  0.53572742080E+03  0.84187752411E+02 -0.11250839557E+03  0.55384978663E+03  0.50400001928E-02 0.  1.
</event>
<event>
 5   0  0.9346836E-05  0.1099893E+04  0.7818609E-02  0.9205296E-01
        1   -1    0    0  501    0  0.00000000000E+00  0.00000000000E+00  0.12114294316E+04  0.12114294316E+04  0.50400001928E-02 0. -1.
       -1   -1    0    0    0  501  0.00000000000E+00  0.00000000000E+00 -0.24965659879E+03  0.24965659884E+03  0.50400001928E-02 0.  1.
    10030    2    1    2    0    0  0.00000000000E+00  0.00000000000E+00  0.96177283277E+03  0.14610860304E+04  0.10998933614E+04 0.  0.
        5    1    3    3  502    0 -0.34548715023E+03 -0.42776244266E+03  0.46921598793E+03  0.72286085221E+03  0.46999998093E+01 0.  1.
       -5    1    3    3    0  502  0.34548715023E+03  0.42776244266E+03  0.49255684483E+03  0.73822517819E+03  0.46999998093E+01 0. -1.
</event>
<event>
 5   0  0.9346836E-05  0.1100214E+04  0.7818609E-02  0.9204983E-01
        1   -1    0    0  501    0  0.00000000000E+00  0.00000000000E+00  0.87018533739E+03  0.87018533740E+03  0.50400001928E-02 0. -1.
       -1   -1    0    0    0  501  0.00000000000E+00  0.00000000000E+00 -0.34776243073E+03  0.34776243077E+03  0.50400001928E-02 0.  1.
    10030    2    1    2    0    0  0.00000000000E+00  0.00000000000E+00  0.52242290665E+03  0.12179477682E+04  0.11002141031E+04 0.  0.
        5    1    3    3  502    0 -0.22726700995E+03  0.46182188957E+03  0.47605671723E+03  0.70112897495E+03  0.46999998093E+01 0. -1.
       -5    1    3    3    0  502  0.22726700995E+03 -0.46182188957E+03  0.46366189425E+02  0.51681879322E+03  0.46999998093E+01 0.  1.
</event>
<event>
 5   0  0.1464205E-04  0.1100699E+04  0.7818609E-02  0.9204511E-01
       -2   -1    0    0    0  501  0.00000000000E+00  0.00000000000E+00  0.35573734425E+03  0.35573734426E+03  0.25500000920E-02 0. -1.
        2   -1    0    0  501    0  0.00000000000E+00  0.00000000000E+00 -0.85142726794E+03  0.85142726794E+03  0.25500000920E-02 0.  1.
    10030    2    1    2    0    0  0.00000000000E+00  0.00000000000E+00 -0.49568992369E+03  0.12071646122E+04  0.11006988237E+04 0.  0.
        3    1    3    3  502    0 -0.60274781490E+02  0.10935658200E+03  0.33999645060E+03  0.36220092205E+03  0.10100000352E+00 0. -1.
       -3    1    3    3    0  502  0.60274781490E+02 -0.10935658200E+03 -0.83568637428E+03  0.84496369015E+03  0.10100000352E+00 0.  1.
</event>
<event>
 5   0  0.8657442E-05  0.1101439E+04  0.7818609E-02  0.9203790E-01
       -1   -1    0    0    0  501  0.00000000000E+00  0.00000000000E+00  0.19268248968E+03  0.19268248975E+03  0.50400001928E-02 0.  1.
        1   -1    0    0  501    0  0.00000000000E+00  0.00000000000E+00 -0.15740512885E+04  0.15740512886E+04  0.50400001928E-02 0. -1.
    10030    2    1    2    0    0  0.00000000000E+00  0.00000000000E+00 -0.13813687989E+04  0.17667337783E+04  0.11014392788E+04 0.  0.
        1    1    3    3  502    0  0.39343783897E+03 -0.12658324932E+03 -0.12745034811E+04  0.13398416979E+04  0.50400001928E-02 0. -1.
       -1    1    3    3    0  502 -0.39343783897E+03  0.12658324932E+03 -0.10686531779E+03  0.42689208041E+03  0.50400001928E-02 0.  1.
</event>
<event>
 5   0  0.9346836E-05  0.1100387E+04  0.7818609E-02  0.9204815E-01
       -1   -1    0    0    0  501  0.00000000000E+00  0.00000000000E+00  0.37510824219E+03  0.37510824222E+03  0.50400001928E-02 0.  1.
        1   -1    0    0  501    0  0.00000000000E+00  0.00000000000E+00 -0.80700094690E+03  0.80700094692E+03  0.50400001928E-02 0. -1.
    10030    2    1    2    0    0  0.00000000000E+00  0.00000000000E+00 -0.43189270471E+03  0.11821091891E+04  0.11003866714E+04 0.  0.
        5    1    3    3  502    0  0.13978373124E+03 -0.34584242244E+03  0.21849361364E+03  0.43232860405E+03  0.46999998093E+01 0.  1.
       -5    1    3    3    0  502 -0.13978373124E+03  0.34584242244E+03 -0.65038631836E+03  0.74978058509E+03  0.46999998093E+01 0. -1.
</event>
<event>
 5   0  0.6010125E-05  0.1100703E+04  0.7818609E-02  0.9204507E-01
        3   -1    0    0  501    0  0.00000000000E+00  0.00000000000E+00  0.21636384189E+03  0.21636386546E+03  0.10100000352E+00 0. -1.
       -3   -1    0    0    0  501  0.00000000000E+00  0.00000000000E+00 -0.13998957775E+04  0.13998957812E+04  0.10100000352E+00 0.  1.
    10030    2    1    2    0    0  0.00000000000E+00  0.00000000000E+00 -0.11835319356E+04  0.16162596466E+04  0.11007031401E+04 0.  0.
        4    1    3    3  502    0 -0.52764238256E+03 -0.15058312742E+03 -0.65412452560E+03  0.85379287303E+03  0.12699999809E+01 0.  1.
       -4    1    3    3    0  502  0.52764238256E+03  0.15058312742E+03 -0.52940741003E+03  0.76246677359E+03  0.12699999809E+01 0. -1.
</event>
<event>
 5   0  0.1503277E-04  0.1100074E+04  0.7818609E-02  0.9205119E-01
       -2   -1    0    0    0  501  0.00000000000E+00  0.00000000000E+00  0.39954505545E+03  0.39954505545E+03  0.25500000920E-02 0. -1.
        2   -1    0    0  501    0  0.00000000000E+00  0.00000000000E+00 -0.75721339705E+03  0.75721339705E+03  0.25500000920E-02 0.  1.
    10030    2    1    2    0    0  0.00000000000E+00  0.00000000000E+00 -0.35766834160E+03  0.11567584525E+04  0.11000743042E+04 0.  0.
        5    1    3    3  502    0  0.14816492053E+03 -0.40638257628E+03  0.17840541076E+03  0.46792117132E+03  0.46999998093E+01 0. -1.
       -5    1    3    3    0  502 -0.14816492053E+03  0.40638257628E+03 -0.53607375237E+03  0.68883728119E+03  0.46999998093E+01 0.  1.
</event>
<event>
 5   0  0.8657442E-05  0.1099482E+04  0.7818609E-02  0.9205697E-01
        1   -1    0    0  501    0  0.00000000000E+00  0.00000000000E+00  0.49748891738E+03  0.49748891741E+03  0.50400001928E-02 0.  1.
       -1   -1    0    0    0  501  0.00000000000E+00  0.00000000000E+00 -0.60748071455E+03  0.60748071457E+03  0.50400001928E-02 0. -1.
    10030    2    1    2    0    0  0.00000000000E+00  0.00000000000E+00 -0.10999179717E+03  0.11049696320E+04  0.10994815561E+04 0.  0.
        1    1    3    3  502    0 -0.18198508201E+03 -0.10790334222E+03  0.45493527139E+03  0.50172482748E+03  0.50400001928E-02 0.  1.
       -1    1    3    3    0  502  0.18198508201E+03  0.10790334222E+03 -0.56492706856E+03  0.60324480449E+03  0.50400001928E-02 0. -1.
</event>
<event>
 5   0  0.9346836E-05  0.1100145E+04  0.7818609E-02  0.9205051E-01
       -1   -1    0    0    0  501  0.00000000000E+00  0.00000000000E+00  0.78234751288E+03  0.78234751290E+03  0.50400001928E-02 0. -1.
        1   -1    0    0  501    0  0.00000000000E+00  0.00000000000E+00 -0.38675856477E+03  0.38675856480E+03  0.50400001928E-02 0.  1.
    10030    2    1    2    0    0  0.00000000000E+00  0.00000000000E+00  0.39558894811E+03  0.11691060777E+04  0.11001447201E+04 0.  0.
        5    1    3    3  502    0 -0.42452981606E+03 -0.28557076669E+03 -0.16807911752E+02  0.51193830039E+03  0.46999998093E+01 0.  1.
       -5    1    3    3    0  502  0.42452981606E+03  0.28557076669E+03  0.41239685986E+03  0.65716777731E+03  0.46999998093E+01 0. -1.
</event>
<event>
 5   0  0.8657442E-05  0.1099097E+04  0.7818609E-02  0.9206073E-01
       -1   -1    0    0    0  501  0.00000000000E+00  0.00000000000E+00  0.48740127589E+03  0.48740127592E+03  0.50400001928E-02 0.  1.
        1   -1    0    0  501    0  0.00000000000E+00  0.00000000000E+00 -0.61961957135E+03  0.61961957137E+03  0.50400001928E-02 0. -1.
    10030    2    1    2    0    0  0.00000000000E+00  0.00000000000E+00 -0.13221829546E+03  0.11070208473E+04  0.10990966648E+04 0.  0.
        1    1    3    3  502    0 -0.44753491772E+02 -0.54606507616E+03 -0.23217772259E+02  0.54838764338E+03  0.50400001928E-02 0.  1.
       -1    1    3    3    0  502  0.44753491772E+02  0.54606507616E+03 -0.10900052320E+03  0.55863320391E+03  0.50400001928E-02 0. -1.
</event>
<event>
 5   0  0.1574101E-04  0.1099847E+04  0.7818609E-02  0.9205341E-01
        2   -1    0    0  501    0  0.00000000000E+00  0.00000000000E+00  0.38813117584E+03  0.38813117584E+03  0.25500000920E-02 0. -1.
       -2   -1    0    0    0  501  0.00000000000E+00  0.00000000000E+00 -0.77915928677E+03  0.77915928677E+03  0.25500000920E-02 0.  1.
    10030    2    1    2    0    0  0.00000000000E+00  0.00000000000E+00 -0.39102811093E+03  0.11672904626E+04  0.10998472806E+04 0.  0.
        4    1    3    3  502    0  0.52631817561E+03  0.45036487363E+02 -0.35777913099E+03  0.63800205849E+03  0.12699999809E+01 0. -1.
       -4    1    3    3    0  502 -0.52631817561E+03 -0.45036487363E+02 -0.33248979944E+02  0.52928840412E+03  0.12699999809E+01 0.  1.
</event>
<event>
 5   0  0.8621738E-05  0.1100398E+04  0.7818609E-02  0.9204804E-01
       -1   -1    0    0    0  501  0.00000000000E+00  0.00000000000E+00  0.56521645230E+03  0.56521645232E+03  0.50400001928E-02 0. -1.
        1   -1    0    0  501    0  0.00000000000E+00  0.00000000000E+00 -0.53558078137E+03  0.53558078139E+03  0.50400001928E-02 0.  1.
    10030    2    1    2    0    0  0.00000000000E+00  0.00000000000E+00  0.29635670926E+02  0.11007972337E+04  0.11003982355E+04 0.  0.
        2    1    3    3  502    0  0.14349509962E+03  0.52567126649E+03 -0.61354013187E+02  0.54834791781E+03  0.25500000920E-02 0. -1.
       -2    1    3    3    0  502 -0.14349509962E+03 -0.52567126649E+03  0.90989684113E+02  0.55244931591E+03  0.25500000920E-02 0.  1.
</event>
<event>
 5   0  0.9346836E-05  0.1100692E+04  0.7818609E-02  0.9204517E-01
       -1   -1    0    0    0  501  0.00000000000E+00  0.00000000000E+00  0.46431990232E+03  0.46431990235E+03  0.50400001928E-02 0.  1.
        1   -1    0    0  501    0  0.00000000000E+00  0.00000000000E+00 -0.65231065023E+03  0.65231065025E+03  0.50400001928E-02 0. -1.
    10030    2    1    2    0    0  0.00000000000E+00  0.00000000000E+00 -0.18799074791E+03  0.11166305526E+04  0.11006921775E+04 0.  0.
        5    1    3    3  502    0 -0.18671665727E+03 -0.47496627294E+03  0.11490545408E+03  0.52314570046E+03  0.46999998093E+01 0.  1.
       -5    1    3    3    0  502  0.18671665727E+03  0.47496627294E+03 -0.30289620200E+03  0.59348485214E+03  0.46999998093E+01 0. -1.
</event>
<event>
 5   0  0.1553937E-04  0.1100289E+04  0.7818609E-02  0.9204910E-01
        2   -1    0    0  501    0  0.00000000000E+00  0.00000000000E+00  0.78309535247E+03  0.78309535247E+03  0.25500000920E-02 0. -1.
       -2   -1    0    0    0  501  0.00000000000E+00  0.00000000000E+00 -0.38649061679E+03  0.38649061680E+03  0.25500000920E-02 0.  1.
    10030    2    1    2    0    0  0.00000000000E+00  0.00000000000E+00  0.39660473567E+03  0.11695859693E+04  0.11002890635E+04 0.  0.
        1    1    3    3  502    0 -0.28647221737E+03 -0.33708329304E+03  0.54595965199E+03  0.70268301488E+03  0.50400001928E-02 0. -1.
       -1    1    3    3    0  502  0.28647221737E+03  0.33708329304E+03 -0.14935491631E+03  0.46690295440E+03  0.50400001928E-02 0.  1.
</event>
<event>
 5   0  0.1574101E-04  0.1100414E+04  0.7818609E-02  0.9204788E-01
        2   -1    0    0  501    0  0.00000000000E+00  0.00000000000E+00  0.18865587716E+03  0.18865587718E+03  0.25500000920E-02 0.  1.
       -2   -1    0    0    0  501  0.00000000000E+00  0.00000000000E+00 -0.16046556908E+04  0.16046556908E+04  0.25500000920E-02 0. -1.
    10030    2    1    2    0    0  0.00000000000E+00  0.00000000000E+00 -0.14159998136E+04  0.17933115679E+04  0.11004139710E+04 0.  0.
        4    1    3    3  502    0 -0.42723481667E+03 -0.34317689262E+02 -0.14577837070E+03  0.45272534569E+03  0.12699999809E+01 0.  1.
       -4    1    3    3    0  502  0.42723481667E+03  0.34317689262E+02 -0.12702214429E+04  0.13405862223E+04  0.12699999809E+01 0. -1.
</event>
<event>
 5   0  0.1574101E-04  0.1100131E+04  0.7818609E-02  0.9205064E-01
        2   -1    0    0  501    0  0.00000000000E+00  0.00000000000E+00  0.96526172773E+03  0.96526172773E+03  0.25500000920E-02 0.  1.
       -2   -1    0    0    0  501  0.00000000000E+00  0.00000000000E+00 -0.31346106041E+03  0.31346106042E+03  0.25500000920E-02 0. -1.
    10030    2    1    2    0    0  0.00000000000E+00  0.00000000000E+00  0.65180066732E+03  0.12787227881E+04  0.11001308372E+04 0.  0.
        4    1    3    3  502    0 -0.35297125480E+03  0.30092503214E+03 -0.17777719791E+02  0.46417910542E+03  0.12699999809E+01 0. -1.
       -4    1    3    3    0  502  0.35297125480E+03 -0.30092503214E+03  0.66957838711E+03  0.81454368273E+03  0.12699999809E+01 0.  1.
</event>
<event>
 5   0  0.1540772E-04  0.1101268E+04  0.7818609E-02  0.9203957E-01
        2   -1    0    0  501    0  0.00000000000E+00  0.00000000000E+00  0.20632497478E+03  0.20632497479E+03  0.25500000920E-02 0. -1.
       -2   -1    0    0    0  501  0.00000000000E+00  0.00000000000E+00 -0.14695160830E+04  0.14695160830E+04  0.25500000920E-02 0.  1.
    10030    2    1    2    0    0  0.00000000000E+00  0.00000000000E+00 -0.12631911082E+04  0.16758410578E+04  0.11012681213E+04 0.  0.
        2    1    3    3  502    0 -0.48390964565E+03 -0.68497583563E+02 -0.24560957665E+03  0.54697763049E+03  0.25500000920E-02 0. -1.
       -2    1    3    3    0  502  0.48390964565E+03  0.68497583563E+02 -0.10175815315E+04  0.11288634273E+04  0.25500000920E-02 0.  1.
</event>
<event>
 5   0  0.1464205E-04  0.1100231E+04  0.7818609E-02  0.9204967E-01
       -2   -1    0    0    0  501  0.00000000000E+00  0.00000000000E+00  0.34494959571E+03  0.34494959572E+03  0.25500000920E-02 0. -1.
        2   -1    0    0  501    0  0.00000000000E+00  0.00000000000E+00 -0.87730788876E+03  0.87730788876E+03  0.25500000920E-02 0.  1.
    10030    2    1    2    0    0  0.00000000000E+00  0.00000000000E+00 -0.53235829305E+03  0.12222574845E+04  0.11002308877E+04 0.  0.
        3    1    3    3  502    0 -0.49914007739E+03 -0.11516106174E+03 -0.43375618448E+02  0.51408592811E+03  0.10100000352E+00 0. -1.
       -3    1    3    3    0  502  0.49914007739E+03  0.11516106174E+03 -0.48898267460E+03  0.70817155638E+03  0.10100000352E+00 0.  1.
</event>
<event>
 5   0  0.8921459E-05  0.1099931E+04  0.7818609E-02  0.9205259E-01
       -1   -1    0    0    0  501  0.00000000000E+00  0.00000000000E+00  0.18293642399E+03  0.18293642406E+03  0.50400001928E-02 0. -1.
        1   -1    0    0  501    0  0.00000000000E+00  0.00000000000E+00 -0.16533738828E+04  0.16533738828E+04  0.50400001928E-02 0.  1.
    10030    2    1    2    0    0  0.00000000000E+00  0.00000000000E+00 -0.14704374588E+04  0.18363103069E+04  0.10999314628E+04 0.  0.
        3    1    3    3  502    0  0.44991930240E+03 -0.38284681962E+02 -0.21107419350E+03  0.49844299665E+03  0.10100000352E+00 0. -1.
       -3    1    3    3    0  502 -0.44991930240E+03  0.38284681962E+02 -0.12593632653E+04  0.13378673102E+04  0.10100000352E+00 0.  1.
</event>
<event>
 5   0  0.9016738E-05  0.1099917E+04  0.7818609E-02  0.9205273E-01
       -1   -1    0    0    0  501  0.00000000000E+00  0.00000000000E+00  0.16718204280E+03  0.16718204288E+03  0.50400001928E-02 0. -1.
        1   -1    0    0  501    0  0.00000000000E+00  0.00000000000E+00 -0.18091318389E+04  0.18091318389E+04  0.50400001928E-02 0.  1.
    10030    2    1    2    0    0  0.00000000000E+00  0.00000000000E+00 -0.16419497961E+04  0.19763138817E+04  0.10999170089E+04 0.  0.
        4    1    3    3  502    0 -0.45732273995E+03 -0.25475858256E+03 -0.11238102329E+04  0.12397568618E+04  0.12699999809E+01 0.  1.
       -4    1    3    3    0  502  0.45732273995E+03  0.25475858256E+03 -0.51813956317E+03  0.73655701998E+03  0.12699999809E+01 0. -1.
</event>
<event>
 5   0  0.1464205E-04  0.1100225E+04  0.7818609E-02  0.9204972E-01
       -2   -1    0    0    0  501  0.00000000000E+00  0.00000000000E+00  0.68700238822E+03  0.68700238823E+03  0.25500000920E-02 0. -1.
        2   -1    0    0  501    0  0.00000000000E+00  0.00000000000E+00 -0.44049917679E+03  0.44049917680E+03  0.25500000920E-02 0.  1.
    10030    2    1    2    0    0  0.00000000000E+00  0.00000000000E+00  0.24650321143E+03  0.11275015650E+04  0.11002254069E+04 0.  0.
        3    1    3    3  502    0 -0.22854572988E+02  0.22553056164E+03  0.63691404624E+03  0.67605168311E+03  0.10100000352E+00 0. -1.
       -3    1    3    3    0  502  0.22854572988E+02 -0.22553056164E+03 -0.39041083481E+03  0.45144988191E+03  0.10100000352E+00 0.  1.
</event>
<event>
 5   0  0.1540772E-04  0.1099801E+04  0.7818609E-02  0.9205385E-01
        2   -1    0    0  501    0  0.00000000000E+00  0.00000000000E+00  0.21740027151E+04  0.21740027151E+04  0.25500000920E-02 0. -1.
       -2   -1    0    0    0  501  0.00000000000E+00  0.00000000000E+00 -0.13909404461E+03  0.13909404464E+03  0.25500000920E-02 0.  1.
    10030    2    1    2    0    0  0.00000000000E+00  0.00000000000E+00  0.20349086705E+04  0.23130967598E+04  0.10998014924E+04 0.  0.
        2    1    3    3  502    0  0.10991294229E+03 -0.39857431478E+03  0.25492369623E+03  0.48572464442E+03  0.25500000920E-02 0.  1.
       -2    1    3    3    0  502 -0.10991294229E+03  0.39857431478E+03  0.17799849743E+04  0.18273721154E+04  0.25500000920E-02 0. -1.
</event>
<event>
 5   0  0.8657442E-05  0.1097441E+04  0.7818609E-02  0.9207690E-01
       -1   -1    0    0    0  501  0.00000000000E+00  0.00000000000E+00  0.39482728916E+03  0.39482728919E+03  0.50400001928E-02 0.  1.
        1   -1    0    0  501    0  0.00000000000E+00  0.00000000000E+00 -0.76259651156E+03  0.76259651158E+03  0.50400001928E-02 0. -1.
    10030    2    1    2    0    0  0.00000000000E+00  0.00000000000E+00 -0.36776922240E+03  0.11574238008E+04  0.10974405012E+04 0.  0.
        1    1    3    3  502    0 -0.45699150313E+03  0.12363169538E+03 -0.47647913704E+03  0.67168325727E+03  0.50400001928E-02 0. -1.
       -1    1    3    3    0  502  0.45699150313E+03 -0.12363169538E+03  0.10870991463E+03  0.48574054350E+03  0.50400001928E-02 0.  1.
</event>
<event>
 5   0  0.1553937E-04  0.1100219E+04  0.7818609E-02  0.9204978E-01
        2   -1    0    0  501    0  0.00000000000E+00  0.00000000000E+00  0.14802399506E+04  0.14802399507E+04  0.25500000920E-02 0.  1.
       -2   -1    0    0    0  501  0.00000000000E+00  0.00000000000E+00 -0.20444029382E+03  0.20444029383E+03  0.25500000920E-02 0. -1.
    10030    2    1    2    0    0  0.00000000000E+00  0.00000000000E+00  0.12757996568E+04  0.16846802445E+04  0.11002194153E+04 0.  0.
        1    1    3    3  502    0  0.86849855263E+02  0.41382698718E+03  0.11767181788E+04  0.12503844789E+04  0.50400001928E-02 0.  1.
       -1    1    3    3    0  502 -0.86849855263E+02 -0.41382698718E+03  0.99081477987E+02  0.43429576556E+03  0.50400001928E-02 0. -1.
</event>
<event>
 5   0  0.8621738E-05  0.1100368E+04  0.7818609E-02  0.9204833E-01
       -1   -1    0    0    0  501  0.00000000000E+00  0.00000000000E+00  0.42149156040E+03  0.42149156043E+03  0.50400001928E-02 0. -1.
        1   -1    0    0  501    0  0.00000000000E+00  0.00000000000E+00 -0.71816967225E+03  0.71816967227E+03  0.50400001928E-02 0.  1.
    10030    2    1    2    0    0  0.00000000000E+00  0.00000000000E+00 -0.29667811185E+03  0.11396612327E+04  0.11003680399E+04 0.  0.
        2    1    3    3  502    0  0.46064528711E+03  0.11747292663E+03  0.13851402270E+03  0.49515664544E+03  0.25500000920E-02 0. -1.
       -2    1    3    3    0  502 -0.46064528711E+03 -0.11747292663E+03 -0.43519213454E+03  0.64450458726E+03  0.25500000920E-02 0.  1.
</event>
<event>
 5   0  0.1503277E-04  0.1099398E+04  0.7818609E-02  0.9205778E-01
       -2   -1    0    0    0  501  0.00000000000E+00  0.00000000000E+00  0.31839643598E+03  0.31839643599E+03  0.25500000920E-02 0. -1.
        2   -1    0    0  501    0  0.00000000000E+00  0.00000000000E+00 -0.94903469774E+03  0.94903469775E+03  0.25500000920E-02 0.  1.
    10030    2    1    2    0    0  0.00000000000E+00  0.00000000000E+00 -0.63063826176E+03  0.12674311337E+04  0.10993984999E+04 0.  0.
        5    1    3    3  502    0  0.10265391408E+03  0.46063949105E+02 -0.93559389232E+03  0.94234692912E+03  0.46999998093E+01 0.  1.
       -5    1    3    3    0  502 -0.10265391408E+03 -0.46063949105E+02  0.30495563056E+03  0.32508420462E+03  0.46999998093E+01 0. -1.
</event>
<event>
 5   0  0.8621738E-05  0.1100022E+04  0.7818609E-02  0.9205171E-01
        1   -1    0    0  501    0  0.00000000000E+00  0.00000000000E+00  0.84582790865E+03  0.84582790867E+03  0.50400001928E-02 0.  1.
       -1   -1    0    0    0  501  0.00000000000E+00  0.00000000000E+00 -0.35765187494E+03  0.35765187497E+03  0.50400001928E-02 0. -1.
    10030    2    1    2    0    0  0.00000000000E+00  0.00000000000E+00  0.48817603371E+03  0.12034797836E+04  0.11000217042E+04 0.  0.
        2    1    3    3  502    0  0.22310377256E+03  0.71401485945E+02  0.78852372638E+03  0.82258320710E+03  0.25500000920E-02 0.  1.
       -2    1    3    3    0  502 -0.22310377256E+03 -0.71401485945E+02 -0.30034769267E+03  0.38089657654E+03  0.25500000920E-02 0. -1.
</event>
<event>
 5   0  0.8657442E-05  0.1099899E+04  0.7818609E-02  0.9205291E-01
       -1   -1    0    0    0  501  0.00000000000E+00  0.00000000000E+00  0.33896852916E+03  0.33896852920E+03  0.50400001928E-02 0.  1.
        1   -1    0    0  501    0  0.00000000000E+00  0.00000000000E+00 -0.89224878208E+03  0.89224878210E+03  0.50400001928E-02 0. -1.
    10030    2    1    2    0    0  0.00000000000E+00  0.00000000000E+00 -0.55328025292E+03  0.12312173113E+04  0.10998986450E+04 0.  0.
        1    1    3    3  502    0  0.44237361311E+02 -0.96555604763E+02 -0.88065986300E+03  0.88704099301E+03  0.50400001928E-02 0. -1.
       -1    1    3    3    0  502 -0.44237361311E+02  0.96555604763E+02  0.32737961008E+03  0.34417631829E+03  0.50400001928E-02 0.  1.
</event>
<event>
 5   0  0.9346836E-05  0.1099412E+04  0.7818609E-02  0.9205766E-01
        1   -1    0    0  501    0  0.00000000000E+00  0.00000000000E+00  0.11371159195E+04  0.11371159195E+04  0.50400001928E-02 0.  1.
       -1   -1    0    0    0  501  0.00000000000E+00  0.00000000000E+00 -0.26573938309E+03  0.26573938314E+03  0.50400001928E-02 0. -1.
    10030    2    1    2    0    0  0.00000000000E+00  0.00000000000E+00  0.87137653645E+03  0.14028553027E+04  0.10994116299E+04 0.  0.
        5    1    3    3  502    0 -0.20933172053E+03  0.48575687358E+03  0.62655618933E+03  0.81998430340E+03  0.46999998093E+01 0. -1.
       -5    1    3    3    0  502  0.20933172053E+03 -0.48575687358E+03  0.24482034712E+03  0.58287099928E+03  0.46999998093E+01 0.  1.
</event>
<event>
 5   0  0.1553937E-04  0.1099958E+04  0.7818609E-02  0.9205233E-01
        2   -1    0    0  501    0  0.00000000000E+00  0.00000000000E+00  0.12405718106E+04  0.12405718106E+04  0.25500000920E-02 0.  1.
       -2   -1    0    0    0  501  0.00000000000E+00  0.00000000000E+00 -0.24382053166E+03  0.24382053167E+03  0.25500000920E-02 0. -1.
    10030    2    1    2    0    0  0.00000000000E+00  0.00000000000E+00  0.99675127893E+03  0.14843923423E+04  0.10999579600E+04 0.  0.
        1    1    3    3  502    0  0.54723039694E+03 -0.26871792577E+00  0.42426738158E+03  0.69243338355E+03  0.50400001928E-02 0.  1.
       -1    1    3    3    0  502 -0.54723039694E+03  0.26871792577E+00  0.57248389735E+03  0.79195895872E+03  0.50400001928E-02 0. -1.
</event>
<event>
 5   0  0.8921459E-05  0.1100162E+04  0.7818609E-02  0.9205034E-01
        1   -1    0    0  501    0  0.00000000000E+00  0.00000000000E+00  0.30018666720E+04  0.30018666720E+04  0.50400001928E-02 0.  1.
       -1   -1    0    0    0  501  0.00000000000E+00  0.00000000000E+00 -0.10080030679E+03  0.10080030692E+03  0.50400001928E-02 0. -1.
    10030    2    1    2    0    0  0.00000000000E+00  0.00000000000E+00  0.29010663652E+04  0.31026669789E+04  0.11001619548E+04 0.  0.
        3    1    3    3  502    0  0.44311819259E+02 -0.80833223881E+02  0.29799286378E+04  0.29813540957E+04  0.10100000352E+00 0.  1.
       -3    1    3    3    0  502 -0.44311819259E+02  0.80833223881E+02 -0.78862272559E+02  0.12131288325E+03  0.10100000352E+00 0. -1.
</event>
<event>
 5   0  0.1540772E-04  0.1099814E+04  0.7818609E-02  0.9205373E-01
       -2   -1    0    0    0  501  0.00000000000E+00  0.00000000000E+00  0.17693823610E+03  0.17693823612E+03  0.25500000920E-02 0.  1.
        2   -1    0    0  501    0  0.00000000000E+00  0.00000000000E+00 -0.17090576812E+04  0.17090576812E+04  0.25500000920E-02 0. -1.
    10030    2    1    2    0    0  0.00000000000E+00  0.00000000000E+00 -0.15321194451E+04  0.18859959174E+04  0.10998138961E+04 0.  0.
        2    1    3    3  502    0 -0.34085698259E+03  0.41018615317E+03 -0.99588231021E+03  0.11296980741E+04  0.25500000920E-02 0.  1.
       -2    1    3    3    0  502  0.34085698259E+03 -0.41018615317E+03 -0.53623713492E+03  0.75629784325E+03  0.25500000920E-02 0. -1.
</event>
<event>
 5   0  0.9016738E-05  0.1099719E+04  0.7818609E-02  0.9205466E-01
       -1   -1    0    0    0  501  0.00000000000E+00  0.00000000000E+00  0.20431874391E+03  0.20431874397E+03  0.50400001928E-02 0.  1.
        1   -1    0    0  501    0  0.00000000000E+00  0.00000000000E+00 -0.14797727360E+04  0.14797727360E+04  0.50400001928E-02 0. -1.
    10030    2    1    2    0    0  0.00000000000E+00  0.00000000000E+00 -0.12754539921E+04  0.16840914800E+04  0.10997187036E+04 0.  0.
        4    1    3    3  502    0  0.29788699041E+03  0.46038551503E+03 -0.57548020057E+03  0.79490285926E+03  0.12699999809E+01 0.  1.
       -4    1    3    3    0  502 -0.29788699041E+03 -0.46038551503E+03 -0.69997379153E+03  0.88918862074E+03  0.12699999809E+01 0. -1.
</event>
<event>
 5   0  0.9346836E-05  0.1100489E+04  0.7818609E-02  0.9204716E-01
        1   -1    0    0  501    0  0.00000000000E+00  0.00000000000E+00  0.10263435685E+04  0.10263435685E+04  0.50400001928E-02 0.  1.
       -1   -1    0    0    0  501  0.00000000000E+00  0.00000000000E+00 -0.29499763340E+03  0.29499763344E+03  0.50400001928E-02 0. -1.
    10030    2    1    2    0    0  0.00000000000E+00  0.00000000000E+00  0.73134593505E+03  0.13213412019E+04  0.11004888437E+04 0.  0.
        5    1    3    3  502    0  0.54485600309E+03  0.66922057009E+02  0.32074408629E+03  0.63580302351E+03  0.46999998093E+01 0. -1.
       -5    1    3    3    0  502 -0.54485600309E+03 -0.66922057009E+02  0.41060184877E+03  0.68553817839E+03  0.46999998093E+01 0.  1.
</event>
<event>
 5   0  0.1503277E-04  0.1100240E+04  0.7818609E-02  0.9204958E-01
        2   -1    0    0  501    0  0.00000000000E+00  0.00000000000E+00  0.48443339312E+03  0.48443339313E+03  0.25500000920E-02 0. -1.
       -2   -1    0    0    0  501  0.00000000000E+00  0.00000000000E+00 -0.62471363113E+03  0.62471363114E+03  0.25500000920E-02 0.  1.
    10030    2    1    2    0    0  0.00000000000E+00  0.00000000000E+00 -0.14028023802E+03  0.11091470243E+04  0.11002402357E+04 0.  0.
        5    1    3    3  502    0  0.11948071630E+03  0.50751778532E+03 -0.24694552427E+03  0.57693511415E+03  0.46999998093E+01 0. -1.
       -5    1    3    3    0  502 -0.11948071630E+03 -0.50751778532E+03  0.10666528626E+03  0.53221191012E+03  0.46999998093E+01 0.  1.
</event>
<event>
 5   0  0.9346836E-05  0.1097691E+04  0.7818609E-02  0.9207445E-01
        1   -1    0    0  501    0  0.00000000000E+00  0.00000000000E+00  0.12349051013E+04  0.12349051013E+04  0.50400001928E-02 0. -1.
       -1   -1    0    0    0  501  0.00000000000E+00  0.00000000000E+00 -0.24393100923E+03  0.24393100929E+03  0.50400001928E-02 0.  1.
    10030    2    1    2    0    0  0.00000000000E+00  0.00000000000E+00  0.99097409208E+03  0.14788361106E+04  0.10976914826E+04 0.  0.
        5    1    3    3  502    0 -0.18113489282E+03 -0.82503804832E+02 -0.19356602226E+03  0.27768079189E+03  0.46999998093E+01 0.  1.
       -5    1    3    3    0  502  0.18113489282E+03  0.82503804832E+02  0.11845401143E+04  0.12011553187E+04  0.46999998093E+01 0. -1.
</event>
<event>
 5   0  0.6010125E-05  0.1101659E+04  0.7818609E-02  0.9203576E-01
       -4   -1    0    0    0  501  0.00000000000E+00  0.00000000000E+00  0.10298730645E+04  0.10298738476E+04  0.12699999809E+01 0. -1.
        4   -1    0    0  501    0  0.00000000000E+00  0.00000000000E+00 -0.29460991434E+03  0.29461265167E+03  0.12699999809E+01 0.  1.
    10030    2    1    2    0    0  0.00000000000E+00  0.00000000000E+00  0.73526315019E+03  0.13244864993E+04  0.11016590156E+04 0.  0.
        3    1    3    3  502    0  0.88007632015E+02 -0.26395772822E+03 -0.20391141685E+03  0.34496217431E+03  0.10100000352E+00 0.  1.
       -3    1    3    3    0  502 -0.88007632015E+02  0.26395772822E+03  0.93917456704E+03  0.97952432494E+03  0.10100000352E+00 0. -1.
</event>
<event>
 5   0  0.1553937E-04  0.1100164E+04  0.7818609E-02  0.9205032E-01
        2   -1    0    0  501    0  0.00000000000E+00  0.00000000000E+00  0.39624814388E+03  0.39624814389E+03  0.25500000920E-02 0.  1.
       -2   -1    0    0    0  501  0.00000000000E+00  0.00000000000E+00 -0.76363784927E+03  0.76363784928E+03  0.25500000920E-02 0. -1.
    10030    2    1    2    0    0  0.00000000000E+00  0.00000000000E+00 -0.36738970539E+03  0.11598859932E+04  0.11001637703E+04 0.  0.
        1    1    3    3  502    0  0.50894591561E+03  0.88458291227E+01 -0.40354771776E+03  0.64958059873E+03  0.50400001928E-02 0. -1.
       -1    1    3    3    0  502 -0.50894591561E+03 -0.88458291227E+01  0.36158012369E+02  0.51030539444E+03  0.50400001928E-02 0.  1.
</event>
<event>
 5   0  0.9016738E-05  0.1098572E+04  0.7818609E-02  0.9206585E-01
        1   -1    0    0  501    0  0.00000000000E+00  0.00000000000E+00  0.12203768614E+04  0.12203768614E+04  0.50400001928E-02 0. -1.
       -1   -1    0    0    0  501  0.00000000000E+00  0.00000000000E+00 -0.24723108332E+03  0.24723108337E+03  0.50400001928E-02 0.  1.
    10030    2    1    2    0    0  0.00000000000E+00  0.00000000000E+00  0.97314577807E+03  0.14676079448E+04  0.10985719704E+04 0.  0.
        4    1    3    3  502    0  0.12787810332E+03  0.13835668178E+03  0.11758602733E+04  0.11908586717E+04  0.12699999809E+01 0. -1.
       -4    1    3    3    0  502 -0.12787810332E+03 -0.13835668178E+03 -0.20271449521E+03  0.27674927311E+03  0.12699999809E+01 0.  1.
</event>
<event>
 5   0  0.1553937E-04  0.1099665E+04  0.7818609E-02  0.9205518E-01
       -2   -1    0    0    0  501  0.00000000000E+00  0.00000000000E+00  0.37040920748E+03  0.37040920749E+03  0.25500000920E-02 0. -1.
        2   -1    0    0  501    0  0.00000000000E+00  0.00000000000E+00 -0.81616734707E+03  0.81616734707E+03  0.25500000920E-02 0.  1.
    10030    2    1    2    0    0  0.00000000000E+00  0.00000000000E+00 -0.44575813959E+03  0.11865765546E+04  0.10996652222E+04 0.  0.
        1    1    3    3  502    0 -0.31831291731E+03  0.77768345872E+02  0.25354224084E+03  0.41431231802E+03  0.50400001928E-02 0. -1.
       -1    1    3    3    0  502  0.31831291731E+03 -0.77768345872E+02 -0.69930038043E+03  0.77226423654E+03  0.50400001928E-02 0.  1.
</event>
<event>
 5   0  0.1553937E-04  0.1100131E+04  0.7818609E-02  0.9205065E-01
        2   -1    0    0  501    0  0.00000000000E+00  0.00000000000E+00  0.11496211847E+04  0.11496211847E+04  0.25500000920E-02 0.  1.
       -2   -1    0    0    0  501  0.00000000000E+00  0.00000000000E+00 -0.26319265018E+03  0.26319265020E+03  0.25500000920E-02 0. -1.
    10030    2    1    2    0    0  0.00000000000E+00  0.00000000000E+00  0.88642853454E+03  0.14128138349E+04  0.11001306219E+04 0.  0.
        1    1    3    3  502    0 -0.14331454464E+03 -0.50441689293E+03  0.65655156464E+03  0.84025913719E+03  0.50400001928E-02 0. -1.
       -1    1    3    3    0  502  0.14331454464E+03  0.50441689293E+03  0.22987696990E+03  0.57255469773E+03  0.50400001928E-02 0.  1.
</event>
<event>
 5   0  0.9016738E-05  0.1100454E+04  0.7818609E-02  0.9204749E-01
        1   -1    0    0  501    0  0.00000000000E+00  0.00000000000E+00  0.61740301645E+03  0.61740301647E+03  0.50400001928E-02 0. -1.
       -1   -1    0    0    0  501  0.00000000000E+00  0.00000000000E+00 -0.49036036884E+03  0.49036036887E+03  0.50400001928E-02 0.  1.
    10030    2    1    2    0    0  0.00000000000E+00  0.00000000000E+00  0.12704264761E+03  0.11077633853E+04  0.11004543987E+04 0.  0.
        4    1    3    3  502    0 -0.38995557422E+03  0.10708031780E+03 -0.31207453957E+03  0.51080688667E+03  0.12699999809E+01 0.  1.
       -4    1    3    3    0  502  0.38995557422E+03 -0.10708031780E+03  0.43911718718E+03  0.59695649867E+03  0.12699999809E+01 0. -1.
</event>
<event>
 5   0  0.8921459E-05  0.1099923E+04  0.7818609E-02  0.9205267E-01
       -1   -1    0    0    0  501  0.00000000000E+00  0.00000000000E+00  0.10108940928E+04  0.10108940928E+04  0.50400001928E-02 0. -1.
        1   -1    0    0  501    0  0.00000000000E+00  0.00000000000E+00 -0.29919802203E+03  0.29919802208E+03  0.50400001928E-02 0.  1.
    10030    2    1    2    0    0  0.00000000000E+00  0.00000000000E+00  0.71169607079E+03  0.13100921149E+04  0.10999227484E+04 0.  0.
        3    1    3    3  502    0 -0.46250932483E+03 -0.19796370743E+03  0.62045204317E+03  0.79878986791E+03  0.10100000352E+00 0. -1.
       -3    1    3    3    0  502  0.46250932483E+03  0.19796370743E+03  0.91244027627E+02  0.51130224700E+03  0.10100000352E+00 0.  1.
</event>
<event>
 5   0  0.6010125E-05  0.1099774E+04  0.7818609E-02  0.9205412E-01
       -3   -1    0    0    0  501  0.00000000000E+00  0.00000000000E+00  0.61530194972E+03  0.61530195801E+03  0.10100000352E+00 0. -1.
        3   -1    0    0  501    0  0.00000000000E+00  0.00000000000E+00 -0.49142637120E+03  0.49142638157E+03  0.10100000352E+00 0.  1.
    10030    2    1    2    0    0  0.00000000000E+00  0.00000000000E+00  0.12387557853E+03  0.11067283396E+04  0.10997738216E+04 0.  0.
        3    1    3    3  502    0 -0.85140591696E+02 -0.47319772549E+03 -0.20660281735E+03  0.52330654697E+03  0.10100000352E+00 0.  1.
       -3    1    3    3    0  502  0.85140591696E+02  0.47319772549E+03  0.33047839587E+03  0.58342179262E+03  0.10100000352E+00 0. -1.
</event>
<event>
 5   0  0.1574101E-04  0.1100024E+04  0.7818609E-02  0.9205169E-01
        2   -1    0    0  501    0  0.00000000000E+00  0.00000000000E+00  0.29735594363E+03  0.29735594365E+03  0.25500000920E-02 0.  1.
       -2   -1    0    0    0  501  0.00000000000E+00  0.00000000000E+00 -0.10173431742E+04  0.10173431742E+04  0.25500000920E-02 0. -1.
    10030    2    1    2    0    0  0.00000000000E+00  0.00000000000E+00 -0.71998723056E+03  0.13146991178E+04  0.11000237081E+04 0.  0.
        4    1    3    3  502    0  0.13300354438E+03 -0.50968701524E+03 -0.17086948021E+03  0.55377683997E+03  0.12699999809E+01 0.  1.
       -4    1    3    3    0  502 -0.13300354438E+03  0.50968701524E+03 -0.54911775035E+03  0.76092227788E+03  0.12699999809E+01 0. -1.
</event>
<event>
 5   0  0.9016738E-05  0.1099357E+04  0.7818609E-02  0.9205818E-01
        1   -1    0    0  501    0  0.00000000000E+00  0.00000000000E+00  0.11345579239E+04  0.11345579239E+04  0.50400001928E-02 0. -1.
       -1   -1    0    0    0  501  0.00000000000E+00  0.00000000000E+00 -0.26631223561E+03  0.26631223566E+03  0.50400001928E-02 0.  1.
    10030    2    1    2    0    0  0.00000000000E+00  0.00000000000E+00  0.86824568824E+03  0.14008701595E+04  0.10993573708E+04 0.  0.
        4    1    3    3  502    0  0.51324513689E+03  0.77675240793E+02  0.66451797605E+03  0.84323173977E+03  0.12699999809E+01 0. -1.
       -4    1    3    3    0  502 -0.51324513689E+03 -0.77675240793E+02  0.20372771219E+03  0.55763841976E+03  0.12699999809E+01 0.  1.
</event>
<event>
 5   0  0.8657442E-05  0.1099737E+04  0.7818609E-02  0.9205448E-01
       -1   -1    0    0    0  501  0.00000000000E+00  0.00000000000E+00  0.24603986159E+03  0.24603986164E+03  0.50400001928E-02 0. -1.
        1   -1    0    0  501    0  0.00000000000E+00  0.00000000000E+00 -0.12288885596E+04  0.12288885596E+04  0.50400001928E-02 0.  1.
    10030    2    1    2    0    0  0.00000000000E+00  0.00000000000E+00 -0.98284869797E+03  0.14749284212E+04  0.10997373707E+04 0.  0.
        1    1    3    3  502    0 -0.27464284794E+03  0.45881781768E+03 -0.31960300895E+03  0.62296754900E+03  0.50400001928E-02 0.  1.
       -1    1    3    3    0  502  0.27464284794E+03 -0.45881781768E+03 -0.66324568902E+03  0.85196087221E+03  0.50400001928E-02 0. -1.
</event>
<event>
 5   0  0.9346836E-05  0.1106691E+04  0.7818609E-02  0.9198695E-01
       -1   -1    0    0    0  501  0.00000000000E+00  0.00000000000E+00  0.24242633486E+03  0.24242633492E+03  0.50400001928E-02 0.  1.
        1   -1    0    0  501    0  0.00000000000E+00  0.00000000000E+00 -0.12630276349E+04  0.12630276349E+04  0.50400001928E-02 0. -1.
    10030    2    1    2    0    0  0.00000000000E+00  0.00000000000E+00 -0.10206013001E+04  0.15054539699E+04  0.11066908519E+04 0.  0.
        5    1    3    3  502    0  0.10163326334E+03  0.20022560054E+03  0.17763612027E+03  0.28634994771E+03  0.46999998093E+01 0.  1.
       -5    1    3    3    0  502 -0.10163326334E+03 -0.20022560054E+03 -0.11982374203E+04  0.12191040222E+04  0.46999998093E+01 0. -1.
</event>
<event>
 5   0  0.1574101E-04  0.1100027E+04  0.7818609E-02  0.9205165E-01
        2   -1    0    0  501    0  0.00000000000E+00  0.00000000000E+00  0.64500023377E+03  0.64500023378E+03  0.25500000920E-02 0.  1.
       -2   -1    0    0    0  501  0.00000000000E+00  0.00000000000E+00 -0.46901541284E+03  0.46901541285E+03  0.25500000920E-02 0. -1.
    10030    2    1    2    0    0  0.00000000000E+00  0.00000000000E+00  0.17598482093E+03  0.11140156466E+04  0.11000273650E+04 0.  0.
        4    1    3    3  502    0  0.38785821466E+03  0.13452629715E+03 -0.28269788985E+03  0.49844862236E+03  0.12699999809E+01 0. -1.
       -4    1    3    3    0  502 -0.38785821466E+03 -0.13452629715E+03  0.45868271078E+03  0.61556702427E+03  0.12699999809E+01 0.  1.
</event>
<event>
 5   0  0.1540772E-04  0.1099761E+04  0.7818609E-02  0.9205425E-01
        2   -1    0    0  501    0  0.00000000000E+00  0.00000000000E+00  0.85092541495E+03  0.85092541495E+03  0.25500000920E-02 0.  1.
       -2   -1    0    0    0  501  0.00000000000E+00  0.00000000000E+00 -0.35534058381E+03  0.35534058382E+03  0.25500000920E-02 0. -1.
    10030    2    1    2    0    0  0.00000000000E+00  0.00000000000E+00  0.49558483114E+03  0.12062659988E+04  0.10997605807E+04 0.  0.
        2    1    3    3  502    0 -0.48183807923E+03  0.94538790438E+02 -0.23691069819E+02  0.49159615975E+03  0.25500000920E-02 0. -1.
       -2    1    3    3    0  502  0.48183807923E+03 -0.94538790438E+02  0.51927590096E+03  0.71466983902E+03  0.25500000920E-02 0.  1.
</event>
<event>
 5   0  0.9346836E-05  0.1099961E+04  0.7818609E-02  0.9205230E-01
        1   -1    0    0  501    0  0.00000000000E+00  0.00000000000E+00  0.99608814701E+03  0.99608814702E+03  0.50400001928E-02 0. -1.
       -1   -1    0    0    0  501  0.00000000000E+00  0.00000000000E+00 -0.30366624985E+03  0.30366624989E+03  0.50400001928E-02 0.  1.
    10030    2    1    2    0    0  0.00000000000E+00  0.00000000000E+00  0.69242189716E+03  0.12997543969E+04  0.10999606396E+04 0.  0.
        5    1    3    3  502    0  0.53619159739E+03 -0.11410128772E+03  0.39819934830E+03  0.67757312812E+03  0.46999998093E+01 0. -1.
       -5    1    3    3    0  502 -0.53619159739E+03  0.11410128772E+03  0.29422254886E+03  0.62218126878E+03  0.46999998093E+01 0.  1.
</event>
<event>
 5   0  0.8657442E-05  0.1099941E+04  0.7818609E-02  0.9205249E-01
       -1   -1    0    0    0  501  0.00000000000E+00  0.00000000000E+00  0.44074837502E+03  0.44074837505E+03  0.50400001928E-02 0.  1.
        1   -1    0    0  501    0  0.00000000000E+00  0.00000000000E+00 -0.68625925512E+03  0.68625925514E+03  0.50400001928E-02 0. -1.
    10030    2    1    2    0    0  0.00000000000E+00  0.00000000000E+00 -0.24551088010E+03  0.11270076302E+04  0.10999411831E+04 0.  0.
        1    1    3    3  502    0 -0.16340642192E+03  0.49419748597E+03 -0.30470570547E+03  0.60314043210E+03  0.50400001928E-02 0. -1.
       -1    1    3    3    0  502  0.16340642192E+03 -0.49419748597E+03  0.59194825364E+02  0.52386719809E+03  0.50400001928E-02 0.  1.
</event>
<event>
 5   0  0.1464205E-04  0.1099927E+04  0.7818609E-02  0.9205263E-01
        2   -1    0    0  501    0  0.00000000000E+00  0.00000000000E+00  0.98927256940E+03  0.98927256940E+03  0.25500000920E-02 0.  1.
       -2   -1    0    0    0  501  0.00000000000E+00  0.00000000000E+00 -0.30573982666E+03  0.30573982667E+03  0.25500000920E-02 0. -1.
    10030    2    1    2    0    0  0.00000000000E+00  0.00000000000E+00  0.68353274274E+03  0.12950123961E+04  0.10999273138E+04 0.  0.
        3    1    3    3  502    0  0.22479023872E+03  0.39092216950E+03 -0.28886157214E+02  0.45186858080E+03  0.10100000352E+00 0.  1.
       -3    1    3    3    0  502 -0.22479023872E+03 -0.39092216950E+03  0.71241889995E+03  0.84314381528E+03  0.10100000352E+00 0. -1.
</event>
<event>
 5   0  0.1574101E-04  0.1099942E+04  0.7818609E-02  0.9205248E-01
       -2   -1    0    0    0  501  0.00000000000E+00  0.00000000000E+00  0.26162074104E+03  0.26162074105E+03  0.25500000920E-02 0.  1.
        2   -1    0    0  501    0  0.00000000000E+00  0.00000000000E+00 -0.11561327322E+04  0.11561327322E+04  0.25500000920E-02 0. -1.
    10030    2    1    2    0    0  0.00000000000E+00  0.00000000000E+00 -0.89451199120E+03  0.14177534733E+04  0.10999423660E+04 0.  0.
        4    1    3    3  502    0  0.41381438420E+02 -0.42345881412E+03  0.19092276433E+01  0.42548213682E+03  0.12699999809E+01 0.  1.
       -4    1    3    3    0  502 -0.41381438420E+02  0.42345881412E+03 -0.89642121884E+03  0.99227133647E+03  0.12699999809E+01 0. -1.
</event>
<event>
 5   0  0.1574101E-04  0.1099651E+04  0.7818609E-02  0.9205532E-01
       -2   -1    0    0    0  501  0.00000000000E+00  0.00000000000E+00  0.21989590706E+03  0.21989590708E+03  0.25500000920E-02 0.  1.
        2   -1    0    0  501    0  0.00000000000E+00  0.00000000000E+00 -0.13747787538E+04  0.13747787538E+04  0.25500000920E-02 0. -1.
    10030    2    1    2    0    0  0.00000000000E+00  0.00000000000E+00 -0.11548828467E+04  0.15946746609E+04  0.10996512558E+04 0.  0.
        4    1    3    3  502    0  0.21098345906E+03  0.30412011099E+03  0.12159566831E+02  0.37034109936E+03  0.12699999809E+01 0.  1.
       -4    1    3    3    0  502 -0.21098345906E+03 -0.30412011099E+03 -0.11670424136E+04  0.12243335615E+04  0.12699999809E+01 0. -1.
</event>
<event>
 5   0  0.8921459E-05  0.1100955E+04  0.7818609E-02  0.9204262E-01
       -1   -1    0    0    0  501  0.00000000000E+00  0.00000000000E+00  0.82471996629E+03  0.82471996631E+03  0.50400001928E-02 0.  1.
        1   -1    0    0  501    0  0.00000000000E+00  0.00000000000E+00 -0.36742806220E+03  0.36742806223E+03  0.50400001928E-02 0. -1.
    10030    2    1    2    0    0  0.00000000000E+00  0.00000000000E+00  0.45729190409E+03  0.11921480285E+04  0.11009546023E+04 0.  0.
        3    1    3    3  502    0 -0.13200699612E+03  0.50685399628E+03  0.41208417318E+03  0.66643844169E+03  0.10100000352E+00 0.  1.
       -3    1    3    3    0  502  0.13200699612E+03 -0.50685399628E+03  0.45207730907E+02  0.52570958685E+03  0.10100000352E+00 0. -1.
</event>
<event>
 5   0  0.8921459E-05  0.1100655E+04  0.7818609E-02  0.9204553E-01
       -1   -1    0    0    0  501  0.00000000000E+00  0.00000000000E+00  0.16066987459E+03  0.16066987467E+03  0.50400001928E-02 0.  1.
        1   -1    0    0  501    0  0.00000000000E+00  0.00000000000E+00 -0.18849866816E+04  0.18849866816E+04  0.50400001928E-02 0. -1.
    10030    2    1    2    0    0  0.00000000000E+00  0.00000000000E+00 -0.17243168071E+04  0.20456565563E+04  0.11006553935E+04 0.  0.
        3    1    3    3  502    0  0.41332673364E+03  0.32951040184E+03 -0.57758024464E+03  0.78295277180E+03  0.10100000352E+00 0.  1.
       -3    1    3    3    0  502 -0.41332673364E+03 -0.32951040184E+03 -0.11467365624E+04  0.12627037845E+04  0.10100000352E+00 0. -1.
</event>
<event>
 5   0  0.8657442E-05  0.1099799E+04  0.7818609E-02  0.9205388E-01
       -1   -1    0    0    0  501  0.00000000000E+00  0.00000000000E+00  0.34506130802E+03  0.34506130805E+03  0.50400001928E-02 0.  1.
        1   -1    0    0  501    0  0.00000000000E+00  0.00000000000E+00 -0.87633523762E+03  0.87633523764E+03  0.50400001928E-02 0. -1.
    10030    2    1    2    0    0  0.00000000000E+00  0.00000000000E+00 -0.53127392961E+03  0.12213965457E+04  0.10997988605E+04 0.  0.
        1    1    3    3  502    0  0.19879253471E+02  0.34458642476E+03 -0.74104949173E+03  0.81748965624E+03  0.50400001928E-02 0. -1.
       -1    1    3    3    0  502 -0.19879253471E+02 -0.34458642476E+03  0.20977556212E+03  0.40390688944E+03  0.50400001928E-02 0.  1.
</event>
<event>
 5   0  0.6010125E-05  0.1099921E+04  0.7818609E-02  0.9205268E-01
        4   -1    0    0  501    0  0.00000000000E+00  0.00000000000E+00  0.16194038034E+04  0.16194043014E+04  0.12699999809E+01 0.  1.
       -4   -1    0    0    0  501  0.00000000000E+00  0.00000000000E+00 -0.18676777230E+03  0.18677209018E+03  0.12699999809E+01 0. -1.
    10030    2    1    2    0    0  0.00000000000E+00  0.00000000000E+00  0.14326360311E+04  0.18061763916E+04  0.10999214335E+04 0.  0.
        1    1    3    3  502    0  0.24315243299E+03 -0.36208325094E+03  0.12664309091E+04  0.13394307125E+04  0.50400001928E-02 0.  1.
       -1    1    3    3    0  502 -0.24315243299E+03  0.36208325094E+03  0.16620512204E+03  0.46674567903E+03  0.50400001928E-02 0. -1.
</event>
<event>
 5   0  0.1464205E-04  0.1099722E+04  0.7818609E-02  0.9205463E-01
       -2   -1    0    0    0  501  0.00000000000E+00  0.00000000000E+00  0.28773900994E+03  0.28773900995E+03  0.25500000920E-02 0.  1.
        2   -1    0    0  501    0  0.00000000000E+00  0.00000000000E+00 -0.10507692795E+04  0.10507692795E+04  0.25500000920E-02 0. -1.
    10030    2    1    2    0    0  0.00000000000E+00  0.00000000000E+00 -0.76303026955E+03  0.13385082895E+04  0.10997223507E+04 0.  0.
        3    1    3    3  502    0 -0.29128421009E+03  0.39925819881E+03 -0.67487624344E+03  0.83648762963E+03  0.10100000352E+00 0. -1.
       -3    1    3    3    0  502  0.29128421009E+03 -0.39925819881E+03 -0.88154026112E+02  0.50202065982E+03  0.10100000352E+00 0.  1.
</event>
<event>
 5   0  0.1464205E-04  0.1099845E+04  0.7818609E-02  0.9205343E-01
       -2   -1    0    0    0  501  0.00000000000E+00  0.00000000000E+00  0.25629079977E+03  0.25629079978E+03  0.25500000920E-02 0.  1.
        2   -1    0    0  501    0  0.00000000000E+00  0.00000000000E+00 -0.11799665078E+04  0.11799665078E+04  0.25500000920E-02 0. -1.
    10030    2    1    2    0    0  0.00000000000E+00  0.00000000000E+00 -0.92367570803E+03  0.14362573076E+04  0.10998446436E+04 0.  0.
        3    1    3    3  502    0 -0.45828635638E+03 -0.26327567455E+03 -0.66020198638E+03  0.84569920082E+03  0.10100000352E+00 0. -1.
       -3    1    3    3    0  502  0.45828635638E+03  0.26327567455E+03 -0.26347372165E+03  0.59055810676E+03  0.10100000352E+00 0.  1.
</event>
<event>
 5   0  0.6010125E-05  0.1099736E+04  0.7818609E-02  0.9205449E-01
        3   -1    0    0  501    0  0.00000000000E+00  0.00000000000E+00  0.29413970521E+03  0.29413972255E+03  0.10100000352E+00 0. -1.
       -3   -1    0    0    0  501  0.00000000000E+00  0.00000000000E+00 -0.10279286910E+04  0.10279286959E+04  0.10100000352E+00 0.  1.
    10030    2    1    2    0    0  0.00000000000E+00  0.00000000000E+00 -0.73378898575E+03  0.13220684185E+04  0.10997357080E+04 0.  0.
        5    1    3    3  502    0 -0.53813173340E+03  0.17122346094E+02 -0.50105156681E+03  0.73549554712E+03  0.46999998093E+01 0.  1.
       -5    1    3    3    0  502  0.53813173340E+03 -0.17122346094E+02 -0.23273741894E+03  0.58657287135E+03  0.46999998093E+01 0. -1.
</event>
<event>
 5   0  0.8921459E-05  0.1100028E+04  0.7818609E-02  0.9205165E-01
       -1   -1    0    0    0  501  0.00000000000E+00  0.00000000000E+00  0.43065473816E+03  0.43065473819E+03  0.50400001928E-02 0.  1.
        1   -1    0    0  501    0  0.00000000000E+00  0.00000000000E+00 -0.70245456350E+03  0.70245456352E+03  0.50400001928E-02 0. -1.
    10030    2    1    2    0    0  0.00000000000E+00  0.00000000000E+00 -0.27179982534E+03  0.11331093017E+04  0.11000279744E+04 0.  0.
        3    1    3    3  502    0 -0.28243267997E+03  0.42490899483E+03 -0.34750287573E+03  0.61731202114E+03  0.10100000352E+00 0. -1.
       -3    1    3    3    0  502  0.28243267997E+03 -0.42490899483E+03  0.75703050389E+02  0.51579728057E+03  0.10100000352E+00 0.  1.
</event>
<event>
 5   0  0.1540772E-04  0.1099259E+04  0.7818609E-02  0.9205914E-01
        2   -1    0    0  501    0  0.00000000000E+00  0.00000000000E+00  0.99103822732E+03  0.99103822733E+03  0.25500000920E-02 0.  1.
       -2   -1    0    0    0  501  0.00000000000E+00  0.00000000000E+00 -0.30482433427E+03  0.30482433428E+03  0.25500000920E-02 0. -1.
    10030    2    1    2    0    0  0.00000000000E+00  0.00000000000E+00  0.68621389305E+03  0.12958625616E+04  0.10992589647E+04 0.  0.
        2    1    3    3  502    0  0.25561137860E+03 -0.26628647901E+02 -0.22963307456E+03  0.34464127828E+03  0.25500000920E-02 0. -1.
       -2    1    3    3    0  502 -0.25561137860E+03  0.26628647901E+02  0.91584696761E+03  0.95122128333E+03  0.25500000920E-02 0.  1.
</event>
<event>
 5   0  0.1553937E-04  0.1097540E+04  0.7818609E-02  0.9207592E-01
       -2   -1    0    0    0  501  0.00000000000E+00  0.00000000000E+00  0.28219603013E+03  0.28219603014E+03  0.25500000920E-02 0. -1.
        2   -1    0    0  501    0  0.00000000000E+00  0.00000000000E+00 -0.10671615006E+04  0.10671615006E+04  0.25500000920E-02 0.  1.
    10030    2    1    2    0    0  0.00000000000E+00  0.00000000000E+00 -0.78496547051E+03  0.13493575308E+04  0.10975404120E+04 0.  0.
        1    1    3    3  502    0  0.23125982340E+03  0.12241828688E+03  0.20056185345E+03  0.32968530444E+03  0.50400001928E-02 0.  1.
       -1    1    3    3    0  502 -0.23125982340E+03 -0.12241828688E+03 -0.98552732396E+03  0.10196722263E+04  0.50400001928E-02 0. -1.
</event>
<event>
 5   0  0.1574101E-04  0.1099933E+04  0.7818609E-02  0.9205257E-01
       -2   -1    0    0    0  501  0.00000000000E+00  0.00000000000E+00  0.27270689342E+03  0.27270689343E+03  0.25500000920E-02 0. -1.
        2   -1    0    0  501    0  0.00000000000E+00  0.00000000000E+00 -0.11091150939E+04  0.11091150939E+04  0.25500000920E-02 0.  1.
    10030    2    1    2    0    0  0.00000000000E+00  0.00000000000E+00 -0.83640820051E+03  0.13818219874E+04  0.10999333284E+04 0.  0.
        4    1    3    3  502    0 -0.38047841456E+03  0.32626147277E+03 -0.70260985266E+03  0.86306001560E+03  0.12699999809E+01 0.  1.
       -4    1    3    3    0  502  0.38047841456E+03 -0.32626147277E+03 -0.13379834785E+03  0.51876197176E+03  0.12699999809E+01 0. -1.
</event>
<event>
 5   0  0.6010125E-05  0.1098704E+04  0.7818609E-02  0.9206456E-01
       -3   -1    0    0    0  501  0.00000000000E+00  0.00000000000E+00  0.43617441801E+03  0.43617442970E+03  0.10100000352E+00 0. -1.
        3   -1    0    0  501    0  0.00000000000E+00  0.00000000000E+00 -0.69189687543E+03  0.69189688280E+03  0.10100000352E+00 0.  1.
    10030    2    1    2    0    0  0.00000000000E+00  0.00000000000E+00 -0.25572245742E+03  0.11280713125E+04  0.10987041963E+04 0.  0.
        5    1    3    3  502    0  0.31159064410E+03 -0.22435521904E+03 -0.53122541220E+03  0.65547427285E+03  0.46999998093E+01 0.  1.
       -5    1    3    3    0  502 -0.31159064410E+03  0.22435521904E+03  0.27550295478E+03  0.47259703965E+03  0.46999998093E+01 0. -1.
</event>
<event>
 5   0  0.9346836E-05  0.1100323E+04  0.7818609E-02  0.9204877E-01
       -1   -1    0    0    0  501  0.00000000000E+00  0.00000000000E+00  0.30933769228E+03  0.30933769233E+03  0.50400001928E-02 0.  1.
        1   -1    0    0  501    0  0.00000000000E+00  0.00000000000E+00 -0.97847046957E+03  0.97847046958E+03  0.50400001928E-02 0. -1.
    10030    2    1    2    0    0  0.00000000000E+00  0.00000000000E+00 -0.66913277728E+03  0.12878081619E+04  0.11003232199E+04 0.  0.
        5    1    3    3  502    0  0.32799672873E+03  0.14438900473E+03  0.15395880430E+03  0.39007107322E+03  0.46999998093E+01 0.  1.
       -5    1    3    3    0  502 -0.32799672873E+03 -0.14438900473E+03 -0.82309158158E+03  0.89773708869E+03  0.46999998093E+01 0. -1.
</event>
<event>
 5   0  0.1553937E-04  0.1099607E+04  0.7818609E-02  0.9205575E-01
        2   -1    0    0  501    0  0.00000000000E+00  0.00000000000E+00  0.10225071019E+04  0.10225071019E+04  0.25500000920E-02 0. -1.
       -2   -1    0    0    0  501  0.00000000000E+00  0.00000000000E+00 -0.29563002589E+03  0.29563002590E+03  0.25500000920E-02 0.  1.
    10030    2    1    2    0    0  0.00000000000E+00  0.00000000000E+00  0.72687707600E+03  0.13181371278E+04  0.10996068407E+04 0.  0.
        1    1    3    3  502    0 -0.53210058994E+03  0.59467143521E+02  0.51323926753E+03  0.74167508030E+03  0.50400001928E-02 0. -1.
       -1    1    3    3    0  502  0.53210058994E+03 -0.59467143521E+02  0.21363780847E+03  0.57646204750E+03  0.50400001928E-02 0.  1.
</event>
<event>
 5   0  0.1464205E-04  0.1100117E+04  0.7818609E-02  0.9205077E-01
       -2   -1    0    0    0  501  0.00000000000E+00  0.00000000000E+00  0.52209657248E+03  0.52209657248E+03  0.25500000920E-02 0. -1.
        2   -1    0    0  501    0  0.00000000000E+00  0.00000000000E+00 -0.57951836518E+03  0.57951836519E+03  0.25500000920E-02 0.  1.
    10030    2    1    2    0    0  0.00000000000E+00  0.00000000000E+00 -0.57421792706E+02  0.11016149377E+04  0.11001173613E+04 0.  0.
        3    1    3    3  502    0 -0.72322094371E+02 -0.24614555900E+03 -0.51593919927E+03  0.57620429458E+03  0.10100000352E+00 0.  1.
       -3    1    3    3    0  502  0.72322094371E+02  0.24614555900E+03  0.45851740656E+03  0.52541064309E+03  0.10100000352E+00 0. -1.
</event>
<event>
 5   0  0.9016738E-05  0.1105287E+04  0.7818609E-02  0.9200054E-01
       -1   -1    0    0    0  501  0.00000000000E+00  0.00000000000E+00  0.59954690693E+03  0.59954690695E+03  0.50400001928E-02 0. -1.
        1   -1    0    0  501    0  0.00000000000E+00  0.00000000000E+00 -0.50940920585E+03  0.50940920587E+03  0.50400001928E-02 0.  1.
    10030    2    1    2    0    0  0.00000000000E+00  0.00000000000E+00  0.90137701085E+02  0.11089561128E+04  0.11052867750E+04 0.  0.
        4    1    3    3  502    0  0.14816221463E+03  0.10868241349E+02  0.57913565381E+03  0.59788784812E+03  0.12699999809E+01 0. -1.
       -4    1    3    3    0  502 -0.14816221463E+03 -0.10868241349E+02 -0.48899795273E+03  0.51106826470E+03  0.12699999809E+01 0.  1.
</event>
<event>
 5   0  0.1503277E-04  0.1100253E+04  0.7818609E-02  0.9204946E-01
        2   -1    0    0  501    0  0.00000000000E+00  0.00000000000E+00  0.62589050828E+03  0.62589050829E+03  0.25500000920E-02 0.  1.
       -2   -1    0    0    0  501  0.00000000000E+00  0.00000000000E+00 -0.48353343493E+03  0.48353343494E+03  0.25500000920E-02 0. -1.
    10030    2    1    2    0    0  0.00000000000E+00  0.00000000000E+00  0.14235707335E+03  0.11094239432E+04  0.11002526753E+04 0.  0.
        5    1    3    3  502    0 -0.48067310380E+03  0.38454470004E+02  0.33813339887E+03  0.58896660721E+03  0.46999998093E+01 0.  1.
       -5    1    3    3    0  502  0.48067310380E+03 -0.38454470004E+02 -0.19577632551E+03  0.52045733601E+03  0.46999998093E+01 0. -1.
</event>
<event>
 5   0  0.1540772E-04  0.1099959E+04  0.7818609E-02  0.9205232E-01
       -2   -1    0    0    0  501  0.00000000000E+00  0.00000000000E+00  0.19272594990E+03  0.19272594992E+03  0.25500000920E-02 0. -1.
        2   -1    0    0  501    0  0.00000000000E+00  0.00000000000E+00 -0.15694688265E+04  0.15694688265E+04  0.25500000920E-02 0.  1.
    10030    2    1    2    0    0  0.00000000000E+00  0.00000000000E+00 -0.13767428766E+04  0.17621947764E+04  0.10999588546E+04 0.  0.
        2    1    3    3  502    0 -0.42070383796E+02 -0.54651595014E+03 -0.61622967360E+03  0.82473547976E+03  0.25500000920E-02 0. -1.
       -2    1    3    3    0  502  0.42070383796E+02  0.54651595014E+03 -0.76051320298E+03  0.93745929665E+03  0.25500000920E-02 0.  1.
</event>
<event>
 5   0  0.1540772E-04  0.1099846E+04  0.7818609E-02  0.9205342E-01
        2   -1    0    0  501    0  0.00000000000E+00  0.00000000000E+00  0.44847597879E+03  0.44847597880E+03  0.25500000920E-02 0. -1.
       -2   -1    0    0    0  501  0.00000000000E+00  0.00000000000E+00 -0.67431723216E+03  0.67431723216E+03  0.25500000920E-02 0.  1.
    10030    2    1    2    0    0  0.00000000000E+00  0.00000000000E+00 -0.22584125337E+03  0.11227932110E+04  0.10998455905E+04 0.  0.
        2    1    3    3  502    0 -0.33424368799E+02 -0.50708760643E+03 -0.32744806483E+03  0.60454715631E+03  0.25500000920E-02 0.  1.
       -2    1    3    3    0  502  0.33424368799E+02  0.50708760643E+03  0.10160681147E+03  0.51824605466E+03  0.25500000920E-02 0. -1.
</event>
<event>
 5   0  0.8921459E-05  0.1093227E+04  0.7818609E-02  0.9211818E-01
       -1   -1    0    0    0  501  0.00000000000E+00  0.00000000000E+00  0.57886289771E+03  0.57886289773E+03  0.50400001928E-02 0. -1.
        1   -1    0    0  501    0  0.00000000000E+00  0.00000000000E+00 -0.51616102783E+03  0.51616102786E+03  0.50400001928E-02 0.  1.
    10030    2    1    2    0    0  0.00000000000E+00  0.00000000000E+00  0.62701869876E+02  0.10950239256E+04  0.10932272742E+04 0.  0.
        3    1    3    3  502    0 -0.19160169115E+03  0.73605881754E+02  0.53879720656E+03  0.57656870699E+03  0.10100000352E+00 0. -1.
       -3    1    3    3    0  502  0.19160169115E+03 -0.73605881754E+02 -0.47609533669E+03  0.51845521860E+03  0.10100000352E+00 0.  1.
</event>
<event>
 5   0  0.8621738E-05  0.1100423E+04  0.7818609E-02  0.9204780E-01
       -1   -1    0    0    0  501  0.00000000000E+00  0.00000000000E+00  0.79225906017E+03  0.79225906018E+03  0.50400001928E-02 0. -1.
        1   -1    0    0  501    0  0.00000000000E+00  0.00000000000E+00 -0.38211307444E+03  0.38211307447E+03  0.50400001928E-02 0.  1.
    10030    2    1    2    0    0  0.00000000000E+00  0.00000000000E+00  0.41014598573E+03  0.11743721347E+04  0.11004227283E+04 0.  0.
        2    1    3    3  502    0 -0.29410057369E+03  0.60363296044E+01  0.70129382827E+03  0.76048972268E+03  0.25500000920E-02 0. -1.
       -2    1    3    3    0  502  0.29410057369E+03 -0.60363296044E+01 -0.29114784255E+03  0.41388241198E+03  0.25500000920E-02 0.  1.
</event>
<event>
 5   0  0.1553937E-04  0.1099879E+04  0.7818609E-02  0.9205310E-01
        2   -1    0    0  501    0  0.00000000000E+00  0.00000000000E+00  0.29116508858E+03  0.29116508859E+03  0.25500000920E-02 0. -1.
       -2   -1    0    0    0  501  0.00000000000E+00  0.00000000000E+00 -0.10387010747E+04  0.10387010747E+04  0.25500000920E-02 0.  1.
    10030    2    1    2    0    0  0.00000000000E+00  0.00000000000E+00 -0.74753598610E+03  0.13298661633E+04  0.10998790668E+04 0.  0.
        1    1    3    3  502    0 -0.41138031148E+03  0.11929711245E+03  0.43272235289E+02  0.43050905691E+03  0.50400001928E-02 0. -1.
       -1    1    3    3    0  502  0.41138031148E+03 -0.11929711245E+03 -0.79080822139E+03  0.89935710636E+03  0.50400001928E-02 0.  1.
</event>
<event>
 5   0  0.6010125E-05  0.1100013E+04  0.7818609E-02  0.9205179E-01
        4   -1    0    0  501    0  0.00000000000E+00  0.00000000000E+00  0.45354047188E+03  0.45354224999E+03  0.12699999809E+01 0.  1.
       -4   -1    0    0    0  501  0.00000000000E+00  0.00000000000E+00 -0.66698724298E+03  0.66698845207E+03  0.12699999809E+01 0. -1.
    10030    2    1    2    0    0  0.00000000000E+00  0.00000000000E+00 -0.21344677110E+03  0.11205307021E+04  0.11000134227E+04 0.  0.
        4    1    3    3  502    0 -0.33110504288E+03 -0.12581867638E+03 -0.53533848148E+03  0.64191104633E+03  0.12699999809E+01 0. -1.
       -4    1    3    3    0  502  0.33110504288E+03  0.12581867638E+03  0.32189171037E+03  0.47861965574E+03  0.12699999809E+01 0.  1.
</event>
<event>
 5   0  0.9346836E-05  0.1100683E+04  0.7818609E-02  0.9204526E-01
       -1   -1    0    0    0  501  0.00000000000E+00  0.00000000000E+00  0.35938084295E+03  0.35938084299E+03  0.50400001928E-02 0. -1.
        1   -1    0    0  501    0  0.00000000000E+00  0.00000000000E+00 -0.84277145894E+03  0.84277145896E+03  0.50400001928E-02 0.  1.
    10030    2    1    2    0    0  0.00000000000E+00  0.00000000000E+00 -0.48339061599E+03  0.12021523019E+04  0.11006832739E+04 0.  0.
        5    1    3    3  502    0 -0.21928801438E+03 -0.15624323431E+03 -0.76589361412E+03  0.81185854659E+03  0.46999998093E+01 0.  1.
       -5    1    3    3    0  502  0.21928801438E+03  0.15624323431E+03  0.28250299813E+03  0.39029375536E+03  0.46999998093E+01 0. -1.
</event>
<event>
 5   0  0.1503277E-04  0.1099747E+04  0.7818609E-02  0.9205438E-01
       -2   -1    0    0    0  501  0.00000000000E+00  0.00000000000E+00  0.28276247373E+03  0.28276247374E+03  0.25500000920E-02 0.  1.
        2   -1    0    0  501    0  0.00000000000E+00  0.00000000000E+00 -0.10693112818E+04  0.10693112818E+04  0.25500000920E-02 0. -1.
    10030    2    1    2    0    0  0.00000000000E+00  0.00000000000E+00 -0.78654880803E+03  0.13520737555E+04  0.10997474314E+04 0.  0.
        5    1    3    3  502    0 -0.73056048947E+01  0.23088324972E+03  0.22018864334E+03  0.31916386938E+03  0.46999998093E+01 0.  1.
       -5    1    3    3    0  502  0.73056048947E+01 -0.23088324972E+03 -0.10067374514E+04  0.10329098861E+04  0.46999998093E+01 0. -1.
</event>
<event>
 5   0  0.6010125E-05  0.1100011E+04  0.7818609E-02  0.9205181E-01
        4   -1    0    0  501    0  0.00000000000E+00  0.00000000000E+00  0.83348685798E+03  0.83348782554E+03  0.12699999809E+01 0. -1.
       -4   -1    0    0    0  501  0.00000000000E+00  0.00000000000E+00 -0.36293790722E+03  0.36294012922E+03  0.12699999809E+01 0.  1.
    10030    2    1    2    0    0  0.00000000000E+00  0.00000000000E+00  0.47054895075E+03  0.11964279548E+04  0.11000106981E+04 0.  0.
        1    1    3    3  502    0 -0.10637339652E+03 -0.55951906432E+02  0.81903012604E+03  0.82780206734E+03  0.50400001928E-02 0. -1.
       -1    1    3    3    0  502  0.10637339652E+03  0.55951906432E+02 -0.34848117528E+03  0.36862588742E+03  0.50400001928E-02 0.  1.
</event>
<event>
 5   0  0.8921459E-05  0.1099751E+04  0.7818609E-02  0.9205434E-01
        1   -1    0    0  501    0  0.00000000000E+00  0.00000000000E+00  0.14555392005E+04  0.14555392005E+04  0.50400001928E-02 0.  1.
       -1   -1    0    0    0  501  0.00000000000E+00  0.00000000000E+00 -0.20773277071E+03  0.20773277077E+03  0.50400001928E-02 0. -1.
    10030    2    1    2    0    0  0.00000000000E+00  0.00000000000E+00  0.12478064298E+04  0.16632719713E+04  0.10997512283E+04 0.  0.
        3    1    3    3  502    0 -0.49030416230E+02  0.15759238852E+03  0.14171949400E+04  0.14267728799E+04  0.10100000352E+00 0.  1.
       -3    1    3    3    0  502  0.49030416230E+02 -0.15759238852E+03 -0.16938851021E+03  0.23649909139E+03  0.10100000352E+00 0. -1.
</event>
<event>
 5   0  0.8921459E-05  0.1099848E+04  0.7818609E-02  0.9205340E-01
        1   -1    0    0  501    0  0.00000000000E+00  0.00000000000E+00  0.14637072728E+04  0.14637072728E+04  0.50400001928E-02 0.  1.
       -1   -1    0    0    0  501  0.00000000000E+00  0.00000000000E+00 -0.20660991603E+03  0.20660991609E+03  0.50400001928E-02 0. -1.
    10030    2    1    2    0    0  0.00000000000E+00  0.00000000000E+00  0.12570973568E+04  0.16703171889E+04  0.10998480564E+04 0.  0.
        3    1    3    3  502    0  0.18728147207E+03 -0.33060764945E+01 -0.15667075480E+03  0.24419462634E+03  0.10100000352E+00 0. -1.
       -3    1    3    3    0  502 -0.18728147207E+03  0.33060764945E+01  0.14137681116E+04  0.14261225625E+04  0.10100000352E+00 0.  1.
</event>
<event>
 5   0  0.1540772E-04  0.1100481E+04  0.7818609E-02  0.9204723E-01
       -2   -1    0    0    0  501  0.00000000000E+00  0.00000000000E+00  0.28449727713E+03  0.28449727714E+03  0.25500000920E-02 0. -1.
        2   -1    0    0  501    0  0.00000000000E+00  0.00000000000E+00 -0.10642097507E+04  0.10642097507E+04  0.25500000920E-02 0.  1.
    10030    2    1    2    0    0  0.00000000000E+00  0.00000000000E+00 -0.77971247354E+03  0.13487070278E+04  0.11004813063E+04 0.  0.
        2    1    3    3  502    0 -0.36367163658E+03  0.20664050432E+03 -0.82799631687E+03  0.92765039645E+03  0.25500000920E-02 0.  1.
       -2    1    3    3    0  502  0.36367163658E+03 -0.20664050432E+03  0.48283843325E+02  0.42105663136E+03  0.25500000920E-02 0. -1.
</event>
<event>
 5   0  0.1553937E-04  0.1100232E+04  0.7818609E-02  0.9204966E-01
        2   -1    0    0  501    0  0.00000000000E+00  0.00000000000E+00  0.11382978027E+04  0.11382978027E+04  0.25500000920E-02 0.  1.
       -2   -1    0    0    0  501  0.00000000000E+00  0.00000000000E+00 -0.26585961525E+03  0.26585961526E+03  0.25500000920E-02 0. -1.
    10030    2    1    2    0    0  0.00000000000E+00  0.00000000000E+00  0.87243818741E+03  0.14041574179E+04  0.11002316408E+04 0.  0.
        1    1    3    3  502    0  0.16689118637E+03  0.90932190536E+02  0.10950670947E+04  0.11114374806E+04  0.50400001928E-02 0.  1.
       -1    1    3    3    0  502 -0.16689118637E+03 -0.90932190536E+02 -0.22262890725E+03  0.29271993737E+03  0.50400001928E-02 0. -1.
</event>
<event>
 5   0  0.8657442E-05  0.1099438E+04  0.7818609E-02  0.9205739E-01
        1   -1    0    0  501    0  0.00000000000E+00  0.00000000000E+00  0.72668581391E+03  0.72668581393E+03  0.50400001928E-02 0.  1.
       -1   -1    0    0    0  501  0.00000000000E+00  0.00000000000E+00 -0.41584843286E+03  0.41584843289E+03  0.50400001928E-02 0. -1.
    10030    2    1    2    0    0  0.00000000000E+00  0.00000000000E+00  0.31083738105E+03  0.11425342468E+04  0.10994383237E+04 0.  0.
        1    1    3    3  502    0 -0.32579184711E+03  0.38588101115E+03  0.38106274142E+03  0.63265574789E+03  0.50400001928E-02 0.  1.
       -1    1    3    3    0  502  0.32579184711E+03 -0.38588101115E+03 -0.70225360374E+02  0.50987849894E+03  0.50400001928E-02 0. -1.
</event>
<event>
 5   0  0.1553937E-04  0.1104725E+04  0.7818609E-02  0.9200599E-01
        2   -1    0    0  501    0  0.00000000000E+00  0.00000000000E+00  0.43789476339E+03  0.43789476339E+03  0.25500000920E-02 0.  1.
       -2   -1    0    0    0  501  0.00000000000E+00  0.00000000000E+00 -0.69675223095E+03  0.69675223095E+03  0.25500000920E-02 0. -1.
    10030    2    1    2    0    0  0.00000000000E+00  0.00000000000E+00 -0.25885746756E+03  0.11346469943E+04  0.11047246776E+04 0.  0.
        1    1    3    3  502    0  0.20222256806E+03 -0.24750896574E+03  0.33327254780E+03  0.46176319288E+03  0.50400001928E-02 0.  1.
       -1    1    3    3    0  502 -0.20222256806E+03  0.24750896574E+03 -0.59213001537E+03  0.67288380147E+03  0.50400001928E-02 0. -1.
</event>
<event>
 5   0  0.1553937E-04  0.1100950E+04  0.7818609E-02  0.9204266E-01
        2   -1    0    0  501    0  0.00000000000E+00  0.00000000000E+00  0.72884109834E+03  0.72884109835E+03  0.25500000920E-02 0. -1.
       -2   -1    0    0    0  501  0.00000000000E+00  0.00000000000E+00 -0.41575991579E+03  0.41575991580E+03  0.25500000920E-02 0.  1.
    10030    2    1    2    0    0  0.00000000000E+00  0.00000000000E+00  0.31308118255E+03  0.11446010141E+04  0.11009503416E+04 0.  0.
        1    1    3    3  502    0  0.23883043737E+03 -0.46939458223E+03  0.32305205954E+03  0.61784616599E+03  0.50400001928E-02 0. -1.
       -1    1    3    3    0  502 -0.23883043737E+03  0.46939458223E+03 -0.99708769840E+01  0.52675484815E+03  0.50400001928E-02 0.  1.
</event>
<event>
 5   0  0.1503277E-04  0.1099991E+04  0.7818609E-02  0.9205201E-01
       -2   -1    0    0    0  501  0.00000000000E+00  0.00000000000E+00  0.91001697176E+03  0.91001697176E+03  0.25500000920E-02 0.  1.
        2   -1    0    0  501    0  0.00000000000E+00  0.00000000000E+00 -0.33240588564E+03  0.33240588565E+03  0.25500000920E-02 0. -1.
    10030    2    1    2    0    0  0.00000000000E+00  0.00000000000E+00  0.57761108612E+03  0.12424228574E+04  0.10999909044E+04 0.  0.
        5    1    3    3  502    0  0.19645926476E+03 -0.63127148902E+02 -0.28700085109E+03  0.35351500415E+03  0.46999998093E+01 0. -1.
       -5    1    3    3    0  502 -0.19645926476E+03  0.63127148902E+02  0.86461193720E+03  0.88890785326E+03  0.46999998093E+01 0.  1.
</event>
<event>
 5   0  0.1464205E-04  0.1099831E+04  0.7818609E-02  0.9205357E-01
        2   -1    0    0  501    0  0.00000000000E+00  0.00000000000E+00  0.14797220460E+04  0.14797220460E+04  0.25500000920E-02 0. -1.
       -2   -1    0    0    0  501  0.00000000000E+00  0.00000000000E+00 -0.20436749279E+03  0.20436749280E+03  0.25500000920E-02 0.  1.
    10030    2    1    2    0    0  0.00000000000E+00  0.00000000000E+00  0.12753545532E+04  0.16840895388E+04  0.10998310499E+04 0.  0.
        3    1    3    3  502    0 -0.47005268946E+02 -0.54284941713E+03  0.52399380494E+03  0.75595271202E+03  0.10100000352E+00 0. -1.
       -3    1    3    3    0  502  0.47005268946E+02  0.54284941713E+03  0.75136074828E+03  0.92813682679E+03  0.10100000352E+00 0.  1.
</event>
<event>
 5   0  0.9016738E-05  0.1099970E+04  0.7818609E-02  0.9205221E-01
       -1   -1    0    0    0  501  0.00000000000E+00  0.00000000000E+00  0.49737265013E+03  0.49737265016E+03  0.50400001928E-02 0. -1.
        1   -1    0    0  501    0  0.00000000000E+00  0.00000000000E+00 -0.60816232354E+03  0.60816232356E+03  0.50400001928E-02 0.  1.
    10030    2    1    2    0    0  0.00000000000E+00  0.00000000000E+00 -0.11078967341E+03  0.11055349737E+04  0.10999696479E+04 0.  0.
        4    1    3    3  502    0 -0.36493734300E+02  0.11168858211E+03 -0.59539860970E+03  0.60688322546E+03  0.12699999809E+01 0.  1.
       -4    1    3    3    0  502  0.36493734300E+02 -0.11168858211E+03  0.48460893629E+03  0.49865174826E+03  0.12699999809E+01 0. -1.
</event>
<event>
 5   0  0.8657442E-05  0.1099711E+04  0.7818609E-02  0.9205474E-01
       -1   -1    0    0    0  501  0.00000000000E+00  0.00000000000E+00  0.30677001247E+03  0.30677001252E+03  0.50400001928E-02 0. -1.
        1   -1    0    0  501    0  0.00000000000E+00  0.00000000000E+00 -0.98556271144E+03  0.98556271145E+03  0.50400001928E-02 0.  1.
    10030    2    1    2    0    0  0.00000000000E+00  0.00000000000E+00 -0.67879269896E+03  0.12923327240E+04  0.10997110263E+04 0.  0.
        1    1    3    3  502    0 -0.34354851787E+03  0.13689408601E+03 -0.81757899806E+03  0.89732992428E+03  0.50400001928E-02 0.  1.
       -1    1    3    3    0  502  0.34354851787E+03 -0.13689408601E+03  0.13878629910E+03  0.39500279968E+03  0.50400001928E-02 0. -1.
</event>
<event>
 5   0  0.8657442E-05  0.1099823E+04  0.7818609E-02  0.9205364E-01
       -1   -1    0    0    0  501  0.00000000000E+00  0.00000000000E+00  0.66004104668E+03  0.66004104670E+03  0.50400001928E-02 0. -1.
        1   -1    0    0  501    0  0.00000000000E+00  0.00000000000E+00 -0.45815747665E+03  0.45815747668E+03  0.50400001928E-02 0.  1.
    10030    2    1    2    0    0  0.00000000000E+00  0.00000000000E+00  0.20188357002E+03  0.11181985234E+04  0.10998231503E+04 0.  0.
        1    1    3    3  502    0  0.41881837961E+03 -0.18314610060E+03 -0.20986392537E+03  0.50298528453E+03  0.50400001928E-02 0.  1.
       -1    1    3    3    0  502 -0.41881837961E+03  0.18314610060E+03  0.41174749539E+03  0.61521323884E+03  0.50400001928E-02 0. -1.
</event>
<event>
 5   0  0.1503277E-04  0.1100907E+04  0.7818609E-02  0.9204308E-01
        2   -1    0    0  501    0  0.00000000000E+00  0.00000000000E+00  0.39447212087E+03  0.39447212088E+03  0.25500000920E-02 0.  1.
       -2   -1    0    0    0  501  0.00000000000E+00  0.00000000000E+00 -0.76811323311E+03  0.76811323312E+03  0.25500000920E-02 0. -1.
    10030    2    1    2    0    0  0.00000000000E+00  0.00000000000E+00 -0.37364111224E+03  0.11625853540E+04  0.11009073642E+04 0.  0.
        5    1    3    3  502    0 -0.33159196306E+03 -0.24239208748E+03  0.20013722558E+03  0.45692904602E+03  0.46999998093E+01 0.  1.
       -5    1    3    3    0  502  0.33159196306E+03  0.24239208748E+03 -0.57377833782E+03  0.70565630798E+03  0.46999998093E+01 0. -1.
</event>
<event>
 5   0  0.1553937E-04  0.1099462E+04  0.7818609E-02  0.9205716E-01
       -2   -1    0    0    0  501  0.00000000000E+00  0.00000000000E+00  0.82190081667E+03  0.82190081667E+03  0.25500000920E-02 0.  1.
        2   -1    0    0  501    0  0.00000000000E+00  0.00000000000E+00 -0.36768957238E+03  0.36768957239E+03  0.25500000920E-02 0. -1.
    10030    2    1    2    0    0  0.00000000000E+00  0.00000000000E+00  0.45421124429E+03  0.11895903891E+04  0.10994623410E+04 0.  0.
        1    1    3    3  502    0 -0.36370324477E+02  0.49872903451E+03  0.47419156111E+03  0.68913793033E+03  0.50400001928E-02 0.  1.
       -1    1    3    3    0  502  0.36370324477E+02 -0.49872903451E+03 -0.19980316819E+02  0.50045245874E+03  0.50400001928E-02 0. -1.
</event>
<event>
 5   0  0.8921459E-05  0.1099627E+04  0.7818609E-02  0.9205556E-01
        1   -1    0    0  501    0  0.00000000000E+00  0.00000000000E+00  0.14537321207E+04  0.14537321207E+04  0.50400001928E-02 0.  1.
       -1   -1    0    0    0  501  0.00000000000E+00  0.00000000000E+00 -0.20794389617E+03  0.20794389623E+03  0.50400001928E-02 0. -1.
    10030    2    1    2    0    0  0.00000000000E+00  0.00000000000E+00  0.12457882245E+04  0.16616760169E+04  0.10996267025E+04 0.  0.
        3    1    3    3  502    0 -0.10967644729E+03 -0.42906753419E+03  0.11152685726E+04  0.11999799462E+04  0.10100000352E+00 0.  1.
       -3    1    3    3    0  502  0.10967644729E+03  0.42906753419E+03  0.13051965187E+03  0.46169607071E+03  0.10100000352E+00 0. -1.
</event>
<event>
 5   0  0.8921459E-05  0.1099421E+04  0.7818609E-02  0.9205756E-01
       -1   -1    0    0    0  501  0.00000000000E+00  0.00000000000E+00  0.50991456659E+03  0.50991456662E+03  0.50400001928E-02 0.  1.
        1   -1    0    0  501    0  0.00000000000E+00  0.00000000000E+00 -0.59261276115E+03  0.59261276117E+03  0.50400001928E-02 0. -1.
    10030    2    1    2    0    0  0.00000000000E+00  0.00000000000E+00 -0.82698194557E+02  0.11025273278E+04  0.10994214466E+04 0.  0.
        3    1    3    3  502    0 -0.51941957739E+03 -0.17993889041E+03 -0.44033864784E+02  0.55146504251E+03  0.10100000352E+00 0. -1.
       -3    1    3    3    0  502  0.51941957739E+03  0.17993889041E+03 -0.38664329773E+02  0.55106228528E+03  0.10100000352E+00 0.  1.
</event>
<event>
 5   0  0.1553937E-04  0.1099617E+04  0.7818609E-02  0.9205566E-01
        2   -1    0    0  501    0  0.00000000000E+00  0.00000000000E+00  0.43179817576E+03  0.43179817576E+03  0.25500000920E-02 0.  1.
       -2   -1    0    0    0  501  0.00000000000E+00  0.00000000000E+00 -0.70007043874E+03  0.70007043874E+03  0.25500000920E-02 0. -1.
    10030    2    1    2    0    0  0.00000000000E+00  0.00000000000E+00 -0.26827226298E+03  0.11318686145E+04  0.10996165484E+04 0.  0.
        1    1    3    3  502    0  0.50435935329E+03  0.21421978411E+03 -0.87865872747E+02  0.55496746281E+03  0.50400001928E-02 0.  1.
       -1    1    3    3    0  502 -0.50435935329E+03 -0.21421978411E+03 -0.18040639023E+03  0.57690115169E+03  0.50400001928E-02 0. -1.
</event>
<event>
 5   0  0.8657442E-05  0.1099993E+04  0.7818609E-02  0.9205198E-01
       -1   -1    0    0    0  501  0.00000000000E+00  0.00000000000E+00  0.75477275350E+03  0.75477275352E+03  0.50400001928E-02 0.  1.
        1   -1    0    0  501    0  0.00000000000E+00  0.00000000000E+00 -0.40077794278E+03  0.40077794281E+03  0.50400001928E-02 0. -1.
    10030    2    1    2    0    0  0.00000000000E+00  0.00000000000E+00  0.35399481072E+03  0.11555506963E+04  0.10999932208E+04 0.  0.
        1    1    3    3  502    0 -0.27819073463E+03  0.20773110750E+03  0.62510238191E+03  0.71504914919E+03  0.50400001928E-02 0.  1.
       -1    1    3    3    0  502  0.27819073463E+03 -0.20773110750E+03 -0.27110757119E+03  0.44050154715E+03  0.50400001928E-02 0. -1.
</event>
<event>
 5   0  0.8621738E-05  0.1099818E+04  0.7818609E-02  0.9205369E-01
       -1   -1    0    0    0  501  0.00000000000E+00  0.00000000000E+00  0.40815086493E+03  0.40815086496E+03  0.50400001928E-02 0. -1.
        1   -1    0    0  501    0  0.00000000000E+00  0.00000000000E+00 -0.74090206200E+03  0.74090206202E+03  0.50400001928E-02 0.  1.
    10030    2    1    2    0    0  0.00000000000E+00  0.00000000000E+00 -0.33275119707E+03  0.11490529270E+04  0.10998178348E+04 0.  0.
        2    1    3    3  502    0  0.29514213534E+03 -0.46375162266E+03 -0.18205997332E+03  0.57906846008E+03  0.25500000920E-02 0.  1.
       -2    1    3    3    0  502 -0.29514213534E+03  0.46375162266E+03 -0.15069122375E+03  0.56998446689E+03  0.25500000920E-02 0. -1.
</event>
<event>
 5   0  0.9016738E-05  0.1099667E+04  0.7818609E-02  0.9205517E-01
       -1   -1    0    0    0  501  0.00000000000E+00  0.00000000000E+00  0.32145233547E+03  0.32145233551E+03  0.50400001928E-02 0. -1.
        1   -1    0    0  501    0  0.00000000000E+00  0.00000000000E+00 -0.94047112402E+03  0.94047112404E+03  0.50400001928E-02 0.  1.
    10030    2    1    2    0    0  0.00000000000E+00  0.00000000000E+00 -0.61901878855E+03  0.12619234595E+04  0.10996665664E+04 0.  0.
        4    1    3    3  502    0  0.33474027453E+03 -0.40019649716E+03 -0.50862433519E+03  0.72863476103E+03  0.12699999809E+01 0.  1.
       -4    1    3    3    0  502 -0.33474027453E+03  0.40019649716E+03 -0.11039445336E+03  0.53328869852E+03  0.12699999809E+01 0. -1.
</event>
<event>
 5   0  0.8621738E-05  0.1099924E+04  0.7818609E-02  0.9205266E-01
       -1   -1    0    0    0  501  0.00000000000E+00  0.00000000000E+00  0.53889197311E+03  0.53889197314E+03  0.50400001928E-02 0. -1.
        1   -1    0    0  501    0  0.00000000000E+00  0.00000000000E+00 -0.56125935074E+03  0.56125935076E+03  0.50400001928E-02 0.  1.
    10030    2    1    2    0    0  0.00000000000E+00  0.00000000000E+00 -0.22367377623E+02  0.11001513239E+04  0.10999239228E+04 0.  0.
        2    1    3    3  502    0 -0.32361697373E+02 -0.38830679377E+03  0.37700570131E+03  0.54218331252E+03  0.25500000920E-02 0. -1.
       -2    1    3    3    0  502  0.32361697373E+02  0.38830679377E+03 -0.39937307893E+03  0.55796801138E+03  0.25500000920E-02 0.  1.
</event>
<event>
 5   0  0.8657442E-05  0.1099918E+04  0.7818609E-02  0.9205272E-01
        1   -1    0    0  501    0  0.00000000000E+00  0.00000000000E+00  0.13363154510E+04  0.13363154510E+04  0.50400001928E-02 0.  1.
       -1   -1    0    0    0  501  0.00000000000E+00  0.00000000000E+00 -0.22633506569E+03  0.22633506574E+03  0.50400001928E-02 0. -1.
    10030    2    1    2    0    0  0.00000000000E+00  0.00000000000E+00  0.11099803853E+04  0.15626505168E+04  0.10999182614E+04 0.  0.
        1    1    3    3  502    0  0.33982388008E+03 -0.40956358482E+03  0.75201400009E+03  0.92127501640E+03  0.50400001928E-02 0.  1.
       -1    1    3    3    0  502 -0.33982388008E+03  0.40956358482E+03  0.35796638522E+03  0.64137550036E+03  0.50400001928E-02 0. -1.
</event>
<event>
 5   0  0.8921459E-05  0.1100326E+04  0.7818609E-02  0.9204874E-01
       -1   -1    0    0    0  501  0.00000000000E+00  0.00000000000E+00  0.44795131621E+03  0.44795131624E+03  0.50400001928E-02 0. -1.
        1   -1    0    0  501    0  0.00000000000E+00  0.00000000000E+00 -0.67569694286E+03  0.67569694287E+03  0.50400001928E-02 0.  1.
    10030    2    1    2    0    0  0.00000000000E+00  0.00000000000E+00 -0.22774562664E+03  0.11236482591E+04  0.11003260152E+04 0.  0.
        3    1    3    3  502    0 -0.58550608429E+02 -0.51797274984E+03  0.65797813052E+02  0.52540775187E+03  0.10100000352E+00 0. -1.
       -3    1    3    3    0  502  0.58550608429E+02  0.51797274984E+03 -0.29354343970E+03  0.59824050725E+03  0.10100000352E+00 0.  1.
</event>
<event>
 5   0  0.9016738E-05  0.1100233E+04  0.7818609E-02  0.9204965E-01
       -1   -1    0    0    0  501  0.00000000000E+00  0.00000000000E+00  0.78937013859E+03  0.78937013861E+03  0.50400001928E-02 0. -1.
        1   -1    0    0  501    0  0.00000000000E+00  0.00000000000E+00 -0.38337939395E+03  0.38337939398E+03  0.50400001928E-02 0.  1.
    10030    2    1    2    0    0  0.00000000000E+00  0.00000000000E+00  0.40599074464E+03  0.11727495326E+04  0.11002331487E+04 0.  0.
        4    1    3    3  502    0 -0.51219731690E+03 -0.11823694201E+03  0.37585878995E+03  0.64621784932E+03  0.12699999809E+01 0.  1.
       -4    1    3    3    0  502  0.51219731690E+03  0.11823694201E+03  0.30131954689E+02  0.52653168327E+03  0.12699999809E+01 0. -1.
</event>
<event>
 5   0  0.1464205E-04  0.1099647E+04  0.7818609E-02  0.9205536E-01
        2   -1    0    0  501    0  0.00000000000E+00  0.00000000000E+00  0.91923399841E+03  0.91923399841E+03  0.25500000920E-02 0. -1.
       -2   -1    0    0    0  501  0.00000000000E+00  0.00000000000E+00 -0.32886726032E+03  0.32886726033E+03  0.25500000920E-02 0.  1.
    10030    2    1    2    0    0  0.00000000000E+00  0.00000000000E+00  0.59036673809E+03  0.12481012587E+04  0.10996471555E+04 0.  0.
        3    1    3    3  502    0 -0.30045920487E+03  0.20146695067E+03 -0.17476936391E+03  0.40175739790E+03  0.10100000352E+00 0.  1.
       -3    1    3    3    0  502  0.30045920487E+03 -0.20146695067E+03  0.76513610200E+03  0.84634386084E+03  0.10100000352E+00 0. -1.
</event>
<event>
 5   0  0.8621738E-05  0.1101447E+04  0.7818609E-02  0.9203783E-01
        1   -1    0    0  501    0  0.00000000000E+00  0.00000000000E+00  0.44446328456E+03  0.44446328458E+03  0.50400001928E-02 0.  1.
       -1   -1    0    0    0  501  0.00000000000E+00  0.00000000000E+00 -0.68238761669E+03  0.68238761671E+03  0.50400001928E-02 0. -1.
    10030    2    1    2    0    0  0.00000000000E+00  0.00000000000E+00 -0.23792433213E+03  0.11268509013E+04  0.11014467604E+04 0.  0.
        2    1    3    3  502    0 -0.51439284673E+03  0.16685935212E+03 -0.22554856820E+03  0.58593020129E+03  0.25500000920E-02 0. -1.
       -2    1    3    3    0  502  0.51439284673E+03 -0.16685935212E+03 -0.12375763937E+02  0.54092070001E+03  0.25500000920E-02 0.  1.
</event>
<event>
 5   0  0.8921459E-05  0.1100955E+04  0.7818609E-02  0.9204261E-01
        1   -1    0    0  501    0  0.00000000000E+00  0.00000000000E+00  0.96987558366E+03  0.96987558367E+03  0.50400001928E-02 0.  1.
       -1   -1    0    0    0  501  0.00000000000E+00  0.00000000000E+00 -0.31243753232E+03  0.31243753236E+03  0.50400001928E-02 0. -1.
    10030    2    1    2    0    0  0.00000000000E+00  0.00000000000E+00  0.65743805134E+03  0.12823131160E+04  0.11009551018E+04 0.  0.
        3    1    3    3  502    0 -0.16412077126E+02  0.24999802207E+03 -0.24218439155E+03  0.34845610488E+03  0.10100000352E+00 0. -1.
       -3    1    3    3    0  502  0.16412077126E+02 -0.24999802207E+03  0.89962244289E+03  0.93385701115E+03  0.10100000352E+00 0.  1.
</event>
<event>
 5   0  0.6010125E-05  0.1100228E+04  0.7818609E-02  0.9204970E-01
       -4   -1    0    0    0  501  0.00000000000E+00  0.00000000000E+00  0.75251926164E+03  0.75252033331E+03  0.12699999809E+01 0.  1.
        4   -1    0    0  501    0  0.00000000000E+00  0.00000000000E+00 -0.40214740384E+03  0.40214940919E+03  0.12699999809E+01 0. -1.
    10030    2    1    2    0    0  0.00000000000E+00  0.00000000000E+00  0.35037185780E+03  0.11546697425E+04  0.11002280561E+04 0.  0.
        1    1    3    3  502    0 -0.29872324294E+03 -0.16416481424E+03  0.62833841090E+03  0.71483901736E+03  0.50400001928E-02 0.  1.
       -1    1    3    3    0  502  0.29872324294E+03  0.16416481424E+03 -0.27796655310E+03  0.43983072513E+03  0.50400001928E-02 0. -1.
</event>
<event>
 5   0  0.1553937E-04  0.1099604E+04  0.7818609E-02  0.9205578E-01
        2   -1    0    0  501    0  0.00000000000E+00  0.00000000000E+00  0.10279746709E+04  0.10279746709E+04  0.25500000920E-02 0. -1.
       -2   -1    0    0    0  501  0.00000000000E+00  0.00000000000E+00 -0.29405627907E+03  0.29405627908E+03  0.25500000920E-02 0.  1.
    10030    2    1    2    0    0  0.00000000000E+00  0.00000000000E+00  0.73391839183E+03  0.13220309500E+04  0.10996043047E+04 0.  0.
        1    1    3    3  502    0 -0.43436029969E+03 -0.13977919113E+03  0.73571853721E+03  0.86573024566E+03  0.50400001928E-02 0. -1.
       -1    1    3    3    0  502  0.43436029969E+03  0.13977919113E+03 -0.18001453879E+01  0.45630070433E+03  0.50400001928E-02 0.  1.
</event>
<event>
 5   0  0.6010125E-05  0.1100320E+04  0.7818609E-02  0.9204880E-01
       -3   -1    0    0    0  501  0.00000000000E+00  0.00000000000E+00  0.23433305704E+03  0.23433307881E+03  0.10100000352E+00 0. -1.
        3   -1    0    0  501    0  0.00000000000E+00  0.00000000000E+00 -0.12916491142E+04  0.12916491182E+04  0.10100000352E+00 0.  1.
    10030    2    1    2    0    0  0.00000000000E+00  0.00000000000E+00 -0.10573160572E+04  0.15259821970E+04  0.11003201447E+04 0.  0.
        3    1    3    3  502    0  0.21546420597E+02 -0.54885585416E+03 -0.48548482523E+03  0.73307743289E+03  0.10100000352E+00 0.  1.
       -3    1    3    3    0  502 -0.21546420597E+02  0.54885585416E+03 -0.57183123194E+03  0.79290476408E+03  0.10100000352E+00 0. -1.
</event>
<event>
 5   0  0.8657442E-05  0.1100550E+04  0.7818609E-02  0.9204656E-01
       -1   -1    0    0    0  501  0.00000000000E+00  0.00000000000E+00  0.40318409924E+03  0.40318409927E+03  0.50400001928E-02 0. -1.
        1   -1    0    0  501    0  0.00000000000E+00  0.00000000000E+00 -0.75102830897E+03  0.75102830898E+03  0.50400001928E-02 0.  1.
    10030    2    1    2    0    0  0.00000000000E+00  0.00000000000E+00 -0.34784420973E+03  0.11542124083E+04  0.11005501757E+04 0.  0.
        1    1    3    3  502    0  0.27343367270E+03 -0.37375456442E+03 -0.48564232388E+03  0.67104911487E+03  0.50400001928E-02 0.  1.
       -1    1    3    3    0  502 -0.27343367270E+03  0.37375456442E+03  0.13779811416E+03  0.48316329339E+03  0.50400001928E-02 0. -1.
</event>
<event>
 5   0  0.1540772E-04  0.1100083E+04  0.7818609E-02  0.9205111E-01
       -2   -1    0    0    0  501  0.00000000000E+00  0.00000000000E+00  0.32269318512E+03  0.32269318513E+03  0.25500000920E-02 0. -1.
        2   -1    0    0  501    0  0.00000000000E+00  0.00000000000E+00 -0.93756510819E+03  0.93756510819E+03  0.25500000920E-02 0.  1.
    10030    2    1    2    0    0  0.00000000000E+00  0.00000000000E+00 -0.61487192307E+03  0.12602582933E+04  0.11000833987E+04 0.  0.
        2    1    3    3  502    0  0.41461350934E+03  0.33568100354E+03 -0.15390910003E+03  0.55522437747E+03  0.25500000920E-02 0. -1.
       -2    1    3    3    0  502 -0.41461350934E+03 -0.33568100354E+03 -0.46096282304E+03  0.70503391585E+03  0.25500000920E-02 0.  1.
</event>
<event>
 5   0  0.9346836E-05  0.1099933E+04  0.7818609E-02  0.9205257E-01
       -1   -1    0    0    0  501  0.00000000000E+00  0.00000000000E+00  0.55216870317E+03  0.55216870319E+03  0.50400001928E-02 0.  1.
        1   -1    0    0  501    0  0.00000000000E+00  0.00000000000E+00 -0.54777343131E+03  0.54777343133E+03  0.50400001928E-02 0. -1.
    10030    2    1    2    0    0  0.00000000000E+00  0.00000000000E+00  0.43952718620E+01  0.10999421345E+04  0.10999333529E+04 0.  0.
        5    1    3    3  502    0 -0.29538735670E+03  0.28136460505E+03  0.37101153979E+03  0.55144481513E+03  0.46999998093E+01 0.  1.
       -5    1    3    3    0  502  0.29538735670E+03 -0.28136460505E+03 -0.36661626793E+03  0.54849731939E+03  0.46999998093E+01 0. -1.
</event>
<event>
 5   0  0.9016738E-05  0.1099563E+04  0.7818609E-02  0.9205618E-01
        1   -1    0    0  501    0  0.00000000000E+00  0.00000000000E+00  0.13447932402E+04  0.13447932402E+04  0.50400001928E-02 0. -1.
       -1   -1    0    0    0  501  0.00000000000E+00  0.00000000000E+00 -0.22476276811E+03  0.22476276817E+03  0.50400001928E-02 0.  1.
    10030    2    1    2    0    0  0.00000000000E+00  0.00000000000E+00  0.11200304721E+04  0.15695560084E+04  0.10995625517E+04 0.  0.
        4    1    3    3  502    0  0.29963516844E+03 -0.14119013688E+03 -0.66338337620E+02  0.33781396783E+03  0.12699999809E+01 0.  1.
       -4    1    3    3    0  502 -0.29963516844E+03  0.14119013688E+03  0.11863688097E+04  0.12317420406E+04  0.12699999809E+01 0. -1.
</event>
<event>
 5   0  0.8657442E-05  0.1100281E+04  0.7818609E-02  0.9204918E-01
        1   -1    0    0  501    0  0.00000000000E+00  0.00000000000E+00  0.65756505392E+03  0.65756505394E+03  0.50400001928E-02 0. -1.
       -1   -1    0    0    0  501  0.00000000000E+00  0.00000000000E+00 -0.46026526828E+03  0.46026526831E+03  0.50400001928E-02 0.  1.
    10030    2    1    2    0    0  0.00000000000E+00  0.00000000000E+00  0.19729978564E+03  0.11178303223E+04  0.11002806115E+04 0.  0.
        1    1    3    3  502    0 -0.27994905088E+03 -0.20936429763E+03 -0.33291910415E+03  0.48274217772E+03  0.50400001928E-02 0.  1.
       -1    1    3    3    0  502  0.27994905088E+03  0.20936429763E+03  0.53021888979E+03  0.63508814453E+03  0.50400001928E-02 0. -1.
</event>
<event>
 5   0  0.6010125E-05  0.1100151E+04  0.7818609E-02  0.9205044E-01
        3   -1    0    0  501    0  0.00000000000E+00  0.00000000000E+00  0.24178928432E+03  0.24178930542E+03  0.10100000352E+00 0. -1.
       -3   -1    0    0    0  501  0.00000000000E+00  0.00000000000E+00 -0.12514338146E+04  0.12514338187E+04  0.10100000352E+00 0.  1.
    10030    2    1    2    0    0  0.00000000000E+00  0.00000000000E+00 -0.10096445303E+04  0.14932231241E+04  0.11001514536E+04 0.  0.
        4    1    3    3  502    0 -0.19679996348E+03 -0.17340225575E+03  0.15144207916E+03  0.30287767195E+03  0.12699999809E+01 0. -1.
       -4    1    3    3    0  502  0.19679996348E+03  0.17340225575E+03 -0.11610866095E+04  0.11903454522E+04  0.12699999809E+01 0.  1.
</event>
<event>
 5   0  0.1464205E-04  0.1099811E+04  0.7818609E-02  0.9205376E-01
        2   -1    0    0  501    0  0.00000000000E+00  0.00000000000E+00  0.21405366323E+03  0.21405366325E+03  0.25500000920E-02 0.  1.
       -2   -1    0    0    0  501  0.00000000000E+00  0.00000000000E+00 -0.14127114148E+04  0.14127114148E+04  0.25500000920E-02 0. -1.
    10030    2    1    2    0    0  0.00000000000E+00  0.00000000000E+00 -0.11986577516E+04  0.16267650780E+04  0.10998109900E+04 0.  0.
        3    1    3    3  502    0  0.26811082228E+03  0.93705034002E+02  0.97170881963E+02  0.30017700932E+03  0.10100000352E+00 0.  1.
       -3    1    3    3    0  502 -0.26811082228E+03 -0.93705034002E+02 -0.12958286335E+04  0.13265880687E+04  0.10100000352E+00 0. -1.
</event>
<event>
 5   0  0.1574101E-04  0.1099872E+04  0.7818609E-02  0.9205317E-01
        2   -1    0    0  501    0  0.00000000000E+00  0.00000000000E+00  0.43910297477E+03  0.43910297477E+03  0.25500000920E-02 0. -1.
       -2   -1    0    0    0  501  0.00000000000E+00  0.00000000000E+00 -0.68874399458E+03  0.68874399458E+03  0.25500000920E-02 0.  1.
    10030    2    1    2    0    0  0.00000000000E+00  0.00000000000E+00 -0.24964101981E+03  0.11278469694E+04  0.10998718778E+04 0.  0.
        4    1    3    3  502    0 -0.43077181008E+03  0.19551203620E+02 -0.47479486717E+03  0.64138785514E+03  0.12699999809E+01 0.  1.
       -4    1    3    3    0  502  0.43077181008E+03 -0.19551203620E+02  0.22515384736E+03  0.48645911422E+03  0.12699999809E+01 0. -1.
</event>
<event>
 5   0  0.9016738E-05  0.1100125E+04  0.7818609E-02  0.9205070E-01
        1   -1    0    0  501    0  0.00000000000E+00  0.00000000000E+00  0.35518725303E+03  0.35518725306E+03  0.50400001928E-02 0.  1.
       -1   -1    0    0    0  501  0.00000000000E+00  0.00000000000E+00 -0.85185766323E+03  0.85185766324E+03  0.50400001928E-02 0. -1.
    10030    2    1    2    0    0  0.00000000000E+00  0.00000000000E+00 -0.49667041020E+03  0.12070449163E+04  0.11001254172E+04 0.  0.
        4    1    3    3  502    0 -0.29969403236E+03  0.25130273747E+03 -0.67270437362E+03  0.77814032544E+03  0.12699999809E+01 0. -1.
       -4    1    3    3    0  502  0.29969403236E+03 -0.25130273747E+03  0.17603396341E+03  0.42890459087E+03  0.12699999809E+01 0.  1.
</event>
<event>
 5   0  0.8921459E-05  0.1098727E+04  0.7818609E-02  0.9206433E-01
        1   -1    0    0  501    0  0.00000000000E+00  0.00000000000E+00  0.33724680904E+03  0.33724680908E+03  0.50400001928E-02 0.  1.
       -1   -1    0    0    0  501  0.00000000000E+00  0.00000000000E+00 -0.89489487564E+03  0.89489487566E+03  0.50400001928E-02 0. -1.
    10030    2    1    2    0    0  0.00000000000E+00  0.00000000000E+00 -0.55764806660E+03  0.12321416847E+04  0.10987273388E+04 0.  0.
        3    1    3    3  502    0  0.22016560151E+03  0.30986110419E+03 -0.72361289467E+03  0.81737532842E+03  0.10100000352E+00 0. -1.
       -3    1    3    3    0  502 -0.22016560151E+03 -0.30986110419E+03  0.16596482807E+03  0.41476635631E+03  0.10100000352E+00 0.  1.
</event>
<event>
 5   0  0.1464205E-04  0.1098522E+04  0.7818609E-02  0.9206634E-01
        2   -1    0    0  501    0  0.00000000000E+00  0.00000000000E+00  0.59895581124E+03  0.59895581124E+03  0.25500000920E-02 0.  1.
       -2   -1    0    0    0  501  0.00000000000E+00  0.00000000000E+00 -0.50368918030E+03  0.50368918031E+03  0.25500000920E-02 0. -1.
    10030    2    1    2    0    0  0.00000000000E+00  0.00000000000E+00  0.95266630936E+02  0.11026449915E+04  0.10985218461E+04 0.  0.
        3    1    3    3  502    0  0.18023413006E+03 -0.51532224525E+03 -0.12977043566E+02  0.54608586499E+03  0.10100000352E+00 0. -1.
       -3    1    3    3    0  502 -0.18023413006E+03  0.51532224525E+03  0.10824367450E+03  0.55655912656E+03  0.10100000352E+00 0.  1.
</event>
<event>
 5   0  0.8621738E-05  0.1100030E+04  0.7818609E-02  0.9205163E-01
       -1   -1    0    0    0  501  0.00000000000E+00  0.00000000000E+00  0.25428023343E+03  0.25428023348E+03  0.50400001928E-02 0. -1.
        1   -1    0    0  501    0  0.00000000000E+00  0.00000000000E+00 -0.11896968011E+04  0.11896968011E+04  0.50400001928E-02 0.  1.
    10030    2    1    2    0    0  0.00000000000E+00  0.00000000000E+00 -0.93541656763E+03  0.14439770346E+04  0.11000297820E+04 0.  0.
        2    1    3    3  502    0 -0.32067334760E+03 -0.26735573202E+03 -0.93772125510E+03  0.10264656037E+04  0.25500000920E-02 0.  1.
       -2    1    3    3    0  502  0.32067334760E+03  0.26735573202E+03  0.23046874660E+01  0.41751143086E+03  0.25500000920E-02 0. -1.
</event>
<event>
 5   0  0.1464205E-04  0.1101447E+04  0.7818609E-02  0.9203783E-01
       -2   -1    0    0    0  501  0.00000000000E+00  0.00000000000E+00  0.21821137149E+03  0.21821137151E+03  0.25500000920E-02 0. -1.
        2   -1    0    0  501    0  0.00000000000E+00  0.00000000000E+00 -0.13899193200E+04  0.13899193200E+04  0.25500000920E-02 0.  1.
    10030    2    1    2    0    0  0.00000000000E+00  0.00000000000E+00 -0.11717079485E+04  0.16081306915E+04  0.11014466870E+04 0.  0.
        3    1    3    3  502    0  0.25515140666E+03 -0.20633958273E+03 -0.12316006601E+04  0.12745659889E+04  0.10100000352E+00 0.  1.
       -3    1    3    3    0  502 -0.25515140666E+03  0.20633958273E+03  0.59892711648E+02  0.33356470262E+03  0.10100000352E+00 0. -1.
</event>
<event>
 5   0  0.9346836E-05  0.1098367E+04  0.7818609E-02  0.9206785E-01
       -1   -1    0    0    0  501  0.00000000000E+00  0.00000000000E+00  0.21253370402E+03  0.21253370408E+03  0.50400001928E-02 0. -1.
        1   -1    0    0  501    0  0.00000000000E+00  0.00000000000E+00 -0.14190801867E+04  0.14190801867E+04  0.50400001928E-02 0.  1.
    10030    2    1    2    0    0  0.00000000000E+00  0.00000000000E+00 -0.12065464827E+04  0.16316138908E+04  0.10983667301E+04 0.  0.
        5    1    3    3  502    0  0.39347158569E+03  0.25127558507E+03 -0.17370949117E+03  0.49815297421E+03  0.46999998093E+01 0. -1.
       -5    1    3    3    0  502 -0.39347158569E+03 -0.25127558507E+03 -0.10328369915E+04  0.11334609166E+04  0.46999998093E+01 0.  1.
</event>
<event>
 5   0  0.8621738E-05  0.1100022E+04  0.7818609E-02  0.9205170E-01
        1   -1    0    0  501    0  0.00000000000E+00  0.00000000000E+00  0.14581106047E+04  0.14581106048E+04  0.50400001928E-02 0.  1.
       -1   -1    0    0    0  501  0.00000000000E+00  0.00000000000E+00 -0.20746860653E+03  0.20746860659E+03  0.50400001928E-02 0. -1.
    10030    2    1    2    0    0  0.00000000000E+00  0.00000000000E+00  0.12506419982E+04  0.16655792113E+04  0.11000221368E+04 0.  0.
        2    1    3    3  502    0  0.15420349603E+03 -0.13830148265E+03 -0.14615311933E+03  0.25350888069E+03  0.25500000920E-02 0. -1.
       -2    1    3    3    0  502 -0.15420349603E+03  0.13830148265E+03  0.13967951175E+04  0.14120703306E+04  0.25500000920E-02 0.  1.
</event>
<event>
 5   0  0.1503277E-04  0.1099768E+04  0.7818609E-02  0.9205418E-01
       -2   -1    0    0    0  501  0.00000000000E+00  0.00000000000E+00  0.37482615376E+03  0.37482615377E+03  0.25500000920E-02 0. -1.
        2   -1    0    0  501    0  0.00000000000E+00  0.00000000000E+00 -0.80670088386E+03  0.80670088386E+03  0.25500000920E-02 0.  1.
    10030    2    1    2    0    0  0.00000000000E+00  0.00000000000E+00 -0.43187473010E+03  0.11815270376E+04  0.10997683202E+04 0.  0.
        5    1    3    3  502    0 -0.21382017874E+03 -0.11180785468E+02 -0.76005346853E+03  0.78965020346E+03  0.46999998093E+01 0.  1.
       -5    1    3    3    0  502  0.21382017874E+03  0.11180785468E+02  0.32817873844E+03  0.39187683417E+03  0.46999998093E+01 0. -1.
</event>
<event>
 5   0  0.8657442E-05  0.1099866E+04  0.7818609E-02  0.9205322E-01
        1   -1    0    0  501    0  0.00000000000E+00  0.00000000000E+00  0.80667530881E+03  0.80667530882E+03  0.50400001928E-02 0. -1.
       -1   -1    0    0    0  501  0.00000000000E+00  0.00000000000E+00 -0.37490492254E+03  0.37490492257E+03  0.50400001928E-02 0.  1.
    10030    2    1    2    0    0  0.00000000000E+00  0.00000000000E+00  0.43177038627E+03  0.11815802314E+04  0.10998664359E+04 0.  0.
        1    1    3    3  502    0  0.47922864034E+03  0.25772334356E+03  0.30145954519E+03  0.62206050264E+03  0.50400001928E-02 0. -1.
       -1    1    3    3    0  502 -0.47922864034E+03 -0.25772334356E+03  0.13031084108E+03  0.55951972875E+03  0.50400001928E-02 0.  1.
</event>
<event>
 5   0  0.8657442E-05  0.1100104E+04  0.7818609E-02  0.9205090E-01
        1   -1    0    0  501    0  0.00000000000E+00  0.00000000000E+00  0.43727730967E+03  0.43727730969E+03  0.50400001928E-02 0. -1.
       -1   -1    0    0    0  501  0.00000000000E+00  0.00000000000E+00 -0.69191156707E+03  0.69191156708E+03  0.50400001928E-02 0.  1.
    10030    2    1    2    0    0  0.00000000000E+00  0.00000000000E+00 -0.25463425740E+03  0.11291888768E+04  0.11001040471E+04 0.  0.
        1    1    3    3  502    0  0.40257730685E+03  0.16283161257E+03  0.21920971258E+03  0.48645197107E+03  0.50400001928E-02 0.  1.
       -1    1    3    3    0  502 -0.40257730685E+03 -0.16283161257E+03 -0.47384396998E+03  0.64273690571E+03  0.50400001928E-02 0. -1.
</event>
<event>
 5   0  0.1464205E-04  0.1100288E+04  0.7818609E-02  0.9204911E-01
        2   -1    0    0  501    0  0.00000000000E+00  0.00000000000E+00  0.92702290459E+03  0.92702290460E+03  0.25500000920E-02 0. -1.
       -2   -1    0    0    0  501  0.00000000000E+00  0.00000000000E+00 -0.32648435059E+03  0.32648435060E+03  0.25500000920E-02 0.  1.
    10030    2    1    2    0    0  0.00000000000E+00  0.00000000000E+00  0.60053855400E+03  0.12535072552E+04  0.11002880914E+04 0.  0.
        3    1    3    3  502    0 -0.82921829240E+02  0.22921072867E+03 -0.26160905815E+03  0.35756523518E+03  0.10100000352E+00 0.  1.
       -3    1    3    3    0  502  0.82921829240E+02 -0.22921072867E+03  0.86214761215E+03  0.89594202002E+03  0.10100000352E+00 0. -1.
</event>
<event>
 5   0  0.8621738E-05  0.1100057E+04  0.7818609E-02  0.9205136E-01
        1   -1    0    0  501    0  0.00000000000E+00  0.00000000000E+00  0.37265289905E+03  0.37265289909E+03  0.50400001928E-02 0. -1.
       -1   -1    0    0    0  501  0.00000000000E+00  0.00000000000E+00 -0.81183213505E+03  0.81183213507E+03  0.50400001928E-02 0.  1.
    10030    2    1    2    0    0  0.00000000000E+00  0.00000000000E+00 -0.43917923600E+03  0.11844850342E+04  0.11000574507E+04 0.  0.
        2    1    3    3  502    0 -0.19403940141E+02  0.34352550946E+03  0.24246630558E+03  0.42092303084E+03  0.25500000920E-02 0. -1.
       -2    1    3    3    0  502  0.19403940141E+02 -0.34352550946E+03 -0.68164554159E+03  0.76356200332E+03  0.25500000920E-02 0.  1.
</event>
<event>
 5   0  0.8657442E-05  0.1099609E+04  0.7818609E-02  0.9205573E-01
       -1   -1    0    0    0  501  0.00000000000E+00  0.00000000000E+00  0.42841780988E+03  0.42841780991E+03  0.50400001928E-02 0. -1.
        1   -1    0    0  501    0  0.00000000000E+00  0.00000000000E+00 -0.70558449364E+03  0.70558449366E+03  0.50400001928E-02 0.  1.
    10030    2    1    2    0    0  0.00000000000E+00  0.00000000000E+00 -0.27716668375E+03  0.11340023036E+04  0.10996089550E+04 0.  0.
        1    1    3    3  502    0  0.20321033473E+03  0.17466415627E+03  0.35651910903E+03  0.44599089986E+03  0.50400001928E-02 0. -1.
       -1    1    3    3    0  502 -0.20321033473E+03 -0.17466415627E+03 -0.63368579279E+03  0.68801140371E+03  0.50400001928E-02 0.  1.
</event>
<event>
 5   0  0.1503277E-04  0.1100216E+04  0.7818609E-02  0.9204981E-01
        2   -1    0    0  501    0  0.00000000000E+00  0.00000000000E+00  0.35223174712E+03  0.35223174713E+03  0.25500000920E-02 0.  1.
       -2   -1    0    0    0  501  0.00000000000E+00  0.00000000000E+00 -0.85914738442E+03  0.85914738443E+03  0.25500000920E-02 0. -1.
    10030    2    1    2    0    0  0.00000000000E+00  0.00000000000E+00 -0.50691563730E+03  0.12113791316E+04  0.11002163138E+04 0.  0.
        5    1    3    3  502    0 -0.22102551654E+03  0.50134344583E+03 -0.19952537066E+03  0.58312090785E+03  0.46999998093E+01 0.  1.
       -5    1    3    3    0  502  0.22102551654E+03 -0.50134344583E+03 -0.30739026663E+03  0.62825822371E+03  0.46999998093E+01 0. -1.
</event>
<event>
 5   0  0.9346836E-05  0.1099172E+04  0.7818609E-02  0.9205999E-01
       -1   -1    0    0    0  501  0.00000000000E+00  0.00000000000E+00  0.36454839393E+03  0.36454839397E+03  0.50400001928E-02 0.  1.
        1   -1    0    0  501    0  0.00000000000E+00  0.00000000000E+00 -0.82854546854E+03  0.82854546855E+03  0.50400001928E-02 0. -1.
    10030    2    1    2    0    0  0.00000000000E+00  0.00000000000E+00 -0.46399707461E+03  0.11930938625E+04  0.10991722702E+04 0.  0.
        5    1    3    3  502    0  0.53775890346E+03  0.22602298695E+02 -0.11148292289E+03  0.54967811876E+03  0.46999998093E+01 0. -1.
       -5    1    3    3    0  502 -0.53775890346E+03 -0.22602298695E+02 -0.35251415172E+03  0.64341574376E+03  0.46999998093E+01 0.  1.
</event>
<event>
 5   0  0.1464205E-04  0.1100004E+04  0.7818609E-02  0.9205188E-01
       -2   -1    0    0    0  501  0.00000000000E+00  0.00000000000E+00  0.22766820161E+03  0.22766820162E+03  0.25500000920E-02 0.  1.
        2   -1    0    0  501    0  0.00000000000E+00  0.00000000000E+00 -0.13286964806E+04  0.13286964806E+04  0.25500000920E-02 0. -1.
    10030    2    1    2    0    0  0.00000000000E+00  0.00000000000E+00 -0.11010282790E+04  0.15563646822E+04  0.11000035241E+04 0.  0.
        3    1    3    3  502    0  0.16081980925E+02  0.23919714832E+03 -0.12508803219E+04  0.12736465349E+04  0.10100000352E+00 0. -1.
       -3    1    3    3    0  502 -0.16081980925E+02 -0.23919714832E+03  0.14985204291E+03  0.28271814735E+03  0.10100000352E+00 0.  1.
</event>
<event>
 5   0  0.8621738E-05  0.1098628E+04  0.7818609E-02  0.9206530E-01
        1   -1    0    0  501    0  0.00000000000E+00  0.00000000000E+00  0.27762381838E+03  0.27762381842E+03  0.50400001928E-02 0. -1.
       -1   -1    0    0    0  501  0.00000000000E+00  0.00000000000E+00 -0.10868873456E+04  0.10868873456E+04  0.50400001928E-02 0.  1.
    10030    2    1    2    0    0  0.00000000000E+00  0.00000000000E+00 -0.80926352726E+03  0.13645111641E+04  0.10986278989E+04 0.  0.
        2    1    3    3  502    0  0.27749312655E+03  0.19996439369E+03 -0.93849209372E+03  0.99887717164E+03  0.25500000920E-02 0.  1.
       -2    1    3    3    0  502 -0.27749312655E+03 -0.19996439369E+03  0.12922856647E+03  0.36563399244E+03  0.25500000920E-02 0. -1.
</event>
<event>
 5   0  0.8621738E-05  0.1100085E+04  0.7818609E-02  0.9205109E-01
        1   -1    0    0  501    0  0.00000000000E+00  0.00000000000E+00  0.18350674785E+04  0.18350674785E+04  0.50400001928E-02 0.  1.
       -1   -1    0    0    0  501  0.00000000000E+00  0.00000000000E+00 -0.16486949462E+03  0.16486949470E+03  0.50400001928E-02 0. -1.
    10030    2    1    2    0    0  0.00000000000E+00  0.00000000000E+00  0.16701979839E+04  0.19999369732E+04  0.11000848110E+04 0.  0.
        2    1    3    3  502    0 -0.11095541290E+03 -0.28088520829E+03  0.16708559678E+04  0.16979302898E+04  0.25500000920E-02 0.  1.
       -2    1    3    3    0  502  0.11095541290E+03  0.28088520829E+03 -0.65798388712E+00  0.30200668343E+03  0.25500000920E-02 0. -1.
</event>
<event>
 5   0  0.9016738E-05  0.1099931E+04  0.7818609E-02  0.9205259E-01
        1   -1    0    0  501    0  0.00000000000E+00  0.00000000000E+00  0.32962195968E+03  0.32962195972E+03  0.50400001928E-02 0. -1.
       -1   -1    0    0    0  501  0.00000000000E+00  0.00000000000E+00 -0.91760337555E+03  0.91760337557E+03  0.50400001928E-02 0.  1.
    10030    2    1    2    0    0  0.00000000000E+00  0.00000000000E+00 -0.58798141587E+03  0.12472253353E+04  0.10999313122E+04 0.  0.
        4    1    3    3  502    0  0.30164462173E+03 -0.41597365070E+03 -0.71683058737E+02  0.51880982037E+03  0.12699999809E+01 0. -1.
       -4    1    3    3    0  502 -0.30164462173E+03  0.41597365070E+03 -0.51629835713E+03  0.72841551492E+03  0.12699999809E+01 0.  1.
</event>
<event>
 5   0  0.9016738E-05  0.1099752E+04  0.7818609E-02  0.9205434E-01
       -1   -1    0    0    0  501  0.00000000000E+00  0.00000000000E+00  0.47795854530E+03  0.47795854533E+03  0.50400001928E-02 0.  1.
        1   -1    0    0  501    0  0.00000000000E+00  0.00000000000E+00 -0.63261418205E+03  0.63261418207E+03  0.50400001928E-02 0. -1.
    10030    2    1    2    0    0  0.00000000000E+00  0.00000000000E+00 -0.15465563675E+03  0.11105727274E+04  0.10997515251E+04 0.  0.
        4    1    3    3  502    0 -0.25992827706E+03  0.45603657411E+03  0.88081563487E+02  0.53225185849E+03  0.12699999809E+01 0.  1.
       -4    1    3    3    0  502  0.25992827706E+03 -0.45603657411E+03 -0.24273720023E+03  0.57832086891E+03  0.12699999809E+01 0. -1.
</event>
<event>
 5   0  0.1540772E-04  0.1100194E+04  0.7818609E-02  0.9205003E-01
        2   -1    0    0  501    0  0.00000000000E+00  0.00000000000E+00  0.97771504279E+03  0.97771504279E+03  0.25500000920E-02 0. -1.
       -2   -1    0    0    0  501  0.00000000000E+00  0.00000000000E+00 -0.30950407910E+03  0.30950407911E+03  0.25500000920E-02 0.  1.
    10030    2    1    2    0    0  0.00000000000E+00  0.00000000000E+00  0.66821096369E+03  0.12872191219E+04  0.11001941537E+04 0.  0.
        2    1    3    3  502    0 -0.25088501959E+02  0.47785323054E+03  0.65158909738E+03  0.80841913306E+03  0.25500000920E-02 0. -1.
       -2    1    3    3    0  502  0.25088501959E+02 -0.47785323054E+03  0.16621866307E+02  0.47879998884E+03  0.25500000920E-02 0.  1.
</event>
<event>
 5   0  0.1553937E-04  0.1099955E+04  0.7818609E-02  0.9205236E-01
        2   -1    0    0  501    0  0.00000000000E+00  0.00000000000E+00  0.92956490860E+03  0.92956490860E+03  0.25500000920E-02 0. -1.
       -2   -1    0    0    0  501  0.00000000000E+00  0.00000000000E+00 -0.32539434551E+03  0.32539434552E+03  0.25500000920E-02 0.  1.
    10030    2    1    2    0    0  0.00000000000E+00  0.00000000000E+00  0.60417056308E+03  0.12549592541E+04  0.10999548446E+04 0.  0.
        1    1    3    3  502    0  0.22613081023E+03 -0.15640037314E+03 -0.24135504876E+03  0.36585308478E+03  0.50400001928E-02 0.  1.
       -1    1    3    3    0  502 -0.22613081023E+03  0.15640037314E+03  0.84552561184E+03  0.88910616934E+03  0.50400001928E-02 0. -1.
</event>
<event>
 5   0  0.1464205E-04  0.1099966E+04  0.7818609E-02  0.9205225E-01
       -2   -1    0    0    0  501  0.00000000000E+00  0.00000000000E+00  0.46948136266E+03  0.46948136267E+03  0.25500000920E-02 0.  1.
        2   -1    0    0  501    0  0.00000000000E+00  0.00000000000E+00 -0.64428809329E+03  0.64428809329E+03  0.25500000920E-02 0. -1.
    10030    2    1    2    0    0  0.00000000000E+00  0.00000000000E+00 -0.17480673063E+03  0.11137694560E+04  0.10999659122E+04 0.  0.
        3    1    3    3  502    0  0.14935794018E+03  0.48994551480E+03 -0.29023400356E+03  0.58871910856E+03  0.10100000352E+00 0. -1.
       -3    1    3    3    0  502 -0.14935794018E+03 -0.48994551480E+03  0.11542727293E+03  0.52505034740E+03  0.10100000352E+00 0.  1.
</event>
<event>
 5   0  0.1553937E-04  0.1100083E+04  0.7818609E-02  0.9205111E-01
       -2   -1    0    0    0  501  0.00000000000E+00  0.00000000000E+00  0.28748667874E+03  0.28748667875E+03  0.25500000920E-02 0. -1.
        2   -1    0    0  501    0  0.00000000000E+00  0.00000000000E+00 -0.10523816081E+04  0.10523816081E+04  0.25500000920E-02 0.  1.
    10030    2    1    2    0    0  0.00000000000E+00  0.00000000000E+00 -0.76489492932E+03  0.13398682868E+04  0.11000830755E+04 0.  0.
        1    1    3    3  502    0 -0.33748106389E+03 -0.38705504730E+03 -0.14240964438E+03  0.53290297894E+03  0.50400001928E-02 0. -1.
       -1    1    3    3    0  502  0.33748106389E+03  0.38705504730E+03 -0.62248528494E+03  0.80696530788E+03  0.50400001928E-02 0.  1.
</event>
<event>
 5   0  0.1574101E-04  0.1096595E+04  0.7818609E-02  0.9208517E-01
       -2   -1    0    0    0  501  0.00000000000E+00  0.00000000000E+00  0.11512764227E+04  0.11512764227E+04  0.25500000920E-02 0.  1.
        2   -1    0    0  501    0  0.00000000000E+00  0.00000000000E+00 -0.26112765084E+03  0.26112765085E+03  0.25500000920E-02 0. -1.
    10030    2    1    2    0    0  0.00000000000E+00  0.00000000000E+00  0.89014877185E+03  0.14124040735E+04  0.10965949256E+04 0.  0.
        4    1    3    3  502    0 -0.80383398033E+02 -0.52310193413E+03  0.62962763752E+03  0.82251425459E+03  0.12699999809E+01 0.  1.
       -4    1    3    3    0  502  0.80383398033E+02  0.52310193413E+03  0.26052113434E+03  0.58988981895E+03  0.12699999809E+01 0. -1.
</event>
<event>
 5   0  0.8657442E-05  0.1099529E+04  0.7818609E-02  0.9205651E-01
       -1   -1    0    0    0  501  0.00000000000E+00  0.00000000000E+00  0.36959637438E+03  0.36959637442E+03  0.50400001928E-02 0. -1.
        1   -1    0    0  501    0  0.00000000000E+00  0.00000000000E+00 -0.81775961686E+03  0.81775961687E+03  0.50400001928E-02 0.  1.
    10030    2    1    2    0    0  0.00000000000E+00  0.00000000000E+00 -0.44816324247E+03  0.11873559913E+04  0.10995289710E+04 0.  0.
        1    1    3    3  502    0 -0.49988630714E+03 -0.21030406589E+03 -0.32143161077E+03  0.63042239857E+03  0.50400001928E-02 0.  1.
       -1    1    3    3    0  502  0.49988630714E+03  0.21030406589E+03 -0.12673163170E+03  0.55693359271E+03  0.50400001928E-02 0. -1.
</event>
<event>
 5   0  0.8657442E-05  0.1100113E+04  0.7818609E-02  0.9205082E-01
       -1   -1    0    0    0  501  0.00000000000E+00  0.00000000000E+00  0.18338270932E+03  0.18338270939E+03  0.50400001928E-02 0. -1.
        1   -1    0    0  501    0  0.00000000000E+00  0.00000000000E+00 -0.16498939643E+04  0.16498939643E+04  0.50400001928E-02 0.  1.
    10030    2    1    2    0    0  0.00000000000E+00  0.00000000000E+00 -0.14665112550E+04  0.18332766737E+04  0.11001127676E+04 0.  0.
        1    1    3    3  502    0  0.15023935999E+03  0.51625633654E+03 -0.92666050913E+03  0.10713506287E+04  0.50400001928E-02 0.  1.
       -1    1    3    3    0  502 -0.15023935999E+03 -0.51625633654E+03 -0.53985074589E+03  0.76192604508E+03  0.50400001928E-02 0. -1.
</event>
<event>
 5   0  0.9346836E-05  0.1099809E+04  0.7818609E-02  0.9205378E-01
        1   -1    0    0  501    0  0.00000000000E+00  0.00000000000E+00  0.30991159469E+03  0.30991159474E+03  0.50400001928E-02 0.  1.
       -1   -1    0    0    0  501  0.00000000000E+00  0.00000000000E+00 -0.97574636544E+03  0.97574636545E+03  0.50400001928E-02 0. -1.
    10030    2    1    2    0    0  0.00000000000E+00  0.00000000000E+00 -0.66583477074E+03  0.12856579602E+04  0.10998092783E+04 0.  0.
        5    1    3    3  502    0 -0.47368472916E+02  0.16111274704E+03 -0.94501341246E+03  0.95982994807E+03  0.46999998093E+01 0. -1.
       -5    1    3    3    0  502  0.47368472916E+02 -0.16111274704E+03  0.27917864172E+03  0.32582801211E+03  0.46999998093E+01 0.  1.
</event>
<event>
 5   0  0.9016738E-05  0.1100543E+04  0.7818609E-02  0.9204663E-01
        1   -1    0    0  501    0  0.00000000000E+00  0.00000000000E+00  0.13646005976E+04  0.13646005976E+04  0.50400001928E-02 0. -1.
       -1   -1    0    0    0  501  0.00000000000E+00  0.00000000000E+00 -0.22189545724E+03  0.22189545730E+03  0.50400001928E-02 0.  1.
    10030    2    1    2    0    0  0.00000000000E+00  0.00000000000E+00  0.11427051403E+04  0.15864960549E+04  0.11005429089E+04 0.  0.
        4    1    3    3  502    0 -0.22973556513E+02 -0.38807895683E+03  0.11327536829E+04  0.11976082749E+04  0.12699999809E+01 0. -1.
       -4    1    3    3    0  502  0.22973556513E+02  0.38807895683E+03  0.99514574270E+01  0.38888778000E+03  0.12699999809E+01 0.  1.
</event>
<event>
 5   0  0.9016738E-05  0.1100148E+04  0.7818609E-02  0.9205048E-01
        1   -1    0    0  501    0  0.00000000000E+00  0.00000000000E+00  0.88409396859E+03  0.88409396861E+03  0.50400001928E-02 0.  1.
       -1   -1    0    0    0  501  0.00000000000E+00  0.00000000000E+00 -0.34225005262E+03  0.34225005266E+03  0.50400001928E-02 0. -1.
    10030    2    1    2    0    0  0.00000000000E+00  0.00000000000E+00  0.54184391597E+03  0.12263440213E+04  0.11001476397E+04 0.  0.
        4    1    3    3  502    0 -0.16955703831E+02  0.38329948249E+03  0.71031175527E+03  0.80731059187E+03  0.12699999809E+01 0.  1.
       -4    1    3    3    0  502  0.16955703831E+02 -0.38329948249E+03 -0.16846783930E+03  0.41903342939E+03  0.12699999809E+01 0. -1.
</event>
<event>
 5   0  0.8921459E-05  0.1099809E+04  0.7818609E-02  0.9205378E-01
       -1   -1    0    0    0  501  0.00000000000E+00  0.00000000000E+00  0.35841019919E+03  0.35841019923E+03  0.50400001928E-02 0. -1.
        1   -1    0    0  501    0  0.00000000000E+00  0.00000000000E+00 -0.84371177398E+03  0.84371177399E+03  0.50400001928E-02 0.  1.
    10030    2    1    2    0    0  0.00000000000E+00  0.00000000000E+00 -0.48530157478E+03  0.12021219732E+04  0.10998089016E+04 0.  0.
        3    1    3    3  502    0 -0.21564135912E+03  0.19584730436E+03  0.26714753745E+03  0.39525331037E+03  0.10100000352E+00 0. -1.
       -3    1    3    3    0  502  0.21564135912E+03 -0.19584730436E+03 -0.75244911223E+03  0.80686866285E+03  0.10100000352E+00 0.  1.
</event>
<event>
 5   0  0.1574101E-04  0.1100376E+04  0.7818609E-02  0.9204826E-01
       -2   -1    0    0    0  501  0.00000000000E+00  0.00000000000E+00  0.28752431074E+03  0.28752431075E+03  0.25500000920E-02 0.  1.
        2   -1    0    0  501    0  0.00000000000E+00  0.00000000000E+00 -0.10528036933E+04  0.10528036933E+04  0.25500000920E-02 0. -1.
    10030    2    1    2    0    0  0.00000000000E+00  0.00000000000E+00 -0.76527938252E+03  0.13403280040E+04  0.11003756745E+04 0.  0.
        4    1    3    3  502    0  0.26779505403E+03  0.26571946345E+03 -0.87044964377E+03  0.94868604894E+03  0.12699999809E+01 0. -1.
       -4    1    3    3    0  502 -0.26779505403E+03 -0.26571946345E+03  0.10517026125E+03  0.39164195507E+03  0.12699999809E+01 0.  1.
</event>
<event>
 5   0  0.8621738E-05  0.1102274E+04  0.7818609E-02  0.9202979E-01
       -1   -1    0    0    0  501  0.00000000000E+00  0.00000000000E+00  0.57494837000E+03  0.57494837002E+03  0.50400001928E-02 0.  1.
        1   -1    0    0  501    0  0.00000000000E+00  0.00000000000E+00 -0.52831149086E+03  0.52831149088E+03  0.50400001928E-02 0. -1.
    10030    2    1    2    0    0  0.00000000000E+00  0.00000000000E+00  0.46636879146E+02  0.11032598609E+04  0.11022737057E+04 0.  0.
        2    1    3    3  502    0 -0.74571223705E+02 -0.99046568243E+02  0.56080981077E+03  0.57435070641E+03  0.25500000920E-02 0.  1.
       -2    1    3    3    0  502  0.74571223705E+02  0.99046568243E+02 -0.51417293163E+03  0.52890915450E+03  0.25500000920E-02 0. -1.
</event>
<event>
 5   0  0.8921459E-05  0.1100222E+04  0.7818609E-02  0.9204975E-01
       -1   -1    0    0    0  501  0.00000000000E+00  0.00000000000E+00  0.17890023670E+03  0.17890023677E+03  0.50400001928E-02 0. -1.
        1   -1    0    0  501    0  0.00000000000E+00  0.00000000000E+00 -0.16915700595E+04  0.16915700595E+04  0.50400001928E-02 0.  1.
    10030    2    1    2    0    0  0.00000000000E+00  0.00000000000E+00 -0.15126698228E+04  0.18704702963E+04  0.11002223123E+04 0.  0.
        3    1    3    3  502    0  0.40995493911E+03  0.36588618629E+02 -0.13768550616E+04  0.14370565924E+04  0.10100000352E+00 0.  1.
       -3    1    3    3    0  502 -0.40995493911E+03 -0.36588618629E+02 -0.13581476125E+03  0.43341370386E+03  0.10100000352E+00 0. -1.
</event>
<event>
 5   0  0.1503277E-04  0.1099609E+04  0.7818609E-02  0.9205573E-01
       -2   -1    0    0    0  501  0.00000000000E+00  0.00000000000E+00  0.18574918363E+03  0.18574918365E+03  0.25500000920E-02 0. -1.
        2   -1    0    0  501    0  0.00000000000E+00  0.00000000000E+00 -0.16273822280E+04  0.16273822281E+04  0.25500000920E-02 0.  1.
    10030    2    1    2    0    0  0.00000000000E+00  0.00000000000E+00 -0.14416330444E+04  0.18131314117E+04  0.10996088765E+04 0.  0.
        5    1    3    3  502    0 -0.22664987534E+03 -0.70196995217E+02  0.96947014988E+02  0.25635638834E+03  0.46999998093E+01 0. -1.
       -5    1    3    3    0  502  0.22664987534E+03  0.70196995217E+02 -0.15385800594E+04  0.15567750234E+04  0.46999998093E+01 0.  1.
</event>
<event>
 5   0  0.8621738E-05  0.1099542E+04  0.7818609E-02  0.9205638E-01
        1   -1    0    0  501    0  0.00000000000E+00  0.00000000000E+00  0.12288771836E+04  0.12288771836E+04  0.50400001928E-02 0.  1.
       -1   -1    0    0    0  501  0.00000000000E+00  0.00000000000E+00 -0.24595493872E+03  0.24595493877E+03  0.50400001928E-02 0. -1.
    10030    2    1    2    0    0  0.00000000000E+00  0.00000000000E+00  0.98292224483E+03  0.14748321223E+04  0.10995424729E+04 0.  0.
        2    1    3    3  502    0  0.40280133111E+03  0.87221647119E+02  0.97950768698E+03  0.10626814372E+04  0.25500000920E-02 0.  1.
       -2    1    3    3    0  502 -0.40280133111E+03 -0.87221647119E+02  0.34145578512E+01  0.41215068516E+03  0.25500000920E-02 0. -1.
</event>
<event>
 5   0  0.8921459E-05  0.1099814E+04  0.7818609E-02  0.9205374E-01
        1   -1    0    0  501    0  0.00000000000E+00  0.00000000000E+00  0.87980305777E+03  0.87980305778E+03  0.50400001928E-02 0. -1.
       -1   -1    0    0    0  501  0.00000000000E+00  0.00000000000E+00 -0.34371038460E+03  0.34371038464E+03  0.50400001928E-02 0.  1.
    10030    2    1    2    0    0  0.00000000000E+00  0.00000000000E+00  0.53609267316E+03  0.12235134424E+04  0.10998135249E+04 0.  0.
        3    1    3    3  502    0 -0.48790107412E+03 -0.25229216677E+03  0.29745104823E+03  0.62464064216E+03  0.10100000352E+00 0. -1.
       -3    1    3    3    0  502  0.48790107412E+03  0.25229216677E+03  0.23864162494E+03  0.59887280026E+03  0.10100000352E+00 0.  1.
</event>
<event>
 5   0  0.9346836E-05  0.1101433E+04  0.7818609E-02  0.9203796E-01
       -1   -1    0    0    0  501  0.00000000000E+00  0.00000000000E+00  0.21218734018E+03  0.21218734024E+03  0.50400001928E-02 0.  1.
        1   -1    0    0  501    0  0.00000000000E+00  0.00000000000E+00 -0.14293437332E+04  0.14293437332E+04  0.50400001928E-02 0. -1.
    10030    2    1    2    0    0  0.00000000000E+00  0.00000000000E+00 -0.12171563930E+04  0.16415310735E+04  0.11014329666E+04 0.  0.
        5    1    3    3  502    0  0.53448432130E+03  0.18512581156E+02 -0.41283350729E+03  0.67562548806E+03  0.46999998093E+01 0. -1.
       -5    1    3    3    0  502 -0.53448432130E+03 -0.18512581156E+02 -0.80432288574E+03  0.96590558539E+03  0.46999998093E+01 0.  1.
</event>
<event>
 5   0  0.1540772E-04  0.1099261E+04  0.7818609E-02  0.9205913E-01
       -2   -1    0    0    0  501  0.00000000000E+00  0.00000000000E+00  0.79148668635E+03  0.79148668636E+03  0.25500000920E-02 0.  1.
        2   -1    0    0  501    0  0.00000000000E+00  0.00000000000E+00 -0.38167850026E+03  0.38167850027E+03  0.25500000920E-02 0. -1.
    10030    2    1    2    0    0  0.00000000000E+00  0.00000000000E+00  0.40980818609E+03  0.11731651866E+04  0.10992605723E+04 0.  0.
        2    1    3    3  502    0  0.28135301590E+02 -0.29566310711E+03 -0.28866603333E+03  0.41416946641E+03  0.25500000920E-02 0. -1.
       -2    1    3    3    0  502 -0.28135301590E+02  0.29566310711E+03  0.69847421942E+03  0.75899572021E+03  0.25500000920E-02 0.  1.
</event>
<event>
 5   0  0.1540772E-04  0.1100314E+04  0.7818609E-02  0.9204886E-01
       -2   -1    0    0    0  501  0.00000000000E+00  0.00000000000E+00  0.31970189850E+03  0.31970189851E+03  0.25500000920E-02 0. -1.
        2   -1    0    0  501    0  0.00000000000E+00  0.00000000000E+00 -0.94673393926E+03  0.94673393926E+03  0.25500000920E-02 0.  1.
    10030    2    1    2    0    0  0.00000000000E+00  0.00000000000E+00 -0.62703204076E+03  0.12664358378E+04  0.11003138421E+04 0.  0.
        2    1    3    3  502    0  0.22454234982E+03 -0.49966859677E+03 -0.37203121947E+03  0.66218970222E+03  0.25500000920E-02 0. -1.
       -2    1    3    3    0  502 -0.22454234982E+03  0.49966859677E+03 -0.25500082129E+03  0.60424613555E+03  0.25500000920E-02 0.  1.
</event>
<event>
 5   0  0.1464205E-04  0.1100158E+04  0.7818609E-02  0.9205038E-01
       -2   -1    0    0    0  501  0.00000000000E+00  0.00000000000E+00  0.10807307299E+04  0.10807307299E+04  0.25500000920E-02 0. -1.
        2   -1    0    0  501    0  0.00000000000E+00  0.00000000000E+00 -0.27998372271E+03  0.27998372272E+03  0.25500000920E-02 0.  1.
    10030    2    1    2    0    0  0.00000000000E+00  0.00000000000E+00  0.80074700715E+03  0.13607144526E+04  0.11001581941E+04 0.  0.
        3    1    3    3  502    0 -0.14322607128E+03  0.49036501647E+03  0.65268621818E+03  0.82883705665E+03  0.10100000352E+00 0. -1.
       -3    1    3    3    0  502  0.14322607128E+03 -0.49036501647E+03  0.14806078897E+03  0.53187739593E+03  0.10100000352E+00 0.  1.
</event>
<event>
 5   0  0.1574101E-04  0.1100061E+04  0.7818609E-02  0.9205133E-01
        2   -1    0    0  501    0  0.00000000000E+00  0.00000000000E+00  0.10303778130E+04  0.10303778130E+04  0.25500000920E-02 0.  1.
       -2   -1    0    0    0  501  0.00000000000E+00  0.00000000000E+00 -0.29361393275E+03  0.29361393276E+03  0.25500000920E-02 0. -1.
    10030    2    1    2    0    0  0.00000000000E+00  0.00000000000E+00  0.73676388028E+03  0.13239917458E+04  0.11000605109E+04 0.  0.
        4    1    3    3  502    0  0.21993554429E+03 -0.10444529728E+03 -0.22522121815E+03  0.33167253997E+03  0.12699999809E+01 0. -1.
       -4    1    3    3    0  502 -0.21993554429E+03  0.10444529728E+03  0.96198509843E+03  0.99231920583E+03  0.12699999809E+01 0.  1.
</event>
<event>
 5   0  0.8657442E-05  0.1100044E+04  0.7818609E-02  0.9205149E-01
        1   -1    0    0  501    0  0.00000000000E+00  0.00000000000E+00  0.57838718273E+03  0.57838718276E+03  0.50400001928E-02 0. -1.
       -1   -1    0    0    0  501  0.00000000000E+00  0.00000000000E+00 -0.52304757945E+03  0.52304757948E+03  0.50400001928E-02 0.  1.
    10030    2    1    2    0    0  0.00000000000E+00  0.00000000000E+00  0.55339603282E+02  0.11014347622E+04  0.11000436645E+04 0.  0.
        1    1    3    3  502    0 -0.44908424025E+03  0.60246208007E+02 -0.28452211213E+03  0.53503186142E+03  0.50400001928E-02 0.  1.
       -1    1    3    3    0  502  0.44908424025E+03 -0.60246208007E+02  0.33986171541E+03  0.56640290081E+03  0.50400001928E-02 0. -1.
</event>
<event>
 5   0  0.1574101E-04  0.1099804E+04  0.7818609E-02  0.9205383E-01
        2   -1    0    0  501    0  0.00000000000E+00  0.00000000000E+00  0.76254441009E+03  0.76254441009E+03  0.25500000920E-02 0. -1.
       -2   -1    0    0    0  501  0.00000000000E+00  0.00000000000E+00 -0.39655649730E+03  0.39655649731E+03  0.25500000920E-02 0.  1.
    10030    2    1    2    0    0  0.00000000000E+00  0.00000000000E+00  0.36598791279E+03  0.11591009074E+04  0.10998035103E+04 0.  0.
        4    1    3    3  502    0 -0.36616061558E+03  0.30542396230E+03  0.47168420168E+03  0.67070484728E+03  0.12699999809E+01 0. -1.
       -4    1    3    3    0  502  0.36616061558E+03 -0.30542396230E+03 -0.10569628889E+03  0.48839606012E+03  0.12699999809E+01 0.  1.
</event>
<event>
 5   0  0.9016738E-05  0.1099925E+04  0.7818609E-02  0.9205265E-01
        1   -1    0    0  501    0  0.00000000000E+00  0.00000000000E+00  0.96078006507E+03  0.96078006508E+03  0.50400001928E-02 0. -1.
       -1   -1    0    0    0  501  0.00000000000E+00  0.00000000000E+00 -0.31480531631E+03  0.31480531635E+03  0.50400001928E-02 0.  1.
    10030    2    1    2    0    0  0.00000000000E+00  0.00000000000E+00  0.64597474875E+03  0.12755853814E+04  0.10999248562E+04 0.  0.
        4    1    3    3  502    0  0.33505439410E+03  0.43604849515E+03  0.33176765370E+03  0.64223915021E+03  0.12699999809E+01 0. -1.
       -4    1    3    3    0  502 -0.33505439410E+03 -0.43604849515E+03  0.31420709505E+03  0.63334623122E+03  0.12699999809E+01 0.  1.
</event>
<event>
 5   0  0.1553937E-04  0.1099666E+04  0.7818609E-02  0.9205517E-01
       -2   -1    0    0    0  501  0.00000000000E+00  0.00000000000E+00  0.12403245820E+03  0.12403245823E+03  0.25500000920E-02 0. -1.
        2   -1    0    0  501    0  0.00000000000E+00  0.00000000000E+00 -0.24373972954E+04  0.24373972954E+04  0.25500000920E-02 0.  1.
    10030    2    1    2    0    0  0.00000000000E+00  0.00000000000E+00 -0.23133648372E+04  0.25614297536E+04  0.10996660915E+04 0.  0.
        1    1    3    3  502    0 -0.16300227224E+03 -0.29241686935E+03 -0.21726302488E+04  0.21982719496E+04  0.50400001928E-02 0.  1.
       -1    1    3    3    0  502  0.16300227224E+03  0.29241686935E+03 -0.14073458835E+03  0.36315780402E+03  0.50400001928E-02 0. -1.
</event>
<event>
 5   0  0.8921459E-05  0.1099841E+04  0.7818609E-02  0.9205347E-01
       -1   -1    0    0    0  501  0.00000000000E+00  0.00000000000E+00  0.20602534279E+03  0.20602534285E+03  0.50400001928E-02 0.  1.
        1   -1    0    0  501    0  0.00000000000E+00  0.00000000000E+00 -0.14678418085E+04  0.14678418085E+04  0.50400001928E-02 0. -1.
    10030    2    1    2    0    0  0.00000000000E+00  0.00000000000E+00 -0.12618164658E+04  0.16738671514E+04  0.10998411009E+04 0.  0.
        3    1    3    3  502    0 -0.36044340301E+03  0.41104902345E+03 -0.72135488252E+03  0.90511525409E+03  0.10100000352E+00 0.  1.
       -3    1    3    3    0  502  0.36044340301E+03 -0.41104902345E+03 -0.54046158324E+03  0.76875189731E+03  0.10100000352E+00 0. -1.
</event>
<event>
 5   0  0.1464205E-04  0.1099102E+04  0.7818609E-02  0.9206067E-01
        2   -1    0    0  501    0  0.00000000000E+00  0.00000000000E+00  0.34532974429E+03  0.34532974430E+03  0.25500000920E-02 0. -1.
       -2   -1    0    0    0  501  0.00000000000E+00  0.00000000000E+00 -0.87454542013E+03  0.87454542013E+03  0.25500000920E-02 0.  1.
    10030    2    1    2    0    0  0.00000000000E+00  0.00000000000E+00 -0.52921567584E+03  0.12198751644E+04  0.10991024453E+04 0.  0.
        3    1    3    3  502    0  0.15883242553E+03  0.25781212917E+03 -0.77359746912E+03  0.83075139950E+03  0.10100000352E+00 0.  1.
       -3    1    3    3    0  502 -0.15883242553E+03 -0.25781212917E+03  0.24438179328E+03  0.38912376493E+03  0.10100000352E+00 0. -1.
</event>
<event>
 5   0  0.9346836E-05  0.1099172E+04  0.7818609E-02  0.9205999E-01
       -1   -1    0    0    0  501  0.00000000000E+00  0.00000000000E+00  0.80185897529E+03  0.80185897531E+03  0.50400001928E-02 0. -1.
        1   -1    0    0  501    0  0.00000000000E+00  0.00000000000E+00 -0.37668071985E+03  0.37668071988E+03  0.50400001928E-02 0.  1.
    10030    2    1    2    0    0  0.00000000000E+00  0.00000000000E+00  0.42517825544E+03  0.11785396952E+04  0.10991720813E+04 0.  0.
        5    1    3    3  502    0  0.74336026931E+01 -0.42841286973E+03 -0.15639626334E+03  0.45615208712E+03  0.46999998093E+01 0.  1.
       -5    1    3    3    0  502 -0.74336026931E+01  0.42841286973E+03  0.58157451879E+03  0.72238760807E+03  0.46999998093E+01 0. -1.
</event>
<event>
 5   0  0.1553937E-04  0.1100251E+04  0.7818609E-02  0.9204947E-01
       -2   -1    0    0    0  501  0.00000000000E+00  0.00000000000E+00  0.48170485314E+03  0.48170485315E+03  0.25500000920E-02 0.  1.
        2   -1    0    0  501    0  0.00000000000E+00  0.00000000000E+00 -0.62826490557E+03  0.62826490558E+03  0.25500000920E-02 0. -1.
    10030    2    1    2    0    0  0.00000000000E+00  0.00000000000E+00 -0.14656005243E+03  0.11099697587E+04  0.11002513423E+04 0.  0.
        1    1    3    3  502    0  0.32644205393E+03 -0.43571479920E+03  0.63248378032E+01  0.54447387854E+03  0.50400001928E-02 0.  1.
       -1    1    3    3    0  502 -0.32644205393E+03  0.43571479920E+03 -0.15288489024E+03  0.56549588018E+03  0.50400001928E-02 0. -1.
</event>
<event>
 5   0  0.1464205E-04  0.1099902E+04  0.7818609E-02  0.9205287E-01
       -2   -1    0    0    0  501  0.00000000000E+00  0.00000000000E+00  0.44816471755E+03  0.44816471755E+03  0.25500000920E-02 0.  1.
        2   -1    0    0  501    0  0.00000000000E+00  0.00000000000E+00 -0.67485509031E+03  0.67485509031E+03  0.25500000920E-02 0. -1.
    10030    2    1    2    0    0  0.00000000000E+00  0.00000000000E+00 -0.22669037276E+03  0.11230198079E+04  0.10999022519E+04 0.  0.
        3    1    3    3  502    0 -0.37402422013E+03  0.22583830203E+02  0.29765993675E+03  0.47854529021E+03  0.10100000352E+00 0.  1.
       -3    1    3    3    0  502  0.37402422013E+03 -0.22583830203E+02 -0.52435030951E+03  0.64447451766E+03  0.10100000352E+00 0. -1.
</event>
<event>
 5   0  0.9346836E-05  0.1100309E+04  0.7818609E-02  0.9204891E-01
       -1   -1    0    0    0  501  0.00000000000E+00  0.00000000000E+00  0.20583998537E+03  0.20583998543E+03  0.50400001928E-02 0. -1.
        1   -1    0    0  501    0  0.00000000000E+00  0.00000000000E+00 -0.14704137567E+04  0.14704137568E+04  0.50400001928E-02 0.  1.
    10030    2    1    2    0    0  0.00000000000E+00  0.00000000000E+00 -0.12645737714E+04  0.16762537422E+04  0.11003089498E+04 0.  0.
        5    1    3    3  502    0  0.32944462894E+03 -0.43347381141E+03 -0.51219051824E+03  0.74752560203E+03  0.46999998093E+01 0.  1.
       -5    1    3    3    0  502 -0.32944462894E+03  0.43347381141E+03 -0.75238325314E+03  0.92872814016E+03  0.46999998093E+01 0. -1.
</event>
<event>
 5   0  0.9016738E-05  0.1099667E+04  0.7818609E-02  0.9205516E-01
       -1   -1    0    0    0  501  0.00000000000E+00  0.00000000000E+00  0.44682390669E+03  0.44682390672E+03  0.50400001928E-02 0. -1.
        1   -1    0    0  501    0  0.00000000000E+00  0.00000000000E+00 -0.67659093549E+03  0.67659093551E+03  0.50400001928E-02 0.  1.
    10030    2    1    2    0    0  0.00000000000E+00  0.00000000000E+00 -0.22976702880E+03  0.11234148422E+04  0.10996672316E+04 0.  0.
        4    1    3    3  502    0  0.38647105609E+03  0.31807789288E+03  0.11758714833E+03  0.51416123297E+03  0.12699999809E+01 0. -1.
       -4    1    3    3    0  502 -0.38647105609E+03 -0.31807789288E+03 -0.34735417713E+03  0.60925360927E+03  0.12699999809E+01 0.  1.
</event>
<event>
 5   0  0.8621738E-05  0.1096076E+04  0.7818609E-02  0.9209025E-01
       -1   -1    0    0    0  501  0.00000000000E+00  0.00000000000E+00  0.70090105109E+03  0.70090105111E+03  0.50400001928E-02 0. -1.
        1   -1    0    0  501    0  0.00000000000E+00  0.00000000000E+00 -0.42851377526E+03  0.42851377529E+03  0.50400001928E-02 0.  1.
    10030    2    1    2    0    0  0.00000000000E+00  0.00000000000E+00  0.27238727583E+03  0.11294148264E+04  0.10960761935E+04 0.  0.
        2    1    3    3  502    0  0.26334821676E+03 -0.72607514427E+02  0.62574619103E+03  0.68277553414E+03  0.25500000920E-02 0. -1.
       -2    1    3    3    0  502 -0.26334821676E+03  0.72607514427E+02 -0.35335891521E+03  0.44663929225E+03  0.25500000920E-02 0.  1.
</event>
<event>
 5   0  0.1574101E-04  0.1099763E+04  0.7818609E-02  0.9205423E-01
        2   -1    0    0  501    0  0.00000000000E+00  0.00000000000E+00  0.14554257415E+04  0.14554257415E+04  0.25500000920E-02 0.  1.
       -2   -1    0    0    0  501  0.00000000000E+00  0.00000000000E+00 -0.20775338945E+03  0.20775338946E+03  0.25500000920E-02 0. -1.
    10030    2    1    2    0    0  0.00000000000E+00  0.00000000000E+00  0.12476723520E+04  0.16631791309E+04  0.10997629397E+04 0.  0.
        4    1    3    3  502    0  0.45543322108E+03 -0.28839741985E+03  0.45972803374E+03  0.70848004103E+03  0.12699999809E+01 0. -1.
       -4    1    3    3    0  502 -0.45543322108E+03  0.28839741985E+03  0.78794431827E+03  0.95469908988E+03  0.12699999809E+01 0.  1.
</event>
<event>
 5   0  0.1553937E-04  0.1099900E+04  0.7818609E-02  0.9205289E-01
       -2   -1    0    0    0  501  0.00000000000E+00  0.00000000000E+00  0.38354261978E+03  0.38354261979E+03  0.25500000920E-02 0.  1.
        2   -1    0    0  501    0  0.00000000000E+00  0.00000000000E+00 -0.78855705732E+03  0.78855705733E+03  0.25500000920E-02 0. -1.
    10030    2    1    2    0    0  0.00000000000E+00  0.00000000000E+00 -0.40501443754E+03  0.11720996771E+04  0.10999004312E+04 0.  0.
        1    1    3    3  502    0  0.29385582863E+02  0.49292176604E+03  0.55479004495E+02  0.49690371289E+03  0.50400001928E-02 0. -1.
       -1    1    3    3    0  502 -0.29385582863E+02 -0.49292176604E+03 -0.46049344204E+03  0.67519596422E+03  0.50400001928E-02 0.  1.
</event>
<event>
 5   0  0.8657442E-05  0.1099817E+04  0.7818609E-02  0.9205370E-01
        1   -1    0    0  501    0  0.00000000000E+00  0.00000000000E+00  0.19107464066E+03  0.19107464072E+03  0.50400001928E-02 0. -1.
       -1   -1    0    0    0  501  0.00000000000E+00  0.00000000000E+00 -0.15826252993E+04  0.15826252993E+04  0.50400001928E-02 0.  1.
    10030    2    1    2    0    0  0.00000000000E+00  0.00000000000E+00 -0.13915506586E+04  0.17736999400E+04  0.10998173674E+04 0.  0.
        1    1    3    3  502    0 -0.13238471051E+03 -0.46488994946E+01 -0.15565101941E+04  0.15621367764E+04  0.50400001928E-02 0.  1.
       -1    1    3    3    0  502  0.13238471051E+03  0.46488994946E+01  0.16495953545E+03  0.21156316363E+03  0.50400001928E-02 0. -1.
</event>
<event>
 5   0  0.1503277E-04  0.1099846E+04  0.7818609E-02  0.9205342E-01
       -2   -1    0    0    0  501  0.00000000000E+00  0.00000000000E+00  0.78576037139E+03  0.78576037139E+03  0.25500000920E-02 0. -1.
        2   -1    0    0  501    0  0.00000000000E+00  0.00000000000E+00 -0.38486945105E+03  0.38486945106E+03  0.25500000920E-02 0.  1.
    10030    2    1    2    0    0  0.00000000000E+00  0.00000000000E+00  0.40089092033E+03  0.11706298224E+04  0.10998457397E+04 0.  0.
        5    1    3    3  502    0  0.15458178607E+03 -0.76300168478E+02 -0.35534505058E+03  0.39498030237E+03  0.46999998093E+01 0.  1.
       -5    1    3    3    0  502 -0.15458178607E+03  0.76300168478E+02  0.75623597091E+03  0.77564952008E+03  0.46999998093E+01 0. -1.
</event>
<event>
 5   0  0.9016738E-05  0.1099868E+04  0.7818609E-02  0.9205320E-01
       -1   -1    0    0    0  501  0.00000000000E+00  0.00000000000E+00  0.20651462177E+03  0.20651462183E+03  0.50400001928E-02 0.  1.
        1   -1    0    0  501    0  0.00000000000E+00  0.00000000000E+00 -0.14644371229E+04  0.14644371229E+04  0.50400001928E-02 0. -1.
    10030    2    1    2    0    0  0.00000000000E+00  0.00000000000E+00 -0.12579225011E+04  0.16709517447E+04  0.10998684987E+04 0.  0.
        4    1    3    3  502    0  0.36237642062E+03  0.28419550526E+03 -0.10855957717E+04  0.11792385458E+04  0.12699999809E+01 0. -1.
       -4    1    3    3    0  502 -0.36237642062E+03 -0.28419550526E+03 -0.17232672939E+03  0.49171319892E+03  0.12699999809E+01 0.  1.
</event>
<event>
 5   0  0.8921459E-05  0.1100068E+04  0.7818609E-02  0.9205125E-01
        1   -1    0    0  501    0  0.00000000000E+00  0.00000000000E+00  0.71058642240E+03  0.71058642242E+03  0.50400001928E-02 0.  1.
       -1   -1    0    0    0  501  0.00000000000E+00  0.00000000000E+00 -0.42575756756E+03  0.42575756759E+03  0.50400001928E-02 0. -1.
    10030    2    1    2    0    0  0.00000000000E+00  0.00000000000E+00  0.28482885484E+03  0.11363439900E+04  0.11000682647E+04 0.  0.
        3    1    3    3  502    0 -0.35729359236E+03  0.35886918668E+03  0.36418386678E+03  0.62375933124E+03  0.10100000352E+00 0.  1.
       -3    1    3    3    0  502  0.35729359236E+03 -0.35886918668E+03 -0.79355011936E+02  0.51258465877E+03  0.10100000352E+00 0. -1.
</event>
<event>
 5   0  0.6010125E-05  0.1100040E+04  0.7818609E-02  0.9205153E-01
        3   -1    0    0  501    0  0.00000000000E+00  0.00000000000E+00  0.14527727543E+04  0.14527727578E+04  0.10100000352E+00 0.  1.
       -3   -1    0    0    0  501  0.00000000000E+00  0.00000000000E+00 -0.20823755680E+03  0.20823758129E+03  0.10100000352E+00 0. -1.
    10030    2    1    2    0    0  0.00000000000E+00  0.00000000000E+00  0.12445351975E+04  0.16610103391E+04  0.11000397669E+04 0.  0.
        4    1    3    3  502    0  0.29542054364E+03  0.26961664149E+03  0.52164511479E+02  0.40334746824E+03  0.12699999809E+01 0. -1.
       -4    1    3    3    0  502 -0.29542054364E+03 -0.26961664149E+03  0.11923706860E+04  0.12576628709E+04  0.12699999809E+01 0.  1.
</event>
<event>
 5   0  0.8621738E-05  0.1099901E+04  0.7818609E-02  0.9205289E-01
       -1   -1    0    0    0  501  0.00000000000E+00  0.00000000000E+00  0.31596203899E+03  0.31596203903E+03  0.50400001928E-02 0.  1.
        1   -1    0    0  501    0  0.00000000000E+00  0.00000000000E+00 -0.95722040127E+03  0.95722040128E+03  0.50400001928E-02 0. -1.
    10030    2    1    2    0    0  0.00000000000E+00  0.00000000000E+00 -0.64125836228E+03  0.12731824403E+04  0.10999005588E+04 0.  0.
        2    1    3    3  502    0  0.20203437866E+03 -0.50216819263E+03 -0.43318218658E+03  0.69328031172E+03  0.25500000920E-02 0.  1.
       -2    1    3    3    0  502 -0.20203437866E+03  0.50216819263E+03 -0.20807617570E+03  0.57990212859E+03  0.25500000920E-02 0. -1.
</event>
<event>
 5   0  0.6010125E-05  0.1100346E+04  0.7818609E-02  0.9204855E-01
        3   -1    0    0  501    0  0.00000000000E+00  0.00000000000E+00  0.38505165841E+03  0.38505167166E+03  0.10100000352E+00 0. -1.
       -3   -1    0    0    0  501  0.00000000000E+00  0.00000000000E+00 -0.78610287160E+03  0.78610287808E+03  0.10100000352E+00 0.  1.
    10030    2    1    2    0    0  0.00000000000E+00  0.00000000000E+00 -0.40105121318E+03  0.11711545497E+04  0.11003458110E+04 0.  0.
        1    1    3    3  502    0 -0.44086933237E+02 -0.31413018786E+03 -0.67897349200E+03  0.74941739736E+03  0.50400001928E-02 0.  1.
       -1    1    3    3    0  502  0.44086933237E+02  0.31413018786E+03  0.27792227881E+03  0.42173715238E+03  0.50400001928E-02 0. -1.
</event>
<event>
 5   0  0.1574101E-04  0.1100273E+04  0.7818609E-02  0.9204926E-01
       -2   -1    0    0    0  501  0.00000000000E+00  0.00000000000E+00  0.43541746801E+03  0.43541746802E+03  0.25500000920E-02 0. -1.
        2   -1    0    0  501    0  0.00000000000E+00  0.00000000000E+00 -0.69507991831E+03  0.69507991832E+03  0.25500000920E-02 0.  1.
    10030    2    1    2    0    0  0.00000000000E+00  0.00000000000E+00 -0.25966245030E+03  0.11304973863E+04  0.11002725810E+04 0.  0.
        4    1    3    3  502    0 -0.52970380317E+03 -0.60369495949E+02  0.96087587995E+01  0.53322090758E+03  0.12699999809E+01 0. -1.
       -4    1    3    3    0  502  0.52970380317E+03  0.60369495949E+02 -0.26927120910E+03  0.59727647876E+03  0.12699999809E+01 0.  1.
</event>
<event>
 5   0  0.8657442E-05  0.1097422E+04  0.7818609E-02  0.9207708E-01
        1   -1    0    0  501    0  0.00000000000E+00  0.00000000000E+00  0.13084103860E+04  0.13084103860E+04  0.50400001928E-02 0.  1.
       -1   -1    0    0    0  501  0.00000000000E+00  0.00000000000E+00 -0.23011416972E+03  0.23011416978E+03  0.50400001928E-02 0. -1.
    10030    2    1    2    0    0  0.00000000000E+00  0.00000000000E+00  0.10782962163E+04  0.15385245558E+04  0.10974220149E+04 0.  0.
        1    1    3    3  502    0  0.27688331033E+03 -0.12391931407E+02  0.12030628772E+04  0.12345761273E+04  0.50400001928E-02 0.  1.
       -1    1    3    3    0  502 -0.27688331033E+03  0.12391931407E+02 -0.12476666091E+03  0.30394842853E+03  0.50400001928E-02 0. -1.
</event>
<event>
 5   0  0.8921459E-05  0.1099843E+04  0.7818609E-02  0.9205345E-01
        1   -1    0    0  501    0  0.00000000000E+00  0.00000000000E+00  0.17919157003E+04  0.17919157003E+04  0.50400001928E-02 0.  1.
       -1   -1    0    0    0  501  0.00000000000E+00  0.00000000000E+00 -0.16876553403E+03  0.16876553411E+03  0.50400001928E-02 0. -1.
    10030    2    1    2    0    0  0.00000000000E+00  0.00000000000E+00  0.16231501662E+04  0.19606812344E+04  0.10998429164E+04 0.  0.
        3    1    3    3  502    0  0.48578163132E+03  0.24251025275E+03  0.65597369777E+03  0.85152599396E+03  0.10100000352E+00 0. -1.
       -3    1    3    3    0  502 -0.48578163132E+03 -0.24251025275E+03  0.96717646846E+03  0.11091552404E+04  0.10100000352E+00 0.  1.
</event>
<event>
 5   0  0.1540772E-04  0.1099581E+04  0.7818609E-02  0.9205600E-01
       -2   -1    0    0    0  501  0.00000000000E+00  0.00000000000E+00  0.35293213769E+03  0.35293213770E+03  0.25500000920E-02 0.  1.
        2   -1    0    0  501    0  0.00000000000E+00  0.00000000000E+00 -0.85645260177E+03  0.85645260177E+03  0.25500000920E-02 0. -1.
    10030    2    1    2    0    0  0.00000000000E+00  0.00000000000E+00 -0.50352046408E+03  0.12093847395E+04  0.10995810977E+04 0.  0.
        2    1    3    3  502    0  0.50192981506E+03  0.19632048916E+03 -0.13231339233E+03  0.55496135677E+03  0.25500000920E-02 0.  1.
       -2    1    3    3    0  502 -0.50192981506E+03 -0.19632048916E+03 -0.37120707175E+03  0.65442338270E+03  0.25500000920E-02 0. -1.
</event>
<event>
 5   0  0.1574101E-04  0.1100913E+04  0.7818609E-02  0.9204303E-01
       -2   -1    0    0    0  501  0.00000000000E+00  0.00000000000E+00  0.21568079815E+03  0.21568079817E+03  0.25500000920E-02 0.  1.
        2   -1    0    0  501    0  0.00000000000E+00  0.00000000000E+00 -0.14048643309E+04  0.14048643309E+04  0.25500000920E-02 0. -1.
    10030    2    1    2    0    0  0.00000000000E+00  0.00000000000E+00 -0.11891835328E+04  0.16205451291E+04  0.11009128216E+04 0.  0.
        4    1    3    3  502    0  0.16152963611E+02 -0.33289571053E+03 -0.12394563347E+04  0.12834851347E+04  0.12699999809E+01 0. -1.
       -4    1    3    3    0  502 -0.16152963611E+02  0.33289571053E+03  0.50272801960E+02  0.33705999442E+03  0.12699999809E+01 0.  1.
</event>
<event>
 5   0  0.9346836E-05  0.1099514E+04  0.7818609E-02  0.9205666E-01
        1   -1    0    0  501    0  0.00000000000E+00  0.00000000000E+00  0.94036722626E+03  0.94036722628E+03  0.50400001928E-02 0.  1.
       -1   -1    0    0    0  501  0.00000000000E+00  0.00000000000E+00 -0.32139839162E+03  0.32139839166E+03  0.50400001928E-02 0. -1.
    10030    2    1    2    0    0  0.00000000000E+00  0.00000000000E+00  0.61896883464E+03  0.12617656179E+04  0.10995135544E+04 0.  0.
        5    1    3    3  502    0  0.30332216161E+01  0.33697643685E+03 -0.18894575533E+03  0.38637405177E+03  0.46999998093E+01 0. -1.
       -5    1    3    3    0  502 -0.30332216161E+01 -0.33697643685E+03  0.80791458997E+03  0.87539156617E+03  0.46999998093E+01 0.  1.
</event>
<event>
 5   0  0.1574101E-04  0.1099812E+04  0.7818609E-02  0.9205375E-01
        2   -1    0    0  501    0  0.00000000000E+00  0.00000000000E+00  0.49102355660E+03  0.49102355661E+03  0.25500000920E-02 0. -1.
       -2   -1    0    0    0  501  0.00000000000E+00  0.00000000000E+00 -0.61584914553E+03  0.61584914553E+03  0.25500000920E-02 0.  1.
    10030    2    1    2    0    0  0.00000000000E+00  0.00000000000E+00 -0.12482558892E+03  0.11068727021E+04  0.10998116889E+04 0.  0.
        4    1    3    3  502    0 -0.49184555434E+02  0.20138829786E+03 -0.57501418799E+03  0.61124405624E+03  0.12699999809E+01 0.  1.
       -4    1    3    3    0  502  0.49184555434E+02 -0.20138829786E+03  0.45018859906E+03  0.49562864590E+03  0.12699999809E+01 0. -1.
</event>
<event>
 5   0  0.8621738E-05  0.1100056E+04  0.7818609E-02  0.9205137E-01
        1   -1    0    0  501    0  0.00000000000E+00  0.00000000000E+00  0.77418907223E+03  0.77418907225E+03  0.50400001928E-02 0.  1.
       -1   -1    0    0    0  501  0.00000000000E+00  0.00000000000E+00 -0.39077111486E+03  0.39077111490E+03  0.50400001928E-02 0. -1.
    10030    2    1    2    0    0  0.00000000000E+00  0.00000000000E+00  0.38341795737E+03  0.11649601871E+04  0.11000558657E+04 0.  0.
        2    1    3    3  502    0  0.37699391709E+03 -0.16245456953E+03 -0.19597045834E+03  0.45488495384E+03  0.25500000920E-02 0. -1.
       -2    1    3    3    0  502 -0.37699391709E+03  0.16245456953E+03  0.57938841571E+03  0.71007523330E+03  0.25500000920E-02 0.  1.
</event>
<event>
 5   0  0.1503277E-04  0.1099815E+04  0.7818609E-02  0.9205373E-01
       -2   -1    0    0    0  501  0.00000000000E+00  0.00000000000E+00  0.39655569644E+03  0.39655569645E+03  0.25500000920E-02 0. -1.
        2   -1    0    0  501    0  0.00000000000E+00  0.00000000000E+00 -0.76256123791E+03  0.76256123792E+03  0.25500000920E-02 0.  1.
    10030    2    1    2    0    0  0.00000000000E+00  0.00000000000E+00 -0.36600554147E+03  0.11591169344E+04  0.10998145349E+04 0.  0.
        5    1    3    3  502    0 -0.28528924008E+03  0.16036628501E+03 -0.64872184011E+03  0.72661503681E+03  0.46999998093E+01 0.  1.
       -5    1    3    3    0  502  0.28528924008E+03 -0.16036628501E+03  0.28271629864E+03  0.43250189756E+03  0.46999998093E+01 0. -1.
</event>
<event>
 5   0  0.8621738E-05  0.1101279E+04  0.7818609E-02  0.9203946E-01
        1   -1    0    0  501    0  0.00000000000E+00  0.00000000000E+00  0.26722149996E+03  0.26722150000E+03  0.50400001928E-02 0.  1.
       -1   -1    0    0    0  501  0.00000000000E+00  0.00000000000E+00 -0.11346535723E+04  0.11346535723E+04  0.50400001928E-02 0. -1.
    10030    2    1    2    0    0  0.00000000000E+00  0.00000000000E+00 -0.86743207238E+03  0.14018750723E+04  0.11012789466E+04 0.  0.
        2    1    3    3  502    0 -0.33062291502E+03 -0.40770577699E+03 -0.22197582193E+03  0.56991997514E+03  0.25500000920E-02 0.  1.
       -2    1    3    3    0  502  0.33062291502E+03  0.40770577699E+03 -0.64545625045E+03  0.83195509721E+03  0.25500000920E-02 0. -1.
</event>
<event>
 5   0  0.1464205E-04  0.1100154E+04  0.7818609E-02  0.9205042E-01
        2   -1    0    0  501    0  0.00000000000E+00  0.00000000000E+00  0.63324009800E+03  0.63324009800E+03  0.25500000920E-02 0.  1.
       -2   -1    0    0    0  501  0.00000000000E+00  0.00000000000E+00 -0.47783574143E+03  0.47783574144E+03  0.25500000920E-02 0. -1.
    10030    2    1    2    0    0  0.00000000000E+00  0.00000000000E+00  0.15540435657E+03  0.11110758394E+04  0.11001540833E+04 0.  0.
        3    1    3    3  502    0 -0.19069045076E+03 -0.50804165900E+03 -0.13278590571E+02  0.54281258870E+03  0.10100000352E+00 0.  1.
       -3    1    3    3    0  502  0.19069045076E+03  0.50804165900E+03  0.16868294714E+03  0.56826325074E+03  0.10100000352E+00 0. -1.
</event>
<event>
 5   0  0.1503277E-04  0.1098011E+04  0.7818609E-02  0.9207133E-01
        2   -1    0    0  501    0  0.00000000000E+00  0.00000000000E+00  0.74989038850E+03  0.74989038851E+03  0.25500000920E-02 0. -1.
       -2   -1    0    0    0  501  0.00000000000E+00  0.00000000000E+00 -0.40193458292E+03  0.40193458292E+03  0.25500000920E-02 0.  1.
    10030    2    1    2    0    0  0.00000000000E+00  0.00000000000E+00  0.34795580559E+03  0.11518249714E+04  0.10980107113E+04 0.  0.
        5    1    3    3  502    0 -0.47006422513E+03  0.41540651463E+02 -0.12030425919E+03  0.48701253192E+03  0.46999998093E+01 0.  1.
       -5    1    3    3    0  502  0.47006422513E+03 -0.41540651463E+02  0.46826006478E+03  0.66481243951E+03  0.46999998093E+01 0. -1.
</event>
<event>
 5   0  0.1540772E-04  0.1100092E+04  0.7818609E-02  0.9205102E-01
       -2   -1    0    0    0  501  0.00000000000E+00  0.00000000000E+00  0.37185393293E+03  0.37185393294E+03  0.25500000920E-02 0.  1.
        2   -1    0    0  501    0  0.00000000000E+00  0.00000000000E+00 -0.81362759960E+03  0.81362759961E+03  0.25500000920E-02 0. -1.
    10030    2    1    2    0    0  0.00000000000E+00  0.00000000000E+00 -0.44177366667E+03  0.11854815325E+04  0.11000920377E+04 0.  0.
        2    1    3    3  502    0 -0.29380112935E+03  0.29850255443E+03  0.16333845224E+03  0.44955792574E+03  0.25500000920E-02 0.  1.
       -2    1    3    3    0  502  0.29380112935E+03 -0.29850255443E+03 -0.60511211891E+03  0.73592360681E+03  0.25500000920E-02 0. -1.
</event>
<event>
 5   0  0.9346836E-05  0.1098975E+04  0.7818609E-02  0.9206191E-01
       -1   -1    0    0    0  501  0.00000000000E+00  0.00000000000E+00  0.47881926669E+03  0.47881926672E+03  0.50400001928E-02 0.  1.
        1   -1    0    0  501    0  0.00000000000E+00  0.00000000000E+00 -0.63058562458E+03  0.63058562460E+03  0.50400001928E-02 0. -1.
    10030    2    1    2    0    0  0.00000000000E+00  0.00000000000E+00 -0.15176635789E+03  0.11094048913E+04  0.10989750614E+04 0.  0.
        5    1    3    3  502    0 -0.49277250734E+03 -0.17726733055E+03 -0.24379275756E+03  0.57767244101E+03  0.46999998093E+01 0. -1.
       -5    1    3    3    0  502  0.49277250734E+03  0.17726733055E+03  0.92026399667E+02  0.53173245030E+03  0.46999998093E+01 0.  1.
</event>
<event>
 5   0  0.1574101E-04  0.1100356E+04  0.7818609E-02  0.9204845E-01
        2   -1    0    0  501    0  0.00000000000E+00  0.00000000000E+00  0.72693829711E+03  0.72693829711E+03  0.25500000920E-02 0.  1.
       -2   -1    0    0    0  501  0.00000000000E+00  0.00000000000E+00 -0.41639822770E+03  0.41639822770E+03  0.25500000920E-02 0. -1.
    10030    2    1    2    0    0  0.00000000000E+00  0.00000000000E+00  0.31054006941E+03  0.11433365248E+04  0.11003559762E+04 0.  0.
        4    1    3    3  502    0 -0.38507703549E+03 -0.21374198418E+03 -0.18734315219E+03  0.47861156341E+03  0.12699999809E+01 0. -1.
       -4    1    3    3    0  502  0.38507703549E+03  0.21374198418E+03  0.49788322160E+03  0.66472496140E+03  0.12699999809E+01 0.  1.
</event>
<event>
 5   0  0.1503277E-04  0.1099836E+04  0.7818609E-02  0.9205352E-01
       -2   -1    0    0    0  501  0.00000000000E+00  0.00000000000E+00  0.40953701605E+03  0.40953701606E+03  0.25500000920E-02 0.  1.
        2   -1    0    0  501    0  0.00000000000E+00  0.00000000000E+00 -0.73841825149E+03  0.73841825149E+03  0.25500000920E-02 0. -1.
    10030    2    1    2    0    0  0.00000000000E+00  0.00000000000E+00 -0.32888123544E+03  0.11479552676E+04  0.10998356374E+04 0.  0.
        5    1    3    3  502    0 -0.18327055491E+03  0.15942858954E+03 -0.67936251043E+03  0.72149919060E+03  0.46999998093E+01 0. -1.
       -5    1    3    3    0  502  0.18327055491E+03 -0.15942858954E+03  0.35048127499E+03  0.42645607696E+03  0.46999998093E+01 0.  1.
</event>
<event>
 5   0  0.9016738E-05  0.1100146E+04  0.7818609E-02  0.9205050E-01
        1   -1    0    0  501    0  0.00000000000E+00  0.00000000000E+00  0.15592083792E+04  0.15592083792E+04  0.50400001928E-02 0.  1.
       -1   -1    0    0    0  501  0.00000000000E+00  0.00000000000E+00 -0.19406011942E+03  0.19406011949E+03  0.50400001928E-02 0. -1.
    10030    2    1    2    0    0  0.00000000000E+00  0.00000000000E+00  0.13651482598E+04  0.17532684987E+04  0.11001457437E+04 0.  0.
        4    1    3    3  502    0  0.88633647911E+02  0.29769511629E+03 -0.40924081228E+02  0.31329650353E+03  0.12699999809E+01 0. -1.
       -4    1    3    3    0  502 -0.88633647911E+02 -0.29769511629E+03  0.14060723410E+04  0.14399719952E+04  0.12699999809E+01 0.  1.
</event>
<event>
 5   0  0.6010125E-05  0.1096810E+04  0.7818609E-02  0.9208306E-01
        4   -1    0    0  501    0  0.00000000000E+00  0.00000000000E+00  0.20038969822E+03  0.20039372258E+03  0.12699999809E+01 0. -1.
       -4   -1    0    0    0  501  0.00000000000E+00  0.00000000000E+00 -0.15007978725E+04  0.15007984098E+04  0.12699999809E+01 0.  1.
    10030    2    1    2    0    0  0.00000000000E+00  0.00000000000E+00 -0.13004081742E+04  0.17011921324E+04  0.10968104903E+04 0.  0.
        2    1    3    3  502    0 -0.51609379780E+03 -0.21952886886E+02 -0.93583720475E+03  0.10689368602E+04  0.25500000920E-02 0.  1.
       -2    1    3    3    0  502  0.51609379780E+03  0.21952886886E+02 -0.36457096949E+03  0.63225527216E+03  0.25500000920E-02 0. -1.
</event>
<event>
 5   0  0.1503277E-04  0.1099757E+04  0.7818609E-02  0.9205429E-01
        2   -1    0    0  501    0  0.00000000000E+00  0.00000000000E+00  0.34332571459E+03  0.34332571460E+03  0.25500000920E-02 0. -1.
       -2   -1    0    0    0  501  0.00000000000E+00  0.00000000000E+00 -0.88069809354E+03  0.88069809355E+03  0.25500000920E-02 0.  1.
    10030    2    1    2    0    0  0.00000000000E+00  0.00000000000E+00 -0.53737237895E+03  0.12240238082E+04  0.10997568864E+04 0.  0.
        5    1    3    3  502    0  0.29928335559E+03  0.45711107570E+03 -0.33750447292E+03  0.64222458821E+03  0.46999998093E+01 0.  1.
       -5    1    3    3    0  502 -0.29928335559E+03 -0.45711107570E+03 -0.19986790603E+03  0.58179921994E+03  0.46999998093E+01 0. -1.
</event>
<event>
 5   0  0.8921459E-05  0.1106364E+04  0.7818609E-02  0.9199012E-01
        1   -1    0    0  501    0  0.00000000000E+00  0.00000000000E+00  0.56467431151E+03  0.56467431153E+03  0.50400001928E-02 0. -1.
       -1   -1    0    0    0  501  0.00000000000E+00  0.00000000000E+00 -0.54192323036E+03  0.54192323039E+03  0.50400001928E-02 0.  1.
    10030    2    1    2    0    0  0.00000000000E+00  0.00000000000E+00  0.22751081146E+02  0.11065975419E+04  0.11063636419E+04 0.  0.
        3    1    3    3  502    0 -0.17231466433E+03  0.37976100568E+03  0.37490712501E+03  0.56077279495E+03  0.10100000352E+00 0. -1.
       -3    1    3    3    0  502  0.17231466433E+03 -0.37976100568E+03 -0.35215604386E+03  0.54582474697E+03  0.10100000352E+00 0.  1.
</event>
<event>
 5   0  0.1553937E-04  0.1100240E+04  0.7818609E-02  0.9204958E-01
       -2   -1    0    0    0  501  0.00000000000E+00  0.00000000000E+00  0.75357384297E+03  0.75357384298E+03  0.25500000920E-02 0. -1.
        2   -1    0    0  501    0  0.00000000000E+00  0.00000000000E+00 -0.40159586226E+03  0.40159586227E+03  0.25500000920E-02 0.  1.
    10030    2    1    2    0    0  0.00000000000E+00  0.00000000000E+00  0.35197798071E+03  0.11551697052E+04  0.11002402233E+04 0.  0.
        1    1    3    3  502    0  0.14327177612E+03  0.13716812474E+03  0.71472456397E+03  0.74173654261E+03  0.50400001928E-02 0. -1.
       -1    1    3    3    0  502 -0.14327177612E+03 -0.13716812474E+03 -0.36274658325E+03  0.41343316263E+03  0.50400001928E-02 0.  1.
</event>
<event>
 5   0  0.8657442E-05  0.1099995E+04  0.7818609E-02  0.9205196E-01
        1   -1    0    0  501    0  0.00000000000E+00  0.00000000000E+00  0.60925644288E+03  0.60925644290E+03  0.50400001928E-02 0.  1.
       -1   -1    0    0    0  501  0.00000000000E+00  0.00000000000E+00 -0.49650272283E+03  0.49650272285E+03  0.50400001928E-02 0. -1.
    10030    2    1    2    0    0  0.00000000000E+00  0.00000000000E+00  0.11275372005E+03  0.11057591658E+04  0.10999954233E+04 0.  0.
        1    1    3    3  502    0 -0.15003349513E+02 -0.43131468054E+03 -0.28634951217E+03  0.51793194272E+03  0.50400001928E-02 0. -1.
       -1    1    3    3    0  502  0.15003349513E+02  0.43131468054E+03  0.39910323222E+03  0.58782722303E+03  0.50400001928E-02 0.  1.
</event>
<event>
 5   0  0.1553937E-04  0.1100377E+04  0.7818609E-02  0.9204825E-01
       -2   -1    0    0    0  501  0.00000000000E+00  0.00000000000E+00  0.24754005235E+03  0.24754005236E+03  0.25500000920E-02 0.  1.
        2   -1    0    0  501    0  0.00000000000E+00  0.00000000000E+00 -0.12228615813E+04  0.12228615813E+04  0.25500000920E-02 0. -1.
    10030    2    1    2    0    0  0.00000000000E+00  0.00000000000E+00 -0.97532152897E+03  0.14704016337E+04  0.11003766989E+04 0.  0.
        1    1    3    3  502    0  0.24857594710E+03  0.33570490555E+03 -0.96614928187E+03  0.10525835929E+04  0.50400001928E-02 0. -1.
       -1    1    3    3    0  502 -0.24857594710E+03 -0.33570490555E+03 -0.91722470962E+01  0.41781804082E+03  0.50400001928E-02 0.  1.
</event>
<event>
 5   0  0.1553937E-04  0.1099701E+04  0.7818609E-02  0.9205483E-01
       -2   -1    0    0    0  501  0.00000000000E+00  0.00000000000E+00  0.88935422353E+03  0.88935422354E+03  0.25500000920E-02 0.  1.
        2   -1    0    0  501    0  0.00000000000E+00  0.00000000000E+00 -0.33994985284E+03  0.33994985285E+03  0.25500000920E-02 0. -1.
    10030    2    1    2    0    0  0.00000000000E+00  0.00000000000E+00  0.54940437069E+03  0.12293040764E+04  0.10997014821E+04 0.  0.
        1    1    3    3  502    0 -0.15059914472E+03  0.25160086847E+01 -0.31643933060E+03  0.35045724799E+03  0.50400001928E-02 0. -1.
       -1    1    3    3    0  502  0.15059914472E+03 -0.25160086847E+01  0.86584370130E+03  0.87884682840E+03  0.50400001928E-02 0.  1.
</event>
<event>
 5   0  0.1503277E-04  0.1100481E+04  0.7818609E-02  0.9204723E-01
        2   -1    0    0  501    0  0.00000000000E+00  0.00000000000E+00  0.43549501803E+03  0.43549501803E+03  0.25500000920E-02 0.  1.
       -2   -1    0    0    0  501  0.00000000000E+00  0.00000000000E+00 -0.69521905162E+03  0.69521905162E+03  0.25500000920E-02 0. -1.
    10030    2    1    2    0    0  0.00000000000E+00  0.00000000000E+00 -0.25972403359E+03  0.11307140697E+04  0.11004806830E+04 0.  0.
        5    1    3    3  502    0  0.40226271615E+03  0.30966616295E+03 -0.34790405826E+03  0.61544110119E+03  0.46999998093E+01 0. -1.
       -5    1    3    3    0  502 -0.40226271615E+03 -0.30966616295E+03  0.88180024667E+02  0.51527296847E+03  0.46999998093E+01 0.  1.
</event>
<event>
 5   0  0.1464205E-04  0.1100390E+04  0.7818609E-02  0.9204812E-01
        2   -1    0    0  501    0  0.00000000000E+00  0.00000000000E+00  0.71522820489E+03  0.71522820489E+03  0.25500000920E-02 0.  1.
       -2   -1    0    0    0  501  0.00000000000E+00  0.00000000000E+00 -0.42324197218E+03  0.42324197219E+03  0.25500000920E-02 0. -1.
    10030    2    1    2    0    0  0.00000000000E+00  0.00000000000E+00  0.29198623271E+03  0.11384701771E+04  0.11003901054E+04 0.  0.
        3    1    3    3  502    0 -0.39471175330E+03  0.60053908953E+02 -0.24567151919E+03  0.46878390087E+03  0.10100000352E+00 0. -1.
       -3    1    3    3    0  502  0.39471175330E+03 -0.60053908953E+02  0.53765775190E+03  0.66968627621E+03  0.10100000352E+00 0.  1.
</event>
<event>
 5   0  0.8621738E-05  0.1102113E+04  0.7818609E-02  0.9203135E-01
        1   -1    0    0  501    0  0.00000000000E+00  0.00000000000E+00  0.42506462608E+03  0.42506462611E+03  0.50400001928E-02 0. -1.
       -1   -1    0    0    0  501  0.00000000000E+00  0.00000000000E+00 -0.71439321603E+03  0.71439321605E+03  0.50400001928E-02 0.  1.
    10030    2    1    2    0    0  0.00000000000E+00  0.00000000000E+00 -0.28932858996E+03  0.11394578422E+04  0.11021130346E+04 0.  0.
        2    1    3    3  502    0 -0.41405018412E+03 -0.95814381278E+02  0.21799991504E+03  0.47764203499E+03  0.25500000920E-02 0. -1.
       -2    1    3    3    0  502  0.41405018412E+03  0.95814381278E+02 -0.50732850500E+03  0.66181580717E+03  0.25500000920E-02 0.  1.
</event>
<event>
 5   0  0.8921459E-05  0.1100023E+04  0.7818609E-02  0.9205169E-01
        1   -1    0    0  501    0  0.00000000000E+00  0.00000000000E+00  0.52584410378E+03  0.52584410381E+03  0.50400001928E-02 0.  1.
       -1   -1    0    0    0  501  0.00000000000E+00  0.00000000000E+00 -0.57529006630E+03  0.57529006632E+03  0.50400001928E-02 0. -1.
    10030    2    1    2    0    0  0.00000000000E+00  0.00000000000E+00 -0.49445962516E+02  0.11011341701E+04  0.11000234349E+04 0.  0.
        3    1    3    3  502    0 -0.12742048299E+03  0.14575895298E+03  0.49060868047E+03  0.52742633554E+03  0.10100000352E+00 0.  1.
       -3    1    3    3    0  502  0.12742048299E+03 -0.14575895298E+03 -0.54005464299E+03  0.57370783460E+03  0.10100000352E+00 0. -1.
</event>
<event>
 5   0  0.9346836E-05  0.1100298E+04  0.7818609E-02  0.9204901E-01
        1   -1    0    0  501    0  0.00000000000E+00  0.00000000000E+00  0.41076675798E+03  0.41076675802E+03  0.50400001928E-02 0. -1.
       -1   -1    0    0    0  501  0.00000000000E+00  0.00000000000E+00 -0.73682728250E+03  0.73682728252E+03  0.50400001928E-02 0.  1.
    10030    2    1    2    0    0  0.00000000000E+00  0.00000000000E+00 -0.32606052452E+03  0.11475940405E+04  0.11002984214E+04 0.  0.
        5    1    3    3  502    0 -0.25259948098E+03 -0.43636207696E+02 -0.67070920272E+03  0.71804146191E+03  0.46999998093E+01 0.  1.
       -5    1    3    3    0  502  0.25259948098E+03  0.43636207696E+02  0.34464867820E+03  0.42955257862E+03  0.46999998093E+01 0. -1.
</event>
<event>
 5   0  0.6010125E-05  0.1100205E+04  0.7818609E-02  0.9204992E-01
       -3   -1    0    0    0  501  0.00000000000E+00  0.00000000000E+00  0.68675420441E+03  0.68675421184E+03  0.10100000352E+00 0.  1.
        3   -1    0    0  501    0  0.00000000000E+00  0.00000000000E+00 -0.44064191631E+03  0.44064192788E+03  0.10100000352E+00 0. -1.
    10030    2    1    2    0    0  0.00000000000E+00  0.00000000000E+00  0.24611228810E+03  0.11273961397E+04  0.11002048889E+04 0.  0.
        3    1    3    3  502    0  0.23218540345E+03 -0.35709680565E+03 -0.23366307522E+03  0.48582572298E+03  0.10100000352E+00 0. -1.
       -3    1    3    3    0  502 -0.23218540345E+03  0.35709680565E+03  0.47977536333E+03  0.64157041674E+03  0.10100000352E+00 0.  1.
</event>
<event>
 5   0  0.8621738E-05  0.1100128E+04  0.7818609E-02  0.9205067E-01
        1   -1    0    0  501    0  0.00000000000E+00  0.00000000000E+00  0.40237535896E+03  0.40237535899E+03  0.50400001928E-02 0.  1.
       -1   -1    0    0    0  501  0.00000000000E+00  0.00000000000E+00 -0.75196121992E+03  0.75196121994E+03  0.50400001928E-02 0. -1.
    10030    2    1    2    0    0  0.00000000000E+00  0.00000000000E+00 -0.34958586096E+03  0.11543365789E+04  0.11001284758E+04 0.  0.
        2    1    3    3  502    0  0.22982273806E+03  0.30734046493E+02  0.34859158162E+03  0.41866354430E+03  0.25500000920E-02 0.  1.
       -2    1    3    3    0  502 -0.22982273806E+03 -0.30734046493E+02 -0.69817744258E+03  0.73567303463E+03  0.25500000920E-02 0. -1.
</event>
<event>
 5   0  0.8657442E-05  0.1099235E+04  0.7818609E-02  0.9205938E-01
        1   -1    0    0  501    0  0.00000000000E+00  0.00000000000E+00  0.11318760479E+04  0.11318760479E+04  0.50400001928E-02 0.  1.
       -1   -1    0    0    0  501  0.00000000000E+00  0.00000000000E+00 -0.26688395515E+03  0.26688395520E+03  0.50400001928E-02 0. -1.
    10030    2    1    2    0    0  0.00000000000E+00  0.00000000000E+00  0.86499209274E+03  0.13987600031E+04  0.10992352914E+04 0.  0.
        1    1    3    3  502    0 -0.34584509164E+03 -0.48850322563E+01 -0.11103048135E+03  0.36326362159E+03  0.50400001928E-02 0. -1.
       -1    1    3    3    0  502  0.34584509164E+03  0.48850322563E+01  0.97602257409E+03  0.10354963815E+04  0.50400001928E-02 0.  1.
</event>
<event>
 5   0  0.1553937E-04  0.1099633E+04  0.7818609E-02  0.9205550E-01
       -2   -1    0    0    0  501  0.00000000000E+00  0.00000000000E+00  0.36228285452E+03  0.36228285453E+03  0.25500000920E-02 0. -1.
        2   -1    0    0  501    0  0.00000000000E+00  0.00000000000E+00 -0.83442550951E+03  0.83442550951E+03  0.25500000920E-02 0.  1.
    10030    2    1    2    0    0  0.00000000000E+00  0.00000000000E+00 -0.47214265499E+03  0.11967083640E+04  0.10996327668E+04 0.  0.
        1    1    3    3  502    0  0.32291637539E+03  0.21849031655E+03  0.18581800684E+03  0.43190431303E+03  0.50400001928E-02 0. -1.
       -1    1    3    3    0  502 -0.32291637539E+03 -0.21849031655E+03 -0.65796066183E+03  0.76480405102E+03  0.50400001928E-02 0.  1.
</event>
<event>
 5   0  0.8921459E-05  0.1099127E+04  0.7818609E-02  0.9206043E-01
        1   -1    0    0  501    0  0.00000000000E+00  0.00000000000E+00  0.17744484170E+04  0.17744484171E+04  0.50400001928E-02 0.  1.
       -1   -1    0    0    0  501  0.00000000000E+00  0.00000000000E+00 -0.17020495822E+03  0.17020495829E+03  0.50400001928E-02 0. -1.
    10030    2    1    2    0    0  0.00000000000E+00  0.00000000000E+00  0.16042434588E+04  0.19446533753E+04  0.10991267784E+04 0.  0.
        3    1    3    3  502    0  0.35851545919E+03  0.64946929604E+01  0.65279436453E+02  0.36446801031E+03  0.10100000352E+00 0. -1.
       -3    1    3    3    0  502 -0.35851545919E+03 -0.64946929604E+01  0.15389640224E+04  0.15801853650E+04  0.10100000352E+00 0.  1.
</event>
<event>
 5   0  0.1540772E-04  0.1099634E+04  0.7818609E-02  0.9205549E-01
       -2   -1    0    0    0  501  0.00000000000E+00  0.00000000000E+00  0.58594489579E+03  0.58594489579E+03  0.25500000920E-02 0. -1.
        2   -1    0    0  501    0  0.00000000000E+00  0.00000000000E+00 -0.51591652399E+03  0.51591652399E+03  0.25500000920E-02 0.  1.
    10030    2    1    2    0    0  0.00000000000E+00  0.00000000000E+00  0.70028371797E+02  0.11018614198E+04  0.10996338552E+04 0.  0.
        2    1    3    3  502    0 -0.45773014844E+03 -0.30312428646E+03  0.65032041409E+02  0.55283848297E+03  0.25500000920E-02 0. -1.
       -2    1    3    3    0  502  0.45773014844E+03  0.30312428646E+03  0.49963303879E+01  0.54902293682E+03  0.25500000920E-02 0.  1.
</event>
<event>
 5   0  0.9346836E-05  0.1099327E+04  0.7818609E-02  0.9205848E-01
        1   -1    0    0  501    0  0.00000000000E+00  0.00000000000E+00  0.74030038213E+03  0.74030038215E+03  0.50400001928E-02 0.  1.
       -1   -1    0    0    0  501  0.00000000000E+00  0.00000000000E+00 -0.40811806586E+03  0.40811806589E+03  0.50400001928E-02 0. -1.
    10030    2    1    2    0    0  0.00000000000E+00  0.00000000000E+00  0.33218231627E+03  0.11484184480E+04  0.10993269944E+04 0.  0.
        5    1    3    3  502    0  0.25943026301E+03 -0.27700267077E+03  0.58143001951E+03  0.69434681432E+03  0.46999998093E+01 0.  1.
       -5    1    3    3    0  502 -0.25943026301E+03  0.27700267077E+03 -0.24924770324E+03  0.45407163372E+03  0.46999998093E+01 0. -1.
</event>
<event>
 5   0  0.1574101E-04  0.1099900E+04  0.7818609E-02  0.9205289E-01
        2   -1    0    0  501    0  0.00000000000E+00  0.00000000000E+00  0.84223465722E+03  0.84223465722E+03  0.25500000920E-02 0. -1.
       -2   -1    0    0    0  501  0.00000000000E+00  0.00000000000E+00 -0.35909823697E+03  0.35909823698E+03  0.25500000920E-02 0.  1.
    10030    2    1    2    0    0  0.00000000000E+00  0.00000000000E+00  0.48313642025E+03  0.12013328942E+04  0.10998999600E+04 0.  0.
        4    1    3    3  502    0  0.27922825184E+03  0.37031995813E+03 -0.81215791833E+02  0.47085338032E+03  0.12699999809E+01 0.  1.
       -4    1    3    3    0  502 -0.27922825184E+03 -0.37031995813E+03  0.56435221208E+03  0.73047951388E+03  0.12699999809E+01 0. -1.
</event>
<event>
 5   0  0.1553937E-04  0.1099914E+04  0.7818609E-02  0.9205276E-01
        2   -1    0    0  501    0  0.00000000000E+00  0.00000000000E+00  0.10819691600E+04  0.10819691600E+04  0.25500000920E-02 0. -1.
       -2   -1    0    0    0  501  0.00000000000E+00  0.00000000000E+00 -0.27953903203E+03  0.27953903204E+03  0.25500000920E-02 0.  1.
    10030    2    1    2    0    0  0.00000000000E+00  0.00000000000E+00  0.80243012799E+03  0.13615081921E+04  0.10999138361E+04 0.  0.
        1    1    3    3  502    0  0.16591064036E+03  0.41609695009E+03  0.62912743638E+01  0.44799842926E+03  0.50400001928E-02 0.  1.
       -1    1    3    3    0  502 -0.16591064036E+03 -0.41609695009E+03  0.79613885363E+03  0.91350976281E+03  0.50400001928E-02 0. -1.
</event>
<event>
 5   0  0.1553937E-04  0.1099672E+04  0.7818609E-02  0.9205511E-01
        2   -1    0    0  501    0  0.00000000000E+00  0.00000000000E+00  0.18519419517E+04  0.18519419517E+04  0.25500000920E-02 0. -1.
       -2   -1    0    0    0  501  0.00000000000E+00  0.00000000000E+00 -0.16324469364E+03  0.16324469366E+03  0.25500000920E-02 0.  1.
    10030    2    1    2    0    0  0.00000000000E+00  0.00000000000E+00  0.16886972581E+04  0.20151866454E+04  0.10996721267E+04 0.  0.
        1    1    3    3  502    0 -0.43911713107E+03 -0.32862715430E+03  0.77337405660E+03  0.94811765767E+03  0.50400001928E-02 0.  1.
       -1    1    3    3    0  502  0.43911713107E+03  0.32862715430E+03  0.91532320151E+03  0.10670689877E+04  0.50400001928E-02 0. -1.
</event>
<event>
 5   0  0.8621738E-05  0.1099447E+04  0.7818609E-02  0.9205731E-01
       -1   -1    0    0    0  501  0.00000000000E+00  0.00000000000E+00  0.38085604374E+03  0.38085604377E+03  0.50400001928E-02 0. -1.
        1   -1    0    0  501    0  0.00000000000E+00  0.00000000000E+00 -0.79346521263E+03  0.79346521265E+03  0.50400001928E-02 0.  1.
    10030    2    1    2    0    0  0.00000000000E+00  0.00000000000E+00 -0.41260916889E+03  0.11743212564E+04  0.10994471734E+04 0.  0.
        2    1    3    3  502    0  0.53875137994E+03 -0.63729242798E+02 -0.30112864250E+03  0.62047798117E+03  0.25500000920E-02 0. -1.
       -2    1    3    3    0  502 -0.53875137994E+03  0.63729242798E+02 -0.11148052639E+03  0.55384327525E+03  0.25500000920E-02 0.  1.
</event>
<event>
 5   0  0.1574101E-04  0.1100100E+04  0.7818609E-02  0.9205095E-01
        2   -1    0    0  501    0  0.00000000000E+00  0.00000000000E+00  0.76831975178E+03  0.76831975179E+03  0.25500000920E-02 0.  1.
       -2   -1    0    0    0  501  0.00000000000E+00  0.00000000000E+00 -0.39378766411E+03  0.39378766412E+03  0.25500000920E-02 0. -1.
    10030    2    1    2    0    0  0.00000000000E+00  0.00000000000E+00  0.37453208767E+03  0.11621074159E+04  0.11000997052E+04 0.  0.
        4    1    3    3  502    0  0.11137037200E+03  0.15754508335E+03 -0.35686928438E+03  0.40568597718E+03  0.12699999809E+01 0. -1.
       -4    1    3    3    0  502 -0.11137037200E+03 -0.15754508335E+03  0.73140137205E+03  0.75642143873E+03  0.12699999809E+01 0.  1.
</event>
<event>
 5   0  0.1574101E-04  0.1101329E+04  0.7818609E-02  0.9203898E-01
        2   -1    0    0  501    0  0.00000000000E+00  0.00000000000E+00  0.21169596328E+04  0.21169596328E+04  0.25500000920E-02 0. -1.
       -2   -1    0    0    0  501  0.00000000000E+00  0.00000000000E+00 -0.14323908920E+03  0.14323908923E+03  0.25500000920E-02 0.  1.
    10030    2    1    2    0    0  0.00000000000E+00  0.00000000000E+00  0.19737205436E+04  0.22601987220E+04  0.11013289603E+04 0.  0.
        4    1    3    3  502    0  0.10418033935E+03  0.31570255964E+03  0.18877664367E+04  0.19168164705E+04  0.12699999809E+01 0.  1.
       -4    1    3    3    0  502 -0.10418033935E+03 -0.31570255964E+03  0.85954106935E+02  0.34338225153E+03  0.12699999809E+01 0. -1.
</event>
<event>
 5   0  0.6010125E-05  0.1100060E+04  0.7818609E-02  0.9205134E-01
        4   -1    0    0  501    0  0.00000000000E+00  0.00000000000E+00  0.12214091094E+04  0.12214097697E+04  0.12699999809E+01 0. -1.
       -4   -1    0    0    0  501  0.00000000000E+00  0.00000000000E+00 -0.24768933951E+03  0.24769259538E+03  0.12699999809E+01 0.  1.
    10030    2    1    2    0    0  0.00000000000E+00  0.00000000000E+00  0.97371976991E+03  0.14691023651E+04  0.11000598023E+04 0.  0.
        4    1    3    3  502    0  0.51214592796E+03 -0.17454506135E+03  0.35484462253E+03  0.64705158141E+03  0.12699999809E+01 0. -1.
       -4    1    3    3    0  502 -0.51214592796E+03  0.17454506135E+03  0.61887514739E+03  0.82205078366E+03  0.12699999809E+01 0.  1.
</event>
<event>
 5   0  0.1553937E-04  0.1100213E+04  0.7818609E-02  0.9204984E-01
       -2   -1    0    0    0  501  0.00000000000E+00  0.00000000000E+00  0.23647115918E+03  0.23647115919E+03  0.25500000920E-02 0.  1.
        2   -1    0    0  501    0  0.00000000000E+00  0.00000000000E+00 -0.12797217795E+04  0.12797217795E+04  0.25500000920E-02 0. -1.
    10030    2    1    2    0    0  0.00000000000E+00  0.00000000000E+00 -0.10432506203E+04  0.15161929387E+04  0.11002132387E+04 0.  0.
        1    1    3    3  502    0 -0.73856992732E+02  0.31053061546E+03  0.95803910532E+02  0.33326042041E+03  0.50400001928E-02 0.  1.
       -1    1    3    3    0  502  0.73856992732E+02 -0.31053061546E+03 -0.11390545309E+04  0.11829325183E+04  0.50400001928E-02 0. -1.
</event>
<event>
 5   0  0.8921459E-05  0.1099730E+04  0.7818609E-02  0.9205455E-01
        1   -1    0    0  501    0  0.00000000000E+00  0.00000000000E+00  0.76892688088E+03  0.76892688090E+03  0.50400001928E-02 0.  1.
       -1   -1    0    0    0  501  0.00000000000E+00  0.00000000000E+00 -0.39321237094E+03  0.39321237097E+03  0.50400001928E-02 0. -1.
    10030    2    1    2    0    0  0.00000000000E+00  0.00000000000E+00  0.37571450994E+03  0.11621392519E+04  0.10997300795E+04 0.  0.
        3    1    3    3  502    0 -0.26115004815E+03 -0.21580491558E+03 -0.26982686486E+03  0.43310236254E+03  0.10100000352E+00 0. -1.
       -3    1    3    3    0  502  0.26115004815E+03  0.21580491558E+03  0.64554137480E+03  0.72903688934E+03  0.10100000352E+00 0.  1.
</event>
<event>
 5   0  0.9346836E-05  0.1100686E+04  0.7818609E-02  0.9204523E-01
        1   -1    0    0  501    0  0.00000000000E+00  0.00000000000E+00  0.35070869993E+03  0.35070869997E+03  0.50400001928E-02 0.  1.
       -1   -1    0    0    0  501  0.00000000000E+00  0.00000000000E+00 -0.86361577873E+03  0.86361577874E+03  0.50400001928E-02 0. -1.
    10030    2    1    2    0    0  0.00000000000E+00  0.00000000000E+00 -0.51290707879E+03  0.12143244787E+04  0.11006862714E+04 0.  0.
        5    1    3    3  502    0 -0.25933829175E+03  0.33189907804E+03  0.13429099232E+03  0.44211933704E+03  0.46999998093E+01 0.  1.
       -5    1    3    3    0  502  0.25933829175E+03 -0.33189907804E+03 -0.64719807112E+03  0.77220514167E+03  0.46999998093E+01 0. -1.
</event>
<event>
 5   0  0.8921459E-05  0.1100516E+04  0.7818609E-02  0.9204689E-01
       -1   -1    0    0    0  501  0.00000000000E+00  0.00000000000E+00  0.20952552151E+03  0.20952552157E+03  0.50400001928E-02 0. -1.
        1   -1    0    0  501    0  0.00000000000E+00  0.00000000000E+00 -0.14450930487E+04  0.14450930487E+04  0.50400001928E-02 0.  1.
    10030    2    1    2    0    0  0.00000000000E+00  0.00000000000E+00 -0.12355675272E+04  0.16546185702E+04  0.11005160148E+04 0.  0.
        3    1    3    3  502    0  0.40528494036E+01 -0.36434337177E+03  0.21613666158E+01  0.36437233684E+03  0.10100000352E+00 0. -1.
       -3    1    3    3    0  502 -0.40528494036E+01  0.36434337177E+03 -0.12377288938E+04  0.12902462334E+04  0.10100000352E+00 0.  1.
</event>
<event>
 5   0  0.6010125E-05  0.1099999E+04  0.7818609E-02  0.9205193E-01
       -4   -1    0    0    0  501  0.00000000000E+00  0.00000000000E+00  0.59702547104E+03  0.59702682182E+03  0.12699999809E+01 0. -1.
        4   -1    0    0  501    0  0.00000000000E+00  0.00000000000E+00 -0.50667505917E+03  0.50667665081E+03  0.12699999809E+01 0.  1.
    10030    2    1    2    0    0  0.00000000000E+00  0.00000000000E+00  0.90350411879E+02  0.11037034726E+04  0.10999991630E+04 0.  0.
        5    1    3    3  502    0  0.19906543628E+03  0.62925527369E+02 -0.46535135994E+03  0.51005945547E+03  0.46999998093E+01 0.  1.
       -5    1    3    3    0  502 -0.19906543628E+03 -0.62925527369E+02  0.55570177182E+03  0.59364401717E+03  0.46999998093E+01 0. -1.
</event>
<event>
 5   0  0.1464205E-04  0.1099887E+04  0.7818609E-02  0.9205302E-01
        2   -1    0    0  501    0  0.00000000000E+00  0.00000000000E+00  0.51657234083E+03  0.51657234084E+03  0.25500000920E-02 0.  1.
       -2   -1    0    0    0  501  0.00000000000E+00  0.00000000000E+00 -0.58547040773E+03  0.58547040774E+03  0.25500000920E-02 0. -1.
    10030    2    1    2    0    0  0.00000000000E+00  0.00000000000E+00 -0.68898066899E+02  0.11020427486E+04  0.10998869379E+04 0.  0.
        3    1    3    3  502    0  0.88697346129E+02  0.54050522468E+03  0.14888639228E+02  0.54793685667E+03  0.10100000352E+00 0.  1.
       -3    1    3    3    0  502 -0.88697346129E+02 -0.54050522468E+03 -0.83786706128E+02  0.55410589191E+03  0.10100000352E+00 0. -1.
</event>
<event>
 5   0  0.1503277E-04  0.1099497E+04  0.7818609E-02  0.9205682E-01
       -2   -1    0    0    0  501  0.00000000000E+00  0.00000000000E+00  0.55216327387E+03  0.55216327388E+03  0.25500000920E-02 0.  1.
        2   -1    0    0  501    0  0.00000000000E+00  0.00000000000E+00 -0.54734466292E+03  0.54734466293E+03  0.25500000920E-02 0. -1.
    10030    2    1    2    0    0  0.00000000000E+00  0.00000000000E+00  0.48186109506E+01  0.10995079368E+04  0.10994973779E+04 0.  0.
        5    1    3    3  502    0  0.41017084081E+03 -0.29182272222E+03  0.22332070960E+03  0.55072211613E+03  0.46999998093E+01 0.  1.
       -5    1    3    3    0  502 -0.41017084081E+03  0.29182272222E+03 -0.21850209865E+03  0.54878582067E+03  0.46999998093E+01 0. -1.
</event>
<event>
 5   0  0.1540772E-04  0.1100224E+04  0.7818609E-02  0.9204973E-01
        2   -1    0    0  501    0  0.00000000000E+00  0.00000000000E+00  0.14544341583E+04  0.14544341583E+04  0.25500000920E-02 0.  1.
       -2   -1    0    0    0  501  0.00000000000E+00  0.00000000000E+00 -0.20806955261E+03  0.20806955262E+03  0.25500000920E-02 0. -1.
    10030    2    1    2    0    0  0.00000000000E+00  0.00000000000E+00  0.12463646057E+04  0.16625037109E+04  0.11002244582E+04 0.  0.
        2    1    3    3  502    0 -0.43341367627E+03 -0.33571360207E+03  0.69197161584E+03  0.88282260649E+03  0.25500000920E-02 0. -1.
       -2    1    3    3    0  502  0.43341367627E+03  0.33571360207E+03  0.55439298982E+03  0.77968110440E+03  0.25500000920E-02 0.  1.
</event>
<event>
 5   0  0.8621738E-05  0.1099986E+04  0.7818609E-02  0.9205205E-01
       -1   -1    0    0    0  501  0.00000000000E+00  0.00000000000E+00  0.10575438222E+04  0.10575438222E+04  0.50400001928E-02 0.  1.
        1   -1    0    0  501    0  0.00000000000E+00  0.00000000000E+00 -0.28603291959E+03  0.28603291964E+03  0.50400001928E-02 0. -1.
    10030    2    1    2    0    0  0.00000000000E+00  0.00000000000E+00  0.77151090263E+03  0.13435767419E+04  0.10999860856E+04 0.  0.
        2    1    3    3  502    0  0.54523308703E+02  0.22743590823E+03 -0.22226660322E+03  0.32264892136E+03  0.25500000920E-02 0. -1.
       -2    1    3    3    0  502 -0.54523308703E+02 -0.22743590823E+03  0.99377750585E+03  0.10209278205E+04  0.25500000920E-02 0.  1.
</event>
<event>
 5   0  0.1553937E-04  0.1101208E+04  0.7818609E-02  0.9204015E-01
        2   -1    0    0  501    0  0.00000000000E+00  0.00000000000E+00  0.10391442718E+04  0.10391442718E+04  0.25500000920E-02 0.  1.
       -2   -1    0    0    0  501  0.00000000000E+00  0.00000000000E+00 -0.29174473927E+03  0.29174473928E+03  0.25500000920E-02 0. -1.
    10030    2    1    2    0    0  0.00000000000E+00  0.00000000000E+00  0.74739953249E+03  0.13308890110E+04  0.11012081995E+04 0.  0.
        1    1    3    3  502    0 -0.14865951992E+03 -0.52368299317E+03  0.47351742794E+03  0.72150002410E+03  0.50400001928E-02 0.  1.
       -1    1    3    3    0  502  0.14865951992E+03  0.52368299317E+03  0.27388210456E+03  0.60938898695E+03  0.50400001928E-02 0. -1.
</event>
<event>
 5   0  0.9346836E-05  0.1100322E+04  0.7818609E-02  0.9204878E-01
       -1   -1    0    0    0  501  0.00000000000E+00  0.00000000000E+00  0.50381814332E+03  0.50381814335E+03  0.50400001928E-02 0. -1.
        1   -1    0    0  501    0  0.00000000000E+00  0.00000000000E+00 -0.60076630692E+03  0.60076630694E+03  0.50400001928E-02 0.  1.
    10030    2    1    2    0    0  0.00000000000E+00  0.00000000000E+00 -0.96948163594E+02  0.11045844503E+04  0.11003217081E+04 0.  0.
        5    1    3    3  502    0  0.36124563421E+02 -0.38125322281E+03 -0.44496732994E+03  0.58709200191E+03  0.46999998093E+01 0.  1.
       -5    1    3    3    0  502 -0.36124563421E+02  0.38125322281E+03  0.34801916635E+03  0.51749244838E+03  0.46999998093E+01 0. -1.
</event>
<event>
 5   0  0.6010125E-05  0.1100778E+04  0.7818609E-02  0.9204434E-01
       -4   -1    0    0    0  501  0.00000000000E+00  0.00000000000E+00  0.67089894447E+03  0.67090014651E+03  0.12699999809E+01 0.  1.
        4   -1    0    0  501    0  0.00000000000E+00  0.00000000000E+00 -0.45152317550E+03  0.45152496157E+03  0.12699999809E+01 0. -1.
    10030    2    1    2    0    0  0.00000000000E+00  0.00000000000E+00  0.21937576897E+03  0.11224251081E+04  0.11007780863E+04 0.  0.
        2    1    3    3  502    0 -0.48328119977E+03  0.26319740311E+03  0.99775199395E+02  0.55927513933E+03  0.25500000920E-02 0. -1.
       -2    1    3    3    0  502  0.48328119977E+03 -0.26319740311E+03  0.11960056957E+03  0.56314996875E+03  0.25500000920E-02 0.  1.
</event>
<event>
 5   0  0.8657442E-05  0.1103514E+04  0.7818609E-02  0.9201774E-01
        1   -1    0    0  501    0  0.00000000000E+00  0.00000000000E+00  0.50668185228E+03  0.50668185231E+03  0.50400001928E-02 0.  1.
       -1   -1    0    0    0  501  0.00000000000E+00  0.00000000000E+00 -0.60084201199E+03  0.60084201201E+03  0.50400001928E-02 0. -1.
    10030    2    1    2    0    0  0.00000000000E+00  0.00000000000E+00 -0.94160159711E+02  0.11075238643E+04  0.11035139212E+04 0.  0.
        1    1    3    3  502    0 -0.41378761033E+03  0.36497769128E+03 -0.44454859786E+02  0.55353873955E+03  0.50400001928E-02 0. -1.
       -1    1    3    3    0  502  0.41378761033E+03 -0.36497769128E+03 -0.49705299925E+02  0.55398512477E+03  0.50400001928E-02 0.  1.
</event>
<event>
 5   0  0.6010125E-05  0.1099993E+04  0.7818609E-02  0.9205198E-01
       -3   -1    0    0    0  501  0.00000000000E+00  0.00000000000E+00  0.91457013845E+03  0.91457014402E+03  0.10100000352E+00 0. -1.
        3   -1    0    0  501    0  0.00000000000E+00  0.00000000000E+00 -0.33075241380E+03  0.33075242922E+03  0.10100000352E+00 0.  1.
    10030    2    1    2    0    0  0.00000000000E+00  0.00000000000E+00  0.58381772464E+03  0.12453225732E+04  0.10999932617E+04 0.  0.
        5    1    3    3  502    0  0.37136937708E+03 -0.40551977717E+03  0.30392746254E+03  0.62829570777E+03  0.46999998093E+01 0. -1.
       -5    1    3    3    0  502 -0.37136937708E+03  0.40551977717E+03  0.27989026210E+03  0.61702686548E+03  0.46999998093E+01 0.  1.
</event>
<event>
 5   0  0.8921459E-05  0.1099928E+04  0.7818609E-02  0.9205262E-01
        1   -1    0    0  501    0  0.00000000000E+00  0.00000000000E+00  0.52128838035E+03  0.52128838038E+03  0.50400001928E-02 0. -1.
       -1   -1    0    0    0  501  0.00000000000E+00  0.00000000000E+00 -0.58021662638E+03  0.58021662640E+03  0.50400001928E-02 0.  1.
    10030    2    1    2    0    0  0.00000000000E+00  0.00000000000E+00 -0.58928246031E+02  0.11015050068E+04  0.10999276075E+04 0.  0.
        3    1    3    3  502    0 -0.91928016022E+02  0.23055866008E+03 -0.52093479736E+03  0.57704517082E+03  0.10100000352E+00 0.  1.
       -3    1    3    3    0  502  0.91928016022E+02 -0.23055866008E+03  0.46200655133E+03  0.52445983596E+03  0.10100000352E+00 0. -1.
</event>
<event>
 5   0  0.8621738E-05  0.1099596E+04  0.7818609E-02  0.9205585E-01
       -1   -1    0    0    0  501  0.00000000000E+00  0.00000000000E+00  0.49066971956E+03  0.49066971959E+03  0.50400001928E-02 0.  1.
        1   -1    0    0  501    0  0.00000000000E+00  0.00000000000E+00 -0.61605181805E+03  0.61605181807E+03  0.50400001928E-02 0. -1.
    10030    2    1    2    0    0  0.00000000000E+00  0.00000000000E+00 -0.12538209849E+03  0.11067215377E+04  0.10995962401E+04 0.  0.
        2    1    3    3  502    0 -0.31716551914E+02  0.80942776111E+02  0.48370825914E+03  0.49145839360E+03  0.25500000920E-02 0.  1.
       -2    1    3    3    0  502  0.31716551914E+02 -0.80942776111E+02 -0.60909035763E+03  0.61526314406E+03  0.25500000920E-02 0. -1.
</event>
<event>
 5   0  0.8921459E-05  0.1095732E+04  0.7818609E-02  0.9209362E-01
        1   -1    0    0  501    0  0.00000000000E+00  0.00000000000E+00  0.99023885898E+03  0.99023885899E+03  0.50400001928E-02 0.  1.
       -1   -1    0    0    0  501  0.00000000000E+00  0.00000000000E+00 -0.30311563812E+03  0.30311563816E+03  0.50400001928E-02 0. -1.
    10030    2    1    2    0    0  0.00000000000E+00  0.00000000000E+00  0.68712322086E+03  0.12933544972E+04  0.10957315066E+04 0.  0.
        3    1    3    3  502    0  0.22413623741E+03  0.67300015278E+02 -0.24115081911E+03  0.33603582061E+03  0.10100000352E+00 0. -1.
       -3    1    3    3    0  502 -0.22413623741E+03 -0.67300015278E+02  0.92827403997E+03  0.95731867654E+03  0.10100000352E+00 0.  1.
</event>
<event>
 5   0  0.9016738E-05  0.1099919E+04  0.7818609E-02  0.9205270E-01
       -1   -1    0    0    0  501  0.00000000000E+00  0.00000000000E+00  0.25107125134E+03  0.25107125139E+03  0.50400001928E-02 0. -1.
        1   -1    0    0  501    0  0.00000000000E+00  0.00000000000E+00 -0.12046606408E+04  0.12046606408E+04  0.50400001928E-02 0.  1.
    10030    2    1    2    0    0  0.00000000000E+00  0.00000000000E+00 -0.95358938946E+03  0.14557318922E+04  0.10999193690E+04 0.  0.
        4    1    3    3  502    0 -0.32139735528E+03  0.19934301848E+03 -0.10052303870E+04  0.10740221798E+04  0.12699999809E+01 0.  1.
       -4    1    3    3    0  502  0.32139735528E+03 -0.19934301848E+03  0.51640997494E+02  0.38170971237E+03  0.12699999809E+01 0. -1.
</event>
<event>
 5   0  0.6010125E-05  0.1100348E+04  0.7818609E-02  0.9204853E-01
       -4   -1    0    0    0  501  0.00000000000E+00  0.00000000000E+00  0.15736255063E+04  0.15736260187E+04  0.12699999809E+01 0.  1.
        4   -1    0    0  501    0  0.00000000000E+00  0.00000000000E+00 -0.19235031162E+03  0.19235450419E+03  0.12699999809E+01 0. -1.
    10030    2    1    2    0    0  0.00000000000E+00  0.00000000000E+00  0.13812751946E+04  0.17659805229E+04  0.11003481467E+04 0.  0.
        5    1    3    3  502    0 -0.21462379190E+03  0.23417729280E+03  0.14115473641E+04  0.14468553582E+04  0.46999998093E+01 0.  1.
       -5    1    3    3    0  502  0.21462379190E+03 -0.23417729280E+03 -0.30272169454E+02  0.31912516471E+03  0.46999998093E+01 0. -1.
</event>
<event>
 5   0  0.1540772E-04  0.1099810E+04  0.7818609E-02  0.9205377E-01
        2   -1    0    0  501    0  0.00000000000E+00  0.00000000000E+00  0.13090917210E+04  0.13090917210E+04  0.25500000920E-02 0.  1.
       -2   -1    0    0    0  501  0.00000000000E+00  0.00000000000E+00 -0.23099652102E+03  0.23099652103E+03  0.25500000920E-02 0. -1.
    10030    2    1    2    0    0  0.00000000000E+00  0.00000000000E+00  0.10780952000E+04  0.15400882420E+04  0.10998102259E+04 0.  0.
        2    1    3    3  502    0  0.52846421075E+03  0.34017646937E+02  0.74657893371E+03  0.91532055949E+03  0.25500000920E-02 0.  1.
       -2    1    3    3    0  502 -0.52846421075E+03 -0.34017646937E+02  0.33151626628E+03  0.62476768256E+03  0.25500000920E-02 0. -1.
</event>
<event>
 5   0  0.8621738E-05  0.1095572E+04  0.7818609E-02  0.9209518E-01
       -1   -1    0    0    0  501  0.00000000000E+00  0.00000000000E+00  0.40132513197E+03  0.40132513201E+03  0.50400001928E-02 0.  1.
        1   -1    0    0  501    0  0.00000000000E+00  0.00000000000E+00 -0.74769706003E+03  0.74769706005E+03  0.50400001928E-02 0. -1.
    10030    2    1    2    0    0  0.00000000000E+00  0.00000000000E+00 -0.34637192806E+03  0.11490221921E+04  0.10955722182E+04 0.  0.
        2    1    3    3  502    0  0.21541946331E+03 -0.65623192043E+02 -0.69690549947E+03  0.73238598000E+03  0.25500000920E-02 0. -1.
       -2    1    3    3    0  502 -0.21541946331E+03  0.65623192043E+02  0.35053357141E+03  0.41663621206E+03  0.25500000920E-02 0.  1.
</event>
<event>
 5   0  0.9346836E-05  0.1100347E+04  0.7818609E-02  0.9204854E-01
        1   -1    0    0  501    0  0.00000000000E+00  0.00000000000E+00  0.13080512765E+04  0.13080512765E+04  0.50400001928E-02 0.  1.
       -1   -1    0    0    0  501  0.00000000000E+00  0.00000000000E+00 -0.23140594757E+03  0.23140594762E+03  0.50400001928E-02 0. -1.
    10030    2    1    2    0    0  0.00000000000E+00  0.00000000000E+00  0.10766453289E+04  0.15394572241E+04  0.11003469365E+04 0.  0.
        5    1    3    3  502    0 -0.15762530000E+01  0.16758034414E+03 -0.19479703302E+03  0.25700900838E+03  0.46999998093E+01 0. -1.
       -5    1    3    3    0  502  0.15762530000E+01 -0.16758034414E+03  0.12714423620E+04  0.12824482158E+04  0.46999998093E+01 0.  1.
</event>
<event>
 5   0  0.9346836E-05  0.1099960E+04  0.7818609E-02  0.9205231E-01
        1   -1    0    0  501    0  0.00000000000E+00  0.00000000000E+00  0.81201693827E+03  0.81201693829E+03  0.50400001928E-02 0. -1.
       -1   -1    0    0    0  501  0.00000000000E+00  0.00000000000E+00 -0.37250184502E+03  0.37250184505E+03  0.50400001928E-02 0.  1.
    10030    2    1    2    0    0  0.00000000000E+00  0.00000000000E+00  0.43951509326E+03  0.11845187833E+04  0.10999596497E+04 0.  0.
        5    1    3    3  502    0  0.14322396358E+03  0.26724339348E+03 -0.27434327253E+03  0.40892353354E+03  0.46999998093E+01 0.  1.
       -5    1    3    3    0  502 -0.14322396358E+03 -0.26724339348E+03  0.71385836579E+03  0.77559524980E+03  0.46999998093E+01 0. -1.
</event>
<event>
 5   0  0.1464205E-04  0.1100163E+04  0.7818609E-02  0.9205033E-01
        2   -1    0    0  501    0  0.00000000000E+00  0.00000000000E+00  0.31956135923E+03  0.31956135924E+03  0.25500000920E-02 0.  1.
       -2   -1    0    0    0  501  0.00000000000E+00  0.00000000000E+00 -0.94689132015E+03  0.94689132016E+03  0.25500000920E-02 0. -1.
    10030    2    1    2    0    0  0.00000000000E+00  0.00000000000E+00 -0.62732996093E+03  0.12664526794E+04  0.11001634012E+04 0.  0.
        3    1    3    3  502    0 -0.42085514903E+03  0.17913601985E+03  0.38107012856E+02  0.45897813097E+03  0.10100000352E+00 0.  1.
       -3    1    3    3    0  502  0.42085514903E+03 -0.17913601985E+03 -0.66543697378E+03  0.80747454842E+03  0.10100000352E+00 0. -1.
</event>
<event>
 5   0  0.1464205E-04  0.1100002E+04  0.7818609E-02  0.9205190E-01
        2   -1    0    0  501    0  0.00000000000E+00  0.00000000000E+00  0.36922201804E+03  0.36922201805E+03  0.25500000920E-02 0.  1.
       -2   -1    0    0    0  501  0.00000000000E+00  0.00000000000E+00 -0.81929296877E+03  0.81929296877E+03  0.25500000920E-02 0. -1.
    10030    2    1    2    0    0  0.00000000000E+00  0.00000000000E+00 -0.45007095073E+03  0.11885149868E+04  0.11000018242E+04 0.  0.
        3    1    3    3  502    0  0.15748476418E+03 -0.47378520282E+02 -0.79210517683E+03  0.80899740204E+03  0.10100000352E+00 0. -1.
       -3    1    3    3    0  502 -0.15748476418E+03  0.47378520282E+02  0.34203422610E+03  0.37951758478E+03  0.10100000352E+00 0.  1.
</event>
<event>
 5   0  0.1574101E-04  0.1102067E+04  0.7818609E-02  0.9203180E-01
        2   -1    0    0  501    0  0.00000000000E+00  0.00000000000E+00  0.52424708893E+03  0.52424708893E+03  0.25500000920E-02 0. -1.
       -2   -1    0    0    0  501  0.00000000000E+00  0.00000000000E+00 -0.57918852874E+03  0.57918852875E+03  0.25500000920E-02 0.  1.
    10030    2    1    2    0    0  0.00000000000E+00  0.00000000000E+00 -0.54941439819E+02  0.11034356177E+04  0.11020669674E+04 0.  0.
        4    1    3    3  502    0 -0.75260717051E+02  0.53832170930E+03  0.63095187574E+02  0.54720841901E+03  0.12699999809E+01 0. -1.
       -4    1    3    3    0  502  0.75260717051E+02 -0.53832170930E+03 -0.11803662739E+03  0.55622719867E+03  0.12699999809E+01 0.  1.
</event>
<event>
 5   0  0.1464205E-04  0.1103189E+04  0.7818609E-02  0.9202089E-01
        2   -1    0    0  501    0  0.00000000000E+00  0.00000000000E+00  0.55651566855E+03  0.55651566856E+03  0.25500000920E-02 0. -1.
       -2   -1    0    0    0  501  0.00000000000E+00  0.00000000000E+00 -0.54671684276E+03  0.54671684277E+03  0.25500000920E-02 0.  1.
    10030    2    1    2    0    0  0.00000000000E+00  0.00000000000E+00  0.97988257871E+01  0.11032325113E+04  0.11031889943E+04 0.  0.
        3    1    3    3  502    0  0.11431525865E+03  0.26897855709E+03 -0.46292138804E+03  0.54746110751E+03  0.10100000352E+00 0.  1.
       -3    1    3    3    0  502 -0.11431525865E+03 -0.26897855709E+03  0.47272021383E+03  0.55577140381E+03  0.10100000352E+00 0. -1.
</event>
<event>
 5   0  0.1553937E-04  0.1100090E+04  0.7818609E-02  0.9205104E-01
       -2   -1    0    0    0  501  0.00000000000E+00  0.00000000000E+00  0.82325582303E+03  0.82325582304E+03  0.25500000920E-02 0.  1.
        2   -1    0    0  501    0  0.00000000000E+00  0.00000000000E+00 -0.36750357568E+03  0.36750357569E+03  0.25500000920E-02 0. -1.
    10030    2    1    2    0    0  0.00000000000E+00  0.00000000000E+00  0.45575224735E+03  0.11907593987E+04  0.11000899212E+04 0.  0.
        1    1    3    3  502    0  0.43295307437E+03  0.25483258279E+03 -0.14550809850E+02  0.50259301224E+03  0.50400001928E-02 0.  1.
       -1    1    3    3    0  502 -0.43295307437E+03 -0.25483258279E+03  0.47030305720E+03  0.68816638649E+03  0.50400001928E-02 0. -1.
</event>
<event>
 5   0  0.1464205E-04  0.1100237E+04  0.7818609E-02  0.9204961E-01
       -2   -1    0    0    0  501  0.00000000000E+00  0.00000000000E+00  0.16584451635E+03  0.16584451637E+03  0.25500000920E-02 0.  1.
        2   -1    0    0  501    0  0.00000000000E+00  0.00000000000E+00 -0.18247847859E+04  0.18247847859E+04  0.25500000920E-02 0. -1.
    10030    2    1    2    0    0  0.00000000000E+00  0.00000000000E+00 -0.16589402696E+04  0.19906293023E+04  0.11002373385E+04 0.  0.
        3    1    3    3  502    0 -0.42056023465E+03  0.28107377266E+03 -0.12206964790E+04  0.13213528222E+04  0.10100000352E+00 0. -1.
       -3    1    3    3    0  502  0.42056023465E+03 -0.28107377266E+03 -0.43824379057E+03  0.66927648011E+03  0.10100000352E+00 0.  1.
</event>
<event>
 5   0  0.1503277E-04  0.1100602E+04  0.7818609E-02  0.9204605E-01
       -2   -1    0    0    0  501  0.00000000000E+00  0.00000000000E+00  0.44065703342E+03  0.44065703342E+03  0.25500000920E-02 0.  1.
        2   -1    0    0  501    0  0.00000000000E+00  0.00000000000E+00 -0.68722711362E+03  0.68722711362E+03  0.25500000920E-02 0. -1.
    10030    2    1    2    0    0  0.00000000000E+00  0.00000000000E+00 -0.24657008020E+03  0.11278841470E+04  0.11006024917E+04 0.  0.
        5    1    3    3  502    0 -0.30680290445E+02  0.54024117900E+02  0.43703080766E+03  0.44144977333E+03  0.46999998093E+01 0.  1.
       -5    1    3    3    0  502  0.30680290445E+02 -0.54024117900E+02 -0.68360088786E+03  0.68643437371E+03  0.46999998093E+01 0. -1.
</event>
<event>
 5   0  0.8921459E-05  0.1099628E+04  0.7818609E-02  0.9205554E-01
        1   -1    0    0  501    0  0.00000000000E+00  0.00000000000E+00  0.10683369894E+04  0.10683369894E+04  0.50400001928E-02 0.  1.
       -1   -1    0    0    0  501  0.00000000000E+00  0.00000000000E+00 -0.28295897805E+03  0.28295897809E+03  0.50400001928E-02 0. -1.
    10030    2    1    2    0    0  0.00000000000E+00  0.00000000000E+00  0.78537801135E+03  0.13512959675E+04  0.10996281967E+04 0.  0.
        3    1    3    3  502    0  0.11034154985E+03  0.17603178101E+03 -0.23286678352E+03  0.31207273930E+03  0.10100000352E+00 0. -1.
       -3    1    3    3    0  502 -0.11034154985E+03 -0.17603178101E+03  0.10182447949E+04  0.10392232282E+04  0.10100000352E+00 0.  1.
</event>
<event>
 5   0  0.6010125E-05  0.1099531E+04  0.7818609E-02  0.9205649E-01
       -3   -1    0    0    0  501  0.00000000000E+00  0.00000000000E+00  0.16256030764E+03  0.16256033902E+03  0.10100000352E+00 0.  1.
        3   -1    0    0  501    0  0.00000000000E+00  0.00000000000E+00 -0.18592627318E+04  0.18592627345E+04  0.10100000352E+00 0. -1.
    10030    2    1    2    0    0  0.00000000000E+00  0.00000000000E+00 -0.16967024241E+04  0.20218230735E+04  0.10995314569E+04 0.  0.
        3    1    3    3  502    0  0.48139210568E+03 -0.16312551809E+03 -0.12335973788E+04  0.13342079288E+04  0.10100000352E+00 0.  1.
       -3    1    3    3    0  502 -0.48139210568E+03  0.16312551809E+03 -0.46310504529E+03  0.68761514471E+03  0.10100000352E+00 0. -1.
</event>
<event>
 5   0  0.8657442E-05  0.1099634E+04  0.7818609E-02  0.9205548E-01
       -1   -1    0    0    0  501  0.00000000000E+00  0.00000000000E+00  0.49606202866E+03  0.49606202869E+03  0.50400001928E-02 0. -1.
        1   -1    0    0  501    0  0.00000000000E+00  0.00000000000E+00 -0.60939735672E+03  0.60939735675E+03  0.50400001928E-02 0.  1.
    10030    2    1    2    0    0  0.00000000000E+00  0.00000000000E+00 -0.11333532806E+03  0.11054593854E+04  0.10996342830E+04 0.  0.
        1    1    3    3  502    0  0.22944378928E+03  0.43633250288E+03  0.18807295900E+03  0.52763807998E+03  0.50400001928E-02 0. -1.
       -1    1    3    3    0  502 -0.22944378928E+03 -0.43633250288E+03 -0.30140828706E+03  0.57782130546E+03  0.50400001928E-02 0.  1.
</event>
<event>
 5   0  0.8921459E-05  0.1099792E+04  0.7818609E-02  0.9205394E-01
       -1   -1    0    0    0  501  0.00000000000E+00  0.00000000000E+00  0.32608923806E+03  0.32608923810E+03  0.50400001928E-02 0. -1.
        1   -1    0    0  501    0  0.00000000000E+00  0.00000000000E+00 -0.92730982653E+03  0.92730982655E+03  0.50400001928E-02 0.  1.
    10030    2    1    2    0    0  0.00000000000E+00  0.00000000000E+00 -0.60122058847E+03  0.12533990647E+04  0.10997922619E+04 0.  0.
        3    1    3    3  502    0 -0.56388555983E+02 -0.37747741755E+03 -0.75177652688E+03  0.84311139630E+03  0.10100000352E+00 0.  1.
       -3    1    3    3    0  502  0.56388555983E+02  0.37747741755E+03  0.15055593841E+03  0.41028766835E+03  0.10100000352E+00 0. -1.
</event>
<event>
 5   0  0.9016738E-05  0.1100829E+04  0.7818609E-02  0.9204385E-01
       -1   -1    0    0    0  501  0.00000000000E+00  0.00000000000E+00  0.44754996695E+03  0.44754996698E+03  0.50400001928E-02 0. -1.
        1   -1    0    0  501    0  0.00000000000E+00  0.00000000000E+00 -0.67692091284E+03  0.67692091286E+03  0.50400001928E-02 0.  1.
    10030    2    1    2    0    0  0.00000000000E+00  0.00000000000E+00 -0.22937094589E+03  0.11244708798E+04  0.11008286555E+04 0.  0.
        4    1    3    3  502    0 -0.31515353426E+03 -0.41263422658E+03  0.71899955206E+02  0.52417551599E+03  0.12699999809E+01 0.  1.
       -4    1    3    3    0  502  0.31515353426E+03  0.41263422658E+03 -0.30127090109E+03  0.60029536384E+03  0.12699999809E+01 0. -1.
</event>
<event>
 5   0  0.9016738E-05  0.1099880E+04  0.7818609E-02  0.9205309E-01
        1   -1    0    0  501    0  0.00000000000E+00  0.00000000000E+00  0.10324192619E+04  0.10324192619E+04  0.50400001928E-02 0.  1.
       -1   -1    0    0    0  501  0.00000000000E+00  0.00000000000E+00 -0.29293710390E+03  0.29293710394E+03  0.50400001928E-02 0. -1.
    10030    2    1    2    0    0  0.00000000000E+00  0.00000000000E+00  0.73948215802E+03  0.13253563659E+04  0.10998798273E+04 0.  0.
        4    1    3    3  502    0  0.60273466965E+02  0.53930277311E+03  0.26228684385E+03  0.60272412699E+03  0.12699999809E+01 0. -1.
       -4    1    3    3    0  502 -0.60273466965E+02 -0.53930277311E+03  0.47719531417E+03  0.72263223888E+03  0.12699999809E+01 0.  1.
</event>
<event>
 5   0  0.1574101E-04  0.1099805E+04  0.7818609E-02  0.9205382E-01
        2   -1    0    0  501    0  0.00000000000E+00  0.00000000000E+00  0.12523148593E+04  0.12523148593E+04  0.25500000920E-02 0. -1.
       -2   -1    0    0    0  501  0.00000000000E+00  0.00000000000E+00 -0.24146708441E+03  0.24146708442E+03  0.25500000920E-02 0.  1.
    10030    2    1    2    0    0  0.00000000000E+00  0.00000000000E+00  0.10108477749E+04  0.14937819438E+04  0.10998051061E+04 0.  0.
        4    1    3    3  502    0 -0.11371649428E+02  0.42704991067E+02  0.12498970234E+04  0.12506787008E+04  0.12699999809E+01 0. -1.
       -4    1    3    3    0  502  0.11371649428E+02 -0.42704991067E+02 -0.23904924844E+03  0.24310324299E+03  0.12699999809E+01 0.  1.
</event>
<event>
 5   0  0.1503277E-04  0.1100060E+04  0.7818609E-02  0.9205133E-01
       -2   -1    0    0    0  501  0.00000000000E+00  0.00000000000E+00  0.13573014000E+04  0.13573014000E+04  0.25500000920E-02 0.  1.
        2   -1    0    0  501    0  0.00000000000E+00  0.00000000000E+00 -0.22289321584E+03  0.22289321586E+03  0.25500000920E-02 0. -1.
    10030    2    1    2    0    0  0.00000000000E+00  0.00000000000E+00  0.11344081842E+04  0.15801946159E+04  0.11000604964E+04 0.  0.
        5    1    3    3  502    0  0.15588795005E+03 -0.42699160050E+03  0.12239175184E+03  0.47077033762E+03  0.46999998093E+01 0. -1.
       -5    1    3    3    0  502 -0.15588795005E+03  0.42699160050E+03  0.10120164323E+04  0.11094242783E+04  0.46999998093E+01 0.  1.
</event>
<event>
 5   0  0.9016738E-05  0.1099923E+04  0.7818609E-02  0.9205267E-01
       -1   -1    0    0    0  501  0.00000000000E+00  0.00000000000E+00  0.82675702690E+03  0.82675702691E+03  0.50400001928E-02 0. -1.
        1   -1    0    0  501    0  0.00000000000E+00  0.00000000000E+00 -0.36583588362E+03  0.36583588366E+03  0.50400001928E-02 0.  1.
    10030    2    1    2    0    0  0.00000000000E+00  0.00000000000E+00  0.46092114328E+03  0.11925929106E+04  0.10999225200E+04 0.  0.
        4    1    3    3  502    0  0.39479969297E+03 -0.92923218755E+02  0.63317545045E+03  0.75194034744E+03  0.12699999809E+01 0. -1.
       -4    1    3    3    0  502 -0.39479969297E+03  0.92923218755E+02 -0.17225430718E+03  0.44065256313E+03  0.12699999809E+01 0.  1.
</event>
<event>
 5   0  0.1464205E-04  0.1099918E+04  0.7818609E-02  0.9205272E-01
        2   -1    0    0  501    0  0.00000000000E+00  0.00000000000E+00  0.52424634077E+03  0.52424634078E+03  0.25500000920E-02 0. -1.
       -2   -1    0    0    0  501  0.00000000000E+00  0.00000000000E+00 -0.57693241593E+03  0.57693241594E+03  0.25500000920E-02 0.  1.
    10030    2    1    2    0    0  0.00000000000E+00  0.00000000000E+00 -0.52686075160E+02  0.11011787567E+04  0.10999176477E+04 0.  0.
        3    1    3    3  502    0  0.47068641933E+03 -0.22384399838E+03  0.14936561676E+03  0.54218256946E+03  0.10100000352E+00 0.  1.
       -3    1    3    3    0  502 -0.47068641933E+03  0.22384399838E+03 -0.20205169192E+03  0.55899618725E+03  0.10100000352E+00 0. -1.
</event>
<event>
 5   0  0.1553937E-04  0.1100128E+04  0.7818609E-02  0.9205067E-01
        2   -1    0    0  501    0  0.00000000000E+00  0.00000000000E+00  0.65647436197E+03  0.65647436197E+03  0.25500000920E-02 0.  1.
       -2   -1    0    0    0  501  0.00000000000E+00  0.00000000000E+00 -0.46090182730E+03  0.46090182730E+03  0.25500000920E-02 0. -1.
    10030    2    1    2    0    0  0.00000000000E+00  0.00000000000E+00  0.19557253467E+03  0.11173761893E+04  0.11001276890E+04 0.  0.
        1    1    3    3  502    0  0.40944944310E+03  0.28632429205E+03 -0.13590765022E+03  0.51778502884E+03  0.50400001928E-02 0. -1.
       -1    1    3    3    0  502 -0.40944944310E+03 -0.28632429205E+03  0.33148018489E+03  0.59959116044E+03  0.50400001928E-02 0.  1.
</event>
<event>
 5   0  0.1540772E-04  0.1099594E+04  0.7818609E-02  0.9205588E-01
       -2   -1    0    0    0  501  0.00000000000E+00  0.00000000000E+00  0.29700861600E+03  0.29700861601E+03  0.25500000920E-02 0. -1.
        2   -1    0    0  501    0  0.00000000000E+00  0.00000000000E+00 -0.10177375234E+04  0.10177375234E+04  0.25500000920E-02 0.  1.
    10030    2    1    2    0    0  0.00000000000E+00  0.00000000000E+00 -0.72072890745E+03  0.13147461395E+04  0.10995941311E+04 0.  0.
        2    1    3    3  502    0  0.42458425305E+03 -0.90098420247E+02  0.43138891499E+02  0.43617711682E+03  0.25500000920E-02 0. -1.
       -2    1    3    3    0  502 -0.42458425305E+03  0.90098420247E+02 -0.76386779895E+03  0.87856902264E+03  0.25500000920E-02 0.  1.
</event>
<event>
 5   0  0.6010125E-05  0.1100737E+04  0.7818609E-02  0.9204474E-01
        4   -1    0    0  501    0  0.00000000000E+00  0.00000000000E+00  0.34099484662E+03  0.34099721161E+03  0.12699999809E+01 0. -1.
       -4   -1    0    0    0  501  0.00000000000E+00  0.00000000000E+00 -0.88829279347E+03  0.88829370134E+03  0.12699999809E+01 0.  1.
    10030    2    1    2    0    0  0.00000000000E+00  0.00000000000E+00 -0.54729794685E+03  0.12292909129E+04  0.11007366197E+04 0.  0.
        4    1    3    3  502    0  0.26093065899E+03 -0.39316300544E+03 -0.59000151865E+03  0.75549014723E+03  0.12699999809E+01 0.  1.
       -4    1    3    3    0  502 -0.26093065899E+03  0.39316300544E+03  0.42703571793E+02  0.47380076572E+03  0.12699999809E+01 0. -1.
</event>
<event>
 5   0  0.9016738E-05  0.1099940E+04  0.7818609E-02  0.9205250E-01
        1   -1    0    0  501    0  0.00000000000E+00  0.00000000000E+00  0.25111594511E+03  0.25111594517E+03  0.50400001928E-02 0.  1.
       -1   -1    0    0    0  501  0.00000000000E+00  0.00000000000E+00 -0.12044920373E+04  0.12044920374E+04  0.50400001928E-02 0. -1.
    10030    2    1    2    0    0  0.00000000000E+00  0.00000000000E+00 -0.95337609223E+03  0.14556079825E+04  0.10999402827E+04 0.  0.
        4    1    3    3  502    0 -0.39923352259E+03  0.34901904103E+03 -0.66966090894E+03  0.85419496745E+03  0.12699999809E+01 0. -1.
       -4    1    3    3    0  502  0.39923352259E+03 -0.34901904103E+03 -0.28371518330E+03  0.60141301507E+03  0.12699999809E+01 0.  1.
</event>
<event>
 5   0  0.1503277E-04  0.1100454E+04  0.7818609E-02  0.9204749E-01
        2   -1    0    0  501    0  0.00000000000E+00  0.00000000000E+00  0.45695321466E+03  0.45695321467E+03  0.25500000920E-02 0. -1.
       -2   -1    0    0    0  501  0.00000000000E+00  0.00000000000E+00 -0.66254007325E+03  0.66254007325E+03  0.25500000920E-02 0.  1.
    10030    2    1    2    0    0  0.00000000000E+00  0.00000000000E+00 -0.20558685858E+03  0.11194932879E+04  0.11004541178E+04 0.  0.
        5    1    3    3  502    0 -0.30469966107E+03  0.37820026709E+03 -0.36582117453E+03  0.60804979008E+03  0.46999998093E+01 0.  1.
       -5    1    3    3    0  502  0.30469966107E+03 -0.37820026709E+03  0.16023431595E+03  0.51144349784E+03  0.46999998093E+01 0. -1.
</event>
<event>
 5   0  0.1503277E-04  0.1099861E+04  0.7818609E-02  0.9205327E-01
       -2   -1    0    0    0  501  0.00000000000E+00  0.00000000000E+00  0.20915166852E+03  0.20915166854E+03  0.25500000920E-02 0.  1.
        2   -1    0    0  501    0  0.00000000000E+00  0.00000000000E+00 -0.14459533507E+04  0.14459533507E+04  0.25500000920E-02 0. -1.
    10030    2    1    2    0    0  0.00000000000E+00  0.00000000000E+00 -0.12368016822E+04  0.16551050192E+04  0.10998610020E+04 0.  0.
        5    1    3    3  502    0  0.93959916598E+02  0.54143534331E+03 -0.58753276056E+03  0.80448588032E+03  0.46999998093E+01 0.  1.
       -5    1    3    3    0  502 -0.93959916598E+02 -0.54143534331E+03 -0.64926892160E+03  0.85061913890E+03  0.46999998093E+01 0. -1.
</event>
<event>
 5   0  0.9346836E-05  0.1099885E+04  0.7818609E-02  0.9205304E-01
       -1   -1    0    0    0  501  0.00000000000E+00  0.00000000000E+00  0.58833554552E+03  0.58833554554E+03  0.50400001928E-02 0. -1.
        1   -1    0    0  501    0  0.00000000000E+00  0.00000000000E+00 -0.51405529184E+03  0.51405529187E+03  0.50400001928E-02 0.  1.
    10030    2    1    2    0    0  0.00000000000E+00  0.00000000000E+00  0.74280253679E+02  0.11023908374E+04  0.10998854496E+04 0.  0.
        5    1    3    3  502    0  0.48018694395E+03 -0.23838748194E+03 -0.85641234491E+02  0.54292228149E+03  0.46999998093E+01 0.  1.
       -5    1    3    3    0  502 -0.48018694395E+03  0.23838748194E+03  0.15992148817E+03  0.55946855592E+03  0.46999998093E+01 0. -1.
</event>
<event>
 5   0  0.9016738E-05  0.1099887E+04  0.7818609E-02  0.9205302E-01
        1   -1    0    0  501    0  0.00000000000E+00  0.00000000000E+00  0.14852256772E+04  0.14852256772E+04  0.50400001928E-02 0.  1.
       -1   -1    0    0    0  501  0.00000000000E+00  0.00000000000E+00 -0.20363076926E+03  0.20363076932E+03  0.50400001928E-02 0. -1.
    10030    2    1    2    0    0  0.00000000000E+00  0.00000000000E+00  0.12815949080E+04  0.16888564466E+04  0.10998866255E+04 0.  0.
        4    1    3    3  502    0 -0.37572281407E+03 -0.30119847206E+02  0.25911661574E+02  0.37781988475E+03  0.12699999809E+01 0. -1.
       -4    1    3    3    0  502  0.37572281407E+03  0.30119847206E+02  0.12556832464E+04  0.13110365618E+04  0.12699999809E+01 0.  1.
</event>
<event>
 5   0  0.8921459E-05  0.1099525E+04  0.7818609E-02  0.9205655E-01
        1   -1    0    0  501    0  0.00000000000E+00  0.00000000000E+00  0.10555585620E+04  0.10555585621E+04  0.50400001928E-02 0. -1.
       -1   -1    0    0    0  501  0.00000000000E+00  0.00000000000E+00 -0.28633076680E+03  0.28633076684E+03  0.50400001928E-02 0.  1.
    10030    2    1    2    0    0  0.00000000000E+00  0.00000000000E+00  0.76922779525E+03  0.13418893289E+04  0.10995251566E+04 0.  0.
        3    1    3    3  502    0 -0.29935930467E+02 -0.14473551418E+03  0.10308573571E+04  0.10413987852E+04  0.10100000352E+00 0. -1.
       -3    1    3    3    0  502  0.29935930467E+02  0.14473551418E+03 -0.26162956185E+03  0.30049054367E+03  0.10100000352E+00 0.  1.
</event>
<event>
 5   0  0.6010125E-05  0.1100948E+04  0.7818609E-02  0.9204268E-01
       -3   -1    0    0    0  501  0.00000000000E+00  0.00000000000E+00  0.22861645485E+03  0.22861647716E+03  0.10100000352E+00 0.  1.
        3   -1    0    0  501    0  0.00000000000E+00  0.00000000000E+00 -0.13254590565E+04  0.13254590603E+04  0.10100000352E+00 0. -1.
    10030    2    1    2    0    0  0.00000000000E+00  0.00000000000E+00 -0.10968426016E+04  0.15540755375E+04  0.11009482656E+04 0.  0.
        4    1    3    3  502    0  0.51686057273E+03 -0.16311922917E+02 -0.28205057825E+03  0.58903741143E+03  0.12699999809E+01 0. -1.
       -4    1    3    3    0  502 -0.51686057273E+03  0.16311922917E+02 -0.81479202335E+03  0.96503812603E+03  0.12699999809E+01 0.  1.
</event>
<event>
 5   0  0.9346836E-05  0.1099993E+04  0.7818609E-02  0.9205198E-01
       -1   -1    0    0    0  501  0.00000000000E+00  0.00000000000E+00  0.24879299374E+03  0.24879299379E+03  0.50400001928E-02 0.  1.
        1   -1    0    0  501    0  0.00000000000E+00  0.00000000000E+00 -0.12158557298E+04  0.12158557298E+04  0.50400001928E-02 0. -1.
    10030    2    1    2    0    0  0.00000000000E+00  0.00000000000E+00 -0.96706273601E+03  0.14646487236E+04  0.10999934309E+04 0.  0.
        5    1    3    3  502    0  0.20762696811E+03  0.30951006700E+03  0.54978537247E+02  0.37676274897E+03  0.46999998093E+01 0.  1.
       -5    1    3    3    0  502 -0.20762696811E+03 -0.30951006700E+03 -0.10220412733E+04  0.10878859746E+04  0.46999998093E+01 0. -1.
</event>
<event>
 5   0  0.9016738E-05  0.1099795E+04  0.7818609E-02  0.9205392E-01
        1   -1    0    0  501    0  0.00000000000E+00  0.00000000000E+00  0.10006620118E+04  0.10006620118E+04  0.50400001928E-02 0.  1.
       -1   -1    0    0    0  501  0.00000000000E+00  0.00000000000E+00 -0.30218719262E+03  0.30218719266E+03  0.50400001928E-02 0. -1.
    10030    2    1    2    0    0  0.00000000000E+00  0.00000000000E+00  0.69847481915E+03  0.13028492044E+04  0.10997949702E+04 0.  0.
        4    1    3    3  502    0 -0.33045639338E+03  0.17313671014E+03  0.82781569405E+03  0.90799679765E+03  0.12699999809E+01 0.  1.
       -4    1    3    3    0  502  0.33045639338E+03 -0.17313671014E+03 -0.12934087490E+03  0.39485240679E+03  0.12699999809E+01 0. -1.
</event>
<event>
 5   0  0.9346836E-05  0.1100031E+04  0.7818609E-02  0.9205162E-01
       -1   -1    0    0    0  501  0.00000000000E+00  0.00000000000E+00  0.51997774039E+03  0.51997774041E+03  0.50400001928E-02 0. -1.
        1   -1    0    0  501    0  0.00000000000E+00  0.00000000000E+00 -0.58178852043E+03  0.58178852045E+03  0.50400001928E-02 0.  1.
    10030    2    1    2    0    0  0.00000000000E+00  0.00000000000E+00 -0.61810780041E+02  0.11017662609E+04  0.11000310546E+04 0.  0.
        5    1    3    3  502    0  0.10429334355E+03 -0.53812239496E+03  0.14356344401E+02  0.54834387759E+03  0.46999998093E+01 0.  1.
       -5    1    3    3    0  502 -0.10429334355E+03  0.53812239496E+03 -0.76167124442E+02  0.55342238327E+03  0.46999998093E+01 0. -1.
</event>
<event>
 5   0  0.1553937E-04  0.1102910E+04  0.7818609E-02  0.9202360E-01
        2   -1    0    0  501    0  0.00000000000E+00  0.00000000000E+00  0.72379184999E+03  0.72379185000E+03  0.25500000920E-02 0.  1.
       -2   -1    0    0    0  501  0.00000000000E+00  0.00000000000E+00 -0.42015181599E+03  0.42015181600E+03  0.25500000920E-02 0. -1.
    10030    2    1    2    0    0  0.00000000000E+00  0.00000000000E+00  0.30364003400E+03  0.11439436660E+04  0.11029097156E+04 0.  0.
        1    1    3    3  502    0 -0.19413665964E+03 -0.51507861643E+03  0.11730372939E+03  0.56281008225E+03  0.50400001928E-02 0.  1.
       -1    1    3    3    0  502  0.19413665964E+03  0.51507861643E+03  0.18633630461E+03  0.58113358375E+03  0.50400001928E-02 0. -1.
</event>
<event>
 5   0  0.8657442E-05  0.1099923E+04  0.7818609E-02  0.9205267E-01
        1   -1    0    0  501    0  0.00000000000E+00  0.00000000000E+00  0.87845885079E+03  0.87845885081E+03  0.50400001928E-02 0.  1.
       -1   -1    0    0    0  501  0.00000000000E+00  0.00000000000E+00 -0.34430491716E+03  0.34430491719E+03  0.50400001928E-02 0. -1.
    10030    2    1    2    0    0  0.00000000000E+00  0.00000000000E+00  0.53415393363E+03  0.12227637680E+04  0.10999230916E+04 0.  0.
        1    1    3    3  502    0  0.37827585129E+03  0.34772997930E+03  0.48505987798E+03  0.70660586145E+03  0.50400001928E-02 0.  1.
       -1    1    3    3    0  502 -0.37827585129E+03 -0.34772997930E+03  0.49094055649E+02  0.51615790656E+03  0.50400001928E-02 0. -1.
</event>
<event>
 5   0  0.1574101E-04  0.1099929E+04  0.7818609E-02  0.9205261E-01
       -2   -1    0    0    0  501  0.00000000000E+00  0.00000000000E+00  0.19473262011E+03  0.19473262013E+03  0.25500000920E-02 0. -1.
        2   -1    0    0  501    0  0.00000000000E+00  0.00000000000E+00 -0.15532116663E+04  0.15532116663E+04  0.25500000920E-02 0.  1.
    10030    2    1    2    0    0  0.00000000000E+00  0.00000000000E+00 -0.13584790461E+04  0.17479442864E+04  0.10999290475E+04 0.  0.
        4    1    3    3  502    0  0.24615664733E+03  0.43637871907E+03 -0.10396628579E+04  0.11540883642E+04  0.12699999809E+01 0.  1.
       -4    1    3    3    0  502 -0.24615664733E+03 -0.43637871907E+03 -0.31881618824E+03  0.59385592214E+03  0.12699999809E+01 0. -1.
</event>
<event>
 5   0  0.1503277E-04  0.1099649E+04  0.7818609E-02  0.9205535E-01
        2   -1    0    0  501    0  0.00000000000E+00  0.00000000000E+00  0.18594972542E+04  0.18594972542E+04  0.25500000920E-02 0. -1.
       -2   -1    0    0    0  501  0.00000000000E+00  0.00000000000E+00 -0.16257443609E+03  0.16257443611E+03  0.25500000920E-02 0.  1.
    10030    2    1    2    0    0  0.00000000000E+00  0.00000000000E+00  0.16969228181E+04  0.20220716903E+04  0.10996485212E+04 0.  0.
        5    1    3    3  502    0 -0.30394737403E+03 -0.20465246618E+02  0.16900809254E+04  0.17173230497E+04  0.46999998093E+01 0. -1.
       -5    1    3    3    0  502  0.30394737403E+03  0.20465246618E+02  0.68418927350E+01  0.30474864067E+03  0.46999998093E+01 0.  1.
</event>
<event>
 5   0  0.6010125E-05  0.1100003E+04  0.7818609E-02  0.9205189E-01
       -4   -1    0    0    0  501  0.00000000000E+00  0.00000000000E+00  0.11911309279E+04  0.11911316049E+04  0.12699999809E+01 0.  1.
        4   -1    0    0  501    0  0.00000000000E+00  0.00000000000E+00 -0.25395948941E+03  0.25396266489E+03  0.12699999809E+01 0. -1.
    10030    2    1    2    0    0  0.00000000000E+00  0.00000000000E+00  0.93717143845E+03  0.14450942698E+04  0.11000032471E+04 0.  0.
        3    1    3    3  502    0 -0.37299488312E+03  0.22554813060E+03  0.90922926845E+03  0.10083129548E+04  0.10100000352E+00 0.  1.
       -3    1    3    3    0  502  0.37299488312E+03 -0.22554813060E+03  0.27942170002E+02  0.43678131498E+03  0.10100000352E+00 0. -1.
</event>
<event>
 5   0  0.8657442E-05  0.1100061E+04  0.7818609E-02  0.9205132E-01
        1   -1    0    0  501    0  0.00000000000E+00  0.00000000000E+00  0.69097261654E+03  0.69097261656E+03  0.50400001928E-02 0. -1.
       -1   -1    0    0    0  501  0.00000000000E+00  0.00000000000E+00 -0.43783721538E+03  0.43783721541E+03  0.50400001928E-02 0.  1.
    10030    2    1    2    0    0  0.00000000000E+00  0.00000000000E+00  0.25313540116E+03  0.11288098320E+04  0.11000609553E+04 0.  0.
        1    1    3    3  502    0  0.21423550460E+03 -0.21444531630E+03 -0.34439297123E+03  0.45879207030E+03  0.50400001928E-02 0.  1.
       -1    1    3    3    0  502 -0.21423550460E+03  0.21444531630E+03  0.59752837239E+03  0.67001776166E+03  0.50400001928E-02 0. -1.
</event>
<event>
 5   0  0.1540772E-04  0.1100256E+04  0.7818609E-02  0.9204943E-01
       -2   -1    0    0    0  501  0.00000000000E+00  0.00000000000E+00  0.47103526458E+03  0.47103526459E+03  0.25500000920E-02 0.  1.
        2   -1    0    0  501    0  0.00000000000E+00  0.00000000000E+00 -0.64250125031E+03  0.64250125032E+03  0.25500000920E-02 0. -1.
    10030    2    1    2    0    0  0.00000000000E+00  0.00000000000E+00 -0.17146598573E+03  0.11135365149E+04  0.11002558729E+04 0.  0.
        2    1    3    3  502    0 -0.14093514485E+03 -0.10727405279E+02 -0.62381096631E+03  0.63962325940E+03  0.25500000920E-02 0. -1.
       -2    1    3    3    0  502  0.14093514485E+03  0.10727405279E+02  0.45234498057E+03  0.47391325550E+03  0.25500000920E-02 0.  1.
</event>
<event>
 5   0  0.8921459E-05  0.1099446E+04  0.7818609E-02  0.9205732E-01
        1   -1    0    0  501    0  0.00000000000E+00  0.00000000000E+00  0.11029152303E+04  0.11029152303E+04  0.50400001928E-02 0. -1.
       -1   -1    0    0    0  501  0.00000000000E+00  0.00000000000E+00 -0.27399671301E+03  0.27399671305E+03  0.50400001928E-02 0.  1.
    10030    2    1    2    0    0  0.00000000000E+00  0.00000000000E+00  0.82891851726E+03  0.13769119433E+04  0.10994455837E+04 0.  0.
        3    1    3    3  502    0 -0.13170792918E+03 -0.11358767508E+03  0.10675503577E+04  0.10816251268E+04  0.10100000352E+00 0. -1.
       -3    1    3    3    0  502  0.13170792918E+03  0.11358767508E+03 -0.23863184043E+03  0.29528681652E+03  0.10100000352E+00 0.  1.
</event>
<event>
 5   0  0.8921459E-05  0.1100011E+04  0.7818609E-02  0.9205182E-01
       -1   -1    0    0    0  501  0.00000000000E+00  0.00000000000E+00  0.46433084201E+03  0.46433084204E+03  0.50400001928E-02 0.  1.
        1   -1    0    0  501    0  0.00000000000E+00  0.00000000000E+00 -0.65148772550E+03  0.65148772552E+03  0.50400001928E-02 0. -1.
    10030    2    1    2    0    0  0.00000000000E+00  0.00000000000E+00 -0.18715688348E+03  0.11158185676E+04  0.11000106257E+04 0.  0.
        3    1    3    3  502    0 -0.20869100367E+03 -0.43441755993E+03 -0.36240636103E+03  0.60299994370E+03  0.10100000352E+00 0. -1.
       -3    1    3    3    0  502  0.20869100367E+03  0.43441755993E+03  0.17524947755E+03  0.51281862385E+03  0.10100000352E+00 0.  1.
</event>
<event>
 5   0  0.1540772E-04  0.1100646E+04  0.7818609E-02  0.9204562E-01
       -2   -1    0    0    0  501  0.00000000000E+00  0.00000000000E+00  0.24051582243E+03  0.24051582244E+03  0.25500000920E-02 0. -1.
        2   -1    0    0  501    0  0.00000000000E+00  0.00000000000E+00 -0.12591922597E+04  0.12591922597E+04  0.25500000920E-02 0.  1.
    10030    2    1    2    0    0  0.00000000000E+00  0.00000000000E+00 -0.10186764372E+04  0.14997080821E+04  0.11006464681E+04 0.  0.
        2    1    3    3  502    0 -0.32756639325E+03 -0.99058257947E+02  0.77901688727E+02  0.35097144267E+03  0.25500000920E-02 0. -1.
       -2    1    3    3    0  502  0.32756639325E+03  0.99058257947E+02 -0.10965781260E+04  0.11487366395E+04  0.25500000920E-02 0.  1.
</event>
<event>
 5   0  0.8921459E-05  0.1100148E+04  0.7818609E-02  0.9205047E-01
        1   -1    0    0  501    0  0.00000000000E+00  0.00000000000E+00  0.92295669905E+03  0.92295669906E+03  0.50400001928E-02 0.  1.
       -1   -1    0    0    0  501  0.00000000000E+00  0.00000000000E+00 -0.32783934334E+03  0.32783934338E+03  0.50400001928E-02 0. -1.
    10030    2    1    2    0    0  0.00000000000E+00  0.00000000000E+00  0.59511735571E+03  0.12507960424E+04  0.11001482049E+04 0.  0.
        3    1    3    3  502    0 -0.14285492165E+03  0.12556077365E+03 -0.28926728411E+03  0.34619157757E+03  0.10100000352E+00 0. -1.
       -3    1    3    3    0  502  0.14285492165E+03 -0.12556077365E+03  0.88438463982E+03  0.90460446488E+03  0.10100000352E+00 0.  1.
</event>
<event>
 5   0  0.1464205E-04  0.1099939E+04  0.7818609E-02  0.9205252E-01
        2   -1    0    0  501    0  0.00000000000E+00  0.00000000000E+00  0.17431045127E+04  0.17431045127E+04  0.25500000920E-02 0.  1.
       -2   -1    0    0    0  501  0.00000000000E+00  0.00000000000E+00 -0.17352156879E+03  0.17352156880E+03  0.25500000920E-02 0. -1.
    10030    2    1    2    0    0  0.00000000000E+00  0.00000000000E+00  0.15695829440E+04  0.19166260816E+04  0.10999385976E+04 0.  0.
        3    1    3    3  502    0 -0.13654079138E+03 -0.11742761745E+03  0.16902693490E+04  0.16998362026E+04  0.10100000352E+00 0.  1.
       -3    1    3    3    0  502  0.13654079138E+03  0.11742761745E+03 -0.12068640509E+03  0.21678987898E+03  0.10100000352E+00 0. -1.
</event>
<event>
 5   0  0.1464205E-04  0.1099450E+04  0.7818609E-02  0.9205728E-01
        2   -1    0    0  501    0  0.00000000000E+00  0.00000000000E+00  0.13261941916E+04  0.13261941916E+04  0.25500000920E-02 0. -1.
       -2   -1    0    0    0  501  0.00000000000E+00  0.00000000000E+00 -0.22786815995E+03  0.22786815997E+03  0.25500000920E-02 0.  1.
    10030    2    1    2    0    0  0.00000000000E+00  0.00000000000E+00  0.10983260316E+04  0.15540623516E+04  0.10994497354E+04 0.  0.
        3    1    3    3  502    0  0.27401576000E+03  0.47616500987E+03  0.57670493974E+03  0.79649629696E+03  0.10100000352E+00 0.  1.
       -3    1    3    3    0  502 -0.27401576000E+03 -0.47616500987E+03  0.52162109190E+03  0.75756605459E+03  0.10100000352E+00 0. -1.
</event>
<event>
 5   0  0.1540772E-04  0.1100842E+04  0.7818609E-02  0.9204371E-01
        2   -1    0    0  501    0  0.00000000000E+00  0.00000000000E+00  0.75961381584E+03  0.75961381585E+03  0.25500000920E-02 0.  1.
       -2   -1    0    0    0  501  0.00000000000E+00  0.00000000000E+00 -0.39883879908E+03  0.39883879909E+03  0.25500000920E-02 0. -1.
    10030    2    1    2    0    0  0.00000000000E+00  0.00000000000E+00  0.36077501676E+03  0.11584526149E+04  0.11008423358E+04 0.  0.
        2    1    3    3  502    0 -0.10679797886E+03  0.25186936703E+03  0.68300122141E+03  0.73575447997E+03  0.25500000920E-02 0.  1.
       -2    1    3    3    0  502  0.10679797886E+03 -0.25186936703E+03 -0.32222620465E+03  0.42269813497E+03  0.25500000920E-02 0. -1.
</event>
<event>
 5   0  0.9016738E-05  0.1099962E+04  0.7818609E-02  0.9205229E-01
        1   -1    0    0  501    0  0.00000000000E+00  0.00000000000E+00  0.93992685965E+03  0.93992685967E+03  0.50400001928E-02 0. -1.
       -1   -1    0    0    0  501  0.00000000000E+00  0.00000000000E+00 -0.32181111097E+03  0.32181111100E+03  0.50400001928E-02 0.  1.
    10030    2    1    2    0    0  0.00000000000E+00  0.00000000000E+00  0.61811574869E+03  0.12617379707E+04  0.10999616484E+04 0.  0.
        4    1    3    3  502    0 -0.54662276314E+03 -0.40002190320E+02  0.36138099208E+03  0.65650167917E+03  0.12699999809E+01 0. -1.
       -4    1    3    3    0  502  0.54662276314E+03  0.40002190320E+02  0.25673475660E+03  0.60523629151E+03  0.12699999809E+01 0.  1.
</event>
<event>
 5   0  0.1553937E-04  0.1100253E+04  0.7818609E-02  0.9204945E-01
       -2   -1    0    0    0  501  0.00000000000E+00  0.00000000000E+00  0.64787137456E+03  0.64787137456E+03  0.25500000920E-02 0. -1.
        2   -1    0    0  501    0  0.00000000000E+00  0.00000000000E+00 -0.46712840226E+03  0.46712840227E+03  0.25500000920E-02 0.  1.
    10030    2    1    2    0    0  0.00000000000E+00  0.00000000000E+00  0.18074297230E+03  0.11149997768E+04  0.11002529165E+04 0.  0.
        1    1    3    3  502    0 -0.56690053898E+02  0.11995443639E+03  0.63141516959E+03  0.64520380147E+03  0.50400001928E-02 0. -1.
       -1    1    3    3    0  502  0.56690053898E+02 -0.11995443639E+03 -0.45067219730E+03  0.46979597536E+03  0.50400001928E-02 0.  1.
</event>
<event>
 5   0  0.1540772E-04  0.1099897E+04  0.7818609E-02  0.9205292E-01
       -2   -1    0    0    0  501  0.00000000000E+00  0.00000000000E+00  0.40591384035E+03  0.40591384036E+03  0.25500000920E-02 0. -1.
        2   -1    0    0  501    0  0.00000000000E+00  0.00000000000E+00 -0.74509312009E+03  0.74509312010E+03  0.25500000920E-02 0.  1.
    10030    2    1    2    0    0  0.00000000000E+00  0.00000000000E+00 -0.33917927974E+03  0.11510069605E+04  0.10998974676E+04 0.  0.
        2    1    3    3  502    0  0.27319098191E+03  0.12640359692E+03 -0.65122899887E+03  0.71743319612E+03  0.25500000920E-02 0.  1.
       -2    1    3    3    0  502 -0.27319098191E+03 -0.12640359692E+03  0.31204971913E+03  0.43357376434E+03  0.25500000920E-02 0. -1.
</event>
<event>
 5   0  0.1553937E-04  0.1099533E+04  0.7818609E-02  0.9205647E-01
        2   -1    0    0  501    0  0.00000000000E+00  0.00000000000E+00  0.11324487819E+04  0.11324487819E+04  0.25500000920E-02 0. -1.
       -2   -1    0    0    0  501  0.00000000000E+00  0.00000000000E+00 -0.26689349620E+03  0.26689349622E+03  0.25500000920E-02 0.  1.
    10030    2    1    2    0    0  0.00000000000E+00  0.00000000000E+00  0.86555528566E+03  0.13993422781E+04  0.10995330185E+04 0.  0.
        1    1    3    3  502    0 -0.74151746584E+02  0.24900352522E+03  0.10493883468E+04  0.10810722175E+04  0.50400001928E-02 0. -1.
       -1    1    3    3    0  502  0.74151746584E+02 -0.24900352522E+03 -0.18383306110E+03  0.31827006059E+03  0.50400001928E-02 0.  1.
</event>
<event>
 5   0  0.1464205E-04  0.1099515E+04  0.7818609E-02  0.9205664E-01
        2   -1    0    0  501    0  0.00000000000E+00  0.00000000000E+00  0.93459029049E+03  0.93459029049E+03  0.25500000920E-02 0.  1.
       -2   -1    0    0    0  501  0.00000000000E+00  0.00000000000E+00 -0.32338611212E+03  0.32338611213E+03  0.25500000920E-02 0. -1.
    10030    2    1    2    0    0  0.00000000000E+00  0.00000000000E+00  0.61120417837E+03  0.12579764026E+04  0.10995153850E+04 0.  0.
        3    1    3    3  502    0 -0.82875424638E+01  0.48218288694E+02 -0.32089035967E+03  0.32459870588E+03  0.10100000352E+00 0. -1.
       -3    1    3    3    0  502  0.82875424638E+01 -0.48218288694E+02  0.93209453804E+03  0.93337769674E+03  0.10100000352E+00 0.  1.
</event>
<event>
 5   0  0.6010125E-05  0.1100244E+04  0.7818609E-02  0.9204954E-01
       -4   -1    0    0    0  501  0.00000000000E+00  0.00000000000E+00  0.30430957999E+03  0.30431223007E+03  0.12699999809E+01 0.  1.
        4   -1    0    0  501    0  0.00000000000E+00  0.00000000000E+00 -0.99448763550E+03  0.99448844642E+03  0.12699999809E+01 0. -1.
    10030    2    1    2    0    0  0.00000000000E+00  0.00000000000E+00 -0.69017805552E+03  0.12988006765E+04  0.11002442679E+04 0.  0.
        1    1    3    3  502    0  0.48913842637E+03 -0.12674067682E+03 -0.88314626252E+02  0.51295133545E+03  0.50400001928E-02 0.  1.
       -1    1    3    3    0  502 -0.48913842637E+03  0.12674067682E+03 -0.60186342926E+03  0.78584934104E+03  0.50400001928E-02 0. -1.
</event>
<event>
 5   0  0.1553937E-04  0.1099321E+04  0.7818609E-02  0.9205854E-01
        2   -1    0    0  501    0  0.00000000000E+00  0.00000000000E+00  0.10916344109E+04  0.10916344109E+04  0.25500000920E-02 0. -1.
       -2   -1    0    0    0  501  0.00000000000E+00  0.00000000000E+00 -0.27676544586E+03  0.27676544587E+03  0.25500000920E-02 0.  1.
    10030    2    1    2    0    0  0.00000000000E+00  0.00000000000E+00  0.81486896503E+03  0.13683998568E+04  0.10993210349E+04 0.  0.
        1    1    3    3  502    0 -0.54454507568E+03  0.62752825115E+02  0.45814145471E+03  0.71439544305E+03  0.50400001928E-02 0.  1.
       -1    1    3    3    0  502  0.54454507568E+03 -0.62752825115E+02  0.35672751032E+03  0.65400441371E+03  0.50400001928E-02 0. -1.
</event>
<event>
 5   0  0.1574101E-04  0.1100997E+04  0.7818609E-02  0.9204221E-01
       -2   -1    0    0    0  501  0.00000000000E+00  0.00000000000E+00  0.35690738619E+03  0.35690738620E+03  0.25500000920E-02 0. -1.
        2   -1    0    0  501    0  0.00000000000E+00  0.00000000000E+00 -0.84909555752E+03  0.84909555752E+03  0.25500000920E-02 0.  1.
    10030    2    1    2    0    0  0.00000000000E+00  0.00000000000E+00 -0.49218817133E+03  0.12060029437E+04  0.11009967776E+04 0.  0.
        4    1    3    3  502    0  0.43134322647E+03 -0.12850223542E+03  0.10111875561E+03  0.46129862255E+03  0.12699999809E+01 0. -1.
       -4    1    3    3    0  502 -0.43134322647E+03  0.12850223542E+03 -0.59330692693E+03  0.74470432117E+03  0.12699999809E+01 0.  1.
</event>
<event>
 5   0  0.8657442E-05  0.1097938E+04  0.7818609E-02  0.9207204E-01
        1   -1    0    0  501    0  0.00000000000E+00  0.00000000000E+00  0.56210243885E+03  0.56210243888E+03  0.50400001928E-02 0.  1.
       -1   -1    0    0    0  501  0.00000000000E+00  0.00000000000E+00 -0.53614201503E+03  0.53614201505E+03  0.50400001928E-02 0. -1.
    10030    2    1    2    0    0  0.00000000000E+00  0.00000000000E+00  0.25960423823E+02  0.10982444539E+04  0.10979375834E+04 0.  0.
        1    1    3    3  502    0 -0.85371596795E+02  0.37164090095E+03 -0.38204973532E+03  0.53978446540E+03  0.50400001928E-02 0. -1.
       -1    1    3    3    0  502  0.85371596795E+02 -0.37164090095E+03  0.40801015915E+03  0.55845998853E+03  0.50400001928E-02 0.  1.
</event>
<event>
 5   0  0.8621738E-05  0.1100136E+04  0.7818609E-02  0.9205059E-01
       -1   -1    0    0    0  501  0.00000000000E+00  0.00000000000E+00  0.21864559953E+03  0.21864559959E+03  0.50400001928E-02 0. -1.
        1   -1    0    0  501    0  0.00000000000E+00  0.00000000000E+00 -0.13838602555E+04  0.13838602555E+04  0.50400001928E-02 0.  1.
    10030    2    1    2    0    0  0.00000000000E+00  0.00000000000E+00 -0.11652146560E+04  0.16025058551E+04  0.11001362739E+04 0.  0.
        2    1    3    3  502    0 -0.52370725794E+02 -0.23799120187E+03  0.13572958600E+03  0.27893552231E+03  0.25500000920E-02 0. -1.
       -2    1    3    3    0  502  0.52370725794E+02  0.23799120187E+03 -0.13009442420E+04  0.13235703328E+04  0.25500000920E-02 0.  1.
</event>
<event>
 5   0  0.9346836E-05  0.1099905E+04  0.7818609E-02  0.9205284E-01
        1   -1    0    0  501    0  0.00000000000E+00  0.00000000000E+00  0.82367022248E+03  0.82367022249E+03  0.50400001928E-02 0.  1.
       -1   -1    0    0    0  501  0.00000000000E+00  0.00000000000E+00 -0.36719525280E+03  0.36719525284E+03  0.50400001928E-02 0. -1.
    10030    2    1    2    0    0  0.00000000000E+00  0.00000000000E+00  0.45647496967E+03  0.11908654753E+04  0.10999050788E+04 0.  0.
        5    1    3    3  502    0  0.17571687318E+03 -0.38800016660E+03 -0.14838776839E+03  0.45106714423E+03  0.46999998093E+01 0. -1.
       -5    1    3    3    0  502 -0.17571687318E+03  0.38800016660E+03  0.60486273806E+03  0.73979833110E+03  0.46999998093E+01 0.  1.
</event>
<event>
 5   0  0.9346836E-05  0.1099546E+04  0.7818609E-02  0.9205634E-01
        1   -1    0    0  501    0  0.00000000000E+00  0.00000000000E+00  0.41117538572E+03  0.41117538575E+03  0.50400001928E-02 0. -1.
       -1   -1    0    0    0  501  0.00000000000E+00  0.00000000000E+00 -0.73508912416E+03  0.73508912418E+03  0.50400001928E-02 0.  1.
    10030    2    1    2    0    0  0.00000000000E+00  0.00000000000E+00 -0.32391373844E+03  0.11462645099E+04  0.10995463686E+04 0.  0.
        5    1    3    3  502    0  0.29879719767E+03 -0.38940151333E+03 -0.42009682512E+03  0.64607796464E+03  0.46999998093E+01 0.  1.
       -5    1    3    3    0  502 -0.29879719767E+03  0.38940151333E+03  0.96183086679E+02  0.50018654529E+03  0.46999998093E+01 0. -1.
</event>
<event>
 5   0  0.8657442E-05  0.1099861E+04  0.7818609E-02  0.9205328E-01
       -1   -1    0    0    0  501  0.00000000000E+00  0.00000000000E+00  0.26682850996E+03  0.26682851001E+03  0.50400001928E-02 0.  1.
        1   -1    0    0  501    0  0.00000000000E+00  0.00000000000E+00 -0.11333996702E+04  0.11333996702E+04  0.50400001928E-02 0. -1.
    10030    2    1    2    0    0  0.00000000000E+00  0.00000000000E+00 -0.86657116021E+03  0.14002281802E+04  0.10998606188E+04 0.  0.
        1    1    3    3  502    0 -0.10556584527E+03 -0.51757607100E+03 -0.62800772168E+03  0.82062344317E+03  0.50400001928E-02 0. -1.
       -1    1    3    3    0  502  0.10556584527E+03  0.51757607100E+03 -0.23856343852E+03  0.57960473702E+03  0.50400001928E-02 0.  1.
</event>
<event>
 5   0  0.1574101E-04  0.1100023E+04  0.7818609E-02  0.9205170E-01
       -2   -1    0    0    0  501  0.00000000000E+00  0.00000000000E+00  0.10819888350E+03  0.10819888353E+03  0.25500000920E-02 0.  1.
        2   -1    0    0  501    0  0.00000000000E+00  0.00000000000E+00 -0.27958921758E+04  0.27958921758E+04  0.25500000920E-02 0. -1.
    10030    2    1    2    0    0  0.00000000000E+00  0.00000000000E+00 -0.26876932923E+04  0.29040910594E+04  0.11000225668E+04 0.  0.
        4    1    3    3  502    0 -0.29193578253E+03 -0.24122671488E+03 -0.29082937465E+03  0.47749363048E+03  0.12699999809E+01 0. -1.
       -4    1    3    3    0  502  0.29193578253E+03  0.24122671488E+03 -0.23968639177E+04  0.24265974289E+04  0.12699999809E+01 0.  1.
</event>
<event>
 5   0  0.8657442E-05  0.1099931E+04  0.7818609E-02  0.9205259E-01
       -1   -1    0    0    0  501  0.00000000000E+00  0.00000000000E+00  0.17353362995E+03  0.17353363002E+03  0.50400001928E-02 0.  1.
        1   -1    0    0  501    0  0.00000000000E+00  0.00000000000E+00 -0.17429597840E+04  0.17429597840E+04  0.50400001928E-02 0. -1.
    10030    2    1    2    0    0  0.00000000000E+00  0.00000000000E+00 -0.15694261540E+04  0.19164934140E+04  0.10999311583E+04 0.  0.
        1    1    3    3  502    0  0.48156668434E+02  0.35030256918E+02  0.16789963915E+03  0.17814733359E+03  0.50400001928E-02 0.  1.
       -1    1    3    3    0  502 -0.48156668434E+02 -0.35030256918E+02 -0.17373257932E+04  0.17383460804E+04  0.50400001928E-02 0. -1.
</event>
<event>
 5   0  0.1503277E-04  0.1099821E+04  0.7818609E-02  0.9205366E-01
       -2   -1    0    0    0  501  0.00000000000E+00  0.00000000000E+00  0.31408975080E+03  0.31408975081E+03  0.25500000920E-02 0. -1.
        2   -1    0    0  501    0  0.00000000000E+00  0.00000000000E+00 -0.96278697126E+03  0.96278697126E+03  0.25500000920E-02 0.  1.
    10030    2    1    2    0    0  0.00000000000E+00  0.00000000000E+00 -0.64869722046E+03  0.12768767221E+04  0.10998209307E+04 0.  0.
        5    1    3    3  502    0  0.15670091559E+03 -0.21145378864E+03 -0.88489154579E+03  0.92321342034E+03  0.46999998093E+01 0.  1.
       -5    1    3    3    0  502 -0.15670091559E+03  0.21145378864E+03  0.23619432534E+03  0.35366330174E+03  0.46999998093E+01 0. -1.
</event>
<event>
 5   0  0.1503277E-04  0.1099498E+04  0.7818609E-02  0.9205681E-01
        2   -1    0    0  501    0  0.00000000000E+00  0.00000000000E+00  0.12724029407E+04  0.12724029407E+04  0.25500000920E-02 0. -1.
       -2   -1    0    0    0  501  0.00000000000E+00  0.00000000000E+00 -0.23752231742E+03  0.23752231743E+03  0.25500000920E-02 0.  1.
    10030    2    1    2    0    0  0.00000000000E+00  0.00000000000E+00  0.10348806233E+04  0.15099252581E+04  0.10994982404E+04 0.  0.
        5    1    3    3  502    0  0.10331632423E+03 -0.40994906840E+03  0.34892042123E+02  0.42423112349E+03  0.46999998093E+01 0.  1.
       -5    1    3    3    0  502 -0.10331632423E+03  0.40994906840E+03  0.99998858114E+03  0.10856941346E+04  0.46999998093E+01 0. -1.
</event>
<event>
 5   0  0.1503277E-04  0.1100019E+04  0.7818609E-02  0.9205174E-01
        2   -1    0    0  501    0  0.00000000000E+00  0.00000000000E+00  0.16700830363E+04  0.16700830363E+04  0.25500000920E-02 0. -1.
       -2   -1    0    0    0  501  0.00000000000E+00  0.00000000000E+00 -0.18113489502E+03  0.18113489504E+03  0.25500000920E-02 0.  1.
    10030    2    1    2    0    0  0.00000000000E+00  0.00000000000E+00  0.14889481413E+04  0.18512179314E+04  0.11000187553E+04 0.  0.
        5    1    3    3  502    0  0.20551734361E+03  0.49453700354E+03  0.53371520009E+03  0.75609406240E+03  0.46999998093E+01 0.  1.
       -5    1    3    3    0  502 -0.20551734361E+03 -0.49453700354E+03  0.95523294124E+03  0.10951238690E+04  0.46999998093E+01 0. -1.
</event>
<event>
 5   0  0.1540772E-04  0.1099681E+04  0.7818609E-02  0.9205503E-01
        2   -1    0    0  501    0  0.00000000000E+00  0.00000000000E+00  0.84477173807E+03  0.84477173808E+03  0.25500000920E-02 0.  1.
       -2   -1    0    0    0  501  0.00000000000E+00  0.00000000000E+00 -0.35787724258E+03  0.35787724259E+03  0.25500000920E-02 0. -1.
    10030    2    1    2    0    0  0.00000000000E+00  0.00000000000E+00  0.48689449549E+03  0.12026489807E+04  0.10996810087E+04 0.  0.
        2    1    3    3  502    0  0.48680775961E+03  0.20518506033E+03  0.76719548724E+02  0.53382449640E+03  0.25500000920E-02 0. -1.
       -2    1    3    3    0  502 -0.48680775961E+03 -0.20518506033E+03  0.41017494676E+03  0.66882448427E+03  0.25500000920E-02 0.  1.
</event>
<event>
 5   0  0.9016738E-05  0.1100209E+04  0.7818609E-02  0.9204988E-01
        1   -1    0    0  501    0  0.00000000000E+00  0.00000000000E+00  0.97065203165E+03  0.97065203166E+03  0.50400001928E-02 0. -1.
       -1   -1    0    0    0  501  0.00000000000E+00  0.00000000000E+00 -0.31176481212E+03  0.31176481216E+03  0.50400001928E-02 0.  1.
    10030    2    1    2    0    0  0.00000000000E+00  0.00000000000E+00  0.65888721953E+03  0.12824168438E+04  0.11002093407E+04 0.  0.
        4    1    3    3  502    0  0.23073971734E+03 -0.40487010408E+03 -0.11291850001E+02  0.46614347266E+03  0.12699999809E+01 0.  1.
       -4    1    3    3    0  502 -0.23073971734E+03  0.40487010408E+03  0.67017906953E+03  0.81627337116E+03  0.12699999809E+01 0. -1.
</event>
<event>
 5   0  0.1553937E-04  0.1099783E+04  0.7818609E-02  0.9205404E-01
        2   -1    0    0  501    0  0.00000000000E+00  0.00000000000E+00  0.80083636119E+03  0.80083636120E+03  0.25500000920E-02 0.  1.
       -2   -1    0    0    0  501  0.00000000000E+00  0.00000000000E+00 -0.37758082553E+03  0.37758082553E+03  0.25500000920E-02 0. -1.
    10030    2    1    2    0    0  0.00000000000E+00  0.00000000000E+00  0.42325553567E+03  0.11784171867E+04  0.10997826228E+04 0.  0.
        1    1    3    3  502    0  0.52905774962E+03  0.14977788680E+03  0.20444499605E+03  0.58662873629E+03  0.50400001928E-02 0. -1.
       -1    1    3    3    0  502 -0.52905774962E+03 -0.14977788680E+03  0.21881053962E+03  0.59178845044E+03  0.50400001928E-02 0.  1.
</event>
<event>
 5   0  0.1503277E-04  0.1100456E+04  0.7818609E-02  0.9204747E-01
       -2   -1    0    0    0  501  0.00000000000E+00  0.00000000000E+00  0.12576739881E+03  0.12576739883E+03  0.25500000920E-02 0.  1.
        2   -1    0    0  501    0  0.00000000000E+00  0.00000000000E+00 -0.24072300759E+04  0.24072300759E+04  0.25500000920E-02 0. -1.
    10030    2    1    2    0    0  0.00000000000E+00  0.00000000000E+00 -0.22814626771E+04  0.25329974747E+04  0.11004563871E+04 0.  0.
        5    1    3    3  502    0 -0.61521059395E+02  0.36644246614E+03 -0.20670027043E+03  0.42521995900E+03  0.46999998093E+01 0.  1.
       -5    1    3    3    0  502  0.61521059395E+02 -0.36644246614E+03 -0.20747624066E+04  0.21077775157E+04  0.46999998093E+01 0. -1.
</event>
<event>
 5   0  0.1574101E-04  0.1104361E+04  0.7818609E-02  0.9200951E-01
        2   -1    0    0  501    0  0.00000000000E+00  0.00000000000E+00  0.58978482203E+03  0.58978482204E+03  0.25500000920E-02 0. -1.
       -2   -1    0    0    0  501  0.00000000000E+00  0.00000000000E+00 -0.51697410234E+03  0.51697410235E+03  0.25500000920E-02 0.  1.
    10030    2    1    2    0    0  0.00000000000E+00  0.00000000000E+00  0.72810719688E+02  0.11067589244E+04  0.11043613158E+04 0.  0.
        4    1    3    3  502    0  0.25992494187E+03 -0.18849995001E+03 -0.41380112454E+03  0.52376157756E+03  0.12699999809E+01 0.  1.
       -4    1    3    3    0  502 -0.25992494187E+03  0.18849995001E+03  0.48661184423E+03  0.58299734682E+03  0.12699999809E+01 0. -1.
</event>
<event>
 5   0  0.1464205E-04  0.1100020E+04  0.7818609E-02  0.9205173E-01
        2   -1    0    0  501    0  0.00000000000E+00  0.00000000000E+00  0.51080619911E+03  0.51080619912E+03  0.25500000920E-02 0. -1.
       -2   -1    0    0    0  501  0.00000000000E+00  0.00000000000E+00 -0.59222232087E+03  0.59222232088E+03  0.25500000920E-02 0.  1.
    10030    2    1    2    0    0  0.00000000000E+00  0.00000000000E+00 -0.81416121762E+02  0.11030285200E+04  0.11000196958E+04 0.  0.
        3    1    3    3  502    0 -0.47448523600E+03  0.76890449224E+02 -0.30876386018E+03  0.57129984414E+03  0.10100000352E+00 0.  1.
       -3    1    3    3    0  502  0.47448523600E+03 -0.76890449224E+02  0.22734773842E+03  0.53172867585E+03  0.10100000352E+00 0. -1.
</event>
<event>
 5   0  0.1503277E-04  0.1100590E+04  0.7818609E-02  0.9204617E-01
        2   -1    0    0  501    0  0.00000000000E+00  0.00000000000E+00  0.13759456737E+04  0.13759456737E+04  0.25500000920E-02 0. -1.
       -2   -1    0    0    0  501  0.00000000000E+00  0.00000000000E+00 -0.22008458440E+03  0.22008458441E+03  0.25500000920E-02 0.  1.
    10030    2    1    2    0    0  0.00000000000E+00  0.00000000000E+00  0.11558610893E+04  0.15960302581E+04  0.11005897179E+04 0.  0.
        5    1    3    3  502    0  0.41866921016E+03 -0.29868721539E+03  0.29411256963E+03  0.59247131051E+03  0.46999998093E+01 0.  1.
       -5    1    3    3    0  502 -0.41866921016E+03  0.29868721539E+03  0.86174851969E+03  0.10035589476E+04  0.46999998093E+01 0. -1.
</event>
<event>
 5   0  0.9016738E-05  0.1099339E+04  0.7818609E-02  0.9205836E-01
        1   -1    0    0  501    0  0.00000000000E+00  0.00000000000E+00  0.44015881309E+03  0.44015881312E+03  0.50400001928E-02 0. -1.
       -1   -1    0    0    0  501  0.00000000000E+00  0.00000000000E+00 -0.68642675415E+03  0.68642675417E+03  0.50400001928E-02 0.  1.
    10030    2    1    2    0    0  0.00000000000E+00  0.00000000000E+00 -0.24626794106E+03  0.11265855673E+04  0.10993394115E+04 0.  0.
        4    1    3    3  502    0 -0.44501610740E+03  0.23800007969E+03  0.10009919884E+03  0.51449473883E+03  0.12699999809E+01 0. -1.
       -4    1    3    3    0  502  0.44501610740E+03 -0.23800007969E+03 -0.34636713990E+03  0.61209082846E+03  0.12699999809E+01 0.  1.
</event>
<event>
 5   0  0.8921459E-05  0.1100302E+04  0.7818609E-02  0.9204897E-01
       -1   -1    0    0    0  501  0.00000000000E+00  0.00000000000E+00  0.17211854111E+03  0.17211854118E+03  0.50400001928E-02 0.  1.
        1   -1    0    0  501    0  0.00000000000E+00  0.00000000000E+00 -0.17584760659E+04  0.17584760659E+04  0.50400001928E-02 0. -1.
    10030    2    1    2    0    0  0.00000000000E+00  0.00000000000E+00 -0.15863575248E+04  0.19305946071E+04  0.11003023859E+04 0.  0.
        3    1    3    3  502    0  0.16141726790E+03  0.37257484738E+03 -0.14445097046E+04  0.15004918687E+04  0.10100000352E+00 0. -1.
       -3    1    3    3    0  502 -0.16141726790E+03 -0.37257484738E+03 -0.14184782025E+03  0.43010273841E+03  0.10100000352E+00 0.  1.
</event>
<event>
 5   0  0.9346836E-05  0.1099932E+04  0.7818609E-02  0.9205258E-01
        1   -1    0    0  501    0  0.00000000000E+00  0.00000000000E+00  0.15177965633E+04  0.15177965633E+04  0.50400001928E-02 0.  1.
       -1   -1    0    0    0  501  0.00000000000E+00  0.00000000000E+00 -0.19927731228E+03  0.19927731234E+03  0.50400001928E-02 0. -1.
    10030    2    1    2    0    0  0.00000000000E+00  0.00000000000E+00  0.13185192510E+04  0.17170738756E+04  0.10999316702E+04 0.  0.
        5    1    3    3  502    0  0.36045954258E+03 -0.36649250451E+03  0.35418065477E+03  0.62427066559E+03  0.46999998093E+01 0. -1.
       -5    1    3    3    0  502 -0.36045954258E+03  0.36649250451E+03  0.96433859622E+03  0.10928032100E+04  0.46999998093E+01 0.  1.
</event>
<event>
 5   0  0.1553937E-04  0.1098886E+04  0.7818609E-02  0.9206278E-01
       -2   -1    0    0    0  501  0.00000000000E+00  0.00000000000E+00  0.60867325194E+03  0.60867325195E+03  0.25500000920E-02 0.  1.
        2   -1    0    0  501    0  0.00000000000E+00  0.00000000000E+00 -0.49597691092E+03  0.49597691093E+03  0.25500000920E-02 0. -1.
    10030    2    1    2    0    0  0.00000000000E+00  0.00000000000E+00  0.11269634102E+03  0.11046501629E+04  0.10988864896E+04 0.  0.
        1    1    3    3  502    0 -0.27954813979E+03 -0.13022921582E+03  0.51346510877E+03  0.59896012310E+03  0.50400001928E-02 0.  1.
       -1    1    3    3    0  502  0.27954813979E+03  0.13022921582E+03 -0.40076876775E+03  0.50569003979E+03  0.50400001928E-02 0. -1.
</event>
<event>
 5   0  0.1503277E-04  0.1099851E+04  0.7818609E-02  0.9205338E-01
       -2   -1    0    0    0  501  0.00000000000E+00  0.00000000000E+00  0.13965420790E+03  0.13965420792E+03  0.25500000920E-02 0. -1.
        2   -1    0    0  501    0  0.00000000000E+00  0.00000000000E+00 -0.21654759244E+04  0.21654759244E+04  0.25500000920E-02 0.  1.
    10030    2    1    2    0    0  0.00000000000E+00  0.00000000000E+00 -0.20258217165E+04  0.23051301323E+04  0.10998505807E+04 0.  0.
        5    1    3    3  502    0  0.47969738498E+03  0.26166189713E+03 -0.88338744892E+03  0.10387357722E+04  0.46999998093E+01 0. -1.
       -5    1    3    3    0  502 -0.47969738498E+03 -0.26166189713E+03 -0.11424342675E+04  0.12663943601E+04  0.46999998093E+01 0.  1.
</event>
<event>
 5   0  0.9346836E-05  0.1100265E+04  0.7818609E-02  0.9204933E-01
        1   -1    0    0  501    0  0.00000000000E+00  0.00000000000E+00  0.88801086327E+03  0.88801086328E+03  0.50400001928E-02 0.  1.
       -1   -1    0    0    0  501  0.00000000000E+00  0.00000000000E+00 -0.34081324596E+03  0.34081324600E+03  0.50400001928E-02 0. -1.
    10030    2    1    2    0    0  0.00000000000E+00  0.00000000000E+00  0.54719761731E+03  0.12288241093E+04  0.11002651767E+04 0.  0.
        5    1    3    3  502    0  0.41090120261E+03 -0.34347375743E+03  0.41402719905E+03  0.67694507303E+03  0.46999998093E+01 0.  1.
       -5    1    3    3    0  502 -0.41090120261E+03  0.34347375743E+03  0.13317041826E+03  0.55187903625E+03  0.46999998093E+01 0. -1.
</event>
<event>
 5   0  0.8657442E-05  0.1099736E+04  0.7818609E-02  0.9205450E-01
        1   -1    0    0  501    0  0.00000000000E+00  0.00000000000E+00  0.85096956920E+03  0.85096956921E+03  0.50400001928E-02 0.  1.
       -1   -1    0    0    0  501  0.00000000000E+00  0.00000000000E+00 -0.35530597859E+03  0.35530597863E+03  0.50400001928E-02 0. -1.
    10030    2    1    2    0    0  0.00000000000E+00  0.00000000000E+00  0.49566359061E+03  0.12062755478E+04  0.10997355602E+04 0.  0.
        1    1    3    3  502    0  0.48068834513E+03  0.73737974486E+02  0.52931723522E+03  0.71880130047E+03  0.50400001928E-02 0.  1.
       -1    1    3    3    0  502 -0.48068834513E+03 -0.73737974486E+02 -0.33653644612E+02  0.48747424737E+03  0.50400001928E-02 0. -1.
</event>
<event>
 5   0  0.1574101E-04  0.1107164E+04  0.7818609E-02  0.9198238E-01
       -2   -1    0    0    0  501  0.00000000000E+00  0.00000000000E+00  0.38553071083E+03  0.38553071084E+03  0.25500000920E-02 0.  1.
        2   -1    0    0  501    0  0.00000000000E+00  0.00000000000E+00 -0.79488588183E+03  0.79488588183E+03  0.25500000920E-02 0. -1.
    10030    2    1    2    0    0  0.00000000000E+00  0.00000000000E+00 -0.40935517100E+03  0.11804165927E+04  0.11071637983E+04 0.  0.
        4    1    3    3  502    0  0.50474758732E+03 -0.67790421532E+02 -0.43602660242E+03  0.67043752809E+03  0.12699999809E+01 0. -1.
       -4    1    3    3    0  502 -0.50474758732E+03  0.67790421532E+02  0.26671431422E+02  0.50997906458E+03  0.12699999809E+01 0.  1.
</event>
<event>
 5   0  0.9016738E-05  0.1100808E+04  0.7818609E-02  0.9204405E-01
       -1   -1    0    0    0  501  0.00000000000E+00  0.00000000000E+00  0.37210920197E+03  0.37210920200E+03  0.50400001928E-02 0.  1.
        1   -1    0    0  501    0  0.00000000000E+00  0.00000000000E+00 -0.81412783049E+03  0.81412783051E+03  0.50400001928E-02 0. -1.
    10030    2    1    2    0    0  0.00000000000E+00  0.00000000000E+00 -0.44201862853E+03  0.11862370325E+04  0.11008078076E+04 0.  0.
        4    1    3    3  502    0 -0.15619166691E+03  0.10506787212E+03  0.33634088520E+03  0.38543728221E+03  0.12699999809E+01 0.  1.
       -4    1    3    3    0  502  0.15619166691E+03 -0.10506787212E+03 -0.77835951373E+03  0.80079975030E+03  0.12699999809E+01 0. -1.
</event>
<event>
 5   0  0.1574101E-04  0.1099759E+04  0.7818609E-02  0.9205426E-01
       -2   -1    0    0    0  501  0.00000000000E+00  0.00000000000E+00  0.18532262311E+03  0.18532262312E+03  0.25500000920E-02 0. -1.
        2   -1    0    0  501    0  0.00000000000E+00  0.00000000000E+00 -0.16315748472E+04  0.16315748472E+04  0.25500000920E-02 0.  1.
    10030    2    1    2    0    0  0.00000000000E+00  0.00000000000E+00 -0.14462522241E+04  0.18168974703E+04  0.10997594837E+04 0.  0.
        4    1    3    3  502    0  0.36581672773E+03  0.28632186917E+03 -0.23705318890E+03  0.52153419669E+03  0.12699999809E+01 0. -1.
       -4    1    3    3    0  502 -0.36581672773E+03 -0.28632186917E+03 -0.12091990352E+04  0.12953632736E+04  0.12699999809E+01 0.  1.
</event>
<event>
 5   0  0.1553937E-04  0.1100925E+04  0.7818609E-02  0.9204290E-01
        2   -1    0    0  501    0  0.00000000000E+00  0.00000000000E+00  0.12673748756E+04  0.12673748756E+04  0.25500000920E-02 0.  1.
       -2   -1    0    0    0  501  0.00000000000E+00  0.00000000000E+00 -0.23908405939E+03  0.23908405940E+03  0.25500000920E-02 0. -1.
    10030    2    1    2    0    0  0.00000000000E+00  0.00000000000E+00  0.10282908162E+04  0.15064589350E+04  0.11009253018E+04 0.  0.
        1    1    3    3  502    0  0.71016577061E+02  0.24203096027E+02  0.12603455254E+04  0.12625767254E+04  0.50400001928E-02 0.  1.
       -1    1    3    3    0  502 -0.71016577061E+02 -0.24203096027E+02 -0.23205470920E+03  0.24388220961E+03  0.50400001928E-02 0. -1.
</event>
<event>
 5   0  0.1503277E-04  0.1100493E+04  0.7818609E-02  0.9204711E-01
       -2   -1    0    0    0  501  0.00000000000E+00  0.00000000000E+00  0.32805770418E+03  0.32805770419E+03  0.25500000920E-02 0. -1.
        2   -1    0    0  501    0  0.00000000000E+00  0.00000000000E+00 -0.92292064651E+03  0.92292064652E+03  0.25500000920E-02 0.  1.
    10030    2    1    2    0    0  0.00000000000E+00  0.00000000000E+00 -0.59486294233E+03  0.12509783507E+04  0.11004930321E+04 0.  0.
        5    1    3    3  502    0 -0.10893017652E+03  0.42579189006E+03  0.78871201298E+02  0.44655041528E+03  0.46999998093E+01 0. -1.
       -5    1    3    3    0  502  0.10893017652E+03 -0.42579189006E+03 -0.67373414363E+03  0.80442793542E+03  0.46999998093E+01 0.  1.
</event>
<event>
 5   0  0.8657442E-05  0.1099338E+04  0.7818609E-02  0.9205837E-01
        1   -1    0    0  501    0  0.00000000000E+00  0.00000000000E+00  0.76678223196E+03  0.76678223198E+03  0.50400001928E-02 0.  1.
       -1   -1    0    0    0  501  0.00000000000E+00  0.00000000000E+00 -0.39403095952E+03  0.39403095955E+03  0.50400001928E-02 0. -1.
    10030    2    1    2    0    0  0.00000000000E+00  0.00000000000E+00  0.37275127244E+03  0.11608131915E+04  0.10993378710E+04 0.  0.
        1    1    3    3  502    0  0.13767942880E+02 -0.52127823242E+03  0.36992176301E+03  0.63934549550E+03  0.50400001928E-02 0.  1.
       -1    1    3    3    0  502 -0.13767942880E+02  0.52127823242E+03  0.28295094315E+01  0.52146769602E+03  0.50400001928E-02 0. -1.
</event>
<event>
 5   0  0.9346836E-05  0.1100239E+04  0.7818609E-02  0.9204959E-01
       -1   -1    0    0    0  501  0.00000000000E+00  0.00000000000E+00  0.26474481107E+03  0.26474481112E+03  0.50400001928E-02 0. -1.
        1   -1    0    0  501    0  0.00000000000E+00  0.00000000000E+00 -0.11431061061E+04  0.11431061061E+04  0.50400001928E-02 0.  1.
    10030    2    1    2    0    0  0.00000000000E+00  0.00000000000E+00 -0.87836129503E+03  0.14078509172E+04  0.11002389016E+04 0.  0.
        5    1    3    3  502    0 -0.46799516909E+03  0.28769261891E+03 -0.40247638386E+03  0.68102558750E+03  0.46999998093E+01 0.  1.
       -5    1    3    3    0  502  0.46799516909E+03 -0.28769261891E+03 -0.47588491116E+03  0.72682532973E+03  0.46999998093E+01 0. -1.
</event>
<event>
 5   0  0.1574101E-04  0.1099617E+04  0.7818609E-02  0.9205565E-01
       -2   -1    0    0    0  501  0.00000000000E+00  0.00000000000E+00  0.43157519175E+03  0.43157519175E+03  0.25500000920E-02 0.  1.
        2   -1    0    0  501    0  0.00000000000E+00  0.00000000000E+00 -0.70043251652E+03  0.70043251653E+03  0.25500000920E-02 0. -1.
    10030    2    1    2    0    0  0.00000000000E+00  0.00000000000E+00 -0.26885732478E+03  0.11320077083E+04  0.10996168380E+04 0.  0.
        4    1    3    3  502    0  0.17489200062E+03  0.52010881508E+03 -0.98956552915E+02  0.55757905598E+03  0.12699999809E+01 0.  1.
       -4    1    3    3    0  502 -0.17489200062E+03 -0.52010881508E+03 -0.16990077186E+03  0.57442865230E+03  0.12699999809E+01 0. -1.
</event>
<event>
 5   0  0.6010125E-05  0.1097437E+04  0.7818609E-02  0.9207693E-01
       -3   -1    0    0    0  501  0.00000000000E+00  0.00000000000E+00  0.23821298361E+03  0.23821300503E+03  0.10100000352E+00 0. -1.
        3   -1    0    0  501    0  0.00000000000E+00  0.00000000000E+00 -0.12639614890E+04  0.12639614930E+04  0.10100000352E+00 0.  1.
    10030    2    1    2    0    0  0.00000000000E+00  0.00000000000E+00 -0.10257485054E+04  0.15021744980E+04  0.10974371172E+04 0.  0.
        5    1    3    3  502    0  0.34090786345E+03  0.49338371808E+02  0.71746212284E+02  0.35188358198E+03  0.46999998093E+01 0. -1.
       -5    1    3    3    0  502 -0.34090786345E+03 -0.49338371808E+02 -0.10974947176E+04  0.11502909161E+04  0.46999998093E+01 0.  1.
</event>
<event>
 5   0  0.9016738E-05  0.1099808E+04  0.7818609E-02  0.9205379E-01
        1   -1    0    0  501    0  0.00000000000E+00  0.00000000000E+00  0.39616988009E+03  0.39616988012E+03  0.50400001928E-02 0. -1.
       -1   -1    0    0    0  501  0.00000000000E+00  0.00000000000E+00 -0.76329540269E+03  0.76329540270E+03  0.50400001928E-02 0.  1.
    10030    2    1    2    0    0  0.00000000000E+00  0.00000000000E+00 -0.36712552260E+03  0.11594652828E+04  0.10998084346E+04 0.  0.
        4    1    3    3  502    0  0.27022540689E+03 -0.15639115923E+03  0.29366481744E+03  0.42862641439E+03  0.12699999809E+01 0. -1.
       -4    1    3    3    0  502 -0.27022540689E+03  0.15639115923E+03 -0.66079034004E+03  0.73083886843E+03  0.12699999809E+01 0.  1.
</event>
<event>
 5   0  0.1574101E-04  0.1099368E+04  0.7818609E-02  0.9205808E-01
        2   -1    0    0  501    0  0.00000000000E+00  0.00000000000E+00  0.96817413795E+03  0.96817413795E+03  0.25500000920E-02 0. -1.
       -2   -1    0    0    0  501  0.00000000000E+00  0.00000000000E+00 -0.31208494336E+03  0.31208494337E+03  0.25500000920E-02 0.  1.
    10030    2    1    2    0    0  0.00000000000E+00  0.00000000000E+00  0.65608919459E+03  0.12802590813E+04  0.10993681294E+04 0.  0.
        4    1    3    3  502    0 -0.45258786171E+03  0.30114275747E+03  0.23323477136E+03  0.59154273253E+03  0.12699999809E+01 0.  1.
       -4    1    3    3    0  502  0.45258786171E+03 -0.30114275747E+03  0.42285442323E+03  0.68871634879E+03  0.12699999809E+01 0. -1.
</event>
<event>
 5   0  0.6010125E-05  0.1099096E+04  0.7818609E-02  0.9206074E-01
       -4   -1    0    0    0  501  0.00000000000E+00  0.00000000000E+00  0.89142275717E+03  0.89142366184E+03  0.12699999809E+01 0. -1.
        4   -1    0    0  501    0  0.00000000000E+00  0.00000000000E+00 -0.33878506092E+03  0.33878744133E+03  0.12699999809E+01 0.  1.
    10030    2    1    2    0    0  0.00000000000E+00  0.00000000000E+00  0.55263769625E+03  0.12302111032E+04  0.10990955077E+04 0.  0.
        3    1    3    3  502    0 -0.36587847645E+03  0.38528034714E+03  0.11923949849E+03  0.54454207700E+03  0.10100000352E+00 0. -1.
       -3    1    3    3    0  502  0.36587847645E+03 -0.38528034714E+03  0.43339819777E+03  0.68566902617E+03  0.10100000352E+00 0.  1.
</event>
<event>
 5   0  0.1553937E-04  0.1100071E+04  0.7818609E-02  0.9205123E-01
        2   -1    0    0  501    0  0.00000000000E+00  0.00000000000E+00  0.64779527424E+03  0.64779527425E+03  0.25500000920E-02 0.  1.
       -2   -1    0    0    0  501  0.00000000000E+00  0.00000000000E+00 -0.46702852175E+03  0.46702852176E+03  0.25500000920E-02 0. -1.
    10030    2    1    2    0    0  0.00000000000E+00  0.00000000000E+00  0.18076675249E+03  0.11148237960E+04  0.11000706693E+04 0.  0.
        1    1    3    3  502    0 -0.39825562052E+02 -0.34760380785E+03  0.52048581226E+03  0.62715226494E+03  0.50400001928E-02 0.  1.
       -1    1    3    3    0  502  0.39825562052E+02  0.34760380785E+03 -0.33971905977E+03  0.48767153107E+03  0.50400001928E-02 0. -1.
</event>
<event>
 5   0  0.8657442E-05  0.1099661E+04  0.7818609E-02  0.9205523E-01
        1   -1    0    0  501    0  0.00000000000E+00  0.00000000000E+00  0.10997704570E+04  0.10997704570E+04  0.50400001928E-02 0.  1.
       -1   -1    0    0    0  501  0.00000000000E+00  0.00000000000E+00 -0.27488768761E+03  0.27488768765E+03  0.50400001928E-02 0. -1.
    10030    2    1    2    0    0  0.00000000000E+00  0.00000000000E+00  0.82488276939E+03  0.13746581447E+04  0.10996605983E+04 0.  0.
        1    1    3    3  502    0  0.15750773396E+03 -0.93635055674E+01  0.10708607229E+04  0.10824227684E+04  0.50400001928E-02 0.  1.
       -1    1    3    3    0  502 -0.15750773396E+03  0.93635055674E+01 -0.24597795356E+03  0.29223537629E+03  0.50400001928E-02 0. -1.
</event>
<event>
 5   0  0.9016738E-05  0.1100058E+04  0.7818609E-02  0.9205136E-01
       -1   -1    0    0    0  501  0.00000000000E+00  0.00000000000E+00  0.28533025456E+03  0.28533025460E+03  0.50400001928E-02 0.  1.
        1   -1    0    0  501    0  0.00000000000E+00  0.00000000000E+00 -0.10602864575E+04  0.10602864575E+04  0.50400001928E-02 0. -1.
    10030    2    1    2    0    0  0.00000000000E+00  0.00000000000E+00 -0.77495620298E+03  0.13456167122E+04  0.11000578255E+04 0.  0.
        4    1    3    3  502    0 -0.50687936973E+03  0.21323811938E+03 -0.40158505544E+03  0.68093271375E+03  0.12699999809E+01 0. -1.
       -4    1    3    3    0  502  0.50687936973E+03 -0.21323811938E+03 -0.37337114754E+03  0.66468399840E+03  0.12699999809E+01 0.  1.
</event>
<event>
 5   0  0.8921459E-05  0.1100329E+04  0.7818609E-02  0.9204871E-01
        1   -1    0    0  501    0  0.00000000000E+00  0.00000000000E+00  0.18070937588E+03  0.18070937595E+03  0.50400001928E-02 0. -1.
       -1   -1    0    0    0  501  0.00000000000E+00  0.00000000000E+00 -0.16749614980E+04  0.16749614980E+04  0.50400001928E-02 0.  1.
    10030    2    1    2    0    0  0.00000000000E+00  0.00000000000E+00 -0.14942521221E+04  0.18556708740E+04  0.11003294907E+04 0.  0.
        3    1    3    3  502    0 -0.11868912247E+03 -0.50978536419E+03 -0.46135544538E+03  0.69772278343E+03  0.10100000352E+00 0. -1.
       -3    1    3    3    0  502  0.11868912247E+03  0.50978536419E+03 -0.10328966768E+04  0.11579480905E+04  0.10100000352E+00 0.  1.
</event>
<event>
 5   0  0.1464205E-04  0.1100319E+04  0.7818609E-02  0.9204881E-01
       -2   -1    0    0    0  501  0.00000000000E+00  0.00000000000E+00  0.16594931866E+03  0.16594931868E+03  0.25500000920E-02 0. -1.
        2   -1    0    0  501    0  0.00000000000E+00  0.00000000000E+00 -0.18239040996E+04  0.18239040996E+04  0.25500000920E-02 0.  1.
    10030    2    1    2    0    0  0.00000000000E+00  0.00000000000E+00 -0.16579547810E+04  0.19898534183E+04  0.11003193039E+04 0.  0.
        3    1    3    3  502    0  0.11875787101E+03 -0.13506464318E+03  0.11128544079E+03  0.21149550656E+03  0.10100000352E+00 0. -1.
       -3    1    3    3    0  502 -0.11875787101E+03  0.13506464318E+03 -0.17692402218E+04  0.17783579118E+04  0.10100000352E+00 0.  1.
</event>
<event>
 5   0  0.1540772E-04  0.1100045E+04  0.7818609E-02  0.9205148E-01
        2   -1    0    0  501    0  0.00000000000E+00  0.00000000000E+00  0.53787253193E+03  0.53787253193E+03  0.25500000920E-02 0. -1.
       -2   -1    0    0    0  501  0.00000000000E+00  0.00000000000E+00 -0.56244728070E+03  0.56244728071E+03  0.25500000920E-02 0.  1.
    10030    2    1    2    0    0  0.00000000000E+00  0.00000000000E+00 -0.24574748776E+02  0.11003198126E+04  0.11000453499E+04 0.  0.
        2    1    3    3  502    0 -0.38592060338E+03  0.32236352285E+03  0.21064037066E+03  0.54518099631E+03  0.25500000920E-02 0. -1.
       -2    1    3    3    0  502  0.38592060338E+03 -0.32236352285E+03 -0.23521511944E+03  0.55513881633E+03  0.25500000920E-02 0.  1.
</event>
<event>
 5   0  0.8621738E-05  0.1100290E+04  0.7818609E-02  0.9204909E-01
        1   -1    0    0  501    0  0.00000000000E+00  0.00000000000E+00  0.43298029925E+03  0.43298029928E+03  0.50400001928E-02 0. -1.
       -1   -1    0    0    0  501  0.00000000000E+00  0.00000000000E+00 -0.69901484252E+03  0.69901484254E+03  0.50400001928E-02 0.  1.
    10030    2    1    2    0    0  0.00000000000E+00  0.00000000000E+00 -0.26603454327E+03  0.11319951418E+04  0.11002902448E+04 0.  0.
        2    1    3    3  502    0 -0.44798555695E+02 -0.42463543432E+03 -0.48991006654E+03  0.64987232283E+03  0.25500000920E-02 0.  1.
       -2    1    3    3    0  502  0.44798555695E+02  0.42463543432E+03  0.22387552327E+03  0.48212281900E+03  0.25500000920E-02 0. -1.
</event>
<event>
 5   0  0.1553937E-04  0.1100240E+04  0.7818609E-02  0.9204958E-01
       -2   -1    0    0    0  501  0.00000000000E+00  0.00000000000E+00  0.56641868099E+03  0.56641868100E+03  0.25500000920E-02 0.  1.
        2   -1    0    0  501    0  0.00000000000E+00  0.00000000000E+00 -0.53428987657E+03  0.53428987657E+03  0.25500000920E-02 0. -1.
    10030    2    1    2    0    0  0.00000000000E+00  0.00000000000E+00  0.32128804427E+02  0.11007085576E+04  0.11002395506E+04 0.  0.
        1    1    3    3  502    0  0.31539965802E+03 -0.28291841552E+03  0.36708715796E+03  0.56060035291E+03  0.50400001928E-02 0.  1.
       -1    1    3    3    0  502 -0.31539965802E+03  0.28291841552E+03 -0.33495835353E+03  0.54010820466E+03  0.50400001928E-02 0. -1.
</event>
<event>
 5   0  0.1503277E-04  0.1099820E+04  0.7818609E-02  0.9205367E-01
       -2   -1    0    0    0  501  0.00000000000E+00  0.00000000000E+00  0.71568951729E+03  0.71568951729E+03  0.25500000920E-02 0.  1.
        2   -1    0    0  501    0  0.00000000000E+00  0.00000000000E+00 -0.42253122591E+03  0.42253122592E+03  0.25500000920E-02 0. -1.
    10030    2    1    2    0    0  0.00000000000E+00  0.00000000000E+00  0.29315829138E+03  0.11382207432E+04  0.10998202928E+04 0.  0.
        5    1    3    3  502    0  0.36800451330E+03 -0.19375083013E+02  0.56896703324E+03  0.67789991191E+03  0.46999998093E+01 0.  1.
       -5    1    3    3    0  502 -0.36800451330E+03  0.19375083013E+02 -0.27580874186E+03  0.46032083131E+03  0.46999998093E+01 0. -1.
</event>
<event>
 5   0  0.9016738E-05  0.1099586E+04  0.7818609E-02  0.9205595E-01
       -1   -1    0    0    0  501  0.00000000000E+00  0.00000000000E+00  0.28226615263E+03  0.28226615267E+03  0.50400001928E-02 0.  1.
        1   -1    0    0  501    0  0.00000000000E+00  0.00000000000E+00 -0.10708775497E+04  0.10708775497E+04  0.50400001928E-02 0. -1.
    10030    2    1    2    0    0  0.00000000000E+00  0.00000000000E+00 -0.78861139710E+03  0.13531437024E+04  0.10995862602E+04 0.  0.
        4    1    3    3  502    0  0.53630514581E+02 -0.18877482539E+03 -0.10263070662E+04  0.10449018967E+04  0.12699999809E+01 0. -1.
       -4    1    3    3    0  502 -0.53630514581E+02  0.18877482539E+03  0.23769566906E+03  0.30824180570E+03  0.12699999809E+01 0.  1.
</event>
<event>
 5   0  0.1553937E-04  0.1099560E+04  0.7818609E-02  0.9205621E-01
        2   -1    0    0  501    0  0.00000000000E+00  0.00000000000E+00  0.15330553261E+04  0.15330553261E+04  0.25500000920E-02 0. -1.
       -2   -1    0    0    0  501  0.00000000000E+00  0.00000000000E+00 -0.19716043420E+03  0.19716043422E+03  0.25500000920E-02 0.  1.
    10030    2    1    2    0    0  0.00000000000E+00  0.00000000000E+00  0.13358948919E+04  0.17302157603E+04  0.10995596460E+04 0.  0.
        1    1    3    3  502    0 -0.47783984745E+03 -0.29460324596E+02  0.10932699887E+04  0.11934982609E+04  0.50400001928E-02 0. -1.
       -1    1    3    3    0  502  0.47783984745E+03  0.29460324596E+02  0.24262490324E+03  0.53671749947E+03  0.50400001928E-02 0.  1.
</event>
<event>
 5   0  0.8657442E-05  0.1099725E+04  0.7818609E-02  0.9205460E-01
        1   -1    0    0  501    0  0.00000000000E+00  0.00000000000E+00  0.11230353182E+04  0.11230353182E+04  0.50400001928E-02 0.  1.
       -1   -1    0    0    0  501  0.00000000000E+00  0.00000000000E+00 -0.26922450687E+03  0.26922450692E+03  0.50400001928E-02 0. -1.
    10030    2    1    2    0    0  0.00000000000E+00  0.00000000000E+00  0.85381081136E+03  0.13922598252E+04  0.10997247470E+04 0.  0.
        1    1    3    3  502    0  0.38252796283E+03 -0.11241585822E+03  0.90629226773E+03  0.99011647906E+03  0.50400001928E-02 0.  1.
       -1    1    3    3    0  502 -0.38252796283E+03  0.11241585822E+03 -0.52481456373E+02  0.40214334610E+03  0.50400001928E-02 0. -1.
</event>
<event>
 5   0  0.1553937E-04  0.1099573E+04  0.7818609E-02  0.9205608E-01
        2   -1    0    0  501    0  0.00000000000E+00  0.00000000000E+00  0.12635298445E+04  0.12635298445E+04  0.25500000920E-02 0.  1.
       -2   -1    0    0    0  501  0.00000000000E+00  0.00000000000E+00 -0.23922289547E+03  0.23922289548E+03  0.25500000920E-02 0. -1.
    10030    2    1    2    0    0  0.00000000000E+00  0.00000000000E+00  0.10243069490E+04  0.15027527400E+04  0.10995731316E+04 0.  0.
        1    1    3    3  502    0 -0.15193355490E+03  0.25062573398E+03  0.11478650650E+04  0.11846903693E+04  0.50400001928E-02 0.  1.
       -1    1    3    3    0  502  0.15193355490E+03 -0.25062573398E+03 -0.12355811592E+03  0.31806237073E+03  0.50400001928E-02 0. -1.
</event>
<event>
 5   0  0.8621738E-05  0.1096829E+04  0.7818609E-02  0.9208288E-01
       -1   -1    0    0    0  501  0.00000000000E+00  0.00000000000E+00  0.31060293408E+03  0.31060293412E+03  0.50400001928E-02 0. -1.
        1   -1    0    0  501    0  0.00000000000E+00  0.00000000000E+00 -0.96830570631E+03  0.96830570632E+03  0.50400001928E-02 0.  1.
    10030    2    1    2    0    0  0.00000000000E+00  0.00000000000E+00 -0.65770277223E+03  0.12789086404E+04  0.10968292365E+04 0.  0.
        2    1    3    3  502    0  0.19350760237E+03  0.50095900056E+03 -0.45844845537E+03  0.70610204549E+03  0.25500000920E-02 0.  1.
       -2    1    3    3    0  502 -0.19350760237E+03 -0.50095900056E+03 -0.19925431687E+03  0.57280659495E+03  0.25500000920E-02 0. -1.
</event>
<event>
 5   0  0.1540772E-04  0.1100685E+04  0.7818609E-02  0.9204525E-01
       -2   -1    0    0    0  501  0.00000000000E+00  0.00000000000E+00  0.32353729680E+03  0.32353729681E+03  0.25500000920E-02 0. -1.
        2   -1    0    0  501    0  0.00000000000E+00  0.00000000000E+00 -0.93614174729E+03  0.93614174729E+03  0.25500000920E-02 0.  1.
    10030    2    1    2    0    0  0.00000000000E+00  0.00000000000E+00 -0.61260445049E+03  0.12596790441E+04  0.11006848238E+04 0.  0.
        2    1    3    3  502    0 -0.33456453093E+03 -0.35848705150E+03 -0.20349057875E+02  0.49077538204E+03  0.25500000920E-02 0. -1.
       -2    1    3    3    0  502  0.33456453093E+03  0.35848705150E+03 -0.59225539261E+03  0.76890366206E+03  0.25500000920E-02 0.  1.
</event>
<event>
 5   0  0.1540772E-04  0.1099718E+04  0.7818609E-02  0.9205467E-01
        2   -1    0    0  501    0  0.00000000000E+00  0.00000000000E+00  0.70912662707E+03  0.70912662707E+03  0.25500000920E-02 0.  1.
       -2   -1    0    0    0  501  0.00000000000E+00  0.00000000000E+00 -0.42636229884E+03  0.42636229885E+03  0.25500000920E-02 0. -1.
    10030    2    1    2    0    0  0.00000000000E+00  0.00000000000E+00  0.28276432823E+03  0.11354889259E+04  0.10997178891E+04 0.  0.
        2    1    3    3  502    0  0.43644337481E+03  0.56861462594E+02 -0.19892738165E+03  0.48299911855E+03  0.25500000920E-02 0. -1.
       -2    1    3    3    0  502 -0.43644337481E+03 -0.56861462594E+02  0.48169170987E+03  0.65248980736E+03  0.25500000920E-02 0.  1.
</event>
<event>
 5   0  0.9016738E-05  0.1100013E+04  0.7818609E-02  0.9205179E-01
        1   -1    0    0  501    0  0.00000000000E+00  0.00000000000E+00  0.14609733989E+04  0.14609733989E+04  0.50400001928E-02 0.  1.
       -1   -1    0    0    0  501  0.00000000000E+00  0.00000000000E+00 -0.20705853484E+03  0.20705853490E+03  0.50400001928E-02 0. -1.
    10030    2    1    2    0    0  0.00000000000E+00  0.00000000000E+00  0.12539148641E+04  0.16680319338E+04  0.11000127481E+04 0.  0.
        4    1    3    3  502    0  0.24547300491E+02 -0.40995367833E+02  0.14578178126E+04  0.14586012401E+04  0.12699999809E+01 0.  1.
       -4    1    3    3    0  502 -0.24547300491E+02  0.40995367833E+02 -0.20390294851E+03  0.20943069368E+03  0.12699999809E+01 0. -1.
</event>
<event>
 5   0  0.9346836E-05  0.1100124E+04  0.7818609E-02  0.9205071E-01
       -1   -1    0    0    0  501  0.00000000000E+00  0.00000000000E+00  0.34896516447E+03  0.34896516451E+03  0.50400001928E-02 0. -1.
        1   -1    0    0  501    0  0.00000000000E+00  0.00000000000E+00 -0.86704471716E+03  0.86704471718E+03  0.50400001928E-02 0.  1.
    10030    2    1    2    0    0  0.00000000000E+00  0.00000000000E+00 -0.51807955269E+03  0.12160098817E+04  0.11001243609E+04 0.  0.
        5    1    3    3  502    0 -0.38856244806E+03 -0.50034376708E+01 -0.68932822084E+03  0.79132881691E+03  0.46999998093E+01 0.  1.
       -5    1    3    3    0  502  0.38856244806E+03  0.50034376708E+01  0.17124866815E+03  0.42468106477E+03  0.46999998093E+01 0. -1.
</event>
<event>
 5   0  0.6010125E-05  0.1100175E+04  0.7818609E-02  0.9205021E-01
        4   -1    0    0  501    0  0.00000000000E+00  0.00000000000E+00  0.27836144831E+03  0.27836434542E+03  0.12699999809E+01 0.  1.
       -4   -1    0    0    0  501  0.00000000000E+00  0.00000000000E+00 -0.10870537056E+04  0.10870544474E+04  0.12699999809E+01 0. -1.
    10030    2    1    2    0    0  0.00000000000E+00  0.00000000000E+00 -0.80869225725E+03  0.13654187928E+04  0.11001751283E+04 0.  0.
        1    1    3    3  502    0  0.17579483617E+03 -0.37777658331E+03  0.41372504187E+02  0.41872503561E+03  0.50400001928E-02 0.  1.
       -1    1    3    3    0  502 -0.17579483617E+03  0.37777658331E+03 -0.85006476143E+03  0.94669375723E+03  0.50400001928E-02 0. -1.
</event>
<event>
 5   0  0.1464205E-04  0.1100260E+04  0.7818609E-02  0.9204939E-01
        2   -1    0    0  501    0  0.00000000000E+00  0.00000000000E+00  0.37029263666E+03  0.37029263667E+03  0.25500000920E-02 0. -1.
       -2   -1    0    0    0  501  0.00000000000E+00  0.00000000000E+00 -0.81730757536E+03  0.81730757536E+03  0.25500000920E-02 0.  1.
    10030    2    1    2    0    0  0.00000000000E+00  0.00000000000E+00 -0.44701493870E+03  0.11876002120E+04  0.11002599276E+04 0.  0.
        3    1    3    3  502    0 -0.54914759537E+02  0.53060476922E+03 -0.78348053364E+02  0.53916183063E+03  0.10100000352E+00 0. -1.
       -3    1    3    3    0  502  0.54914759537E+02 -0.53060476922E+03 -0.36866688533E+03  0.64843838140E+03  0.10100000352E+00 0.  1.
</event>
<event>
 5   0  0.6010125E-05  0.1099947E+04  0.7818609E-02  0.9205244E-01
       -4   -1    0    0    0  501  0.00000000000E+00  0.00000000000E+00  0.62629777424E+03  0.62629906189E+03  0.12699999809E+01 0.  1.
        4   -1    0    0  501    0  0.00000000000E+00  0.00000000000E+00 -0.48294791418E+03  0.48294958402E+03  0.12699999809E+01 0. -1.
    10030    2    1    2    0    0  0.00000000000E+00  0.00000000000E+00  0.14334986006E+03  0.11092486459E+04  0.10999469878E+04 0.  0.
        5    1    3    3  502    0 -0.32191848716E+03  0.44557703476E+03  0.54850087624E+02  0.55245002343E+03  0.46999998093E+01 0.  1.
       -5    1    3    3    0  502  0.32191848716E+03 -0.44557703476E+03  0.88499772440E+02  0.55679862248E+03  0.46999998093E+01 0. -1.
</event>
<event>
 5   0  0.8657442E-05  0.1100183E+04  0.7818609E-02  0.9205013E-01
       -1   -1    0    0    0  501  0.00000000000E+00  0.00000000000E+00  0.42410234084E+03  0.42410234087E+03  0.50400001928E-02 0.  1.
        1   -1    0    0  501    0  0.00000000000E+00  0.00000000000E+00 -0.71350903472E+03  0.71350903474E+03  0.50400001928E-02 0. -1.
    10030    2    1    2    0    0  0.00000000000E+00  0.00000000000E+00 -0.28940669388E+03  0.11376113756E+04  0.11001833517E+04 0.  0.
        1    1    3    3  502    0 -0.34583946468E+03  0.20474099293E+03  0.24367680777E+03  0.47000233636E+03  0.50400001928E-02 0.  1.
       -1    1    3    3    0  502  0.34583946468E+03 -0.20474099293E+03 -0.53308350165E+03  0.66760903924E+03  0.50400001928E-02 0. -1.
</event>
<event>
 5   0  0.1553937E-04  0.1099042E+04  0.7818609E-02  0.9206126E-01
        2   -1    0    0  501    0  0.00000000000E+00  0.00000000000E+00  0.15806145819E+04  0.15806145819E+04  0.25500000920E-02 0. -1.
       -2   -1    0    0    0  501  0.00000000000E+00  0.00000000000E+00 -0.19104795679E+03  0.19104795680E+03  0.25500000920E-02 0.  1.
    10030    2    1    2    0    0  0.00000000000E+00  0.00000000000E+00  0.13895666251E+04  0.17716625387E+04  0.10990417396E+04 0.  0.
        1    1    3    3  502    0  0.48985973664E+03  0.37059546856E+02  0.10917338900E+04  0.11971711900E+04  0.50400001928E-02 0. -1.
       -1    1    3    3    0  502 -0.48985973664E+03 -0.37059546856E+02  0.29783273511E+03  0.57449134870E+03  0.50400001928E-02 0.  1.
</event>
<event>
 5   0  0.9346836E-05  0.1099447E+04  0.7818609E-02  0.9205731E-01
        1   -1    0    0  501    0  0.00000000000E+00  0.00000000000E+00  0.59488239050E+03  0.59488239052E+03  0.50400001928E-02 0.  1.
       -1   -1    0    0    0  501  0.00000000000E+00  0.00000000000E+00 -0.50799240784E+03  0.50799240787E+03  0.50400001928E-02 0. -1.
    10030    2    1    2    0    0  0.00000000000E+00  0.00000000000E+00  0.86889982660E+02  0.11028747984E+04  0.10994466571E+04 0.  0.
        5    1    3    3  502    0  0.23275355955E+03  0.47650982108E+03  0.18859523496E+03  0.56287306004E+03  0.46999998093E+01 0. -1.
       -5    1    3    3    0  502 -0.23275355955E+03 -0.47650982108E+03 -0.10170525230E+03  0.54000173835E+03  0.46999998093E+01 0.  1.
</event>
<event>
 5   0  0.9346836E-05  0.1100061E+04  0.7818609E-02  0.9205133E-01
       -1   -1    0    0    0  501  0.00000000000E+00  0.00000000000E+00  0.14911667253E+03  0.14911667261E+03  0.50400001928E-02 0. -1.
        1   -1    0    0  501    0  0.00000000000E+00  0.00000000000E+00 -0.20288371884E+04  0.20288371884E+04  0.50400001928E-02 0.  1.
    10030    2    1    2    0    0  0.00000000000E+00  0.00000000000E+00 -0.18797205158E+04  0.21779538610E+04  0.11000608178E+04 0.  0.
        5    1    3    3  502    0 -0.10319964849E+03  0.42301130986E+03 -0.27455269304E+03  0.51477180088E+03  0.46999998093E+01 0. -1.
       -5    1    3    3    0  502  0.10319964849E+03 -0.42301130986E+03 -0.16051678228E+04  0.16631820601E+04  0.46999998093E+01 0.  1.
</event>
<event>
 5   0  0.1540772E-04  0.1099830E+04  0.7818609E-02  0.9205358E-01
       -2   -1    0    0    0  501  0.00000000000E+00  0.00000000000E+00  0.18277110444E+03  0.18277110445E+03  0.25500000920E-02 0.  1.
        2   -1    0    0  501    0  0.00000000000E+00  0.00000000000E+00 -0.16545630921E+04  0.16545630921E+04  0.25500000920E-02 0. -1.
    10030    2    1    2    0    0  0.00000000000E+00  0.00000000000E+00 -0.14717919877E+04  0.18373341965E+04  0.10998296663E+04 0.  0.
        2    1    3    3  502    0  0.16305917604E+03  0.99079572591E+02  0.12570180539E+03  0.22848632449E+03  0.25500000920E-02 0.  1.
       -2    1    3    3    0  502 -0.16305917604E+03 -0.99079572591E+02 -0.15974937930E+04  0.16088478721E+04  0.25500000920E-02 0. -1.
</event>
<event>
 5   0  0.1540772E-04  0.1100017E+04  0.7818609E-02  0.9205175E-01
        2   -1    0    0  501    0  0.00000000000E+00  0.00000000000E+00  0.45415032550E+03  0.45415032551E+03  0.25500000920E-02 0. -1.
       -2   -1    0    0    0  501  0.00000000000E+00  0.00000000000E+00 -0.66609986219E+03  0.66609986219E+03  0.25500000920E-02 0.  1.
    10030    2    1    2    0    0  0.00000000000E+00  0.00000000000E+00 -0.21194953669E+03  0.11202501877E+04  0.11000172167E+04 0.  0.
        2    1    3    3  502    0  0.36072203193E+03 -0.29644936424E+02  0.31578058024E+03  0.48032965912E+03  0.25500000920E-02 0. -1.
       -2    1    3    3    0  502 -0.36072203193E+03  0.29644936424E+02 -0.52773011692E+03  0.63992052857E+03  0.25500000920E-02 0.  1.
</event>
<event>
 5   0  0.8657442E-05  0.1100026E+04  0.7818609E-02  0.9205167E-01
        1   -1    0    0  501    0  0.00000000000E+00  0.00000000000E+00  0.12694731340E+04  0.12694731340E+04  0.50400001928E-02 0.  1.
       -1   -1    0    0    0  501  0.00000000000E+00  0.00000000000E+00 -0.23829901994E+03  0.23829901999E+03  0.50400001928E-02 0. -1.
    10030    2    1    2    0    0  0.00000000000E+00  0.00000000000E+00  0.10311741141E+04  0.15077721540E+04  0.11000258246E+04 0.  0.
        1    1    3    3  502    0 -0.19184991889E+03  0.27953442478E+02  0.12210845433E+04  0.12363798964E+04  0.50400001928E-02 0.  1.
       -1    1    3    3    0  502  0.19184991889E+03 -0.27953442478E+02 -0.18991042924E+03  0.27139225759E+03  0.50400001928E-02 0. -1.
</event>
<event>
 5   0  0.1503277E-04  0.1100988E+04  0.7818609E-02  0.9204229E-01
       -2   -1    0    0    0  501  0.00000000000E+00  0.00000000000E+00  0.11536721936E+03  0.11536721939E+03  0.25500000920E-02 0.  1.
        2   -1    0    0  501    0  0.00000000000E+00  0.00000000000E+00 -0.26267744513E+04  0.26267744513E+04  0.25500000920E-02 0. -1.
    10030    2    1    2    0    0  0.00000000000E+00  0.00000000000E+00 -0.25114072320E+04  0.27421416707E+04  0.11009880369E+04 0.  0.
        5    1    3    3  502    0  0.68212796323E+02  0.51684690470E+03 -0.16959015161E+04  0.17742287764E+04  0.46999998093E+01 0. -1.
       -5    1    3    3    0  502 -0.68212796323E+02 -0.51684690470E+03 -0.81550571581E+03  0.96791289433E+03  0.46999998093E+01 0.  1.
</event>
<event>
 5   0  0.9016738E-05  0.1100292E+04  0.7818609E-02  0.9204908E-01
        1   -1    0    0  501    0  0.00000000000E+00  0.00000000000E+00  0.60095856451E+03  0.60095856453E+03  0.50400001928E-02 0. -1.
       -1   -1    0    0    0  501  0.00000000000E+00  0.00000000000E+00 -0.50362937474E+03  0.50362937476E+03  0.50400001928E-02 0.  1.
    10030    2    1    2    0    0  0.00000000000E+00  0.00000000000E+00  0.97329189775E+02  0.11045879393E+04  0.11002915725E+04 0.  0.
        4    1    3    3  502    0  0.18537051714E+03  0.29016031315E+03 -0.38208370979E+03  0.51433919755E+03  0.12699999809E+01 0.  1.
       -4    1    3    3    0  502 -0.18537051714E+03 -0.29016031315E+03  0.47941289956E+03  0.59024874174E+03  0.12699999809E+01 0. -1.
</event>
<event>
 5   0  0.1540772E-04  0.1091344E+04  0.7818609E-02  0.9213670E-01
       -2   -1    0    0    0  501  0.00000000000E+00  0.00000000000E+00  0.11442451289E+04  0.11442451289E+04  0.25500000920E-02 0. -1.
        2   -1    0    0  501    0  0.00000000000E+00  0.00000000000E+00 -0.26022215761E+03  0.26022215762E+03  0.25500000920E-02 0.  1.
    10030    2    1    2    0    0  0.00000000000E+00  0.00000000000E+00  0.88402297125E+03  0.14044672865E+04  0.10913440086E+04 0.  0.
        2    1    3    3  502    0 -0.46502638663E+02 -0.51514264213E+03  0.66574051114E+03  0.84305685771E+03  0.25500000920E-02 0. -1.
       -2    1    3    3    0  502  0.46502638663E+02  0.51514264213E+03  0.21828246011E+03  0.56141042878E+03  0.25500000920E-02 0.  1.
</event>
<event>
 5   0  0.8921459E-05  0.1099076E+04  0.7818609E-02  0.9206093E-01
       -1   -1    0    0    0  501  0.00000000000E+00  0.00000000000E+00  0.39820082199E+03  0.39820082202E+03  0.50400001928E-02 0. -1.
        1   -1    0    0  501    0  0.00000000000E+00  0.00000000000E+00 -0.75839149715E+03  0.75839149717E+03  0.50400001928E-02 0.  1.
    10030    2    1    2    0    0  0.00000000000E+00  0.00000000000E+00 -0.36019067516E+03  0.11565923192E+04  0.10990761895E+04 0.  0.
        3    1    3    3  502    0  0.38363671067E+03  0.39345740962E+03 -0.17746484095E+03  0.57747695965E+03  0.10100000352E+00 0.  1.
       -3    1    3    3    0  502 -0.38363671067E+03 -0.39345740962E+03 -0.18272583421E+03  0.57911535953E+03  0.10100000352E+00 0. -1.
</event>
<event>
 5   0  0.9346836E-05  0.1100151E+04  0.7818609E-02  0.9205045E-01
       -1   -1    0    0    0  501  0.00000000000E+00  0.00000000000E+00  0.13772464938E+03  0.13772464947E+03  0.50400001928E-02 0.  1.
        1   -1    0    0  501    0  0.00000000000E+00  0.00000000000E+00 -0.21970127459E+04  0.21970127459E+04  0.50400001928E-02 0. -1.
    10030    2    1    2    0    0  0.00000000000E+00  0.00000000000E+00 -0.20592880966E+04  0.23347373954E+04  0.11001505537E+04 0.  0.
        5    1    3    3  502    0 -0.10118624986E+03  0.46884782483E+03 -0.16010782666E+04  0.16713858458E+04  0.46999998093E+01 0. -1.
       -5    1    3    3    0  502  0.10118624986E+03 -0.46884782483E+03 -0.45820982999E+03  0.66335154957E+03  0.46999998093E+01 0.  1.
</event>
<event>
 5   0  0.6010125E-05  0.1103505E+04  0.7818609E-02  0.9201782E-01
       -4   -1    0    0    0  501  0.00000000000E+00  0.00000000000E+00  0.57092314870E+03  0.57092456123E+03  0.12699999809E+01 0. -1.
        4   -1    0    0  501    0  0.00000000000E+00  0.00000000000E+00 -0.53322311561E+03  0.53322462802E+03  0.12699999809E+01 0.  1.
    10030    2    1    2    0    0  0.00000000000E+00  0.00000000000E+00  0.37700033083E+02  0.11041491892E+04  0.11035053872E+04 0.  0.
        5    1    3    3  502    0 -0.37774588377E+03 -0.34832354954E+03 -0.18223413596E+03  0.54520878403E+03  0.46999998093E+01 0.  1.
       -5    1    3    3    0  502  0.37774588377E+03  0.34832354954E+03  0.21993416904E+03  0.55894040522E+03  0.46999998093E+01 0. -1.
</event>
<event>
 5   0  0.9346836E-05  0.1100554E+04  0.7818609E-02  0.9204652E-01
       -1   -1    0    0    0  501  0.00000000000E+00  0.00000000000E+00  0.59866963996E+03  0.59866963998E+03  0.50400001928E-02 0. -1.
        1   -1    0    0  501    0  0.00000000000E+00  0.00000000000E+00 -0.50579631382E+03  0.50579631385E+03  0.50400001928E-02 0.  1.
    10030    2    1    2    0    0  0.00000000000E+00  0.00000000000E+00  0.92873326138E+02  0.11044659538E+04  0.11005542188E+04 0.  0.
        5    1    3    3  502    0 -0.51653681689E+03  0.63500849430E+02  0.22579000553E+03  0.56731460203E+03  0.46999998093E+01 0. -1.
       -5    1    3    3    0  502  0.51653681689E+03 -0.63500849430E+02 -0.13291667939E+03  0.53715135180E+03  0.46999998093E+01 0.  1.
</event>
<event>
 5   0  0.1540772E-04  0.1100010E+04  0.7818609E-02  0.9205182E-01
       -2   -1    0    0    0  501  0.00000000000E+00  0.00000000000E+00  0.32638588527E+03  0.32638588528E+03  0.25500000920E-02 0.  1.
        2   -1    0    0  501    0  0.00000000000E+00  0.00000000000E+00 -0.92683359121E+03  0.92683359122E+03  0.25500000920E-02 0. -1.
    10030    2    1    2    0    0  0.00000000000E+00  0.00000000000E+00 -0.60044770594E+03  0.12532194765E+04  0.11000098221E+04 0.  0.
        2    1    3    3  502    0 -0.52173597727E+03 -0.14907644779E+03 -0.40258921401E+03  0.67565545399E+03  0.25500000920E-02 0.  1.
       -2    1    3    3    0  502  0.52173597727E+03  0.14907644779E+03 -0.19785849194E+03  0.57756402251E+03  0.25500000920E-02 0. -1.
</event>
<event>
 5   0  0.1540772E-04  0.1097978E+04  0.7818609E-02  0.9207165E-01
       -2   -1    0    0    0  501  0.00000000000E+00  0.00000000000E+00  0.39313423150E+03  0.39313423151E+03  0.25500000920E-02 0.  1.
        2   -1    0    0  501    0  0.00000000000E+00  0.00000000000E+00 -0.76663138186E+03  0.76663138186E+03  0.25500000920E-02 0. -1.
    10030    2    1    2    0    0  0.00000000000E+00  0.00000000000E+00 -0.37349715036E+03  0.11597656134E+04  0.10979782132E+04 0.  0.
        2    1    3    3  502    0 -0.47591317381E+03 -0.25901836148E+03 -0.93430037066E+02  0.54983000321E+03  0.25500000920E-02 0.  1.
       -2    1    3    3    0  502  0.47591317381E+03  0.25901836148E+03 -0.28006711329E+03  0.60993561017E+03  0.25500000920E-02 0. -1.
</event>
<event>
 5   0  0.8621738E-05  0.1099983E+04  0.7818609E-02  0.9205209E-01
        1   -1    0    0  501    0  0.00000000000E+00  0.00000000000E+00  0.15789878131E+04  0.15789878131E+04  0.50400001928E-02 0. -1.
       -1   -1    0    0    0  501  0.00000000000E+00  0.00000000000E+00 -0.19157243724E+03  0.19157243731E+03  0.50400001928E-02 0.  1.
    10030    2    1    2    0    0  0.00000000000E+00  0.00000000000E+00  0.13874153759E+04  0.17705602504E+04  0.10999828068E+04 0.  0.
        2    1    3    3  502    0 -0.37811867106E+03  0.39876521023E+03  0.72981218116E+03  0.91357169509E+03  0.25500000920E-02 0.  1.
       -2    1    3    3    0  502  0.37811867106E+03 -0.39876521023E+03  0.65760319472E+03  0.85698855535E+03  0.25500000920E-02 0. -1.
</event>
<event>
 5   0  0.1574101E-04  0.1100308E+04  0.7818609E-02  0.9204891E-01
       -2   -1    0    0    0  501  0.00000000000E+00  0.00000000000E+00  0.49374195171E+03  0.49374195172E+03  0.25500000920E-02 0.  1.
        2   -1    0    0  501    0  0.00000000000E+00  0.00000000000E+00 -0.61301163737E+03  0.61301163737E+03  0.25500000920E-02 0. -1.
    10030    2    1    2    0    0  0.00000000000E+00  0.00000000000E+00 -0.11926968566E+03  0.11067535891E+04  0.11003082518E+04 0.  0.
        4    1    3    3  502    0 -0.39927384174E+03  0.20324308128E+03  0.26151680795E+03  0.51876777514E+03  0.12699999809E+01 0.  1.
       -4    1    3    3    0  502  0.39927384174E+03 -0.20324308128E+03 -0.38078649360E+03  0.58798581395E+03  0.12699999809E+01 0. -1.
</event>
<event>
 5   0  0.9346836E-05  0.1099631E+04  0.7818609E-02  0.9205551E-01
       -1   -1    0    0    0  501  0.00000000000E+00  0.00000000000E+00  0.48593827936E+03  0.48593827938E+03  0.50400001928E-02 0.  1.
        1   -1    0    0  501    0  0.00000000000E+00  0.00000000000E+00 -0.62208973562E+03  0.62208973564E+03  0.50400001928E-02 0. -1.
    10030    2    1    2    0    0  0.00000000000E+00  0.00000000000E+00 -0.13615145626E+03  0.11080280150E+04  0.10996312396E+04 0.  0.
        5    1    3    3  502    0 -0.44860976257E+03 -0.29473498045E+03 -0.18796196163E+03  0.56874530046E+03  0.46999998093E+01 0.  1.
       -5    1    3    3    0  502  0.44860976257E+03  0.29473498045E+03  0.51810505368E+02  0.53928271457E+03  0.46999998093E+01 0. -1.
</event>
<event>
 5   0  0.9346836E-05  0.1099806E+04  0.7818609E-02  0.9205381E-01
       -1   -1    0    0    0  501  0.00000000000E+00  0.00000000000E+00  0.36628859380E+03  0.36628859384E+03  0.50400001928E-02 0.  1.
        1   -1    0    0  501    0  0.00000000000E+00  0.00000000000E+00 -0.82555956509E+03  0.82555956511E+03  0.50400001928E-02 0. -1.
    10030    2    1    2    0    0  0.00000000000E+00  0.00000000000E+00 -0.45927097129E+03  0.11918481589E+04  0.10998055323E+04 0.  0.
        5    1    3    3  502    0 -0.45606684884E+02  0.23851558798E+03  0.30501071236E+03  0.38990162870E+03  0.46999998093E+01 0.  1.
       -5    1    3    3    0  502  0.45606684884E+02 -0.23851558798E+03 -0.76428168364E+03  0.80194653024E+03  0.46999998093E+01 0. -1.
</event>
<event>
 5   0  0.8921459E-05  0.1100631E+04  0.7818609E-02  0.9204577E-01
        1   -1    0    0  501    0  0.00000000000E+00  0.00000000000E+00  0.11159219628E+04  0.11159219628E+04  0.50400001928E-02 0. -1.
       -1   -1    0    0    0  501  0.00000000000E+00  0.00000000000E+00 -0.27138718233E+03  0.27138718238E+03  0.50400001928E-02 0.  1.
    10030    2    1    2    0    0  0.00000000000E+00  0.00000000000E+00  0.84453478046E+03  0.13873091452E+04  0.11006305779E+04 0.  0.
        3    1    3    3  502    0  0.45671053716E+01 -0.87671947456E+02  0.11070385714E+04  0.11105141321E+04  0.10100000352E+00 0. -1.
       -3    1    3    3    0  502 -0.45671053716E+01  0.87671947456E+02 -0.26250379093E+03  0.27679501310E+03  0.10100000352E+00 0.  1.
</event>
<event>
 5   0  0.1540772E-04  0.1099982E+04  0.7818609E-02  0.9205210E-01
       -2   -1    0    0    0  501  0.00000000000E+00  0.00000000000E+00  0.29297003714E+03  0.29297003715E+03  0.25500000920E-02 0. -1.
        2   -1    0    0  501    0  0.00000000000E+00  0.00000000000E+00 -0.10324948274E+04  0.10324948274E+04  0.25500000920E-02 0.  1.
    10030    2    1    2    0    0  0.00000000000E+00  0.00000000000E+00 -0.73952479022E+03  0.13254648645E+04  0.10999819052E+04 0.  0.
        2    1    3    3  502    0 -0.52049653616E+03  0.17666216513E+03 -0.39274840920E+03  0.67555716093E+03  0.25500000920E-02 0.  1.
       -2    1    3    3    0  502  0.52049653616E+03 -0.17666216513E+03 -0.34677638101E+03  0.64990770358E+03  0.25500000920E-02 0. -1.
</event>
<event>
 5   0  0.9016738E-05  0.1100032E+04  0.7818609E-02  0.9205161E-01
       -1   -1    0    0    0  501  0.00000000000E+00  0.00000000000E+00  0.22177699723E+03  0.22177699729E+03  0.50400001928E-02 0.  1.
        1   -1    0    0  501    0  0.00000000000E+00  0.00000000000E+00 -0.13640618951E+04  0.13640618952E+04  0.50400001928E-02 0. -1.
    10030    2    1    2    0    0  0.00000000000E+00  0.00000000000E+00 -0.11422848979E+04  0.15858388924E+04  0.11000319108E+04 0.  0.
        4    1    3    3  502    0  0.22889385582E+03 -0.84275892747E+02 -0.12818252173E+04  0.13048265494E+04  0.12699999809E+01 0. -1.
       -4    1    3    3    0  502 -0.22889385582E+03  0.84275892747E+02  0.13954031937E+03  0.28101234308E+03  0.12699999809E+01 0.  1.
</event>
<event>
 5   0  0.1540772E-04  0.1099381E+04  0.7818609E-02  0.9205796E-01
        2   -1    0    0  501    0  0.00000000000E+00  0.00000000000E+00  0.31787610082E+03  0.31787610083E+03  0.25500000920E-02 0.  1.
       -2   -1    0    0    0  501  0.00000000000E+00  0.00000000000E+00 -0.95055748717E+03  0.95055748717E+03  0.25500000920E-02 0. -1.
    10030    2    1    2    0    0  0.00000000000E+00  0.00000000000E+00 -0.63268138636E+03  0.12684335880E+04  0.10993807487E+04 0.  0.
        2    1    3    3  502    0 -0.29235707877E+03 -0.28193011249E+03  0.11102556950E+03  0.42105097901E+03  0.25500000920E-02 0.  1.
       -2    1    3    3    0  502  0.29235707877E+03  0.28193011249E+03 -0.74370695585E+03  0.84738260899E+03  0.25500000920E-02 0. -1.
</event>
<event>
 5   0  0.1540772E-04  0.1099210E+04  0.7818609E-02  0.9205962E-01
        2   -1    0    0  501    0  0.00000000000E+00  0.00000000000E+00  0.96625626677E+03  0.96625626678E+03  0.25500000920E-02 0.  1.
       -2   -1    0    0    0  501  0.00000000000E+00  0.00000000000E+00 -0.31261430634E+03  0.31261430635E+03  0.25500000920E-02 0. -1.
    10030    2    1    2    0    0  0.00000000000E+00  0.00000000000E+00  0.65364196044E+03  0.12788705731E+04  0.10992097754E+04 0.  0.
        2    1    3    3  502    0 -0.34925336004E+03 -0.59218642423E+02 -0.16207641369E+03  0.38955554288E+03  0.25500000920E-02 0.  1.
       -2    1    3    3    0  502  0.34925336004E+03  0.59218642423E+02  0.81571837413E+03  0.88931503024E+03  0.25500000920E-02 0. -1.
</event>
<event>
 5   0  0.8921459E-05  0.1100028E+04  0.7818609E-02  0.9205164E-01
       -1   -1    0    0    0  501  0.00000000000E+00  0.00000000000E+00  0.58522615822E+03  0.58522615824E+03  0.50400001928E-02 0.  1.
        1   -1    0    0  501    0  0.00000000000E+00  0.00000000000E+00 -0.51692080747E+03  0.51692080750E+03  0.50400001928E-02 0. -1.
    10030    2    1    2    0    0  0.00000000000E+00  0.00000000000E+00  0.68305350747E+02  0.11021469657E+04  0.11000283238E+04 0.  0.
        3    1    3    3  502    0  0.14938908785E+03 -0.40425298921E+03 -0.30823343496E+03  0.52985416813E+03  0.10100000352E+00 0. -1.
       -3    1    3    3    0  502 -0.14938908785E+03  0.40425298921E+03  0.37653878571E+03  0.57229279761E+03  0.10100000352E+00 0.  1.
</event>
<event>
 5   0  0.8657442E-05  0.1099930E+04  0.7818609E-02  0.9205260E-01
       -1   -1    0    0    0  501  0.00000000000E+00  0.00000000000E+00  0.24396691783E+03  0.24396691788E+03  0.50400001928E-02 0.  1.
        1   -1    0    0  501    0  0.00000000000E+00  0.00000000000E+00 -0.12397644826E+04  0.12397644826E+04  0.50400001928E-02 0. -1.
    10030    2    1    2    0    0  0.00000000000E+00  0.00000000000E+00 -0.99579756473E+03  0.14837314004E+04  0.10999300336E+04 0.  0.
        1    1    3    3  502    0 -0.16418586491E+03 -0.46685201895E+03 -0.82151248594E+03  0.95905712573E+03  0.50400001928E-02 0. -1.
       -1    1    3    3    0  502  0.16418586491E+03  0.46685201895E+03 -0.17428507880E+03  0.52467427472E+03  0.50400001928E-02 0.  1.
</event>
<event>
 5   0  0.8921459E-05  0.1100132E+04  0.7818609E-02  0.9205063E-01
       -1   -1    0    0    0  501  0.00000000000E+00  0.00000000000E+00  0.13737293570E+04  0.13737293570E+04  0.50400001928E-02 0.  1.
        1   -1    0    0  501    0  0.00000000000E+00  0.00000000000E+00 -0.22025647769E+03  0.22025647775E+03  0.50400001928E-02 0. -1.
    10030    2    1    2    0    0  0.00000000000E+00  0.00000000000E+00  0.11534728793E+04  0.15939858347E+04  0.11001323366E+04 0.  0.
        3    1    3    3  502    0  0.22115359899E+03 -0.48517448930E+03  0.38089535398E+03  0.65527435498E+03  0.10100000352E+00 0.  1.
       -3    1    3    3    0  502 -0.22115359899E+03  0.48517448930E+03  0.77257752532E+03  0.93871147977E+03  0.10100000352E+00 0. -1.
</event>
<event>
 5   0  0.9346836E-05  0.1100109E+04  0.7818609E-02  0.9205086E-01
        1   -1    0    0  501    0  0.00000000000E+00  0.00000000000E+00  0.13437492101E+04  0.13437492101E+04  0.50400001928E-02 0. -1.
       -1   -1    0    0    0  501  0.00000000000E+00  0.00000000000E+00 -0.22516084918E+03  0.22516084924E+03  0.50400001928E-02 0.  1.
    10030    2    1    2    0    0  0.00000000000E+00  0.00000000000E+00  0.11185883610E+04  0.15689100594E+04  0.11001085643E+04 0.  0.
        5    1    3    3  502    0 -0.21797803119E+03  0.31940811122E+03  0.14529978812E+01  0.38673009296E+03  0.46999998093E+01 0.  1.
       -5    1    3    3    0  502  0.21797803119E+03 -0.31940811122E+03  0.11171353631E+04  0.11821799664E+04  0.46999998093E+01 0. -1.
</event>
<event>
 5   0  0.9016738E-05  0.1100474E+04  0.7818609E-02  0.9204730E-01
        1   -1    0    0  501    0  0.00000000000E+00  0.00000000000E+00  0.90009827250E+03  0.90009827251E+03  0.50400001928E-02 0.  1.
       -1   -1    0    0    0  501  0.00000000000E+00  0.00000000000E+00 -0.33636395761E+03  0.33636395764E+03  0.50400001928E-02 0. -1.
    10030    2    1    2    0    0  0.00000000000E+00  0.00000000000E+00  0.56373431489E+03  0.12364622302E+04  0.11004737474E+04 0.  0.
        4    1    3    3  502    0 -0.36559989915E+03 -0.39016657520E+03  0.13595074375E+03  0.55170414199E+03  0.12699999809E+01 0. -1.
       -4    1    3    3    0  502  0.36559989915E+03  0.39016657520E+03  0.42778357114E+03  0.68475808816E+03  0.12699999809E+01 0.  1.
</event>
<event>
 5   0  0.9016738E-05  0.1100099E+04  0.7818609E-02  0.9205096E-01
       -1   -1    0    0    0  501  0.00000000000E+00  0.00000000000E+00  0.29353755826E+03  0.29353755831E+03  0.50400001928E-02 0.  1.
        1   -1    0    0  501    0  0.00000000000E+00  0.00000000000E+00 -0.10307176359E+04  0.10307176359E+04  0.50400001928E-02 0. -1.
    10030    2    1    2    0    0  0.00000000000E+00  0.00000000000E+00 -0.73718007764E+03  0.13242551942E+04  0.11000987922E+04 0.  0.
        4    1    3    3  502    0 -0.35284664272E+03 -0.11834644122E+03  0.11896420541E+03  0.39071822135E+03  0.12699999809E+01 0.  1.
       -4    1    3    3    0  502  0.35284664272E+03  0.11834644122E+03 -0.85614428304E+03  0.93353697287E+03  0.12699999809E+01 0. -1.
</event>
<event>
 5   0  0.1553937E-04  0.1101618E+04  0.7818609E-02  0.9203616E-01
       -2   -1    0    0    0  501  0.00000000000E+00  0.00000000000E+00  0.29213617984E+03  0.29213617985E+03  0.25500000920E-02 0.  1.
        2   -1    0    0  501    0  0.00000000000E+00  0.00000000000E+00 -0.10385248159E+04  0.10385248159E+04  0.25500000920E-02 0. -1.
    10030    2    1    2    0    0  0.00000000000E+00  0.00000000000E+00 -0.74638863603E+03  0.13306609957E+04  0.11016182141E+04 0.  0.
        1    1    3    3  502    0  0.25153919967E+03 -0.40797611589E+03 -0.45330108407E+02  0.48142631716E+03  0.50400001928E-02 0.  1.
       -1    1    3    3    0  502 -0.25153919967E+03  0.40797611589E+03 -0.70105852762E+03  0.84923467856E+03  0.50400001928E-02 0. -1.
</event>
<event>
 5   0  0.1464205E-04  0.1100784E+04  0.7818609E-02  0.9204428E-01
        2   -1    0    0  501    0  0.00000000000E+00  0.00000000000E+00  0.19327030303E+04  0.19327030303E+04  0.25500000920E-02 0. -1.
       -2   -1    0    0    0  501  0.00000000000E+00  0.00000000000E+00 -0.15673974814E+03  0.15673974817E+03  0.25500000920E-02 0.  1.
    10030    2    1    2    0    0  0.00000000000E+00  0.00000000000E+00  0.17759632822E+04  0.20894427785E+04  0.11007840592E+04 0.  0.
        3    1    3    3  502    0  0.52574435048E+03 -0.56989196094E+02  0.59838931194E+03  0.79857665216E+03  0.10100000352E+00 0.  1.
       -3    1    3    3    0  502 -0.52574435048E+03  0.56989196094E+02  0.11775739702E+04  0.12908661263E+04  0.10100000352E+00 0. -1.
</event>
<event>
 5   0  0.9346836E-05  0.1099555E+04  0.7818609E-02  0.9205625E-01
        1   -1    0    0  501    0  0.00000000000E+00  0.00000000000E+00  0.99426768173E+03  0.99426768174E+03  0.50400001928E-02 0. -1.
       -1   -1    0    0    0  501  0.00000000000E+00  0.00000000000E+00 -0.30399802851E+03  0.30399802855E+03  0.50400001928E-02 0.  1.
    10030    2    1    2    0    0  0.00000000000E+00  0.00000000000E+00  0.69026965322E+03  0.12982657103E+04  0.10995552102E+04 0.  0.
        5    1    3    3  502    0 -0.10930887326E+03 -0.51507117928E+03  0.15849689360E+03  0.54990008617E+03  0.46999998093E+01 0.  1.
       -5    1    3    3    0  502  0.10930887326E+03  0.51507117928E+03  0.53177275962E+03  0.74836562412E+03  0.46999998093E+01 0. -1.
</event>
<event>
 5   0  0.1540772E-04  0.1100469E+04  0.7818609E-02  0.9204735E-01
       -2   -1    0    0    0  501  0.00000000000E+00  0.00000000000E+00  0.32419132864E+03  0.32419132865E+03  0.25500000920E-02 0.  1.
        2   -1    0    0  501    0  0.00000000000E+00  0.00000000000E+00 -0.93388647045E+03  0.93388647045E+03  0.25500000920E-02 0. -1.
    10030    2    1    2    0    0  0.00000000000E+00  0.00000000000E+00 -0.60969514180E+03  0.12580777991E+04  0.11004688013E+04 0.  0.
        2    1    3    3  502    0  0.26862246680E+03  0.14817298377E+03 -0.82704336869E+03  0.88210770119E+03  0.25500000920E-02 0. -1.
       -2    1    3    3    0  502 -0.26862246680E+03 -0.14817298377E+03  0.21734822689E+03  0.37597009792E+03  0.25500000920E-02 0.  1.
</event>
<event>
 5   0  0.1574101E-04  0.1100004E+04  0.7818609E-02  0.9205187E-01
        2   -1    0    0  501    0  0.00000000000E+00  0.00000000000E+00  0.49362280832E+03  0.49362280833E+03  0.25500000920E-02 0. -1.
       -2   -1    0    0    0  501  0.00000000000E+00  0.00000000000E+00 -0.61282110147E+03  0.61282110148E+03  0.25500000920E-02 0.  1.
    10030    2    1    2    0    0  0.00000000000E+00  0.00000000000E+00 -0.11919829315E+03  0.11064439098E+04  0.11000044966E+04 0.  0.
        4    1    3    3  502    0 -0.66391745617E+02 -0.37591817263E+03  0.33867143446E+03  0.51031587259E+03  0.12699999809E+01 0. -1.
       -4    1    3    3    0  502  0.66391745617E+02  0.37591817263E+03 -0.45786972761E+03  0.59612803722E+03  0.12699999809E+01 0.  1.
</event>
<event>
 5   0  0.9016738E-05  0.1100580E+04  0.7818609E-02  0.9204627E-01
       -1   -1    0    0    0  501  0.00000000000E+00  0.00000000000E+00  0.23889745622E+03  0.23889745627E+03  0.50400001928E-02 0. -1.
        1   -1    0    0  501    0  0.00000000000E+00  0.00000000000E+00 -0.12675693008E+04  0.12675693008E+04  0.50400001928E-02 0.  1.
    10030    2    1    2    0    0  0.00000000000E+00  0.00000000000E+00 -0.10286718446E+04  0.15064667571E+04  0.11005799954E+04 0.  0.
        4    1    3    3  502    0  0.13761134899E+03 -0.22593634669E+02 -0.12429791951E+04  0.12507782569E+04  0.12699999809E+01 0.  1.
       -4    1    3    3    0  502 -0.13761134899E+03  0.22593634669E+02  0.21430735053E+03  0.25568850012E+03  0.12699999809E+01 0. -1.
</event>
<event>
 5   0  0.1503277E-04  0.1099917E+04  0.7818609E-02  0.9205273E-01
        2   -1    0    0  501    0  0.00000000000E+00  0.00000000000E+00  0.25486800709E+04  0.25486800709E+04  0.25500000920E-02 0. -1.
       -2   -1    0    0    0  501  0.00000000000E+00  0.00000000000E+00 -0.11867091346E+03  0.11867091349E+03  0.25500000920E-02 0.  1.
    10030    2    1    2    0    0  0.00000000000E+00  0.00000000000E+00  0.24300091575E+04  0.26673509844E+04  0.10999167099E+04 0.  0.
        5    1    3    3  502    0 -0.25946978874E+03  0.15127565006E+03  0.23321682500E+04  0.23514335478E+04  0.46999998093E+01 0. -1.
       -5    1    3    3    0  502  0.25946978874E+03 -0.15127565006E+03  0.97840907483E+02  0.31591743659E+03  0.46999998093E+01 0.  1.
</event>
<event>
 5   0  0.1553937E-04  0.1100066E+04  0.7818609E-02  0.9205128E-01
       -2   -1    0    0    0  501  0.00000000000E+00  0.00000000000E+00  0.44730647275E+03  0.44730647276E+03  0.25500000920E-02 0. -1.
        2   -1    0    0  501    0  0.00000000000E+00  0.00000000000E+00 -0.67635122159E+03  0.67635122160E+03  0.25500000920E-02 0.  1.
    10030    2    1    2    0    0  0.00000000000E+00  0.00000000000E+00 -0.22904474884E+03  0.11236576944E+04  0.11000659603E+04 0.  0.
        1    1    3    3  502    0 -0.16168415602E+03 -0.51552825520E+03 -0.21981124107E+03  0.58329077650E+03  0.50400001928E-02 0.  1.
       -1    1    3    3    0  502  0.16168415602E+03  0.51552825520E+03 -0.92335077687E+01  0.54036691785E+03  0.50400001928E-02 0. -1.
</event>
<event>
 5   0  0.9016738E-05  0.1098629E+04  0.7818609E-02  0.9206529E-01
        1   -1    0    0  501    0  0.00000000000E+00  0.00000000000E+00  0.12696120826E+04  0.12696120826E+04  0.50400001928E-02 0. -1.
       -1   -1    0    0    0  501  0.00000000000E+00  0.00000000000E+00 -0.23766837680E+03  0.23766837686E+03  0.50400001928E-02 0.  1.
    10030    2    1    2    0    0  0.00000000000E+00  0.00000000000E+00  0.10319437058E+04  0.15072804595E+04  0.10986294059E+04 0.  0.
        4    1    3    3  502    0  0.30786750275E+03 -0.40188478561E+03  0.22347865899E+03  0.55338784236E+03  0.12699999809E+01 0.  1.
       -4    1    3    3    0  502 -0.30786750275E+03  0.40188478561E+03  0.80846504683E+03  0.95389261713E+03  0.12699999809E+01 0. -1.
</event>
<event>
 5   0  0.6010125E-05  0.1100070E+04  0.7818609E-02  0.9205123E-01
       -3   -1    0    0    0  501  0.00000000000E+00  0.00000000000E+00  0.22818131644E+03  0.22818133879E+03  0.10100000352E+00 0. -1.
        3   -1    0    0  501    0  0.00000000000E+00  0.00000000000E+00 -0.13258692085E+04  0.13258692124E+04  0.10100000352E+00 0.  1.
    10030    2    1    2    0    0  0.00000000000E+00  0.00000000000E+00 -0.10976878921E+04  0.15540505511E+04  0.11000701828E+04 0.  0.
        1    1    3    3  502    0 -0.25873395284E+03 -0.47661650740E+03 -0.41912264662E+03  0.68539794749E+03  0.50400001928E-02 0. -1.
       -1    1    3    3    0  502  0.25873395284E+03  0.47661650740E+03 -0.67856524545E+03  0.86865260366E+03  0.50400001928E-02 0.  1.
</event>
<event>
 5   0  0.8657442E-05  0.1101246E+04  0.7818609E-02  0.9203978E-01
       -1   -1    0    0    0  501  0.00000000000E+00  0.00000000000E+00  0.97036404586E+03  0.97036404587E+03  0.50400001928E-02 0. -1.
        1   -1    0    0  501    0  0.00000000000E+00  0.00000000000E+00 -0.31244528127E+03  0.31244528131E+03  0.50400001928E-02 0.  1.
    10030    2    1    2    0    0  0.00000000000E+00  0.00000000000E+00  0.65791876459E+03  0.12828093272E+04  0.11012459621E+04 0.  0.
        1    1    3    3  502    0 -0.18604692317E+02 -0.53737296662E+03  0.19078670744E+03  0.57053957584E+03  0.50400001928E-02 0.  1.
       -1    1    3    3    0  502  0.18604692317E+02  0.53737296662E+03  0.46713205715E+03  0.71226975134E+03  0.50400001928E-02 0. -1.
</event>
<event>
 5   0  0.1574101E-04  0.1099907E+04  0.7818609E-02  0.9205283E-01
       -2   -1    0    0    0  501  0.00000000000E+00  0.00000000000E+00  0.67937801476E+03  0.67937801476E+03  0.25500000920E-02 0. -1.
        2   -1    0    0  501    0  0.00000000000E+00  0.00000000000E+00 -0.44518457626E+03  0.44518457627E+03  0.25500000920E-02 0.  1.
    10030    2    1    2    0    0  0.00000000000E+00  0.00000000000E+00  0.23419343849E+03  0.11245625910E+04  0.10999065663E+04 0.  0.
        4    1    3    3  502    0  0.30493045150E+03 -0.30440081727E+03  0.46652475109E+03  0.63505070198E+03  0.12699999809E+01 0. -1.
       -4    1    3    3    0  502 -0.30493045150E+03  0.30440081727E+03 -0.23233131260E+03  0.48951188905E+03  0.12699999809E+01 0.  1.
</event>
<event>
 5   0  0.1464205E-04  0.1099686E+04  0.7818609E-02  0.9205498E-01
        2   -1    0    0  501    0  0.00000000000E+00  0.00000000000E+00  0.99647774567E+03  0.99647774567E+03  0.25500000920E-02 0. -1.
       -2   -1    0    0    0  501  0.00000000000E+00  0.00000000000E+00 -0.30339598781E+03  0.30339598782E+03  0.25500000920E-02 0.  1.
    10030    2    1    2    0    0  0.00000000000E+00  0.00000000000E+00  0.69308175786E+03  0.12998737335E+04  0.10996860461E+04 0.  0.
        3    1    3    3  502    0  0.47187170034E+03 -0.18149404058E+03  0.60204863897E+03  0.78617145854E+03  0.10100000352E+00 0. -1.
       -3    1    3    3    0  502 -0.47187170034E+03  0.18149404058E+03  0.91033118896E+02  0.51370227495E+03  0.10100000352E+00 0.  1.
</event>
<event>
 5   0  0.1540772E-04  0.1099288E+04  0.7818609E-02  0.9205886E-01
        2   -1    0    0  501    0  0.00000000000E+00  0.00000000000E+00  0.60520367703E+03  0.60520367703E+03  0.25500000920E-02 0. -1.
       -2   -1    0    0    0  501  0.00000000000E+00  0.00000000000E+00 -0.49918461339E+03  0.49918461340E+03  0.25500000920E-02 0.  1.
    10030    2    1    2    0    0  0.00000000000E+00  0.00000000000E+00  0.10601906364E+03  0.11043882904E+04  0.10992877031E+04 0.  0.
        2    1    3    3  502    0 -0.15075160280E+03 -0.29978526284E+03  0.49035815699E+03  0.59417873716E+03  0.25500000920E-02 0. -1.
       -2    1    3    3    0  502  0.15075160280E+03  0.29978526284E+03 -0.38433909335E+03  0.51020955327E+03  0.25500000920E-02 0.  1.
</event>
<event>
 5   0  0.1540772E-04  0.1099860E+04  0.7818609E-02  0.9205329E-01
        2   -1    0    0  501    0  0.00000000000E+00  0.00000000000E+00  0.13551609274E+04  0.13551609274E+04  0.25500000920E-02 0.  1.
       -2   -1    0    0    0  501  0.00000000000E+00  0.00000000000E+00 -0.22316371340E+03  0.22316371342E+03  0.25500000920E-02 0. -1.
    10030    2    1    2    0    0  0.00000000000E+00  0.00000000000E+00  0.11319972140E+04  0.15783246408E+04  0.10998595271E+04 0.  0.
        2    1    3    3  502    0  0.44419047616E+03  0.21404945395E+03  0.21654629667E+03  0.53853007943E+03  0.25500000920E-02 0. -1.
       -2    1    3    3    0  502 -0.44419047616E+03 -0.21404945395E+03  0.91545091735E+03  0.10397945614E+04  0.25500000920E-02 0.  1.
</event>
<event>
 5   0  0.1574101E-04  0.1103042E+04  0.7818609E-02  0.9202232E-01
        2   -1    0    0  501    0  0.00000000000E+00  0.00000000000E+00  0.86483596885E+03  0.86483596885E+03  0.25500000920E-02 0. -1.
       -2   -1    0    0    0  501  0.00000000000E+00  0.00000000000E+00 -0.35171454665E+03  0.35171454666E+03  0.25500000920E-02 0.  1.
    10030    2    1    2    0    0  0.00000000000E+00  0.00000000000E+00  0.51312142220E+03  0.12165505155E+04  0.11030419588E+04 0.  0.
        4    1    3    3  502    0 -0.98166084859E+02  0.23170222899E+03 -0.28470758369E+03  0.37997700489E+03  0.12699999809E+01 0.  1.
       -4    1    3    3    0  502  0.98166084859E+02 -0.23170222899E+03  0.79782900589E+03  0.83657351062E+03  0.12699999809E+01 0. -1.
</event>
<event>
 5   0  0.1503277E-04  0.1100851E+04  0.7818609E-02  0.9204363E-01
       -2   -1    0    0    0  501  0.00000000000E+00  0.00000000000E+00  0.28727194021E+03  0.28727194023E+03  0.25500000920E-02 0. -1.
        2   -1    0    0  501    0  0.00000000000E+00  0.00000000000E+00 -0.10546388180E+04  0.10546388180E+04  0.25500000920E-02 0.  1.
    10030    2    1    2    0    0  0.00000000000E+00  0.00000000000E+00 -0.76736687783E+03  0.13419107583E+04  0.11008508337E+04 0.  0.
        5    1    3    3  502    0 -0.31847121110E+03 -0.43417718212E+03 -0.52273388562E+03  0.75047088081E+03  0.46999998093E+01 0.  1.
       -5    1    3    3    0  502  0.31847121110E+03  0.43417718212E+03 -0.24463299221E+03  0.59143987746E+03  0.46999998093E+01 0. -1.
</event>
<event>
 5   0  0.1503277E-04  0.1099864E+04  0.7818609E-02  0.9205324E-01
       -2   -1    0    0    0  501  0.00000000000E+00  0.00000000000E+00  0.48612012599E+03  0.48612012600E+03  0.25500000920E-02 0.  1.
        2   -1    0    0  501    0  0.00000000000E+00  0.00000000000E+00 -0.62212027954E+03  0.62212027954E+03  0.25500000920E-02 0. -1.
    10030    2    1    2    0    0  0.00000000000E+00  0.00000000000E+00 -0.13600015355E+03  0.11082404055E+04  0.10998639710E+04 0.  0.
        5    1    3    3  502    0  0.34074668412E+03  0.15947790701E+03  0.33613001276E+03  0.50452649191E+03  0.46999998093E+01 0.  1.
       -5    1    3    3    0  502 -0.34074668412E+03 -0.15947790701E+03 -0.47213016631E+03  0.60371391362E+03  0.46999998093E+01 0. -1.
</event>
<event>
 5   0  0.1464205E-04  0.1101618E+04  0.7818609E-02  0.9203616E-01
        2   -1    0    0  501    0  0.00000000000E+00  0.00000000000E+00  0.15685230366E+04  0.15685230366E+04  0.25500000920E-02 0. -1.
       -2   -1    0    0    0  501  0.00000000000E+00  0.00000000000E+00 -0.19342441081E+03  0.19342441083E+03  0.25500000920E-02 0.  1.
    10030    2    1    2    0    0  0.00000000000E+00  0.00000000000E+00  0.13750986258E+04  0.17619474475E+04  0.11016181629E+04 0.  0.
        3    1    3    3  502    0 -0.17718611778E+03 -0.30158762126E+03  0.70152346746E+01  0.34985602374E+03  0.10100000352E+00 0.  1.
       -3    1    3    3    0  502  0.17718611778E+03  0.30158762126E+03  0.13680833911E+04  0.14120914237E+04  0.10100000352E+00 0. -1.
</event>
<event>
 5   0  0.9016738E-05  0.1099071E+04  0.7818609E-02  0.9206098E-01
        1   -1    0    0  501    0  0.00000000000E+00  0.00000000000E+00  0.29905289286E+03  0.29905289291E+03  0.50400001928E-02 0. -1.
       -1   -1    0    0    0  501  0.00000000000E+00  0.00000000000E+00 -0.10098181373E+04  0.10098181373E+04  0.50400001928E-02 0.  1.
    10030    2    1    2    0    0  0.00000000000E+00  0.00000000000E+00 -0.71076524439E+03  0.13088710302E+04  0.10990705805E+04 0.  0.
        4    1    3    3  502    0 -0.48189422344E+03  0.15708350601E+03 -0.60826124729E+03  0.79175793542E+03  0.12699999809E+01 0.  1.
       -4    1    3    3    0  502  0.48189422344E+03 -0.15708350601E+03 -0.10250399711E+03  0.51711309476E+03  0.12699999809E+01 0. -1.
</event>
<event>
 5   0  0.8657442E-05  0.1100199E+04  0.7818609E-02  0.9204998E-01
        1   -1    0    0  501    0  0.00000000000E+00  0.00000000000E+00  0.36960778440E+03  0.36960778443E+03  0.50400001928E-02 0.  1.
       -1   -1    0    0    0  501  0.00000000000E+00  0.00000000000E+00 -0.81873090091E+03  0.81873090093E+03  0.50400001928E-02 0. -1.
    10030    2    1    2    0    0  0.00000000000E+00  0.00000000000E+00 -0.44912311652E+03  0.11883386854E+04  0.11001987354E+04 0.  0.
        1    1    3    3  502    0 -0.39900079178E+03 -0.37840022619E+03 -0.20850629769E+03  0.58810138516E+03  0.50400001928E-02 0.  1.
       -1    1    3    3    0  502  0.39900079178E+03  0.37840022619E+03 -0.24061681883E+03  0.60023730020E+03  0.50400001928E-02 0. -1.
</event>
<event>
 5   0  0.1540772E-04  0.1100042E+04  0.7818609E-02  0.9205151E-01
        2   -1    0    0  501    0  0.00000000000E+00  0.00000000000E+00  0.14858562831E+04  0.14858562831E+04  0.25500000920E-02 0.  1.
       -2   -1    0    0    0  501  0.00000000000E+00  0.00000000000E+00 -0.20360182498E+03  0.20360182499E+03  0.25500000920E-02 0. -1.
    10030    2    1    2    0    0  0.00000000000E+00  0.00000000000E+00  0.12822544581E+04  0.16894581081E+04  0.11000419099E+04 0.  0.
        2    1    3    3  502    0  0.42264992426E+03 -0.45158671718E+02  0.11772353240E+04  0.12516210578E+04  0.25500000920E-02 0.  1.
       -2    1    3    3    0  502 -0.42264992426E+03  0.45158671718E+02  0.10501913411E+03  0.43783705033E+03  0.25500000920E-02 0. -1.
</event>
<event>
 5   0  0.1574101E-04  0.1098106E+04  0.7818609E-02  0.9207040E-01
        2   -1    0    0  501    0  0.00000000000E+00  0.00000000000E+00  0.13274622519E+04  0.13274622519E+04  0.25500000920E-02 0.  1.
       -2   -1    0    0    0  501  0.00000000000E+00  0.00000000000E+00 -0.22709431756E+03  0.22709431757E+03  0.25500000920E-02 0. -1.
    10030    2    1    2    0    0  0.00000000000E+00  0.00000000000E+00  0.11003679344E+04  0.15545565695E+04  0.10981058860E+04 0.  0.
        4    1    3    3  502    0  0.13697755887E+03  0.40320267521E+02  0.13007151542E+04  0.13085297478E+04  0.12699999809E+01 0.  1.
       -4    1    3    3    0  502 -0.13697755887E+03 -0.40320267521E+02 -0.20034721982E+03  0.24602682171E+03  0.12699999809E+01 0. -1.
</event>
<event>
 5   0  0.9346836E-05  0.1099657E+04  0.7818609E-02  0.9205526E-01
        1   -1    0    0  501    0  0.00000000000E+00  0.00000000000E+00  0.12299273953E+04  0.12299273953E+04  0.50400001928E-02 0.  1.
       -1   -1    0    0    0  501  0.00000000000E+00  0.00000000000E+00 -0.24579600881E+03  0.24579600886E+03  0.50400001928E-02 0. -1.
    10030    2    1    2    0    0  0.00000000000E+00  0.00000000000E+00  0.98413138649E+03  0.14757234042E+04  0.10996567554E+04 0.  0.
        5    1    3    3  502    0 -0.32587364017E+03  0.87241443833E+02  0.10746859614E+04  0.11263998866E+04  0.46999998093E+01 0.  1.
       -5    1    3    3    0  502  0.32587364017E+03 -0.87241443833E+02 -0.90554574927E+02  0.34932351756E+03  0.46999998093E+01 0. -1.
</event>
<event>
 5   0  0.6010125E-05  0.1099917E+04  0.7818609E-02  0.9205273E-01
        3   -1    0    0  501    0  0.00000000000E+00  0.00000000000E+00  0.63992757698E+03  0.63992758495E+03  0.10100000352E+00 0.  1.
       -3   -1    0    0    0  501  0.00000000000E+00  0.00000000000E+00 -0.47263860194E+03  0.47263861273E+03  0.10100000352E+00 0. -1.
    10030    2    1    2    0    0  0.00000000000E+00  0.00000000000E+00  0.16728897504E+03  0.11125661977E+04  0.10999172437E+04 0.  0.
        2    1    3    3  502    0  0.58412577127E+01  0.36976399550E+03  0.49538205129E+03  0.61819326218E+03  0.25500000920E-02 0.  1.
       -2    1    3    3    0  502 -0.58412577127E+01 -0.36976399550E+03 -0.32809307625E+03  0.49437293550E+03  0.25500000920E-02 0. -1.
</event>
<event>
 5   0  0.1553937E-04  0.1099910E+04  0.7818609E-02  0.9205280E-01
       -2   -1    0    0    0  501  0.00000000000E+00  0.00000000000E+00  0.92081844609E+03  0.92081844610E+03  0.25500000920E-02 0.  1.
        2   -1    0    0  501    0  0.00000000000E+00  0.00000000000E+00 -0.32845831566E+03  0.32845831567E+03  0.25500000920E-02 0. -1.
    10030    2    1    2    0    0  0.00000000000E+00  0.00000000000E+00  0.59236013043E+03  0.12492767618E+04  0.10999099524E+04 0.  0.
        1    1    3    3  502    0  0.71598322737E+02 -0.81957609679E+01  0.91543227425E+03  0.91826452566E+03  0.50400001928E-02 0.  1.
       -1    1    3    3    0  502 -0.71598322737E+02  0.81957609679E+01 -0.32307214382E+03  0.33101223611E+03  0.50400001928E-02 0. -1.
</event>
<event>
 5   0  0.9346836E-05  0.1098693E+04  0.7818609E-02  0.9206466E-01
        1   -1    0    0  501    0  0.00000000000E+00  0.00000000000E+00  0.81748387767E+03  0.81748387769E+03  0.50400001928E-02 0. -1.
       -1   -1    0    0    0  501  0.00000000000E+00  0.00000000000E+00 -0.36915922328E+03  0.36915922331E+03  0.50400001928E-02 0.  1.
    10030    2    1    2    0    0  0.00000000000E+00  0.00000000000E+00  0.44832465439E+03  0.11866431010E+04  0.10986932481E+04 0.  0.
        5    1    3    3  502    0  0.47310786319E+03 -0.27647024539E+03  0.18243303037E+03  0.57755583917E+03  0.46999998093E+01 0.  1.
       -5    1    3    3    0  502 -0.47310786319E+03  0.27647024539E+03  0.26589162402E+03  0.60908726182E+03  0.46999998093E+01 0. -1.
</event>
<event>
 5   0  0.9016738E-05  0.1100601E+04  0.7818609E-02  0.9204606E-01
       -1   -1    0    0    0  501  0.00000000000E+00  0.00000000000E+00  0.49094424161E+03  0.49094424164E+03  0.50400001928E-02 0.  1.
        1   -1    0    0  501    0  0.00000000000E+00  0.00000000000E+00 -0.61683340800E+03  0.61683340802E+03  0.50400001928E-02 0. -1.
    10030    2    1    2    0    0  0.00000000000E+00  0.00000000000E+00 -0.12588916638E+03  0.11077776497E+04  0.11006013079E+04 0.  0.
        4    1    3    3  502    0  0.17933227057E+03  0.38184933450E+03  0.29271508646E+03  0.51347123801E+03  0.12699999809E+01 0. -1.
       -4    1    3    3    0  502 -0.17933227057E+03 -0.38184933450E+03 -0.41860425284E+03  0.59430641164E+03  0.12699999809E+01 0.  1.
</event>
<event>
 5   0  0.9016738E-05  0.1100553E+04  0.7818609E-02  0.9204653E-01
       -1   -1    0    0    0  501  0.00000000000E+00  0.00000000000E+00  0.28573583562E+03  0.28573583566E+03  0.50400001928E-02 0.  1.
        1   -1    0    0  501    0  0.00000000000E+00  0.00000000000E+00 -0.10597354197E+04  0.10597354198E+04  0.50400001928E-02 0. -1.
    10030    2    1    2    0    0  0.00000000000E+00  0.00000000000E+00 -0.77399958412E+03  0.13454712554E+04  0.11005532895E+04 0.  0.
        4    1    3    3  502    0  0.30068649409E+03 -0.26269099832E+03  0.75928216962E+02  0.40643035733E+03  0.12699999809E+01 0.  1.
       -4    1    3    3    0  502 -0.30068649409E+03  0.26269099832E+03 -0.84992780108E+03  0.93904089809E+03  0.12699999809E+01 0. -1.
</event>
<event>
 5   0  0.8657442E-05  0.1099732E+04  0.7818609E-02  0.9205454E-01
        1   -1    0    0  501    0  0.00000000000E+00  0.00000000000E+00  0.74065025174E+03  0.74065025176E+03  0.50400001928E-02 0. -1.
       -1   -1    0    0    0  501  0.00000000000E+00  0.00000000000E+00 -0.40822556845E+03  0.40822556848E+03  0.50400001928E-02 0.  1.
    10030    2    1    2    0    0  0.00000000000E+00  0.00000000000E+00  0.33242468329E+03  0.11488758202E+04  0.10997315492E+04 0.  0.
        1    1    3    3  502    0  0.12790594700E+02  0.49149239841E+03 -0.91009991898E+02  0.50001119554E+03  0.50400001928E-02 0.  1.
       -1    1    3    3    0  502 -0.12790594700E+02 -0.49149239841E+03  0.42343467519E+03  0.64886462470E+03  0.50400001928E-02 0. -1.
</event>
<event>
 5   0  0.8657442E-05  0.1100008E+04  0.7818609E-02  0.9205184E-01
       -1   -1    0    0    0  501  0.00000000000E+00  0.00000000000E+00  0.65871944082E+03  0.65871944084E+03  0.50400001928E-02 0.  1.
        1   -1    0    0  501    0  0.00000000000E+00  0.00000000000E+00 -0.45923087429E+03  0.45923087432E+03  0.50400001928E-02 0. -1.
    10030    2    1    2    0    0  0.00000000000E+00  0.00000000000E+00  0.19948856653E+03  0.11179503152E+04  0.11000078268E+04 0.  0.
        1    1    3    3  502    0 -0.54946618677E+03  0.11635765694E+02  0.12144254638E+03  0.56284702500E+03  0.50400001928E-02 0.  1.
       -1    1    3    3    0  502  0.54946618677E+03 -0.11635765694E+02  0.78046020145E+02  0.55510329015E+03  0.50400001928E-02 0. -1.
</event>
<event>
 5   0  0.6010125E-05  0.1100056E+04  0.7818609E-02  0.9205137E-01
       -4   -1    0    0    0  501  0.00000000000E+00  0.00000000000E+00  0.69931845994E+03  0.69931961314E+03  0.12699999809E+01 0.  1.
        4   -1    0    0  501    0  0.00000000000E+00  0.00000000000E+00 -0.43260549852E+03  0.43260736269E+03  0.12699999809E+01 0. -1.
    10030    2    1    2    0    0  0.00000000000E+00  0.00000000000E+00  0.26671296142E+03  0.11319269758E+04  0.11000558508E+04 0.  0.
        4    1    3    3  502    0  0.26191661983E+03  0.14677371137E+03  0.60756231331E+03  0.67769935483E+03  0.12699999809E+01 0.  1.
       -4    1    3    3    0  502 -0.26191661983E+03 -0.14677371137E+03 -0.34084935188E+03  0.45422762099E+03  0.12699999809E+01 0. -1.
</event>
<event>
 5   0  0.9346836E-05  0.1100015E+04  0.7818609E-02  0.9205177E-01
       -1   -1    0    0    0  501  0.00000000000E+00  0.00000000000E+00  0.52474628449E+03  0.52474628451E+03  0.50400001928E-02 0.  1.
        1   -1    0    0  501    0  0.00000000000E+00  0.00000000000E+00 -0.57648455905E+03  0.57648455907E+03  0.50400001928E-02 0. -1.
    10030    2    1    2    0    0  0.00000000000E+00  0.00000000000E+00 -0.51738274561E+02  0.11012308436E+04  0.11000147825E+04 0.  0.
        5    1    3    3  502    0 -0.79282358106E+02  0.39642977547E+03 -0.39916710896E+03  0.56815379085E+03  0.46999998093E+01 0. -1.
       -5    1    3    3    0  502  0.79282358106E+02 -0.39642977547E+03  0.34742883440E+03  0.53307705274E+03  0.46999998093E+01 0.  1.
</event>
<event>
 5   0  0.1464205E-04  0.1100046E+04  0.7818609E-02  0.9205147E-01
        2   -1    0    0  501    0  0.00000000000E+00  0.00000000000E+00  0.10808110856E+04  0.10808110856E+04  0.25500000920E-02 0. -1.
       -2   -1    0    0    0  501  0.00000000000E+00  0.00000000000E+00 -0.27990569321E+03  0.27990569323E+03  0.25500000920E-02 0.  1.
    10030    2    1    2    0    0  0.00000000000E+00  0.00000000000E+00  0.80090539241E+03  0.13607167789E+04  0.11000457739E+04 0.  0.
        3    1    3    3  502    0  0.46172304841E+03 -0.15898621447E+03  0.71353010113E+03  0.86463287310E+03  0.10100000352E+00 0.  1.
       -3    1    3    3    0  502 -0.46172304841E+03  0.15898621447E+03  0.87375291277E+02  0.49608390575E+03  0.10100000352E+00 0. -1.
</event>
<event>
 5   0  0.8921459E-05  0.1094857E+04  0.7818609E-02  0.9210220E-01
        1   -1    0    0  501    0  0.00000000000E+00  0.00000000000E+00  0.24724983650E+03  0.24724983656E+03  0.50400001928E-02 0. -1.
       -1   -1    0    0    0  501  0.00000000000E+00  0.00000000000E+00 -0.12120440403E+04  0.12120440403E+04  0.50400001928E-02 0.  1.
    10030    2    1    2    0    0  0.00000000000E+00  0.00000000000E+00 -0.96479420381E+03  0.14592938769E+04  0.10948565036E+04 0.  0.
        3    1    3    3  502    0  0.29892510865E+03 -0.41080366990E+03 -0.21067012490E+03  0.54999798864E+03  0.10100000352E+00 0. -1.
       -3    1    3    3    0  502 -0.29892510865E+03  0.41080366990E+03 -0.75412407891E+03  0.90929588824E+03  0.10100000352E+00 0.  1.
</event>
<event>
 5   0  0.6010125E-05  0.1099769E+04  0.7818609E-02  0.9205417E-01
       -4   -1    0    0    0  501  0.00000000000E+00  0.00000000000E+00  0.24232746229E+03  0.24233079020E+03  0.12699999809E+01 0. -1.
        4   -1    0    0  501    0  0.00000000000E+00  0.00000000000E+00 -0.12477749625E+04  0.12477756088E+04  0.12699999809E+01 0.  1.
    10030    2    1    2    0    0  0.00000000000E+00  0.00000000000E+00 -0.10054475002E+04  0.14901063990E+04  0.10997692507E+04 0.  0.
        5    1    3    3  502    0 -0.52503129118E+02  0.47876247779E+03 -0.14326986301E+03  0.50251212159E+03  0.46999998093E+01 0. -1.
       -5    1    3    3    0  502  0.52503129118E+02 -0.47876247779E+03 -0.86217763719E+03  0.98759427741E+03  0.46999998093E+01 0.  1.
</event>
<event>
 5   0  0.1503277E-04  0.1100368E+04  0.7818609E-02  0.9204834E-01
       -2   -1    0    0    0  501  0.00000000000E+00  0.00000000000E+00  0.56130000641E+03  0.56130000641E+03  0.25500000920E-02 0. -1.
        2   -1    0    0  501    0  0.00000000000E+00  0.00000000000E+00 -0.53928771519E+03  0.53928771519E+03  0.25500000920E-02 0.  1.
    10030    2    1    2    0    0  0.00000000000E+00  0.00000000000E+00  0.22012291221E+02  0.11005877216E+04  0.11003675713E+04 0.  0.
        5    1    3    3  502    0 -0.25626810204E+03 -0.38819973597E+03 -0.28283440887E+03  0.54441690640E+03  0.46999998093E+01 0.  1.
       -5    1    3    3    0  502  0.25626810204E+03  0.38819973597E+03  0.30484670009E+03  0.55617081521E+03  0.46999998093E+01 0. -1.
</event>
<event>
 5   0  0.1464205E-04  0.1100120E+04  0.7818609E-02  0.9205075E-01
       -2   -1    0    0    0  501  0.00000000000E+00  0.00000000000E+00  0.31215623134E+03  0.31215623135E+03  0.25500000920E-02 0.  1.
        2   -1    0    0  501    0  0.00000000000E+00  0.00000000000E+00 -0.96927746826E+03  0.96927746827E+03  0.25500000920E-02 0. -1.
    10030    2    1    2    0    0  0.00000000000E+00  0.00000000000E+00 -0.65712123692E+03  0.12814336996E+04  0.11001199964E+04 0.  0.
        3    1    3    3  502    0  0.50986192668E+03  0.15507312753E+03 -0.48724526752E+03  0.72209058994E+03  0.10100000352E+00 0. -1.
       -3    1    3    3    0  502 -0.50986192668E+03 -0.15507312753E+03 -0.16987596940E+03  0.55934310968E+03  0.10100000352E+00 0.  1.
</event>
<event>
 5   0  0.8657442E-05  0.1100086E+04  0.7818609E-02  0.9205108E-01
       -1   -1    0    0    0  501  0.00000000000E+00  0.00000000000E+00  0.24103568764E+03  0.24103568769E+03  0.50400001928E-02 0.  1.
        1   -1    0    0  501    0  0.00000000000E+00  0.00000000000E+00 -0.12551967249E+04  0.12551967249E+04  0.50400001928E-02 0. -1.
    10030    2    1    2    0    0  0.00000000000E+00  0.00000000000E+00 -0.10141610372E+04  0.14962324126E+04  0.11000858253E+04 0.  0.
        1    1    3    3  502    0  0.39418555554E+03 -0.26561975089E+03 -0.13062094767E+03  0.49294820849E+03  0.50400001928E-02 0.  1.
       -1    1    3    3    0  502 -0.39418555554E+03  0.26561975089E+03 -0.88354008956E+03  0.10032842041E+04  0.50400001928E-02 0. -1.
</event>
<event>
 5   0  0.1574101E-04  0.1098463E+04  0.7818609E-02  0.9206691E-01
       -2   -1    0    0    0  501  0.00000000000E+00  0.00000000000E+00  0.25085969284E+03  0.25085969285E+03  0.25500000920E-02 0.  1.
        2   -1    0    0  501    0  0.00000000000E+00  0.00000000000E+00 -0.12024855815E+04  0.12024855815E+04  0.25500000920E-02 0. -1.
    10030    2    1    2    0    0  0.00000000000E+00  0.00000000000E+00 -0.95162588868E+03  0.14533452744E+04  0.10984628599E+04 0.  0.
        4    1    3    3  502    0 -0.53845229554E+03 -0.80701919094E+02 -0.38031431547E+03  0.66414175126E+03  0.12699999809E+01 0. -1.
       -4    1    3    3    0  502  0.53845229554E+03  0.80701919094E+02 -0.57131157321E+03  0.78920352312E+03  0.12699999809E+01 0.  1.
</event>
<event>
 5   0  0.1553937E-04  0.1098582E+04  0.7818609E-02  0.9206575E-01
       -2   -1    0    0    0  501  0.00000000000E+00  0.00000000000E+00  0.28538590917E+03  0.28538590918E+03  0.25500000920E-02 0.  1.
        2   -1    0    0  501    0  0.00000000000E+00  0.00000000000E+00 -0.10572374320E+04  0.10572374320E+04  0.25500000920E-02 0. -1.
    10030    2    1    2    0    0  0.00000000000E+00  0.00000000000E+00 -0.77185152282E+03  0.13426233412E+04  0.10985821148E+04 0.  0.
        1    1    3    3  502    0 -0.19235836984E+03  0.42964486012E+03 -0.39983540563E+02  0.47243532025E+03  0.50400001928E-02 0.  1.
       -1    1    3    3    0  502  0.19235836984E+03 -0.42964486012E+03 -0.73186798226E+03  0.87018802092E+03  0.50400001928E-02 0. -1.
</event>
<event>
 5   0  0.1464205E-04  0.1099559E+04  0.7818609E-02  0.9205622E-01
       -2   -1    0    0    0  501  0.00000000000E+00  0.00000000000E+00  0.26943278459E+03  0.26943278460E+03  0.25500000920E-02 0.  1.
        2   -1    0    0  501    0  0.00000000000E+00  0.00000000000E+00 -0.11218284316E+04  0.11218284316E+04  0.25500000920E-02 0. -1.
    10030    2    1    2    0    0  0.00000000000E+00  0.00000000000E+00 -0.85239564700E+03  0.13912612162E+04  0.10995587445E+04 0.  0.
        3    1    3    3  502    0 -0.29191516743E+03 -0.38904207587E+03 -0.10190521473E+03  0.49694354283E+03  0.10100000352E+00 0.  1.
       -3    1    3    3    0  502  0.29191516743E+03  0.38904207587E+03 -0.75049043227E+03  0.89431767337E+03  0.10100000352E+00 0. -1.
</event>
<event>
 5   0  0.9346836E-05  0.1099963E+04  0.7818609E-02  0.9205228E-01
       -1   -1    0    0    0  501  0.00000000000E+00  0.00000000000E+00  0.25716404345E+03  0.25716404350E+03  0.50400001928E-02 0.  1.
        1   -1    0    0  501    0  0.00000000000E+00  0.00000000000E+00 -0.11762127466E+04  0.11762127466E+04  0.50400001928E-02 0. -1.
    10030    2    1    2    0    0  0.00000000000E+00  0.00000000000E+00 -0.91904870311E+03  0.14333767901E+04  0.10999629556E+04 0.  0.
        5    1    3    3  502    0  0.39435758673E+03 -0.54500478310E+02 -0.95396856277E+03  0.10337148142E+04  0.46999998093E+01 0. -1.
       -5    1    3    3    0  502 -0.39435758673E+03  0.54500478310E+02  0.34919859666E+02  0.39966197586E+03  0.46999998093E+01 0.  1.
</event>
<event>
 5   0  0.8621738E-05  0.1100267E+04  0.7818609E-02  0.9204931E-01
       -1   -1    0    0    0  501  0.00000000000E+00  0.00000000000E+00  0.35072340465E+03  0.35072340469E+03  0.50400001928E-02 0.  1.
        1   -1    0    0  501    0  0.00000000000E+00  0.00000000000E+00 -0.86292222667E+03  0.86292222669E+03  0.50400001928E-02 0. -1.
    10030    2    1    2    0    0  0.00000000000E+00  0.00000000000E+00 -0.51219882202E+03  0.12136456314E+04  0.11002672790E+04 0.  0.
        2    1    3    3  502    0 -0.74711891771E+01  0.10182644418E+03 -0.85237987834E+03  0.85847300506E+03  0.25500000920E-02 0. -1.
       -2    1    3    3    0  502  0.74711891771E+01 -0.10182644418E+03  0.34018105632E+03  0.35517262632E+03  0.25500000920E-02 0.  1.
</event>
<event>
 5   0  0.8657442E-05  0.1099864E+04  0.7818609E-02  0.9205325E-01
       -1   -1    0    0    0  501  0.00000000000E+00  0.00000000000E+00  0.42909662910E+03  0.42909662912E+03  0.50400001928E-02 0. -1.
        1   -1    0    0  501    0  0.00000000000E+00  0.00000000000E+00 -0.70479479918E+03  0.70479479920E+03  0.50400001928E-02 0.  1.
    10030    2    1    2    0    0  0.00000000000E+00  0.00000000000E+00 -0.27569817009E+03  0.11338914283E+04  0.10998637599E+04 0.  0.
        1    1    3    3  502    0  0.17782840757E+03  0.13851445874E+03 -0.65498130659E+03  0.69268297931E+03  0.50400001928E-02 0.  1.
       -1    1    3    3    0  502 -0.17782840757E+03 -0.13851445874E+03  0.37928313650E+03  0.44120844901E+03  0.50400001928E-02 0. -1.
</event>
<event>
 5   0  0.1540772E-04  0.1098151E+04  0.7818609E-02  0.9206996E-01
       -2   -1    0    0    0  501  0.00000000000E+00  0.00000000000E+00  0.39779940737E+03  0.39779940737E+03  0.25500000920E-02 0.  1.
        2   -1    0    0  501    0  0.00000000000E+00  0.00000000000E+00 -0.75787883278E+03  0.75787883279E+03  0.25500000920E-02 0. -1.
    10030    2    1    2    0    0  0.00000000000E+00  0.00000000000E+00 -0.36007942542E+03  0.11556782402E+04  0.10981507192E+04 0.  0.
        2    1    3    3  502    0 -0.37738440656E+03  0.13409585213E+02  0.23944521150E+03  0.44713847588E+03  0.25500000920E-02 0.  1.
       -2    1    3    3    0  502  0.37738440656E+03 -0.13409585213E+02 -0.59952463692E+03  0.70853976429E+03  0.25500000920E-02 0. -1.
</event>
<event>
 5   0  0.1574101E-04  0.1100111E+04  0.7818609E-02  0.9205084E-01
        2   -1    0    0  501    0  0.00000000000E+00  0.00000000000E+00  0.65034194675E+03  0.65034194675E+03  0.25500000920E-02 0.  1.
       -2   -1    0    0    0  501  0.00000000000E+00  0.00000000000E+00 -0.46523362799E+03  0.46523362800E+03  0.25500000920E-02 0. -1.
    10030    2    1    2    0    0  0.00000000000E+00  0.00000000000E+00  0.18510831876E+03  0.11155755748E+04  0.11001108005E+04 0.  0.
        4    1    3    3  502    0 -0.52639503653E+03 -0.63189051373E+02 -0.56048479950E+02  0.53313003639E+03  0.12699999809E+01 0. -1.
       -4    1    3    3    0  502  0.52639503653E+03  0.63189051373E+02  0.24115679871E+03  0.58244553836E+03  0.12699999809E+01 0.  1.
</event>
<event>
 5   0  0.8621738E-05  0.1100019E+04  0.7818609E-02  0.9205173E-01
       -1   -1    0    0    0  501  0.00000000000E+00  0.00000000000E+00  0.76393982509E+03  0.76393982511E+03  0.50400001928E-02 0.  1.
        1   -1    0    0  501    0  0.00000000000E+00  0.00000000000E+00 -0.39598722537E+03  0.39598722540E+03  0.50400001928E-02 0. -1.
    10030    2    1    2    0    0  0.00000000000E+00  0.00000000000E+00  0.36795259972E+03  0.11599270505E+04  0.11000189302E+04 0.  0.
        2    1    3    3  502    0 -0.41082127990E+03 -0.19001583941E+03  0.51345152198E+03  0.68447980882E+03  0.25500000920E-02 0.  1.
       -2    1    3    3    0  502  0.41082127990E+03  0.19001583941E+03 -0.14549892226E+03  0.47544724169E+03  0.25500000920E-02 0. -1.
</event>
<event>
 5   0  0.6010125E-05  0.1100047E+04  0.7818609E-02  0.9205146E-01
        3   -1    0    0  501    0  0.00000000000E+00  0.00000000000E+00  0.28772328161E+03  0.28772329934E+03  0.10100000352E+00 0. -1.
       -3   -1    0    0    0  501  0.00000000000E+00  0.00000000000E+00 -0.10514473679E+04  0.10514473728E+04  0.10100000352E+00 0.  1.
    10030    2    1    2    0    0  0.00000000000E+00  0.00000000000E+00 -0.76372408631E+03  0.13391706721E+04  0.11000470940E+04 0.  0.
        3    1    3    3  502    0 -0.42457969919E+03  0.19371999150E+03 -0.27502095866E+02  0.46749516741E+03  0.10100000352E+00 0. -1.
       -3    1    3    3    0  502  0.42457969919E+03 -0.19371999150E+03 -0.73622199044E+03  0.87167550469E+03  0.10100000352E+00 0.  1.
</event>
<event>
 5   0  0.8921459E-05  0.1100347E+04  0.7818609E-02  0.9204853E-01
       -1   -1    0    0    0  501  0.00000000000E+00  0.00000000000E+00  0.94149375405E+03  0.94149375406E+03  0.50400001928E-02 0.  1.
        1   -1    0    0  501    0  0.00000000000E+00  0.00000000000E+00 -0.32150089070E+03  0.32150089074E+03  0.50400001928E-02 0. -1.
    10030    2    1    2    0    0  0.00000000000E+00  0.00000000000E+00  0.61999286335E+03  0.12629946448E+04  0.11003473643E+04 0.  0.
        3    1    3    3  502    0  0.16038164361E+03 -0.15282303490E+03  0.88803689959E+03  0.91525225858E+03  0.10100000352E+00 0.  1.
       -3    1    3    3    0  502 -0.16038164361E+03  0.15282303490E+03 -0.26804403624E+03  0.34774238622E+03  0.10100000352E+00 0. -1.
</event>
<event>
 5   0  0.8621738E-05  0.1099946E+04  0.7818609E-02  0.9205245E-01
       -1   -1    0    0    0  501  0.00000000000E+00  0.00000000000E+00  0.18529907754E+03  0.18529907761E+03  0.50400001928E-02 0. -1.
        1   -1    0    0  501    0  0.00000000000E+00  0.00000000000E+00 -0.16323348598E+04  0.16323348598E+04  0.50400001928E-02 0.  1.
    10030    2    1    2    0    0  0.00000000000E+00  0.00000000000E+00 -0.14470357822E+04  0.18176339374E+04  0.10999457147E+04 0.  0.
        2    1    3    3  502    0 -0.28216428821E+03 -0.40107592638E+03 -0.11349530980E+04  0.12363644766E+04  0.25500000920E-02 0.  1.
       -2    1    3    3    0  502  0.28216428821E+03  0.40107592638E+03 -0.31208268420E+03  0.58126946078E+03  0.25500000920E-02 0. -1.
</event>
<event>
 5   0  0.9346836E-05  0.1099543E+04  0.7818609E-02  0.9205637E-01
        1   -1    0    0  501    0  0.00000000000E+00  0.00000000000E+00  0.52294226487E+03  0.52294226489E+03  0.50400001928E-02 0.  1.
       -1   -1    0    0    0  501  0.00000000000E+00  0.00000000000E+00 -0.57797724222E+03  0.57797724224E+03  0.50400001928E-02 0. -1.
    10030    2    1    2    0    0  0.00000000000E+00  0.00000000000E+00 -0.55034977353E+02  0.11009195071E+04  0.10995430471E+04 0.  0.
        5    1    3    3  502    0  0.32280765845E+03  0.11005220221E+03  0.40419551864E+03  0.52887841594E+03  0.46999998093E+01 0.  1.
       -5    1    3    3    0  502 -0.32280765845E+03 -0.11005220221E+03 -0.45923049599E+03  0.57204109119E+03  0.46999998093E+01 0. -1.
</event>
<event>
 5   0  0.1540772E-04  0.1100079E+04  0.7818609E-02  0.9205115E-01
        2   -1    0    0  501    0  0.00000000000E+00  0.00000000000E+00  0.13311667933E+04  0.13311667933E+04  0.25500000920E-02 0.  1.
       -2   -1    0    0    0  501  0.00000000000E+00  0.00000000000E+00 -0.22727684278E+03  0.22727684280E+03  0.25500000920E-02 0. -1.
    10030    2    1    2    0    0  0.00000000000E+00  0.00000000000E+00  0.11038899505E+04  0.15584436361E+04  0.11000788808E+04 0.  0.
        2    1    3    3  502    0 -0.13101143431E+03 -0.53292469433E+03  0.60439336781E+03  0.81637250615E+03  0.25500000920E-02 0. -1.
       -2    1    3    3    0  502  0.13101143431E+03  0.53292469433E+03  0.49949658270E+03  0.74207112994E+03  0.25500000920E-02 0.  1.
</event>
<event>
 5   0  0.1464205E-04  0.1100231E+04  0.7818609E-02  0.9204967E-01
       -2   -1    0    0    0  501  0.00000000000E+00  0.00000000000E+00  0.39692426528E+03  0.39692426529E+03  0.25500000920E-02 0.  1.
        2   -1    0    0  501    0  0.00000000000E+00  0.00000000000E+00 -0.76243044929E+03  0.76243044930E+03  0.25500000920E-02 0. -1.
    10030    2    1    2    0    0  0.00000000000E+00  0.00000000000E+00 -0.36550618401E+03  0.11593547146E+04  0.11002311501E+04 0.  0.
        3    1    3    3  502    0 -0.17666111779E+03  0.12718997995E+03 -0.71511546753E+03  0.74751360097E+03  0.10100000352E+00 0. -1.
       -3    1    3    3    0  502  0.17666111779E+03 -0.12718997995E+03  0.34960928352E+03  0.41184111361E+03  0.10100000352E+00 0.  1.
</event>
<event>
 5   0  0.1540772E-04  0.1100339E+04  0.7818609E-02  0.9204862E-01
        2   -1    0    0  501    0  0.00000000000E+00  0.00000000000E+00  0.98565872460E+03  0.98565872460E+03  0.25500000920E-02 0.  1.
       -2   -1    0    0    0  501  0.00000000000E+00  0.00000000000E+00 -0.30709028949E+03  0.30709028950E+03  0.25500000920E-02 0. -1.
    10030    2    1    2    0    0  0.00000000000E+00  0.00000000000E+00  0.67856843510E+03  0.12927490141E+04  0.11003385353E+04 0.  0.
        2    1    3    3  502    0 -0.45572522290E+03 -0.17843433403E+03  0.63455168416E+03  0.80136142297E+03  0.25500000920E-02 0.  1.
       -2    1    3    3    0  502  0.45572522290E+03  0.17843433403E+03  0.44016750940E+02  0.49138759113E+03  0.25500000920E-02 0. -1.
</event>
<event>
 5   0  0.8921459E-05  0.1100200E+04  0.7818609E-02  0.9204997E-01
        1   -1    0    0  501    0  0.00000000000E+00  0.00000000000E+00  0.76456055126E+03  0.76456055127E+03  0.50400001928E-02 0.  1.
       -1   -1    0    0    0  501  0.00000000000E+00  0.00000000000E+00 -0.39579601647E+03  0.39579601650E+03  0.50400001928E-02 0. -1.
    10030    2    1    2    0    0  0.00000000000E+00  0.00000000000E+00  0.36876453479E+03  0.11603565678E+04  0.11002000192E+04 0.  0.
        3    1    3    3  502    0  0.19590542198E+03 -0.37017411073E+03  0.56053752314E+03  0.69972146720E+03  0.10100000352E+00 0.  1.
       -3    1    3    3    0  502 -0.19590542198E+03  0.37017411073E+03 -0.19177298835E+03  0.46063510057E+03  0.10100000352E+00 0. -1.
</event>
<event>
 5   0  0.8921459E-05  0.1098401E+04  0.7818609E-02  0.9206752E-01
       -1   -1    0    0    0  501  0.00000000000E+00  0.00000000000E+00  0.25658018739E+03  0.25658018744E+03  0.50400001928E-02 0.  1.
        1   -1    0    0  501    0  0.00000000000E+00  0.00000000000E+00 -0.11755429397E+04  0.11755429397E+04  0.50400001928E-02 0. -1.
    10030    2    1    2    0    0  0.00000000000E+00  0.00000000000E+00 -0.91896275228E+03  0.14321231271E+04  0.10984007061E+04 0.  0.
        3    1    3    3  502    0  0.79207476400E+02 -0.15130430007E+03 -0.11400412040E+04  0.11527622359E+04  0.10100000352E+00 0. -1.
       -3    1    3    3    0  502 -0.79207476400E+02  0.15130430007E+03  0.22107845170E+03  0.27936089122E+03  0.10100000352E+00 0.  1.
</event>
<event>
 5   0  0.1503277E-04  0.1100312E+04  0.7818609E-02  0.9204887E-01
       -2   -1    0    0    0  501  0.00000000000E+00  0.00000000000E+00  0.46569047050E+03  0.46569047051E+03  0.25500000920E-02 0.  1.
        2   -1    0    0  501    0  0.00000000000E+00  0.00000000000E+00 -0.64994216571E+03  0.64994216572E+03  0.25500000920E-02 0. -1.
    10030    2    1    2    0    0  0.00000000000E+00  0.00000000000E+00 -0.18425169521E+03  0.11156326362E+04  0.11003124519E+04 0.  0.
        5    1    3    3  502    0  0.11923706727E+02  0.32333145217E+03  0.35900103762E+03  0.48331070519E+03  0.46999998093E+01 0.  1.
       -5    1    3    3    0  502 -0.11923706727E+02 -0.32333145217E+03 -0.54325273283E+03  0.63232193104E+03  0.46999998093E+01 0. -1.
</event>
<event>
 5   0  0.8921459E-05  0.1099538E+04  0.7818609E-02  0.9205642E-01
       -1   -1    0    0    0  501  0.00000000000E+00  0.00000000000E+00  0.25134889762E+03  0.25134889767E+03  0.50400001928E-02 0.  1.
        1   -1    0    0  501    0  0.00000000000E+00  0.00000000000E+00 -0.12024961558E+04  0.12024961558E+04  0.50400001928E-02 0. -1.
    10030    2    1    2    0    0  0.00000000000E+00  0.00000000000E+00 -0.95114725816E+03  0.14538450535E+04  0.10995382362E+04 0.  0.
        3    1    3    3  502    0 -0.36282674340E+03 -0.30272654474E+02  0.69093663532E+02  0.37058551493E+03  0.10100000352E+00 0.  1.
       -3    1    3    3    0  502  0.36282674340E+03  0.30272654474E+02 -0.10202409217E+04  0.10832595385E+04  0.10100000352E+00 0. -1.
</event>
<event>
 5   0  0.8621738E-05  0.1099831E+04  0.7818609E-02  0.9205357E-01
        1   -1    0    0  501    0  0.00000000000E+00  0.00000000000E+00  0.93925013267E+03  0.93925013268E+03  0.50400001928E-02 0. -1.
       -1   -1    0    0    0  501  0.00000000000E+00  0.00000000000E+00 -0.32196630151E+03  0.32196630155E+03  0.50400001928E-02 0.  1.
    10030    2    1    2    0    0  0.00000000000E+00  0.00000000000E+00  0.61728383115E+03  0.12612164342E+04  0.10998306987E+04 0.  0.
        2    1    3    3  502    0 -0.30352387685E+03 -0.44504142845E+03  0.43539797343E+03  0.69264710504E+03  0.25500000920E-02 0.  1.
       -2    1    3    3    0  502  0.30352387685E+03  0.44504142845E+03  0.18188585772E+03  0.56856932919E+03  0.25500000920E-02 0. -1.
</event>
<event>
 5   0  0.1503277E-04  0.1099820E+04  0.7818609E-02  0.9205368E-01
        2   -1    0    0  501    0  0.00000000000E+00  0.00000000000E+00  0.10760432664E+04  0.10760432664E+04  0.25500000920E-02 0.  1.
       -2   -1    0    0    0  501  0.00000000000E+00  0.00000000000E+00 -0.28103034106E+03  0.28103034108E+03  0.25500000920E-02 0. -1.
    10030    2    1    2    0    0  0.00000000000E+00  0.00000000000E+00  0.79501292536E+03  0.13570736075E+04  0.10998196328E+04 0.  0.
        5    1    3    3  502    0 -0.56078022723E+02  0.38982928105E+03 -0.76009701035E+02  0.40113735509E+03  0.46999998093E+01 0. -1.
       -5    1    3    3    0  502  0.56078022723E+02 -0.38982928105E+03  0.87102262640E+03  0.95593625242E+03  0.46999998093E+01 0.  1.
</event>
<event>
 5   0  0.8657442E-05  0.1099959E+04  0.7818609E-02  0.9205232E-01
       -1   -1    0    0    0  501  0.00000000000E+00  0.00000000000E+00  0.28688627221E+03  0.28688627225E+03  0.50400001928E-02 0.  1.
        1   -1    0    0  501    0  0.00000000000E+00  0.00000000000E+00 -0.10543461268E+04  0.10543461269E+04  0.50400001928E-02 0. -1.
    10030    2    1    2    0    0  0.00000000000E+00  0.00000000000E+00 -0.76745985464E+03  0.13412323991E+04  0.10999589629E+04 0.  0.
        1    1    3    3  502    0 -0.80277379308E+02  0.36430765569E+03  0.10903274763E+03  0.38865494427E+03  0.50400001928E-02 0.  1.
       -1    1    3    3    0  502  0.80277379308E+02 -0.36430765569E+03 -0.87649260227E+03  0.95257745485E+03  0.50400001928E-02 0. -1.
</event>
<event>
 5   0  0.1464205E-04  0.1099939E+04  0.7818609E-02  0.9205252E-01
       -2   -1    0    0    0  501  0.00000000000E+00  0.00000000000E+00  0.54997699999E+03  0.54997700000E+03  0.25500000920E-02 0. -1.
        2   -1    0    0  501    0  0.00000000000E+00  0.00000000000E+00 -0.54996181278E+03  0.54996181279E+03  0.25500000920E-02 0.  1.
    10030    2    1    2    0    0  0.00000000000E+00  0.00000000000E+00  0.15187206896E-01  0.10999388128E+04  0.10999388127E+04 0.  0.
        3    1    3    3  502    0 -0.54059492077E+03 -0.10107055379E+03  0.28733412621E+01  0.54996944596E+03  0.10100000352E+00 0.  1.
       -3    1    3    3    0  502  0.54059492077E+03  0.10107055379E+03 -0.28581540552E+01  0.54996936683E+03  0.10100000352E+00 0. -1.
</event>
<event>
 5   0  0.1553937E-04  0.1100180E+04  0.7818609E-02  0.9205016E-01
       -2   -1    0    0    0  501  0.00000000000E+00  0.00000000000E+00  0.11696854482E+03  0.11696854485E+03  0.25500000920E-02 0.  1.
        2   -1    0    0  501    0  0.00000000000E+00  0.00000000000E+00 -0.25870127478E+04  0.25870127478E+04  0.25500000920E-02 0. -1.
    10030    2    1    2    0    0  0.00000000000E+00  0.00000000000E+00 -0.24700442030E+04  0.27039812927E+04  0.11001801972E+04 0.  0.
        1    1    3    3  502    0 -0.22877461404E+03  0.32344635306E+03 -0.21729852681E+04  0.22088051844E+04  0.50400001928E-02 0. -1.
       -1    1    3    3    0  502  0.22877461404E+03 -0.32344635306E+03 -0.29705893488E+03  0.49517610822E+03  0.50400001928E-02 0.  1.
</event>
<event>
 5   0  0.1464205E-04  0.1100397E+04  0.7818609E-02  0.9204805E-01
        2   -1    0    0  501    0  0.00000000000E+00  0.00000000000E+00  0.54727383993E+03  0.54727383994E+03  0.25500000920E-02 0. -1.
       -2   -1    0    0    0  501  0.00000000000E+00  0.00000000000E+00 -0.55313891180E+03  0.55313891181E+03  0.25500000920E-02 0.  1.
    10030    2    1    2    0    0  0.00000000000E+00  0.00000000000E+00 -0.58650718726E+01  0.11004127517E+04  0.11003971216E+04 0.  0.
        3    1    3    3  502    0  0.50429224963E+03  0.50530178370E+02 -0.21707215575E+03  0.55134771512E+03  0.10100000352E+00 0.  1.
       -3    1    3    3    0  502 -0.50429224963E+03 -0.50530178370E+02  0.21120708387E+03  0.54906503663E+03  0.10100000352E+00 0. -1.
</event>
<event>
 5   0  0.6010125E-05  0.1099794E+04  0.7818609E-02  0.9205392E-01
       -4   -1    0    0    0  501  0.00000000000E+00  0.00000000000E+00  0.70418555421E+03  0.70418669943E+03  0.12699999809E+01 0. -1.
        4   -1    0    0  501    0  0.00000000000E+00  0.00000000000E+00 -0.42941124223E+03  0.42941312026E+03  0.12699999809E+01 0.  1.
    10030    2    1    2    0    0  0.00000000000E+00  0.00000000000E+00  0.27477431198E+03  0.11335998197E+04  0.10997943575E+04 0.  0.
        4    1    3    3  502    0  0.37864918779E+03  0.30096756983E+03  0.40701648825E+03  0.63215561384E+03  0.12699999809E+01 0. -1.
       -4    1    3    3    0  502 -0.37864918779E+03 -0.30096756983E+03 -0.13224217628E+03  0.50144420586E+03  0.12699999809E+01 0.  1.
</event>
<event>
 5   0  0.1574101E-04  0.1100127E+04  0.7818609E-02  0.9205068E-01
       -2   -1    0    0    0  501  0.00000000000E+00  0.00000000000E+00  0.40441318580E+03  0.40441318581E+03  0.25500000920E-02 0. -1.
        2   -1    0    0  501    0  0.00000000000E+00  0.00000000000E+00 -0.74816966366E+03  0.74816966366E+03  0.25500000920E-02 0.  1.
    10030    2    1    2    0    0  0.00000000000E+00  0.00000000000E+00 -0.34375647785E+03  0.11525828495E+04  0.11001266785E+04 0.  0.
        4    1    3    3  502    0  0.32779337888E+03 -0.27206318568E+03 -0.53646732019E+03  0.68502968897E+03  0.12699999809E+01 0.  1.
       -4    1    3    3    0  502 -0.32779337888E+03  0.27206318568E+03  0.19271084234E+03  0.46755316050E+03  0.12699999809E+01 0. -1.
</event>
<event>
 5   0  0.8921459E-05  0.1099929E+04  0.7818609E-02  0.9205261E-01
       -1   -1    0    0    0  501  0.00000000000E+00  0.00000000000E+00  0.49719999017E+03  0.49719999019E+03  0.50400001928E-02 0.  1.
        1   -1    0    0  501    0  0.00000000000E+00  0.00000000000E+00 -0.60832873125E+03  0.60832873127E+03  0.50400001928E-02 0. -1.
    10030    2    1    2    0    0  0.00000000000E+00  0.00000000000E+00 -0.11112874108E+03  0.11055287215E+04  0.10999291599E+04 0.  0.
        3    1    3    3  502    0 -0.18428480982E+03 -0.10063119663E+03  0.45532786052E+03  0.50140901431E+03  0.10100000352E+00 0.  1.
       -3    1    3    3    0  502  0.18428480982E+03  0.10063119663E+03 -0.56645660161E+03  0.60411970715E+03  0.10100000352E+00 0. -1.
</event>
<event>
 5   0  0.1503277E-04  0.1099927E+04  0.7818609E-02  0.9205263E-01
       -2   -1    0    0    0  501  0.00000000000E+00  0.00000000000E+00  0.10336082875E+04  0.10336082875E+04  0.25500000920E-02 0. -1.
        2   -1    0    0  501    0  0.00000000000E+00  0.00000000000E+00 -0.29262501646E+03  0.29262501647E+03  0.25500000920E-02 0.  1.
    10030    2    1    2    0    0  0.00000000000E+00  0.00000000000E+00  0.74098327102E+03  0.13262333040E+04  0.10999266196E+04 0.  0.
        5    1    3    3  502    0  0.93340206006E+02  0.26988410489E+02  0.10231526076E+04  0.10277665673E+04  0.46999998093E+01 0. -1.
       -5    1    3    3    0  502 -0.93340206006E+02 -0.26988410489E+02 -0.28216933662E+03  0.29846673665E+03  0.46999998093E+01 0.  1.
</event>
<event>
 5   0  0.6010125E-05  0.1095868E+04  0.7818609E-02  0.9209228E-01
        3   -1    0    0  501    0  0.00000000000E+00  0.00000000000E+00  0.10506952949E+04  0.10506952998E+04  0.10100000352E+00 0.  1.
       -3   -1    0    0    0  501  0.00000000000E+00  0.00000000000E+00 -0.28574580511E+03  0.28574582296E+03  0.10100000352E+00 0. -1.
    10030    2    1    2    0    0  0.00000000000E+00  0.00000000000E+00  0.76494948983E+03  0.13364411228E+04  0.10958682186E+04 0.  0.
        4    1    3    3  502    0  0.40418596352E+03 -0.32557319586E+03  0.59673001223E+03  0.79085556163E+03  0.12699999809E+01 0.  1.
       -4    1    3    3    0  502 -0.40418596352E+03  0.32557319586E+03  0.16821947761E+03  0.54558556113E+03  0.12699999809E+01 0. -1.
</event>
<event>
 5   0  0.6010125E-05  0.1100041E+04  0.7818609E-02  0.9205152E-01
       -3   -1    0    0    0  501  0.00000000000E+00  0.00000000000E+00  0.22266801222E+03  0.22266803512E+03  0.10100000352E+00 0. -1.
        3   -1    0    0  501    0  0.00000000000E+00  0.00000000000E+00 -0.13586250518E+04  0.13586250556E+04  0.10100000352E+00 0.  1.
    10030    2    1    2    0    0  0.00000000000E+00  0.00000000000E+00 -0.11359570396E+04  0.15812930907E+04  0.11000406551E+04 0.  0.
        1    1    3    3  502    0  0.56602633964E+02 -0.19830964501E+03  0.16498684303E+03  0.26410458510E+03  0.50400001928E-02 0. -1.
       -1    1    3    3    0  502 -0.56602633964E+02  0.19830964501E+03 -0.13009438826E+04  0.13171885056E+04  0.50400001928E-02 0.  1.
</event>
<event>
 5   0  0.9346836E-05  0.1098730E+04  0.7818609E-02  0.9206430E-01
        1   -1    0    0  501    0  0.00000000000E+00  0.00000000000E+00  0.76775952433E+03  0.76775952434E+03  0.50400001928E-02 0. -1.
       -1   -1    0    0    0  501  0.00000000000E+00  0.00000000000E+00 -0.39309457995E+03  0.39309457999E+03  0.50400001928E-02 0.  1.
    10030    2    1    2    0    0  0.00000000000E+00  0.00000000000E+00  0.37466494437E+03  0.11608541043E+04  0.10987303723E+04 0.  0.
        5    1    3    3  502    0  0.44917198926E+02 -0.51016149087E+03  0.39730984805E+03  0.64819712039E+03  0.46999998093E+01 0. -1.
       -5    1    3    3    0  502 -0.44917198926E+02  0.51016149087E+03 -0.22644903681E+02  0.51265698394E+03  0.46999998093E+01 0.  1.
</event>
<event>
 5   0  0.6010125E-05  0.1099844E+04  0.7818609E-02  0.9205344E-01
        4   -1    0    0  501    0  0.00000000000E+00  0.00000000000E+00  0.14634511868E+04  0.14634517379E+04  0.12699999809E+01 0.  1.
       -4   -1    0    0    0  501  0.00000000000E+00  0.00000000000E+00 -0.20664188882E+03  0.20664579143E+03  0.12699999809E+01 0. -1.
    10030    2    1    2    0    0  0.00000000000E+00  0.00000000000E+00  0.12568092980E+04  0.16700975293E+04  0.10998436916E+04 0.  0.
        5    1    3    3  502    0 -0.17872261740E+03  0.33683558572E+03  0.12300624778E+04  0.12878182228E+04  0.46999998093E+01 0.  1.
       -5    1    3    3    0  502  0.17872261740E+03 -0.33683558572E+03  0.26746820210E+02  0.38227930648E+03  0.46999998093E+01 0. -1.
</event>
<event>
 5   0  0.8921459E-05  0.1100825E+04  0.7818609E-02  0.9204388E-01
       -1   -1    0    0    0  501  0.00000000000E+00  0.00000000000E+00  0.57304996018E+03  0.57304996020E+03  0.50400001928E-02 0. -1.
        1   -1    0    0  501    0  0.00000000000E+00  0.00000000000E+00 -0.52866929053E+03  0.52866929056E+03  0.50400001928E-02 0.  1.
    10030    2    1    2    0    0  0.00000000000E+00  0.00000000000E+00  0.44380669645E+02  0.11017192508E+04  0.11008249923E+04 0.  0.
        3    1    3    3  502    0  0.61657589878E+02 -0.10369345637E+03  0.55965537537E+03  0.57251038477E+03  0.10100000352E+00 0. -1.
       -3    1    3    3    0  502 -0.61657589878E+02  0.10369345637E+03 -0.51527470573E+03  0.52920886599E+03  0.10100000352E+00 0.  1.
</event>
<event>
 5   0  0.8921459E-05  0.1099673E+04  0.7818609E-02  0.9205511E-01
       -1   -1    0    0    0  501  0.00000000000E+00  0.00000000000E+00  0.37016221405E+03  0.37016221408E+03  0.50400001928E-02 0. -1.
        1   -1    0    0  501    0  0.00000000000E+00  0.00000000000E+00 -0.81672366852E+03  0.81672366853E+03  0.50400001928E-02 0.  1.
    10030    2    1    2    0    0  0.00000000000E+00  0.00000000000E+00 -0.44656145447E+03  0.11868858826E+04  0.10996731177E+04 0.  0.
        3    1    3    3  502    0  0.47163099673E+02  0.52731054227E+03 -0.63049971026E+02  0.53315670774E+03  0.10100000352E+00 0. -1.
       -3    1    3    3    0  502 -0.47163099673E+02 -0.52731054227E+03 -0.38351148344E+03  0.65372917488E+03  0.10100000352E+00 0.  1.
</event>
<event>
 5   0  0.1503277E-04  0.1099956E+04  0.7818609E-02  0.9205235E-01
        2   -1    0    0  501    0  0.00000000000E+00  0.00000000000E+00  0.13459460841E+04  0.13459460841E+04  0.25500000920E-02 0. -1.
       -2   -1    0    0    0  501  0.00000000000E+00  0.00000000000E+00 -0.22473101528E+03  0.22473101529E+03  0.25500000920E-02 0.  1.
    10030    2    1    2    0    0  0.00000000000E+00  0.00000000000E+00  0.11212150688E+04  0.15706770994E+04  0.10999560537E+04 0.  0.
        5    1    3    3  502    0  0.30009568807E+01  0.37439628336E+03 -0.14611941929E+02  0.37472280633E+03  0.46999998093E+01 0.  1.
       -5    1    3    3    0  502 -0.30009568807E+01 -0.37439628336E+03  0.11358270107E+04  0.11959542931E+04  0.46999998093E+01 0. -1.
</event>
<event>
 5   0  0.8657442E-05  0.1100416E+04  0.7818609E-02  0.9204787E-01
        1   -1    0    0  501    0  0.00000000000E+00  0.00000000000E+00  0.40055870343E+03  0.40055870347E+03  0.50400001928E-02 0. -1.
       -1   -1    0    0    0  501  0.00000000000E+00  0.00000000000E+00 -0.75576594107E+03  0.75576594109E+03  0.50400001928E-02 0.  1.
    10030    2    1    2    0    0  0.00000000000E+00  0.00000000000E+00 -0.35520723764E+03  0.11563246446E+04  0.11004156042E+04 0.  0.
        1    1    3    3  502    0  0.37800676732E+03 -0.39918700310E+03 -0.20084632147E+03  0.58530216509E+03  0.50400001928E-02 0.  1.
       -1    1    3    3    0  502 -0.37800676732E+03  0.39918700310E+03 -0.15436091617E+03  0.57102247946E+03  0.50400001928E-02 0. -1.
</event>
<event>
 5   0  0.9346836E-05  0.1100358E+04  0.7818609E-02  0.9204843E-01
       -1   -1    0    0    0  501  0.00000000000E+00  0.00000000000E+00  0.63612532722E+03  0.63612532724E+03  0.50400001928E-02 0. -1.
        1   -1    0    0  501    0  0.00000000000E+00  0.00000000000E+00 -0.47584483114E+03  0.47584483117E+03  0.50400001928E-02 0.  1.
    10030    2    1    2    0    0  0.00000000000E+00  0.00000000000E+00  0.16028049607E+03  0.11119701584E+04  0.11003580307E+04 0.  0.
        5    1    3    3  502    0  0.18437719505E+03  0.25260544547E+03 -0.37726244824E+03  0.49005459491E+03  0.46999998093E+01 0.  1.
       -5    1    3    3    0  502 -0.18437719505E+03 -0.25260544547E+03  0.53754294432E+03  0.62191556350E+03  0.46999998093E+01 0. -1.
</event>
<event>
 5   0  0.9016738E-05  0.1100607E+04  0.7818609E-02  0.9204600E-01
        1   -1    0    0  501    0  0.00000000000E+00  0.00000000000E+00  0.10760793991E+04  0.10760793991E+04  0.50400001928E-02 0.  1.
       -1   -1    0    0    0  501  0.00000000000E+00  0.00000000000E+00 -0.28142341616E+03  0.28142341621E+03  0.50400001928E-02 0. -1.
    10030    2    1    2    0    0  0.00000000000E+00  0.00000000000E+00  0.79465598292E+03  0.13575028153E+04  0.11006069972E+04 0.  0.
        4    1    3    3  502    0  0.22490803189E+03 -0.62792242225E+02 -0.21728528263E+03  0.31896864335E+03  0.12699999809E+01 0. -1.
       -4    1    3    3    0  502 -0.22490803189E+03  0.62792242225E+02  0.10119412655E+04  0.10385341720E+04  0.12699999809E+01 0.  1.
</event>
<event>
 5   0  0.8621738E-05  0.1100013E+04  0.7818609E-02  0.9205179E-01
        1   -1    0    0  501    0  0.00000000000E+00  0.00000000000E+00  0.11191598599E+04  0.11191598599E+04  0.50400001928E-02 0.  1.
       -1   -1    0    0    0  501  0.00000000000E+00  0.00000000000E+00 -0.27029856368E+03  0.27029856373E+03  0.50400001928E-02 0. -1.
    10030    2    1    2    0    0  0.00000000000E+00  0.00000000000E+00  0.84886129625E+03  0.13894584237E+04  0.11000132776E+04 0.  0.
        2    1    3    3  502    0  0.14549999487E+03 -0.24681601634E+03  0.10174543510E+04  0.10570249528E+04  0.25500000920E-02 0.  1.
       -2    1    3    3    0  502 -0.14549999487E+03  0.24681601634E+03 -0.16859305477E+03  0.33243347086E+03  0.25500000920E-02 0. -1.
</event>
<event>
 5   0  0.1540772E-04  0.1098828E+04  0.7818609E-02  0.9206335E-01
        2   -1    0    0  501    0  0.00000000000E+00  0.00000000000E+00  0.58936364693E+03  0.58936364694E+03  0.25500000920E-02 0.  1.
       -2   -1    0    0    0  501  0.00000000000E+00  0.00000000000E+00 -0.51217211807E+03  0.51217211808E+03  0.25500000920E-02 0. -1.
    10030    2    1    2    0    0  0.00000000000E+00  0.00000000000E+00  0.77191528862E+02  0.11015357650E+04  0.10988277888E+04 0.  0.
        2    1    3    3  502    0 -0.84449876535E+02  0.31609542934E+03  0.48105354163E+03  0.58177367766E+03  0.25500000920E-02 0.  1.
       -2    1    3    3    0  502  0.84449876535E+02 -0.31609542934E+03 -0.40386201276E+03  0.51976208736E+03  0.25500000920E-02 0. -1.
</event>
<event>
 5   0  0.1464205E-04  0.1099866E+04  0.7818609E-02  0.9205323E-01
       -2   -1    0    0    0  501  0.00000000000E+00  0.00000000000E+00  0.61046462319E+03  0.61046462319E+03  0.25500000920E-02 0. -1.
        2   -1    0    0  501    0  0.00000000000E+00  0.00000000000E+00 -0.49540313633E+03  0.49540313633E+03  0.25500000920E-02 0.  1.
    10030    2    1    2    0    0  0.00000000000E+00  0.00000000000E+00  0.11506148686E+03  0.11058677595E+04  0.10998656081E+04 0.  0.
        3    1    3    3  502    0  0.47856324974E+03  0.22464657354E+03  0.20980759417E+03  0.56877772792E+03  0.10100000352E+00 0. -1.
       -3    1    3    3    0  502 -0.47856324974E+03 -0.22464657354E+03 -0.94746107306E+02  0.53709003161E+03  0.10100000352E+00 0.  1.
</event>
<event>
 5   0  0.1574101E-04  0.1101866E+04  0.7818609E-02  0.9203375E-01
       -2   -1    0    0    0  501  0.00000000000E+00  0.00000000000E+00  0.24429763688E+03  0.24429763689E+03  0.25500000920E-02 0.  1.
        2   -1    0    0  501    0  0.00000000000E+00  0.00000000000E+00 -0.12424492224E+04  0.12424492224E+04  0.25500000920E-02 0. -1.
    10030    2    1    2    0    0  0.00000000000E+00  0.00000000000E+00 -0.99815158554E+03  0.14867468593E+04  0.11018664329E+04 0.  0.
        4    1    3    3  502    0 -0.40969644048E+03  0.36100739507E+03 -0.59775264448E+03  0.80962173237E+03  0.12699999809E+01 0.  1.
       -4    1    3    3    0  502  0.40969644048E+03 -0.36100739507E+03 -0.40039894106E+03  0.67712512695E+03  0.12699999809E+01 0. -1.
</event>
<event>
 5   0  0.8921459E-05  0.1098927E+04  0.7818609E-02  0.9206238E-01
       -1   -1    0    0    0  501  0.00000000000E+00  0.00000000000E+00  0.28277905854E+03  0.28277905858E+03  0.50400001928E-02 0. -1.
        1   -1    0    0  501    0  0.00000000000E+00  0.00000000000E+00 -0.10676540827E+04  0.10676540827E+04  0.50400001928E-02 0.  1.
    10030    2    1    2    0    0  0.00000000000E+00  0.00000000000E+00 -0.78487502417E+03  0.13504331413E+04  0.10989271430E+04 0.  0.
        3    1    3    3  502    0 -0.30447151997E+03  0.79803810801E+02 -0.94588898104E+03  0.99688390966E+03  0.10100000352E+00 0.  1.
       -3    1    3    3    0  502  0.30447151997E+03 -0.79803810801E+02  0.16101395686E+03  0.35354923165E+03  0.10100000352E+00 0. -1.
</event>
<event>
 5   0  0.1553937E-04  0.1100285E+04  0.7818609E-02  0.9204914E-01
       -2   -1    0    0    0  501  0.00000000000E+00  0.00000000000E+00  0.24888437988E+03  0.24888437989E+03  0.25500000920E-02 0.  1.
        2   -1    0    0  501    0  0.00000000000E+00  0.00000000000E+00 -0.12160532831E+04  0.12160532831E+04  0.25500000920E-02 0. -1.
    10030    2    1    2    0    0  0.00000000000E+00  0.00000000000E+00 -0.96716890323E+03  0.14649376630E+04  0.11002848127E+04 0.  0.
        1    1    3    3  502    0  0.12171859423E+03  0.12456567661E+03  0.21121184992E+03  0.27375622284E+03  0.50400001928E-02 0.  1.
       -1    1    3    3    0  502 -0.12171859423E+03 -0.12456567661E+03 -0.11783807531E+04  0.11911814402E+04  0.50400001928E-02 0. -1.
</event>
<event>
 5   0  0.1503277E-04  0.1099845E+04  0.7818609E-02  0.9205343E-01
       -2   -1    0    0    0  501  0.00000000000E+00  0.00000000000E+00  0.15341729753E+03  0.15341729755E+03  0.25500000920E-02 0.  1.
        2   -1    0    0  501    0  0.00000000000E+00  0.00000000000E+00 -0.19711914711E+04  0.19711914711E+04  0.25500000920E-02 0. -1.
    10030    2    1    2    0    0  0.00000000000E+00  0.00000000000E+00 -0.18177741736E+04  0.21246087686E+04  0.10998452044E+04 0.  0.
        5    1    3    3  502    0  0.24057831255E+03  0.67658327541E+02  0.37341798445E+02  0.25272924972E+03  0.46999998093E+01 0.  1.
       -5    1    3    3    0  502 -0.24057831255E+03 -0.67658327541E+02 -0.18551159720E+04  0.18718795189E+04  0.46999998093E+01 0. -1.
</event>
<event>
 5   0  0.9016738E-05  0.1101027E+04  0.7818609E-02  0.9204192E-01
       -1   -1    0    0    0  501  0.00000000000E+00  0.00000000000E+00  0.85362544719E+03  0.85362544720E+03  0.50400001928E-02 0.  1.
        1   -1    0    0  501    0  0.00000000000E+00  0.00000000000E+00 -0.35503258722E+03  0.35503258726E+03  0.50400001928E-02 0. -1.
    10030    2    1    2    0    0  0.00000000000E+00  0.00000000000E+00  0.49859285997E+03  0.12086580345E+04  0.11010265230E+04 0.  0.
        4    1    3    3  502    0 -0.65401860197E+02 -0.43644078181E+03  0.61056524514E+03  0.75335880616E+03  0.12699999809E+01 0.  1.
       -4    1    3    3    0  502  0.65401860197E+02  0.43644078181E+03 -0.11197238518E+03  0.45529922830E+03  0.12699999809E+01 0. -1.
</event>
<event>
 5   0  0.8621738E-05  0.1099727E+04  0.7818609E-02  0.9205458E-01
        1   -1    0    0  501    0  0.00000000000E+00  0.00000000000E+00  0.11291581053E+04  0.11291581053E+04  0.50400001928E-02 0.  1.
       -1   -1    0    0    0  501  0.00000000000E+00  0.00000000000E+00 -0.26776592991E+03  0.26776592996E+03  0.50400001928E-02 0. -1.
    10030    2    1    2    0    0  0.00000000000E+00  0.00000000000E+00  0.86139217540E+03  0.13969240353E+04  0.10997273665E+04 0.  0.
        2    1    3    3  502    0 -0.12856744288E+03 -0.52370276277E+03  0.56724543431E+03  0.78266311645E+03  0.25500000920E-02 0.  1.
       -2    1    3    3    0  502  0.12856744288E+03  0.52370276277E+03  0.29414674109E+03  0.61426091883E+03  0.25500000920E-02 0. -1.
</event>
<event>
 5   0  0.8621738E-05  0.1100561E+04  0.7818609E-02  0.9204645E-01
        1   -1    0    0  501    0  0.00000000000E+00  0.00000000000E+00  0.29768135234E+03  0.29768135239E+03  0.50400001928E-02 0.  1.
       -1   -1    0    0    0  501  0.00000000000E+00  0.00000000000E+00 -0.10172249001E+04  0.10172249001E+04  0.50400001928E-02 0. -1.
    10030    2    1    2    0    0  0.00000000000E+00  0.00000000000E+00 -0.71954354775E+03  0.13149062525E+04  0.11005614639E+04 0.  0.
        2    1    3    3  502    0  0.25394715767E+03 -0.59164519223E+02  0.21918663885E+03  0.34063526223E+03  0.25500000920E-02 0.  1.
       -2    1    3    3    0  502 -0.25394715767E+03  0.59164519223E+02 -0.93873018660E+03  0.97427099026E+03  0.25500000920E-02 0. -1.
</event>
<event>
 5   0  0.8921459E-05  0.1099758E+04  0.7818609E-02  0.9205428E-01
        1   -1    0    0  501    0  0.00000000000E+00  0.00000000000E+00  0.85117031408E+03  0.85117031409E+03  0.50400001928E-02 0. -1.
       -1   -1    0    0    0  501  0.00000000000E+00  0.00000000000E+00 -0.35523655048E+03  0.35523655052E+03  0.50400001928E-02 0.  1.
    10030    2    1    2    0    0  0.00000000000E+00  0.00000000000E+00  0.49593376360E+03  0.12064068646E+04  0.10997578029E+04 0.  0.
        3    1    3    3  502    0  0.49305713064E+02 -0.51506978010E+03  0.45213060180E+03  0.68713173628E+03  0.10100000352E+00 0. -1.
       -3    1    3    3    0  502 -0.49305713064E+02  0.51506978010E+03  0.43803161793E+02  0.51927512833E+03  0.10100000352E+00 0.  1.
</event>
<event>
 5   0  0.8621738E-05  0.1099884E+04  0.7818609E-02  0.9205305E-01
       -1   -1    0    0    0  501  0.00000000000E+00  0.00000000000E+00  0.79441080270E+03  0.79441080272E+03  0.50400001928E-02 0. -1.
        1   -1    0    0  501    0  0.00000000000E+00  0.00000000000E+00 -0.38070529578E+03  0.38070529581E+03  0.50400001928E-02 0.  1.
    10030    2    1    2    0    0  0.00000000000E+00  0.00000000000E+00  0.41370550692E+03  0.11751160985E+04  0.10998843569E+04 0.  0.
        2    1    3    3  502    0 -0.11473990223E+03  0.51502321151E+03  0.37244521285E+03  0.64585570380E+03  0.25500000920E-02 0. -1.
       -2    1    3    3    0  502  0.11473990223E+03 -0.51502321151E+03  0.41260294077E+02  0.52926039473E+03  0.25500000920E-02 0.  1.
</event>
<event>
 5   0  0.1540772E-04  0.1099521E+04  0.7818609E-02  0.9205658E-01
       -2   -1    0    0    0  501  0.00000000000E+00  0.00000000000E+00  0.27403327803E+03  0.27403327804E+03  0.25500000920E-02 0. -1.
        2   -1    0    0  501    0  0.00000000000E+00  0.00000000000E+00 -0.11029201309E+04  0.11029201309E+04  0.25500000920E-02 0.  1.
    10030    2    1    2    0    0  0.00000000000E+00  0.00000000000E+00 -0.82888685282E+03  0.13769534089E+04  0.10995213847E+04 0.  0.
        2    1    3    3  502    0 -0.23971133639E+03  0.16617953875E+03  0.16914293885E+03  0.33717428381E+03  0.25500000920E-02 0. -1.
       -2    1    3    3    0  502  0.23971133639E+03 -0.16617953875E+03 -0.99802979167E+03  0.10397791251E+04  0.25500000920E-02 0.  1.
</event>
<event>
 5   0  0.1540772E-04  0.1099840E+04  0.7818609E-02  0.9205348E-01
        2   -1    0    0  501    0  0.00000000000E+00  0.00000000000E+00  0.36245527477E+03  0.36245527477E+03  0.25500000920E-02 0. -1.
       -2   -1    0    0    0  501  0.00000000000E+00  0.00000000000E+00 -0.83434293706E+03  0.83434293706E+03  0.25500000920E-02 0.  1.
    10030    2    1    2    0    0  0.00000000000E+00  0.00000000000E+00 -0.47188766229E+03  0.11967982118E+04  0.10998399856E+04 0.  0.
        2    1    3    3  502    0 -0.36061180151E+02  0.31581915356E+03 -0.72424599893E+03  0.79093262257E+03  0.25500000920E-02 0.  1.
       -2    1    3    3    0  502  0.36061180151E+02 -0.31581915356E+03  0.25235833664E+03  0.40586558926E+03  0.25500000920E-02 0. -1.
</event>
<event>
 5   0  0.1464205E-04  0.1100046E+04  0.7818609E-02  0.9205147E-01
       -2   -1    0    0    0  501  0.00000000000E+00  0.00000000000E+00  0.29063242868E+03  0.29063242869E+03  0.25500000920E-02 0.  1.
        2   -1    0    0  501    0  0.00000000000E+00  0.00000000000E+00 -0.10409208608E+04  0.10409208608E+04  0.25500000920E-02 0. -1.
    10030    2    1    2    0    0  0.00000000000E+00  0.00000000000E+00 -0.75028843212E+03  0.13315532895E+04  0.11000461042E+04 0.  0.
        3    1    3    3  502    0  0.50717295889E+03  0.20406423242E+03 -0.44836133497E+03  0.70703219027E+03  0.10100000352E+00 0. -1.
       -3    1    3    3    0  502 -0.50717295889E+03 -0.20406423242E+03 -0.30192709714E+03  0.62452109922E+03  0.10100000352E+00 0.  1.
</event>
<event>
 5   0  0.6010125E-05  0.1099504E+04  0.7818609E-02  0.9205675E-01
        3   -1    0    0  501    0  0.00000000000E+00  0.00000000000E+00  0.66290433600E+03  0.66290434369E+03  0.10100000352E+00 0. -1.
       -3   -1    0    0    0  501  0.00000000000E+00  0.00000000000E+00 -0.45591389370E+03  0.45591390489E+03  0.10100000352E+00 0.  1.
    10030    2    1    2    0    0  0.00000000000E+00  0.00000000000E+00  0.20699044230E+03  0.11188182486E+04  0.10995040837E+04 0.  0.
        1    1    3    3  502    0  0.48858111874E+03 -0.25178832030E+03  0.92421047694E+02  0.55736031246E+03  0.50400001928E-02 0.  1.
       -1    1    3    3    0  502 -0.48858111874E+03  0.25178832030E+03  0.11456939460E+03  0.56145793612E+03  0.50400001928E-02 0. -1.
</event>
<event>
 5   0  0.9016738E-05  0.1104056E+04  0.7818609E-02  0.9201248E-01
       -1   -1    0    0    0  501  0.00000000000E+00  0.00000000000E+00  0.47025478222E+03  0.47025478225E+03  0.50400001928E-02 0. -1.
        1   -1    0    0  501    0  0.00000000000E+00  0.00000000000E+00 -0.64802054730E+03  0.64802054732E+03  0.50400001928E-02 0.  1.
    10030    2    1    2    0    0  0.00000000000E+00  0.00000000000E+00 -0.17776576508E+03  0.11182753296E+04  0.11040557257E+04 0.  0.
        4    1    3    3  502    0 -0.49973711725E+03 -0.30066424513E+02  0.14668938254E+03  0.52169010350E+03  0.12699999809E+01 0. -1.
       -4    1    3    3    0  502  0.49973711725E+03  0.30066424513E+02 -0.32445514763E+03  0.59658522607E+03  0.12699999809E+01 0.  1.
</event>
<event>
 5   0  0.8621738E-05  0.1099818E+04  0.7818609E-02  0.9205369E-01
        1   -1    0    0  501    0  0.00000000000E+00  0.00000000000E+00  0.64630822977E+03  0.64630822979E+03  0.50400001928E-02 0. -1.
       -1   -1    0    0    0  501  0.00000000000E+00  0.00000000000E+00 -0.46788838286E+03  0.46788838289E+03  0.50400001928E-02 0.  1.
    10030    2    1    2    0    0  0.00000000000E+00  0.00000000000E+00  0.17841984691E+03  0.11141966127E+04  0.10998183713E+04 0.  0.
        2    1    3    3  502    0  0.36143470392E+03 -0.37129628172E+03 -0.97328035473E+02  0.52722738976E+03  0.25500000920E-02 0.  1.
       -2    1    3    3    0  502 -0.36143470392E+03  0.37129628172E+03  0.27574788239E+03  0.58696922292E+03  0.25500000920E-02 0. -1.
</event>
<event>
 5   0  0.8621738E-05  0.1100037E+04  0.7818609E-02  0.9205155E-01
        1   -1    0    0  501    0  0.00000000000E+00  0.00000000000E+00  0.10585262862E+04  0.10585262862E+04  0.50400001928E-02 0. -1.
       -1   -1    0    0    0  501  0.00000000000E+00  0.00000000000E+00 -0.28579407593E+03  0.28579407597E+03  0.50400001928E-02 0.  1.
    10030    2    1    2    0    0  0.00000000000E+00  0.00000000000E+00  0.77273221027E+03  0.13443203622E+04  0.11000373482E+04 0.  0.
        2    1    3    3  502    0 -0.45223500189E+02  0.37838300202E+03 -0.98321627330E+02  0.39355559149E+03  0.25500000920E-02 0.  1.
       -2    1    3    3    0  502  0.45223500189E+02 -0.37838300202E+03  0.87105383760E+03  0.95076477070E+03  0.25500000920E-02 0. -1.
</event>
<event>
 5   0  0.1464205E-04  0.1099613E+04  0.7818609E-02  0.9205569E-01
        2   -1    0    0  501    0  0.00000000000E+00  0.00000000000E+00  0.39690062317E+03  0.39690062318E+03  0.25500000920E-02 0. -1.
       -2   -1    0    0    0  501  0.00000000000E+00  0.00000000000E+00 -0.76161975564E+03  0.76161975564E+03  0.25500000920E-02 0.  1.
    10030    2    1    2    0    0  0.00000000000E+00  0.00000000000E+00 -0.36471913247E+03  0.11585203788E+04  0.10996133059E+04 0.  0.
        3    1    3    3  502    0  0.12886032363E+03 -0.23908674090E+03  0.32128679082E+03  0.42070496175E+03  0.10100000352E+00 0. -1.
       -3    1    3    3    0  502 -0.12886032363E+03  0.23908674090E+03 -0.68600592329E+03  0.73781541707E+03  0.10100000352E+00 0.  1.
</event>
<event>
 5   0  0.1540772E-04  0.1100094E+04  0.7818609E-02  0.9205100E-01
       -2   -1    0    0    0  501  0.00000000000E+00  0.00000000000E+00  0.31753614601E+03  0.31753614602E+03  0.25500000920E-02 0.  1.
        2   -1    0    0  501    0  0.00000000000E+00  0.00000000000E+00 -0.95280993170E+03  0.95280993171E+03  0.25500000920E-02 0. -1.
    10030    2    1    2    0    0  0.00000000000E+00  0.00000000000E+00 -0.63527378569E+03  0.12703460777E+04  0.11000938026E+04 0.  0.
        2    1    3    3  502    0  0.29915190940E+03 -0.43918900029E+03 -0.48164861693E+03  0.71719190812E+03  0.25500000920E-02 0. -1.
       -2    1    3    3    0  502 -0.29915190940E+03  0.43918900029E+03 -0.15362516876E+03  0.55315416961E+03  0.25500000920E-02 0.  1.
</event>
<event>
 5   0  0.1540772E-04  0.1099588E+04  0.7818609E-02  0.9205593E-01
        2   -1    0    0  501    0  0.00000000000E+00  0.00000000000E+00  0.76491763172E+03  0.76491763172E+03  0.25500000920E-02 0. -1.
       -2   -1    0    0    0  501  0.00000000000E+00  0.00000000000E+00 -0.39517127180E+03  0.39517127181E+03  0.25500000920E-02 0.  1.
    10030    2    1    2    0    0  0.00000000000E+00  0.00000000000E+00  0.36974635991E+03  0.11600889035E+04  0.10995880562E+04 0.  0.
        2    1    3    3  502    0  0.29131015197E+03  0.23595789961E+03  0.60916460675E+03  0.71527564838E+03  0.25500000920E-02 0. -1.
       -2    1    3    3    0  502 -0.29131015197E+03 -0.23595789961E+03 -0.23941824684E+03  0.44481325515E+03  0.25500000920E-02 0.  1.
</event>
<event>
 5   0  0.8621738E-05  0.1100473E+04  0.7818609E-02  0.9204731E-01
       -1   -1    0    0    0  501  0.00000000000E+00  0.00000000000E+00  0.10503394545E+04  0.10503394545E+04  0.50400001928E-02 0. -1.
        1   -1    0    0  501    0  0.00000000000E+00  0.00000000000E+00 -0.28824963778E+03  0.28824963782E+03  0.50400001928E-02 0.  1.
    10030    2    1    2    0    0  0.00000000000E+00  0.00000000000E+00  0.76208981668E+03  0.13385890923E+04  0.11004725664E+04 0.  0.
        2    1    3    3  502    0 -0.42182437651E+03 -0.27265211125E+03  0.10773889078E+03  0.51369509145E+03  0.25500000920E-02 0.  1.
       -2    1    3    3    0  502  0.42182437651E+03  0.27265211125E+03  0.65435092591E+03  0.82489400085E+03  0.25500000920E-02 0. -1.
</event>
<event>
 5   0  0.9346836E-05  0.1100312E+04  0.7818609E-02  0.9204888E-01
        1   -1    0    0  501    0  0.00000000000E+00  0.00000000000E+00  0.11629744490E+04  0.11629744490E+04  0.50400001928E-02 0.  1.
       -1   -1    0    0    0  501  0.00000000000E+00  0.00000000000E+00 -0.26025650286E+03  0.26025650291E+03  0.50400001928E-02 0. -1.
    10030    2    1    2    0    0  0.00000000000E+00  0.00000000000E+00  0.90271794614E+03  0.14232309519E+04  0.11003120704E+04 0.  0.
        5    1    3    3  502    0  0.23567197180E+03 -0.25352010102E+03 -0.10172386690E+03  0.36080958275E+03  0.46999998093E+01 0. -1.
       -5    1    3    3    0  502 -0.23567197180E+03  0.25352010102E+03  0.10044418130E+04  0.10624213692E+04  0.46999998093E+01 0.  1.
</event>
<event>
 5   0  0.1553937E-04  0.1099812E+04  0.7818609E-02  0.9205375E-01
        2   -1    0    0  501    0  0.00000000000E+00  0.00000000000E+00  0.54487273809E+03  0.54487273809E+03  0.25500000920E-02 0.  1.
       -2   -1    0    0    0  501  0.00000000000E+00  0.00000000000E+00 -0.55498567990E+03  0.55498567991E+03  0.25500000920E-02 0. -1.
    10030    2    1    2    0    0  0.00000000000E+00  0.00000000000E+00 -0.10112941819E+02  0.10998584180E+04  0.10998119239E+04 0.  0.
        1    1    3    3  502    0  0.54598739922E+03  0.65225182071E+02 -0.11381491318E+02  0.54998736609E+03  0.50400001928E-02 0. -1.
       -1    1    3    3    0  502 -0.54598739922E+03 -0.65225182071E+02  0.12685494991E+01  0.54987105191E+03  0.50400001928E-02 0.  1.
</event>
<event>
 5   0  0.1464205E-04  0.1099826E+04  0.7818609E-02  0.9205362E-01
       -2   -1    0    0    0  501  0.00000000000E+00  0.00000000000E+00  0.44843698175E+03  0.44843698176E+03  0.25500000920E-02 0.  1.
        2   -1    0    0  501    0  0.00000000000E+00  0.00000000000E+00 -0.67435179757E+03  0.67435179758E+03  0.25500000920E-02 0. -1.
    10030    2    1    2    0    0  0.00000000000E+00  0.00000000000E+00 -0.22591481582E+03  0.11227887793E+04  0.10998259585E+04 0.  0.
        3    1    3    3  502    0 -0.16992587902E+03 -0.48877311684E+03  0.77020145488E+02  0.52316926240E+03  0.10100000352E+00 0.  1.
       -3    1    3    3    0  502  0.16992587902E+03  0.48877311684E+03 -0.30293496131E+03  0.59961951694E+03  0.10100000352E+00 0. -1.
</event>
<event>
 5   0  0.6010125E-05  0.1099851E+04  0.7818609E-02  0.9205337E-01
        4   -1    0    0  501    0  0.00000000000E+00  0.00000000000E+00  0.88120449996E+03  0.88120541513E+03  0.12699999809E+01 0. -1.
       -4   -1    0    0    0  501  0.00000000000E+00  0.00000000000E+00 -0.34318516103E+03  0.34318751092E+03  0.12699999809E+01 0.  1.
    10030    2    1    2    0    0  0.00000000000E+00  0.00000000000E+00  0.53801933894E+03  0.12243929260E+04  0.10998514574E+04 0.  0.
        4    1    3    3  502    0  0.37238507092E+03 -0.24240437992E+03 -0.91695879048E+02  0.45369623272E+03  0.12699999809E+01 0.  1.
       -4    1    3    3    0  502 -0.37238507092E+03  0.24240437992E+03  0.62971521798E+03  0.77069669333E+03  0.12699999809E+01 0. -1.
</event>
<event>
 5   0  0.1464205E-04  0.1099937E+04  0.7818609E-02  0.9205254E-01
       -2   -1    0    0    0  501  0.00000000000E+00  0.00000000000E+00  0.46770868368E+03  0.46770868368E+03  0.25500000920E-02 0. -1.
        2   -1    0    0  501    0  0.00000000000E+00  0.00000000000E+00 -0.64669552204E+03  0.64669552204E+03  0.25500000920E-02 0.  1.
    10030    2    1    2    0    0  0.00000000000E+00  0.00000000000E+00 -0.17898683836E+03  0.11144042057E+04  0.10999365643E+04 0.  0.
        3    1    3    3  502    0  0.18835298576E+03  0.49155947969E+03  0.71841580670E+02  0.53128974414E+03  0.10100000352E+00 0. -1.
       -3    1    3    3    0  502 -0.18835298576E+03 -0.49155947969E+03 -0.25082841903E+03  0.58311446159E+03  0.10100000352E+00 0.  1.
</event>
<event>
 5   0  0.1540772E-04  0.1099649E+04  0.7818609E-02  0.9205534E-01
        2   -1    0    0  501    0  0.00000000000E+00  0.00000000000E+00  0.10707237404E+04  0.10707237404E+04  0.25500000920E-02 0.  1.
       -2   -1    0    0    0  501  0.00000000000E+00  0.00000000000E+00 -0.28233877888E+03  0.28233877890E+03  0.25500000920E-02 0. -1.
    10030    2    1    2    0    0  0.00000000000E+00  0.00000000000E+00  0.78838496154E+03  0.13530625193E+04  0.10996487319E+04 0.  0.
        2    1    3    3  502    0  0.74248944575E+02 -0.52761646983E+03  0.56116586614E+03  0.77382115139E+03  0.25500000920E-02 0.  1.
       -2    1    3    3    0  502 -0.74248944575E+02  0.52761646983E+03  0.22721909540E+03  0.57924136793E+03  0.25500000920E-02 0. -1.
</event>
<event>
 5   0  0.1464205E-04  0.1099578E+04  0.7818609E-02  0.9205603E-01
       -2   -1    0    0    0  501  0.00000000000E+00  0.00000000000E+00  0.10444601049E+03  0.10444601053E+03  0.25500000920E-02 0.  1.
        2   -1    0    0  501    0  0.00000000000E+00  0.00000000000E+00 -0.28940129975E+04  0.28940129975E+04  0.25500000920E-02 0. -1.
    10030    2    1    2    0    0  0.00000000000E+00  0.00000000000E+00 -0.27895669870E+04  0.29984590081E+04  0.10995783046E+04 0.  0.
        3    1    3    3  502    0 -0.10268235660E+03 -0.10016084564E+03  0.52519284157E+02  0.15275518572E+03  0.10100000352E+00 0.  1.
       -3    1    3    3    0  502  0.10268235660E+03  0.10016084564E+03 -0.28420862712E+04  0.28457038223E+04  0.10100000352E+00 0. -1.
</event>
<event>
 5   0  0.8921459E-05  0.1100205E+04  0.7818609E-02  0.9204992E-01
       -1   -1    0    0    0  501  0.00000000000E+00  0.00000000000E+00  0.20257183837E+03  0.20257183844E+03  0.50400001928E-02 0.  1.
        1   -1    0    0  501    0  0.00000000000E+00  0.00000000000E+00 -0.14938540569E+04  0.14938540569E+04  0.50400001928E-02 0. -1.
    10030    2    1    2    0    0  0.00000000000E+00  0.00000000000E+00 -0.12912822185E+04  0.16964258953E+04  0.11002050039E+04 0.  0.
        3    1    3    3  502    0  0.25442373676E+03  0.18564372009E+03  0.49792494970E+02  0.31886412685E+03  0.10100000352E+00 0.  1.
       -3    1    3    3    0  502 -0.25442373676E+03 -0.18564372009E+03 -0.13410747135E+04  0.13775617685E+04  0.10100000352E+00 0. -1.
</event>
<event>
 5   0  0.9346836E-05  0.1100042E+04  0.7818609E-02  0.9205151E-01
       -1   -1    0    0    0  501  0.00000000000E+00  0.00000000000E+00  0.82110246585E+03  0.82110246586E+03  0.50400001928E-02 0.  1.
        1   -1    0    0  501    0  0.00000000000E+00  0.00000000000E+00 -0.36843514195E+03  0.36843514198E+03  0.50400001928E-02 0. -1.
    10030    2    1    2    0    0  0.00000000000E+00  0.00000000000E+00  0.45266732390E+03  0.11895376078E+04  0.11000418239E+04 0.  0.
        5    1    3    3  502    0  0.95200217391E+02  0.15615592682E+03  0.78723700324E+03  0.80821528329E+03  0.46999998093E+01 0.  1.
       -5    1    3    3    0  502 -0.95200217391E+02 -0.15615592682E+03 -0.33456967934E+03  0.38132232456E+03  0.46999998093E+01 0. -1.
</event>
<event>
 5   0  0.1553937E-04  0.1100305E+04  0.7818609E-02  0.9204895E-01
        2   -1    0    0  501    0  0.00000000000E+00  0.00000000000E+00  0.11195410622E+04  0.11195410622E+04  0.25500000920E-02 0. -1.
       -2   -1    0    0    0  501  0.00000000000E+00  0.00000000000E+00 -0.27034982344E+03  0.27034982346E+03  0.25500000920E-02 0.  1.
    10030    2    1    2    0    0  0.00000000000E+00  0.00000000000E+00  0.84919123873E+03  0.13898908856E+04  0.11003049187E+04 0.  0.
        1    1    3    3  502    0  0.18913386083E+03  0.22253347138E+02 -0.22738621609E+03  0.29659959552E+03  0.50400001928E-02 0.  1.
       -1    1    3    3    0  502 -0.18913386083E+03 -0.22253347138E+02  0.10765774548E+04  0.10932912901E+04  0.50400001928E-02 0. -1.
</event>
<event>
 5   0  0.8621738E-05  0.1100352E+04  0.7818609E-02  0.9204849E-01
       -1   -1    0    0    0  501  0.00000000000E+00  0.00000000000E+00  0.39993710630E+03  0.39993710633E+03  0.50400001928E-02 0. -1.
        1   -1    0    0  501    0  0.00000000000E+00  0.00000000000E+00 -0.75685243271E+03  0.75685243272E+03  0.50400001928E-02 0.  1.
    10030    2    1    2    0    0  0.00000000000E+00  0.00000000000E+00 -0.35691532640E+03  0.11567895391E+04  0.11003515290E+04 0.  0.
        2    1    3    3  502    0 -0.66639554605E+02 -0.53071872086E+03 -0.31386695377E+03  0.62017389141E+03  0.25500000920E-02 0.  1.
       -2    1    3    3    0  502  0.66639554605E+02  0.53071872086E+03 -0.43048372634E+02  0.53661564765E+03  0.25500000920E-02 0. -1.
</event>
<event>
 5   0  0.1540772E-04  0.1100854E+04  0.7818609E-02  0.9204360E-01
        2   -1    0    0  501    0  0.00000000000E+00  0.00000000000E+00  0.11147508306E+04  0.11147508306E+04  0.25500000920E-02 0. -1.
       -2   -1    0    0    0  501  0.00000000000E+00  0.00000000000E+00 -0.27178253776E+03  0.27178253777E+03  0.25500000920E-02 0.  1.
    10030    2    1    2    0    0  0.00000000000E+00  0.00000000000E+00  0.84296829285E+03  0.13865333684E+04  0.11008538681E+04 0.  0.
        2    1    3    3  502    0  0.20024487522E+03  0.30577250883E+03 -0.96868442434E+02  0.37812475766E+03  0.25500000920E-02 0.  1.
       -2    1    3    3    0  502 -0.20024487522E+03 -0.30577250883E+03  0.93983673528E+03  0.10084086107E+04  0.25500000920E-02 0. -1.
</event>
<event>
 5   0  0.8657442E-05  0.1099529E+04  0.7818609E-02  0.9205651E-01
       -1   -1    0    0    0  501  0.00000000000E+00  0.00000000000E+00  0.13184337303E+04  0.13184337304E+04  0.50400001928E-02 0. -1.
        1   -1    0    0  501    0  0.00000000000E+00  0.00000000000E+00 -0.22924239879E+03  0.22924239885E+03  0.50400001928E-02 0.  1.
    10030    2    1    2    0    0  0.00000000000E+00  0.00000000000E+00  0.10891913316E+04  0.15476761292E+04  0.10995288283E+04 0.  0.
        1    1    3    3  502    0  0.48536938955E+03  0.25702107351E+03  0.57900618962E+03  0.79805478772E+03  0.50400001928E-02 0. -1.
       -1    1    3    3    0  502 -0.48536938955E+03 -0.25702107351E+03  0.51018514193E+03  0.74962134149E+03  0.50400001928E-02 0.  1.
</event>
<event>
 5   0  0.1574101E-04  0.1099870E+04  0.7818609E-02  0.9205319E-01
        2   -1    0    0  501    0  0.00000000000E+00  0.00000000000E+00  0.71131018004E+03  0.71131018005E+03  0.25500000920E-02 0. -1.
       -2   -1    0    0    0  501  0.00000000000E+00  0.00000000000E+00 -0.42517098403E+03  0.42517098403E+03  0.25500000920E-02 0.  1.
    10030    2    1    2    0    0  0.00000000000E+00  0.00000000000E+00  0.28613919602E+03  0.11364811641E+04  0.10998698999E+04 0.  0.
        4    1    3    3  502    0  0.49479365068E+03  0.22960571589E+03  0.21530584803E+03  0.58642796883E+03  0.12699999809E+01 0.  1.
       -4    1    3    3    0  502 -0.49479365068E+03 -0.22960571589E+03  0.70833347984E+02  0.55005319525E+03  0.12699999809E+01 0. -1.
</event>
<event>
 5   0  0.9016738E-05  0.1100137E+04  0.7818609E-02  0.9205059E-01
       -1   -1    0    0    0  501  0.00000000000E+00  0.00000000000E+00  0.84217120469E+03  0.84217120470E+03  0.50400001928E-02 0. -1.
        1   -1    0    0  501    0  0.00000000000E+00  0.00000000000E+00 -0.35927988225E+03  0.35927988228E+03  0.50400001928E-02 0.  1.
    10030    2    1    2    0    0  0.00000000000E+00  0.00000000000E+00  0.48289132244E+03  0.12014510870E+04  0.11001366666E+04 0.  0.
        4    1    3    3  502    0 -0.21260069577E+03 -0.46335147173E+03  0.46706235672E+03  0.69140617597E+03  0.12699999809E+01 0.  1.
       -4    1    3    3    0  502  0.21260069577E+03  0.46335147173E+03  0.15828965721E+02  0.51004491102E+03  0.12699999809E+01 0. -1.
</event>
<event>
 5   0  0.1503277E-04  0.1099855E+04  0.7818609E-02  0.9205333E-01
        2   -1    0    0  501    0  0.00000000000E+00  0.00000000000E+00  0.47823343598E+03  0.47823343598E+03  0.25500000920E-02 0. -1.
       -2   -1    0    0    0  501  0.00000000000E+00  0.00000000000E+00 -0.63237004418E+03  0.63237004419E+03  0.25500000920E-02 0.  1.
    10030    2    1    2    0    0  0.00000000000E+00  0.00000000000E+00 -0.15413660820E+03  0.11106034802E+04  0.10998554433E+04 0.  0.
        5    1    3    3  502    0  0.95961890860E+02  0.54142295255E+03 -0.69863383038E+02  0.55430179536E+03  0.46999998093E+01 0.  1.
       -5    1    3    3    0  502 -0.95961890860E+02 -0.54142295255E+03 -0.84273225166E+02  0.55630168481E+03  0.46999998093E+01 0. -1.
</event>
<event>
 5   0  0.8621738E-05  0.1100643E+04  0.7818609E-02  0.9204565E-01
       -1   -1    0    0    0  501  0.00000000000E+00  0.00000000000E+00  0.68243402573E+03  0.68243402574E+03  0.50400001928E-02 0.  1.
        1   -1    0    0  501    0  0.00000000000E+00  0.00000000000E+00 -0.44378483365E+03  0.44378483368E+03  0.50400001928E-02 0. -1.
    10030    2    1    2    0    0  0.00000000000E+00  0.00000000000E+00  0.23864919207E+03  0.11262188594E+04  0.11006432131E+04 0.  0.
        2    1    3    3  502    0  0.28358356224E+03  0.14937396063E+03  0.57706924624E+03  0.66010690940E+03  0.25500000920E-02 0.  1.
       -2    1    3    3    0  502 -0.28358356224E+03 -0.14937396063E+03 -0.33842005416E+03  0.46611195002E+03  0.25500000920E-02 0. -1.
</event>
<event>
 5   0  0.8921459E-05  0.1100615E+04  0.7818609E-02  0.9204593E-01
       -1   -1    0    0    0  501  0.00000000000E+00  0.00000000000E+00  0.98211494640E+03  0.98211494642E+03  0.50400001928E-02 0.  1.
        1   -1    0    0  501    0  0.00000000000E+00  0.00000000000E+00 -0.30835313696E+03  0.30835313700E+03  0.50400001928E-02 0. -1.
    10030    2    1    2    0    0  0.00000000000E+00  0.00000000000E+00  0.67376180945E+03  0.12904680834E+04  0.11006147820E+04 0.  0.
        3    1    3    3  502    0  0.44149117347E+03 -0.22984953327E+03  0.61208819933E+03  0.78892156655E+03  0.10100000352E+00 0.  1.
       -3    1    3    3    0  502 -0.44149117347E+03  0.22984953327E+03  0.61673610115E+02  0.50154651687E+03  0.10100000352E+00 0. -1.
</event>
<event>
 5   0  0.1553937E-04  0.1100131E+04  0.7818609E-02  0.9205064E-01
        2   -1    0    0  501    0  0.00000000000E+00  0.00000000000E+00  0.12848328055E+04  0.12848328055E+04  0.25500000920E-02 0. -1.
       -2   -1    0    0    0  501  0.00000000000E+00  0.00000000000E+00 -0.23549544614E+03  0.23549544615E+03  0.25500000920E-02 0.  1.
    10030    2    1    2    0    0  0.00000000000E+00  0.00000000000E+00  0.10493373594E+04  0.15203282517E+04  0.11001314008E+04 0.  0.
        1    1    3    3  502    0  0.22842161781E+03  0.37216403849E+03  0.98693046387E+03  0.10792192769E+04  0.50400001928E-02 0. -1.
       -1    1    3    3    0  502 -0.22842161781E+03 -0.37216403849E+03  0.62406895519E+02  0.44110897482E+03  0.50400001928E-02 0.  1.
</event>
<event>
 5   0  0.8921459E-05  0.1100115E+04  0.7818609E-02  0.9205080E-01
        1   -1    0    0  501    0  0.00000000000E+00  0.00000000000E+00  0.34016300779E+03  0.34016300782E+03  0.50400001928E-02 0.  1.
       -1   -1    0    0    0  501  0.00000000000E+00  0.00000000000E+00 -0.88946566774E+03  0.88946566775E+03  0.50400001928E-02 0. -1.
    10030    2    1    2    0    0  0.00000000000E+00  0.00000000000E+00 -0.54930265995E+03  0.12296286756E+04  0.11001151156E+04 0.  0.
        3    1    3    3  502    0  0.47043127303E+03  0.14374947657E+03 -0.54978895764E+03  0.73772447621E+03  0.10100000352E+00 0. -1.
       -3    1    3    3    0  502 -0.47043127303E+03 -0.14374947657E+03  0.48629768480E+00  0.49190419936E+03  0.10100000352E+00 0.  1.
</event>
<event>
 5   0  0.1553937E-04  0.1100074E+04  0.7818609E-02  0.9205120E-01
       -2   -1    0    0    0  501  0.00000000000E+00  0.00000000000E+00  0.33676225701E+03  0.33676225702E+03  0.25500000920E-02 0.  1.
        2   -1    0    0  501    0  0.00000000000E+00  0.00000000000E+00 -0.89838077370E+03  0.89838077371E+03  0.25500000920E-02 0. -1.
    10030    2    1    2    0    0  0.00000000000E+00  0.00000000000E+00 -0.56161851669E+03  0.12351430307E+04  0.11000740648E+04 0.  0.
        1    1    3    3  502    0 -0.22864606698E+03 -0.96803695728E+02 -0.83187751502E+03  0.86814179687E+03  0.50400001928E-02 0. -1.
       -1    1    3    3    0  502  0.22864606698E+03  0.96803695728E+02  0.27025899833E+03  0.36700123386E+03  0.50400001928E-02 0.  1.
</event>
<event>
 5   0  0.8921459E-05  0.1099895E+04  0.7818609E-02  0.9205295E-01
        1   -1    0    0  501    0  0.00000000000E+00  0.00000000000E+00  0.60684732597E+03  0.60684732599E+03  0.50400001928E-02 0.  1.
       -1   -1    0    0    0  501  0.00000000000E+00  0.00000000000E+00 -0.49838235564E+03  0.49838235566E+03  0.50400001928E-02 0. -1.
    10030    2    1    2    0    0  0.00000000000E+00  0.00000000000E+00  0.10846497033E+03  0.11052296817E+04  0.10998945401E+04 0.  0.
        3    1    3    3  502    0  0.36523385132E+03  0.40557042628E+03 -0.13614300907E+02  0.54595649663E+03  0.10100000352E+00 0.  1.
       -3    1    3    3    0  502 -0.36523385132E+03 -0.40557042628E+03  0.12207927124E+03  0.55927318502E+03  0.10100000352E+00 0. -1.
</event>
<event>
 5   0  0.9346836E-05  0.1100227E+04  0.7818609E-02  0.9204971E-01
        1   -1    0    0  501    0  0.00000000000E+00  0.00000000000E+00  0.50148095551E+03  0.50148095554E+03  0.50400001928E-02 0.  1.
       -1   -1    0    0    0  501  0.00000000000E+00  0.00000000000E+00 -0.60346202293E+03  0.60346202295E+03  0.50400001928E-02 0. -1.
    10030    2    1    2    0    0  0.00000000000E+00  0.00000000000E+00 -0.10198106742E+03  0.11049429785E+04  0.11002267255E+04 0.  0.
        5    1    3    3  502    0 -0.28153221574E+03 -0.32811369375E+03 -0.39257148526E+03  0.58399781298E+03  0.46999998093E+01 0.  1.
       -5    1    3    3    0  502  0.28153221574E+03  0.32811369375E+03  0.29059041784E+03  0.52094516551E+03  0.46999998093E+01 0. -1.
</event>
<event>
 5   0  0.1574101E-04  0.1100057E+04  0.7818609E-02  0.9205136E-01
       -2   -1    0    0    0  501  0.00000000000E+00  0.00000000000E+00  0.28425588857E+03  0.28425588858E+03  0.25500000920E-02 0.  1.
        2   -1    0    0  501    0  0.00000000000E+00  0.00000000000E+00 -0.10642923113E+04  0.10642923113E+04  0.25500000920E-02 0. -1.
    10030    2    1    2    0    0  0.00000000000E+00  0.00000000000E+00 -0.78003642271E+03  0.13485481999E+04  0.11000570106E+04 0.  0.
        4    1    3    3  502    0  0.22873463148E+02  0.50479526469E+03 -0.12371990974E+03  0.52024002492E+03  0.12699999809E+01 0.  1.
       -4    1    3    3    0  502 -0.22873463148E+02 -0.50479526469E+03 -0.65631651298E+03  0.82830817494E+03  0.12699999809E+01 0. -1.
</event>
<event>
 5   0  0.1540772E-04  0.1099831E+04  0.7818609E-02  0.9205356E-01
        2   -1    0    0  501    0  0.00000000000E+00  0.00000000000E+00  0.20065165245E+03  0.20065165247E+03  0.25500000920E-02 0.  1.
       -2   -1    0    0    0  501  0.00000000000E+00  0.00000000000E+00 -0.15071257265E+04  0.15071257265E+04  0.25500000920E-02 0. -1.
    10030    2    1    2    0    0  0.00000000000E+00  0.00000000000E+00 -0.13064740741E+04  0.17077773790E+04  0.10998313825E+04 0.  0.
        2    1    3    3  502    0  0.33828933299E+03  0.55932160540E+02 -0.13208152814E+04  0.13645955764E+04  0.25500000920E-02 0. -1.
       -2    1    3    3    0  502 -0.33828933299E+03 -0.55932160540E+02  0.14341207372E+02  0.34318180260E+03  0.25500000920E-02 0.  1.
</event>
<event>
 5   0  0.9016738E-05  0.1100036E+04  0.7818609E-02  0.9205157E-01
        1   -1    0    0  501    0  0.00000000000E+00  0.00000000000E+00  0.74204690883E+03  0.74204690884E+03  0.50400001928E-02 0.  1.
       -1   -1    0    0    0  501  0.00000000000E+00  0.00000000000E+00 -0.40768254749E+03  0.40768254752E+03  0.50400001928E-02 0. -1.
    10030    2    1    2    0    0  0.00000000000E+00  0.00000000000E+00  0.33436436133E+03  0.11497294564E+04  0.11000355888E+04 0.  0.
        4    1    3    3  502    0  0.52121645514E+02 -0.31014157569E+03  0.63880217123E+03  0.71202127059E+03  0.12699999809E+01 0.  1.
       -4    1    3    3    0  502 -0.52121645514E+02  0.31014157569E+03 -0.30443780989E+03  0.43770818578E+03  0.12699999809E+01 0. -1.
</event>
<event>
 5   0  0.6010125E-05  0.1100324E+04  0.7818609E-02  0.9204876E-01
       -3   -1    0    0    0  501  0.00000000000E+00  0.00000000000E+00  0.42446657852E+03  0.42446659054E+03  0.10100000352E+00 0. -1.
        3   -1    0    0  501    0  0.00000000000E+00  0.00000000000E+00 -0.71307930240E+03  0.71307930956E+03  0.10100000352E+00 0.  1.
    10030    2    1    2    0    0  0.00000000000E+00  0.00000000000E+00 -0.28861272388E+03  0.11375459001E+04  0.11003242115E+04 0.  0.
        4    1    3    3  502    0 -0.24079130391E+03 -0.49428771850E+03 -0.16435113664E+03  0.57385861475E+03  0.12699999809E+01 0.  1.
       -4    1    3    3    0  502  0.24079130391E+03  0.49428771850E+03 -0.12426158724E+03  0.56368728535E+03  0.12699999809E+01 0. -1.
</event>
<event>
 5   0  0.1503277E-04  0.1099865E+04  0.7818609E-02  0.9205323E-01
       -2   -1    0    0    0  501  0.00000000000E+00  0.00000000000E+00  0.19057611018E+03  0.19057611019E+03  0.25500000920E-02 0.  1.
        2   -1    0    0  501    0  0.00000000000E+00  0.00000000000E+00 -0.15869029325E+04  0.15869029326E+04  0.25500000920E-02 0. -1.
    10030    2    1    2    0    0  0.00000000000E+00  0.00000000000E+00 -0.13963268224E+04  0.17774790427E+04  0.10998650610E+04 0.  0.
        5    1    3    3  502    0 -0.31133569813E+03 -0.17605096748E+02  0.33844026984E+02  0.31369948123E+03  0.46999998093E+01 0.  1.
       -5    1    3    3    0  502  0.31133569813E+03  0.17605096748E+02 -0.14301708494E+04  0.14637795615E+04  0.46999998093E+01 0. -1.
</event>
<event>
 5   0  0.9016738E-05  0.1101304E+04  0.7818609E-02  0.9203922E-01
       -1   -1    0    0    0  501  0.00000000000E+00  0.00000000000E+00  0.65303892099E+03  0.65303892100E+03  0.50400001928E-02 0.  1.
        1   -1    0    0  501    0  0.00000000000E+00  0.00000000000E+00 -0.46431782521E+03  0.46431782524E+03  0.50400001928E-02 0. -1.
    10030    2    1    2    0    0  0.00000000000E+00  0.00000000000E+00  0.18872109578E+03  0.11173567462E+04  0.11013039755E+04 0.  0.
        4    1    3    3  502    0  0.42740187502E+03  0.23599633320E+03  0.35272783077E+03  0.60231650114E+03  0.12699999809E+01 0.  1.
       -4    1    3    3    0  502 -0.42740187502E+03 -0.23599633320E+03 -0.16400673499E+03  0.51504024510E+03  0.12699999809E+01 0. -1.
</event>
<event>
 5   0  0.1574101E-04  0.1099797E+04  0.7818609E-02  0.9205390E-01
        2   -1    0    0  501    0  0.00000000000E+00  0.00000000000E+00  0.29664989031E+03  0.29664989032E+03  0.25500000920E-02 0.  1.
       -2   -1    0    0    0  501  0.00000000000E+00  0.00000000000E+00 -0.10193438772E+04  0.10193438772E+04  0.25500000920E-02 0. -1.
    10030    2    1    2    0    0  0.00000000000E+00  0.00000000000E+00 -0.72269398691E+03  0.13159937676E+04  0.10997967983E+04 0.  0.
        4    1    3    3  502    0  0.32167054045E+03  0.17742466203E+03  0.12827932055E+03  0.38911263699E+03  0.12699999809E+01 0.  1.
       -4    1    3    3    0  502 -0.32167054045E+03 -0.17742466203E+03 -0.85097330746E+03  0.92688113056E+03  0.12699999809E+01 0. -1.
</event>
<event>
 5   0  0.8621738E-05  0.1100483E+04  0.7818609E-02  0.9204722E-01
        1   -1    0    0  501    0  0.00000000000E+00  0.00000000000E+00  0.94138548784E+03  0.94138548785E+03  0.50400001928E-02 0. -1.
       -1   -1    0    0    0  501  0.00000000000E+00  0.00000000000E+00 -0.32161686700E+03  0.32161686704E+03  0.50400001928E-02 0.  1.
    10030    2    1    2    0    0  0.00000000000E+00  0.00000000000E+00  0.61976862084E+03  0.12630023549E+04  0.11004825328E+04 0.  0.
        2    1    3    3  502    0 -0.47478177696E+03 -0.24139699289E+03  0.15137468473E+03  0.55371882675E+03  0.25500000920E-02 0.  1.
       -2    1    3    3    0  502  0.47478177696E+03  0.24139699289E+03  0.46839393611E+03  0.70928352814E+03  0.25500000920E-02 0. -1.
</event>
<event>
 5   0  0.8621738E-05  0.1099479E+04  0.7818609E-02  0.9205700E-01
        1   -1    0    0  501    0  0.00000000000E+00  0.00000000000E+00  0.61566056388E+03  0.61566056390E+03  0.50400001928E-02 0. -1.
       -1   -1    0    0    0  501  0.00000000000E+00  0.00000000000E+00 -0.49087678045E+03  0.49087678048E+03  0.50400001928E-02 0.  1.
    10030    2    1    2    0    0  0.00000000000E+00  0.00000000000E+00  0.12478378342E+03  0.11065373444E+04  0.10994789229E+04 0.  0.
        2    1    3    3  502    0 -0.43346175824E+03 -0.32472594499E+03  0.15721693425E+03  0.56396205514E+03  0.25500000920E-02 0. -1.
       -2    1    3    3    0  502  0.43346175824E+03  0.32472594499E+03 -0.32433150829E+02  0.54257528924E+03  0.25500000920E-02 0.  1.
</event>
<event>
 5   0  0.1540772E-04  0.1100046E+04  0.7818609E-02  0.9205147E-01
       -2   -1    0    0    0  501  0.00000000000E+00  0.00000000000E+00  0.35785343833E+03  0.35785343833E+03  0.25500000920E-02 0. -1.
        2   -1    0    0  501    0  0.00000000000E+00  0.00000000000E+00 -0.84538835825E+03  0.84538835825E+03  0.25500000920E-02 0.  1.
    10030    2    1    2    0    0  0.00000000000E+00  0.00000000000E+00 -0.48753491992E+03  0.12032417966E+04  0.11000456913E+04 0.  0.
        2    1    3    3  502    0  0.34741987442E+03 -0.37454547441E+03 -0.46670167832E+03  0.69195038702E+03  0.25500000920E-02 0.  1.
       -2    1    3    3    0  502 -0.34741987442E+03  0.37454547441E+03 -0.20833241603E+02  0.51129140957E+03  0.25500000920E-02 0. -1.
</event>
<event>
 5   0  0.9346836E-05  0.1099058E+04  0.7818609E-02  0.9206110E-01
       -1   -1    0    0    0  501  0.00000000000E+00  0.00000000000E+00  0.72543221972E+03  0.72543221974E+03  0.50400001928E-02 0.  1.
        1   -1    0    0  501    0  0.00000000000E+00  0.00000000000E+00 -0.41627905188E+03  0.41627905191E+03  0.50400001928E-02 0. -1.
    10030    2    1    2    0    0  0.00000000000E+00  0.00000000000E+00  0.30915316784E+03  0.11417112717E+04  0.10990582089E+04 0.  0.
        5    1    3    3  502    0  0.30290315197E+03 -0.35207360175E+02  0.62944998597E+03  0.69944210091E+03  0.46999998093E+01 0.  1.
       -5    1    3    3    0  502 -0.30290315197E+03  0.35207360175E+02 -0.32029681813E+03  0.44226917074E+03  0.46999998093E+01 0. -1.
</event>
<event>
 5   0  0.9016738E-05  0.1099624E+04  0.7818609E-02  0.9205558E-01
        1   -1    0    0  501    0  0.00000000000E+00  0.00000000000E+00  0.23185836684E+04  0.23185836684E+04  0.50400001928E-02 0.  1.
       -1   -1    0    0    0  501  0.00000000000E+00  0.00000000000E+00 -0.13037839195E+03  0.13037839205E+03  0.50400001928E-02 0. -1.
    10030    2    1    2    0    0  0.00000000000E+00  0.00000000000E+00  0.21882052764E+04  0.24489620604E+04  0.10996239546E+04 0.  0.
        4    1    3    3  502    0 -0.40208180456E+03 -0.18208579031E+03  0.36401568272E+03  0.57213114123E+03  0.12699999809E+01 0. -1.
       -4    1    3    3    0  502  0.40208180456E+03  0.18208579031E+03  0.18241895937E+04  0.18768309192E+04  0.12699999809E+01 0.  1.
</event>
<event>
 5   0  0.9346836E-05  0.1099985E+04  0.7818609E-02  0.9205207E-01
        1   -1    0    0  501    0  0.00000000000E+00  0.00000000000E+00  0.15917003018E+04  0.15917003019E+04  0.50400001928E-02 0.  1.
       -1   -1    0    0    0  501  0.00000000000E+00  0.00000000000E+00 -0.19004306345E+03  0.19004306351E+03  0.50400001928E-02 0. -1.
    10030    2    1    2    0    0  0.00000000000E+00  0.00000000000E+00  0.14016572384E+04  0.17817433654E+04  0.10999847299E+04 0.  0.
        5    1    3    3  502    0  0.35803587868E+03 -0.41733827217E+03  0.71770769856E+03  0.90415007295E+03  0.46999998093E+01 0.  1.
       -5    1    3    3    0  502 -0.35803587868E+03  0.41733827217E+03  0.68394953984E+03  0.87759329242E+03  0.46999998093E+01 0. -1.
</event>
<event>
 5   0  0.1540772E-04  0.1099808E+04  0.7818609E-02  0.9205379E-01
       -2   -1    0    0    0  501  0.00000000000E+00  0.00000000000E+00  0.46833496653E+03  0.46833496654E+03  0.25500000920E-02 0.  1.
        2   -1    0    0  501    0  0.00000000000E+00  0.00000000000E+00 -0.64567984377E+03  0.64567984378E+03  0.25500000920E-02 0. -1.
    10030    2    1    2    0    0  0.00000000000E+00  0.00000000000E+00 -0.17734487724E+03  0.11140148103E+04  0.10998080706E+04 0.  0.
        2    1    3    3  502    0 -0.40373626766E+02  0.34981190848E+03  0.33915307036E+03  0.48889999611E+03  0.25500000920E-02 0.  1.
       -2    1    3    3    0  502  0.40373626766E+02 -0.34981190848E+03 -0.51649794761E+03  0.62511481421E+03  0.25500000920E-02 0. -1.
</event>
<event>
 5   0  0.1540772E-04  0.1108349E+04  0.7818609E-02  0.9197092E-01
       -2   -1    0    0    0  501  0.00000000000E+00  0.00000000000E+00  0.32409356966E+03  0.32409356967E+03  0.25500000920E-02 0. -1.
        2   -1    0    0  501    0  0.00000000000E+00  0.00000000000E+00 -0.94759542549E+03  0.94759542550E+03  0.25500000920E-02 0.  1.
    10030    2    1    2    0    0  0.00000000000E+00  0.00000000000E+00 -0.62350185584E+03  0.12716889952E+04  0.11083493746E+04 0.  0.
        2    1    3    3  502    0  0.46002915648E+03  0.28422379734E+03 -0.17264140007E+03  0.56763989008E+03  0.25500000920E-02 0. -1.
       -2    1    3    3    0  502 -0.46002915648E+03 -0.28422379734E+03 -0.45086045577E+03  0.70404910508E+03  0.25500000920E-02 0.  1.
</event>
<event>
 5   0  0.9016738E-05  0.1099477E+04  0.7818609E-02  0.9205701E-01
       -1   -1    0    0    0  501  0.00000000000E+00  0.00000000000E+00  0.57608834787E+03  0.57608834789E+03  0.50400001928E-02 0.  1.
        1   -1    0    0  501    0  0.00000000000E+00  0.00000000000E+00 -0.52459429939E+03  0.52459429941E+03  0.50400001928E-02 0. -1.
    10030    2    1    2    0    0  0.00000000000E+00  0.00000000000E+00  0.51494048483E+02  0.11006826473E+04  0.10994774454E+04 0.  0.
        4    1    3    3  502    0  0.46857918365E+03 -0.23833946758E+03 -0.13517399775E+03  0.54281283673E+03  0.12699999809E+01 0. -1.
       -4    1    3    3    0  502 -0.46857918365E+03  0.23833946758E+03  0.18666804623E+03  0.55786981057E+03  0.12699999809E+01 0.  1.
</event>
<event>
 5   0  0.1464205E-04  0.1100451E+04  0.7818609E-02  0.9204752E-01
        2   -1    0    0  501    0  0.00000000000E+00  0.00000000000E+00  0.12403136789E+04  0.12403136789E+04  0.25500000920E-02 0.  1.
       -2   -1    0    0    0  501  0.00000000000E+00  0.00000000000E+00 -0.24408999448E+03  0.24408999449E+03  0.25500000920E-02 0. -1.
    10030    2    1    2    0    0  0.00000000000E+00  0.00000000000E+00  0.99622368439E+03  0.14844036734E+04  0.11004511058E+04 0.  0.
        3    1    3    3  502    0 -0.28582999043E+03  0.44007980453E+03  0.72131025378E+03  0.89199636221E+03  0.10100000352E+00 0.  1.
       -3    1    3    3    0  502  0.28582999043E+03 -0.44007980453E+03  0.27491343061E+03  0.59240731116E+03  0.10100000352E+00 0. -1.
</event>
<event>
 5   0  0.1464205E-04  0.1100346E+04  0.7818609E-02  0.9204855E-01
        2   -1    0    0  501    0  0.00000000000E+00  0.00000000000E+00  0.63264380541E+03  0.63264380542E+03  0.25500000920E-02 0. -1.
       -2   -1    0    0    0  501  0.00000000000E+00  0.00000000000E+00 -0.47845306596E+03  0.47845306596E+03  0.25500000920E-02 0.  1.
    10030    2    1    2    0    0  0.00000000000E+00  0.00000000000E+00  0.15419073946E+03  0.11110968714E+04  0.11003460699E+04 0.  0.
        3    1    3    3  502    0 -0.51831522354E+03  0.77630831813E+02  0.24610191838E+03  0.57900205651E+03  0.10100000352E+00 0. -1.
       -3    1    3    3    0  502  0.51831522354E+03 -0.77630831813E+02 -0.91911178923E+02  0.53209481488E+03  0.10100000352E+00 0.  1.
</event>
<event>
 5   0  0.1574101E-04  0.1098582E+04  0.7818609E-02  0.9206575E-01
       -2   -1    0    0    0  501  0.00000000000E+00  0.00000000000E+00  0.52393740378E+03  0.52393740379E+03  0.25500000920E-02 0. -1.
        2   -1    0    0  501    0  0.00000000000E+00  0.00000000000E+00 -0.57587105523E+03  0.57587105523E+03  0.25500000920E-02 0.  1.
    10030    2    1    2    0    0  0.00000000000E+00  0.00000000000E+00 -0.51933651445E+02  0.10998084590E+04  0.10985816048E+04 0.  0.
        4    1    3    3  502    0  0.47573620316E+03 -0.18205737381E+03 -0.23174186569E+03  0.55962105712E+03  0.12699999809E+01 0.  1.
       -4    1    3    3    0  502 -0.47573620316E+03  0.18205737381E+03  0.17980821425E+03  0.54018740190E+03  0.12699999809E+01 0. -1.
</event>
<event>
 5   0  0.9016738E-05  0.1099956E+04  0.7818609E-02  0.9205235E-01
        1   -1    0    0  501    0  0.00000000000E+00  0.00000000000E+00  0.34553257610E+03  0.34553257614E+03  0.50400001928E-02 0. -1.
       -1   -1    0    0    0  501  0.00000000000E+00  0.00000000000E+00 -0.87538958773E+03  0.87538958774E+03  0.50400001928E-02 0.  1.
    10030    2    1    2    0    0  0.00000000000E+00  0.00000000000E+00 -0.52985701163E+03  0.12209221639E+04  0.10999556707E+04 0.  0.
        4    1    3    3  502    0 -0.20776995943E+03  0.13886568779E+03  0.27887035536E+03  0.37446271281E+03  0.12699999809E+01 0. -1.
       -4    1    3    3    0  502  0.20776995943E+03 -0.13886568779E+03 -0.80872736699E+03  0.84645945107E+03  0.12699999809E+01 0.  1.
</event>
<event>
 5   0  0.9016738E-05  0.1099943E+04  0.7818609E-02  0.9205248E-01
        1   -1    0    0  501    0  0.00000000000E+00  0.00000000000E+00  0.41045816971E+03  0.41045816974E+03  0.50400001928E-02 0. -1.
       -1   -1    0    0    0  501  0.00000000000E+00  0.00000000000E+00 -0.73690428975E+03  0.73690428977E+03  0.50400001928E-02 0.  1.
    10030    2    1    2    0    0  0.00000000000E+00  0.00000000000E+00 -0.32644612004E+03  0.11473624595E+04  0.10999425186E+04 0.  0.
        4    1    3    3  502    0  0.78867059642E+02 -0.30116864271E+03  0.30969213505E+03  0.43912799485E+03  0.12699999809E+01 0. -1.
       -4    1    3    3    0  502 -0.78867059642E+02  0.30116864271E+03 -0.63613825509E+03  0.70823446466E+03  0.12699999809E+01 0.  1.
</event>
<event>
 5   0  0.1503277E-04  0.1099503E+04  0.7818609E-02  0.9205676E-01
       -2   -1    0    0    0  501  0.00000000000E+00  0.00000000000E+00  0.27207365026E+03  0.27207365027E+03  0.25500000920E-02 0.  1.
        2   -1    0    0  501    0  0.00000000000E+00  0.00000000000E+00 -0.11108270695E+04  0.11108270695E+04  0.25500000920E-02 0. -1.
    10030    2    1    2    0    0  0.00000000000E+00  0.00000000000E+00 -0.83875341927E+03  0.13829007198E+04  0.10995031162E+04 0.  0.
        5    1    3    3  502    0  0.28321868363E+03  0.37634742537E+03 -0.77590958442E+03  0.90769377024E+03  0.46999998093E+01 0. -1.
       -5    1    3    3    0  502 -0.28321868363E+03 -0.37634742537E+03 -0.62843834850E+02  0.47520694956E+03  0.46999998093E+01 0.  1.
</event>
<event>
 5   0  0.9016738E-05  0.1100341E+04  0.7818609E-02  0.9204859E-01
       -1   -1    0    0    0  501  0.00000000000E+00  0.00000000000E+00  0.42628982058E+03  0.42628982061E+03  0.50400001928E-02 0.  1.
        1   -1    0    0  501    0  0.00000000000E+00  0.00000000000E+00 -0.71005153643E+03  0.71005153645E+03  0.50400001928E-02 0. -1.
    10030    2    1    2    0    0  0.00000000000E+00  0.00000000000E+00 -0.28376171585E+03  0.11363413571E+04  0.11003412963E+04 0.  0.
        4    1    3    3  502    0  0.73520103552E+00  0.49693952047E+03 -0.38569114903E+03  0.62905381555E+03  0.12699999809E+01 0. -1.
       -4    1    3    3    0  502 -0.73520103552E+00 -0.49693952047E+03  0.10192943317E+03  0.50728754151E+03  0.12699999809E+01 0.  1.
</event>
<event>
 5   0  0.1464205E-04  0.1099972E+04  0.7818609E-02  0.9205219E-01
        2   -1    0    0  501    0  0.00000000000E+00  0.00000000000E+00  0.32109089099E+03  0.32109089100E+03  0.25500000920E-02 0.  1.
       -2   -1    0    0    0  501  0.00000000000E+00  0.00000000000E+00 -0.94205356807E+03  0.94205356807E+03  0.25500000920E-02 0. -1.
    10030    2    1    2    0    0  0.00000000000E+00  0.00000000000E+00 -0.62096267708E+03  0.12631444591E+04  0.10999723988E+04 0.  0.
        3    1    3    3  502    0 -0.14771565306E+03 -0.11549359964E+03 -0.90421535863E+03  0.92345227852E+03  0.10100000352E+00 0. -1.
       -3    1    3    3    0  502  0.14771565306E+03  0.11549359964E+03  0.28325268155E+03  0.33969218055E+03  0.10100000352E+00 0.  1.
</event>
<event>
 5   0  0.1464205E-04  0.1099955E+04  0.7818609E-02  0.9205236E-01
        2   -1    0    0  501    0  0.00000000000E+00  0.00000000000E+00  0.43748699612E+03  0.43748699613E+03  0.25500000920E-02 0.  1.
       -2   -1    0    0    0  501  0.00000000000E+00  0.00000000000E+00 -0.69139233230E+03  0.69139233230E+03  0.25500000920E-02 0. -1.
    10030    2    1    2    0    0  0.00000000000E+00  0.00000000000E+00 -0.25390533617E+03  0.11288793284E+04  0.10999548256E+04 0.  0.
        3    1    3    3  502    0  0.34300379386E+03  0.36064892681E+03  0.11320038143E+03  0.51042490884E+03  0.10100000352E+00 0.  1.
       -3    1    3    3    0  502 -0.34300379386E+03 -0.36064892681E+03 -0.36710571760E+03  0.61845441959E+03  0.10100000352E+00 0. -1.
</event>
<event>
 5   0  0.9016738E-05  0.1099900E+04  0.7818609E-02  0.9205289E-01
       -1   -1    0    0    0  501  0.00000000000E+00  0.00000000000E+00  0.22714701298E+03  0.22714701303E+03  0.50400001928E-02 0. -1.
        1   -1    0    0  501    0  0.00000000000E+00  0.00000000000E+00 -0.13314944931E+04  0.13314944931E+04  0.50400001928E-02 0.  1.
    10030    2    1    2    0    0  0.00000000000E+00  0.00000000000E+00 -0.11043474801E+04  0.15586415061E+04  0.10998999899E+04 0.  0.
        4    1    3    3  502    0 -0.16928794033E+03  0.31731686493E+03 -0.11417436107E+04  0.11970499092E+04  0.12699999809E+01 0.  1.
       -4    1    3    3    0  502  0.16928794033E+03 -0.31731686493E+03  0.37396130610E+02  0.36159159697E+03  0.12699999809E+01 0. -1.
</event>
<event>
 5   0  0.8921459E-05  0.1100247E+04  0.7818609E-02  0.9204951E-01
        1   -1    0    0  501    0  0.00000000000E+00  0.00000000000E+00  0.52104496005E+03  0.52104496007E+03  0.50400001928E-02 0.  1.
       -1   -1    0    0    0  501  0.00000000000E+00  0.00000000000E+00 -0.58082489215E+03  0.58082489217E+03  0.50400001928E-02 0. -1.
    10030    2    1    2    0    0  0.00000000000E+00  0.00000000000E+00 -0.59779932102E+02  0.11018698522E+04  0.11002470318E+04 0.  0.
        3    1    3    3  502    0  0.44836683900E+03  0.35822421913E+02 -0.34709015201E+03  0.56814404164E+03  0.10100000352E+00 0.  1.
       -3    1    3    3    0  502 -0.44836683900E+03 -0.35822421913E+02  0.28731021991E+03  0.53372581060E+03  0.10100000352E+00 0. -1.
</event>
<event>
 5   0  0.9016738E-05  0.1100844E+04  0.7818609E-02  0.9204370E-01
        1   -1    0    0  501    0  0.00000000000E+00  0.00000000000E+00  0.24362190370E+03  0.24362190376E+03  0.50400001928E-02 0.  1.
       -1   -1    0    0    0  501  0.00000000000E+00  0.00000000000E+00 -0.12435832082E+04  0.12435832082E+04  0.50400001928E-02 0. -1.
    10030    2    1    2    0    0  0.00000000000E+00  0.00000000000E+00 -0.99996130453E+03  0.14872051120E+04  0.11008435105E+04 0.  0.
        4    1    3    3  502    0 -0.49518457767E+03  0.22288805105E+03 -0.37857639043E+03  0.66197322118E+03  0.12699999809E+01 0.  1.
       -4    1    3    3    0  502  0.49518457767E+03 -0.22288805105E+03 -0.62138491410E+03  0.82523189083E+03  0.12699999809E+01 0. -1.
</event>
<event>
 5   0  0.1503277E-04  0.1100102E+04  0.7818609E-02  0.9205092E-01
       -2   -1    0    0    0  501  0.00000000000E+00  0.00000000000E+00  0.80888248626E+03  0.80888248626E+03  0.25500000920E-02 0.  1.
        2   -1    0    0  501    0  0.00000000000E+00  0.00000000000E+00 -0.37404214818E+03  0.37404214819E+03  0.25500000920E-02 0. -1.
    10030    2    1    2    0    0  0.00000000000E+00  0.00000000000E+00  0.43484033807E+03  0.11829246345E+04  0.11001020731E+04 0.  0.
        5    1    3    3  502    0 -0.16561963353E+03 -0.11821769691E+02 -0.34642823496E+03  0.38419295832E+03  0.46999998093E+01 0. -1.
       -5    1    3    3    0  502  0.16561963353E+03  0.11821769691E+02  0.78126857303E+03  0.79873167613E+03  0.46999998093E+01 0.  1.
</event>
<event>
 5   0  0.9016738E-05  0.1100067E+04  0.7818609E-02  0.9205126E-01
       -1   -1    0    0    0  501  0.00000000000E+00  0.00000000000E+00  0.16536164554E+03  0.16536164562E+03  0.50400001928E-02 0. -1.
        1   -1    0    0  501    0  0.00000000000E+00  0.00000000000E+00 -0.18295478256E+04  0.18295478256E+04  0.50400001928E-02 0.  1.
    10030    2    1    2    0    0  0.00000000000E+00  0.00000000000E+00 -0.16641861800E+04  0.19949094712E+04  0.11000673418E+04 0.  0.
        4    1    3    3  502    0 -0.17236357641E+03 -0.52229528145E+03 -0.82154036055E+03  0.98865147571E+03  0.12699999809E+01 0. -1.
       -4    1    3    3    0  502  0.17236357641E+03  0.52229528145E+03 -0.84264581946E+03  0.10062579955E+04  0.12699999809E+01 0.  1.
</event>
<event>
 5   0  0.6010125E-05  0.1100135E+04  0.7818609E-02  0.9205061E-01
        3   -1    0    0  501    0  0.00000000000E+00  0.00000000000E+00  0.48327357978E+03  0.48327359033E+03  0.10100000352E+00 0. -1.
       -3   -1    0    0    0  501  0.00000000000E+00  0.00000000000E+00 -0.62609271786E+03  0.62609272601E+03  0.10100000352E+00 0.  1.
    10030    2    1    2    0    0  0.00000000000E+00  0.00000000000E+00 -0.14281913808E+03  0.11093663163E+04  0.11001346816E+04 0.  0.
        2    1    3    3  502    0  0.17167978868E+03 -0.32722977535E+03 -0.48228519171E+03  0.60757903343E+03  0.25500000920E-02 0.  1.
       -2    1    3    3    0  502 -0.17167978868E+03  0.32722977535E+03  0.33946605363E+03  0.50178728291E+03  0.25500000920E-02 0. -1.
</event>
<event>
 5   0  0.8621738E-05  0.1099975E+04  0.7818609E-02  0.9205216E-01
        1   -1    0    0  501    0  0.00000000000E+00  0.00000000000E+00  0.18898669744E+04  0.18898669744E+04  0.50400001928E-02 0.  1.
       -1   -1    0    0    0  501  0.00000000000E+00  0.00000000000E+00 -0.16005704472E+03  0.16005704480E+03  0.50400001928E-02 0. -1.
    10030    2    1    2    0    0  0.00000000000E+00  0.00000000000E+00  0.17298099297E+04  0.20499240192E+04  0.10999754960E+04 0.  0.
        2    1    3    3  502    0 -0.14442509131E+03  0.35862978301E+03  0.15938895474E+04  0.16401090871E+04  0.25500000920E-02 0.  1.
       -2    1    3    3    0  502  0.14442509131E+03 -0.35862978301E+03  0.13592038229E+03  0.40981493212E+03  0.25500000920E-02 0. -1.
</event>
<event>
 5   0  0.9346836E-05  0.1099992E+04  0.7818609E-02  0.9205200E-01
       -1   -1    0    0    0  501  0.00000000000E+00  0.00000000000E+00  0.98814051284E+03  0.98814051286E+03  0.50400001928E-02 0.  1.
        1   -1    0    0  501    0  0.00000000000E+00  0.00000000000E+00 -0.30612603239E+03  0.30612603243E+03  0.50400001928E-02 0. -1.
    10030    2    1    2    0    0  0.00000000000E+00  0.00000000000E+00  0.68201448046E+03  0.12942665453E+04  0.10999918812E+04 0.  0.
        5    1    3    3  502    0  0.23523330149E+03  0.31010543729E+02  0.92479913084E+03  0.95476273616E+03  0.46999998093E+01 0.  1.
       -5    1    3    3    0  502 -0.23523330149E+03 -0.31010543729E+02 -0.24278465039E+03  0.33950380913E+03  0.46999998093E+01 0. -1.
</event>
<event>
 5   0  0.1540772E-04  0.1100202E+04  0.7818609E-02  0.9204995E-01
        2   -1    0    0  501    0  0.00000000000E+00  0.00000000000E+00  0.10800578778E+04  0.10800578779E+04  0.25500000920E-02 0. -1.
       -2   -1    0    0    0  501  0.00000000000E+00  0.00000000000E+00 -0.28018035166E+03  0.28018035167E+03  0.25500000920E-02 0.  1.
    10030    2    1    2    0    0  0.00000000000E+00  0.00000000000E+00  0.79987752619E+03  0.13602382295E+04  0.11002017925E+04 0.  0.
        2    1    3    3  502    0  0.29896141154E+03  0.34869939580E+03  0.25664953187E+02  0.46003030775E+03  0.25500000920E-02 0.  1.
       -2    1    3    3    0  502 -0.29896141154E+03 -0.34869939580E+03  0.77421257300E+03  0.90020792177E+03  0.25500000920E-02 0. -1.
</event>
<event>
 5   0  0.1574101E-04  0.1100025E+04  0.7818609E-02  0.9205168E-01
       -2   -1    0    0    0  501  0.00000000000E+00  0.00000000000E+00  0.59739055188E+03  0.59739055189E+03  0.25500000920E-02 0.  1.
        2   -1    0    0  501    0  0.00000000000E+00  0.00000000000E+00 -0.50639164268E+03  0.50639164269E+03  0.25500000920E-02 0. -1.
    10030    2    1    2    0    0  0.00000000000E+00  0.00000000000E+00  0.90998909200E+02  0.11037821946E+04  0.11000246959E+04 0.  0.
        4    1    3    3  502    0  0.42279943538E+03 -0.20317833621E+03 -0.24265944010E+03  0.52813446738E+03  0.12699999809E+01 0. -1.
       -4    1    3    3    0  502 -0.42279943538E+03  0.20317833621E+03  0.33365834930E+03  0.57564772720E+03  0.12699999809E+01 0.  1.
</event>
<event>
 5   0  0.1464205E-04  0.1100419E+04  0.7818609E-02  0.9204784E-01
        2   -1    0    0  501    0  0.00000000000E+00  0.00000000000E+00  0.43053112319E+03  0.43053112320E+03  0.25500000920E-02 0. -1.
       -2   -1    0    0    0  501  0.00000000000E+00  0.00000000000E+00 -0.70315592359E+03  0.70315592359E+03  0.25500000920E-02 0.  1.
    10030    2    1    2    0    0  0.00000000000E+00  0.00000000000E+00 -0.27262480040E+03  0.11336870468E+04  0.11004190285E+04 0.  0.
        3    1    3    3  502    0  0.18371639803E+03 -0.18949927037E+03 -0.63367963668E+03  0.68644852722E+03  0.10100000352E+00 0.  1.
       -3    1    3    3    0  502 -0.18371639803E+03  0.18949927037E+03  0.36105483629E+03  0.44723851957E+03  0.10100000352E+00 0. -1.
</event>
<event>
 5   0  0.9016738E-05  0.1099464E+04  0.7818609E-02  0.9205714E-01
       -1   -1    0    0    0  501  0.00000000000E+00  0.00000000000E+00  0.88042104082E+03  0.88042104083E+03  0.50400001928E-02 0. -1.
        1   -1    0    0  501    0  0.00000000000E+00  0.00000000000E+00 -0.34325115406E+03  0.34325115410E+03  0.50400001928E-02 0.  1.
    10030    2    1    2    0    0  0.00000000000E+00  0.00000000000E+00  0.53716988676E+03  0.12236721949E+04  0.10994644848E+04 0.  0.
        4    1    3    3  502    0 -0.99091779348E+01  0.47435861284E+03  0.57760160438E+03  0.74748880371E+03  0.12699999809E+01 0. -1.
       -4    1    3    3    0  502  0.99091779348E+01 -0.47435861284E+03 -0.40431717621E+02  0.47618339122E+03  0.12699999809E+01 0.  1.
</event>
<event>
 5   0  0.8921459E-05  0.1099901E+04  0.7818609E-02  0.9205288E-01
       -1   -1    0    0    0  501  0.00000000000E+00  0.00000000000E+00  0.25155571626E+03  0.25155571631E+03  0.50400001928E-02 0. -1.
        1   -1    0    0  501    0  0.00000000000E+00  0.00000000000E+00 -0.12023011084E+04  0.12023011084E+04  0.50400001928E-02 0.  1.
    10030    2    1    2    0    0  0.00000000000E+00  0.00000000000E+00 -0.95074539213E+03  0.14538568247E+04  0.10999012983E+04 0.  0.
        3    1    3    3  502    0  0.97616779215E+01  0.24636245637E+02 -0.12014566947E+04  0.12017489066E+04  0.10100000352E+00 0.  1.
       -3    1    3    3    0  502 -0.97616779215E+01 -0.24636245637E+02  0.25071130258E+03  0.25210791815E+03  0.10100000352E+00 0. -1.
</event>
<event>
 5   0  0.9346836E-05  0.1099034E+04  0.7818609E-02  0.9206134E-01
       -1   -1    0    0    0  501  0.00000000000E+00  0.00000000000E+00  0.15813486777E+03  0.15813486785E+03  0.50400001928E-02 0.  1.
        1   -1    0    0  501    0  0.00000000000E+00  0.00000000000E+00 -0.19095669129E+04  0.19095669129E+04  0.50400001928E-02 0. -1.
    10030    2    1    2    0    0  0.00000000000E+00  0.00000000000E+00 -0.17514320451E+04  0.20677017807E+04  0.10990343240E+04 0.  0.
        5    1    3    3  502    0  0.23189908426E+03  0.45973935258E+03 -0.12366742796E+04  0.13395980074E+04  0.46999998093E+01 0. -1.
       -5    1    3    3    0  502 -0.23189908426E+03 -0.45973935258E+03 -0.51475776551E+03  0.72810377334E+03  0.46999998093E+01 0.  1.
</event>
<event>
 5   0  0.9346836E-05  0.1099970E+04  0.7818609E-02  0.9205221E-01
       -1   -1    0    0    0  501  0.00000000000E+00  0.00000000000E+00  0.19354622521E+03  0.19354622528E+03  0.50400001928E-02 0.  1.
        1   -1    0    0  501    0  0.00000000000E+00  0.00000000000E+00 -0.15628489903E+04  0.15628489903E+04  0.50400001928E-02 0. -1.
    10030    2    1    2    0    0  0.00000000000E+00  0.00000000000E+00 -0.13693027651E+04  0.17563952156E+04  0.10999700409E+04 0.  0.
        5    1    3    3  502    0 -0.35469798552E+03  0.41026973852E+03 -0.83038213427E+03  0.99181071692E+03  0.46999998093E+01 0. -1.
       -5    1    3    3    0  502  0.35469798552E+03 -0.41026973852E+03 -0.53892063082E+03  0.76458449866E+03  0.46999998093E+01 0.  1.
</event>
<event>
 5   0  0.1540772E-04  0.1099929E+04  0.7818609E-02  0.9205261E-01
       -2   -1    0    0    0  501  0.00000000000E+00  0.00000000000E+00  0.26253031504E+03  0.26253031505E+03  0.25500000920E-02 0.  1.
        2   -1    0    0  501    0  0.00000000000E+00  0.00000000000E+00 -0.11520993478E+04  0.11520993478E+04  0.25500000920E-02 0. -1.
    10030    2    1    2    0    0  0.00000000000E+00  0.00000000000E+00 -0.88956903280E+03  0.14146296629E+04  0.10999290973E+04 0.  0.
        2    1    3    3  502    0  0.30425578625E+03 -0.81547983151E+02 -0.10245895291E+04  0.10719166759E+04  0.25500000920E-02 0. -1.
       -2    1    3    3    0  502 -0.30425578625E+03  0.81547983151E+02  0.13502049626E+03  0.34271298698E+03  0.25500000920E-02 0.  1.
</event>
<event>
 5   0  0.1540772E-04  0.1099985E+04  0.7818609E-02  0.9205207E-01
       -2   -1    0    0    0  501  0.00000000000E+00  0.00000000000E+00  0.25462004056E+03  0.25462004058E+03  0.25500000920E-02 0. -1.
        2   -1    0    0  501    0  0.00000000000E+00  0.00000000000E+00 -0.11880112794E+04  0.11880112794E+04  0.25500000920E-02 0.  1.
    10030    2    1    2    0    0  0.00000000000E+00  0.00000000000E+00 -0.93339123884E+03  0.14426313200E+04  0.10999845093E+04 0.  0.
        2    1    3    3  502    0 -0.36624084064E+03  0.35657397788E+03 -0.20044426239E+03  0.54904941252E+03  0.25500000920E-02 0. -1.
       -2    1    3    3    0  502  0.36624084064E+03 -0.35657397788E+03 -0.73294697645E+03  0.89358190747E+03  0.25500000920E-02 0.  1.
</event>
<event>
 5   0  0.8657442E-05  0.1099679E+04  0.7818609E-02  0.9205505E-01
       -1   -1    0    0    0  501  0.00000000000E+00  0.00000000000E+00  0.48055300184E+03  0.48055300187E+03  0.50400001928E-02 0. -1.
        1   -1    0    0  501    0  0.00000000000E+00  0.00000000000E+00 -0.62911525972E+03  0.62911525974E+03  0.50400001928E-02 0.  1.
    10030    2    1    2    0    0  0.00000000000E+00  0.00000000000E+00 -0.14856225788E+03  0.11096682616E+04  0.10996785468E+04 0.  0.
        1    1    3    3  502    0  0.90467028988E+02 -0.58562475430E+02 -0.61835382820E+03  0.62767452054E+03  0.50400001928E-02 0.  1.
       -1    1    3    3    0  502 -0.90467028988E+02  0.58562475430E+02  0.46979157032E+03  0.48199374107E+03  0.50400001928E-02 0. -1.
</event>
<event>
 5   0  0.9016738E-05  0.1100349E+04  0.7818609E-02  0.9204852E-01
       -1   -1    0    0    0  501  0.00000000000E+00  0.00000000000E+00  0.25929899690E+03  0.25929899695E+03  0.50400001928E-02 0.  1.
        1   -1    0    0  501    0  0.00000000000E+00  0.00000000000E+00 -0.11673466337E+04  0.11673466337E+04  0.50400001928E-02 0. -1.
    10030    2    1    2    0    0  0.00000000000E+00  0.00000000000E+00 -0.90804763680E+03  0.14266456307E+04  0.11003486924E+04 0.  0.
        4    1    3    3  502    0 -0.47967993166E+02 -0.52916366881E+03 -0.26895406056E+03  0.59552751100E+03  0.12699999809E+01 0.  1.
       -4    1    3    3    0  502  0.47967993166E+02  0.52916366881E+03 -0.63909357623E+03  0.83111811967E+03  0.12699999809E+01 0. -1.
</event>
<event>
 5   0  0.1553937E-04  0.1099892E+04  0.7818609E-02  0.9205297E-01
        2   -1    0    0  501    0  0.00000000000E+00  0.00000000000E+00  0.88117841083E+03  0.88117841083E+03  0.25500000920E-02 0. -1.
       -2   -1    0    0    0  501  0.00000000000E+00  0.00000000000E+00 -0.34322309682E+03  0.34322309683E+03  0.25500000920E-02 0.  1.
    10030    2    1    2    0    0  0.00000000000E+00  0.00000000000E+00  0.53795531400E+03  0.12244015077E+04  0.10998923275E+04 0.  0.
        1    1    3    3  502    0 -0.53790968908E+03  0.45424686946E+02  0.15206212451E+03  0.56083252895E+03  0.50400001928E-02 0.  1.
       -1    1    3    3    0  502  0.53790968908E+03 -0.45424686946E+02  0.38589318949E+03  0.66356897871E+03  0.50400001928E-02 0. -1.
</event>
<event>
 5   0  0.1503277E-04  0.1099456E+04  0.7818609E-02  0.9205722E-01
        2   -1    0    0  501    0  0.00000000000E+00  0.00000000000E+00  0.39055210439E+03  0.39055210439E+03  0.25500000920E-02 0.  1.
       -2   -1    0    0    0  501  0.00000000000E+00  0.00000000000E+00 -0.77377898186E+03  0.77377898187E+03  0.25500000920E-02 0. -1.
    10030    2    1    2    0    0  0.00000000000E+00  0.00000000000E+00 -0.38322687748E+03  0.11643310863E+04  0.10994562469E+04 0.  0.
        5    1    3    3  502    0 -0.83219326600E+02 -0.35601646789E+03  0.24310282517E+03  0.43908342639E+03  0.46999998093E+01 0.  1.
       -5    1    3    3    0  502  0.83219326600E+02  0.35601646789E+03 -0.62632970264E+03  0.72524765987E+03  0.46999998093E+01 0. -1.
</event>
<event>
 5   0  0.8621738E-05  0.1105694E+04  0.7818609E-02  0.9199660E-01
       -1   -1    0    0    0  501  0.00000000000E+00  0.00000000000E+00  0.70069041121E+03  0.70069041122E+03  0.50400001928E-02 0. -1.
        1   -1    0    0  501    0  0.00000000000E+00  0.00000000000E+00 -0.43619827388E+03  0.43619827391E+03  0.50400001928E-02 0.  1.
    10030    2    1    2    0    0  0.00000000000E+00  0.00000000000E+00  0.26449213733E+03  0.11368886851E+04  0.11056942578E+04 0.  0.
        2    1    3    3  502    0 -0.18545597157E+03 -0.32768963039E+03  0.54846966976E+03  0.66527692723E+03  0.25500000920E-02 0. -1.
       -2    1    3    3    0  502  0.18545597157E+03  0.32768963039E+03 -0.28397753244E+03  0.47161175790E+03  0.25500000920E-02 0.  1.
</event>
<event>
 5   0  0.8621738E-05  0.1096376E+04  0.7818609E-02  0.9208732E-01
        1   -1    0    0  501    0  0.00000000000E+00  0.00000000000E+00  0.87382924113E+03  0.87382924114E+03  0.50400001928E-02 0. -1.
       -1   -1    0    0    0  501  0.00000000000E+00  0.00000000000E+00 -0.34390004132E+03  0.34390004136E+03  0.50400001928E-02 0.  1.
    10030    2    1    2    0    0  0.00000000000E+00  0.00000000000E+00  0.52992919981E+03  0.12177292825E+04  0.10963756877E+04 0.  0.
        2    1    3    3  502    0 -0.41426152403E+03 -0.34240021927E+03  0.38489500475E+03  0.66105573527E+03  0.25500000920E-02 0. -1.
       -2    1    3    3    0  502  0.41426152403E+03  0.34240021927E+03  0.14503419505E+03  0.55667354723E+03  0.25500000920E-02 0.  1.
</event>
<event>
 5   0  0.8921459E-05  0.1099448E+04  0.7818609E-02  0.9205730E-01
       -1   -1    0    0    0  501  0.00000000000E+00  0.00000000000E+00  0.44926518040E+03  0.44926518043E+03  0.50400001928E-02 0. -1.
        1   -1    0    0  501    0  0.00000000000E+00  0.00000000000E+00 -0.67264554109E+03  0.67264554111E+03  0.50400001928E-02 0.  1.
    10030    2    1    2    0    0  0.00000000000E+00  0.00000000000E+00 -0.22338036070E+03  0.11219107215E+04  0.10994475347E+04 0.  0.
        3    1    3    3  502    0  0.35920685592E+03 -0.12550697867E+03 -0.51655156229E+03  0.64156612577E+03  0.10100000352E+00 0.  1.
       -3    1    3    3    0  502 -0.35920685592E+03  0.12550697867E+03  0.29317120159E+03  0.48034459576E+03  0.10100000352E+00 0. -1.
</event>
<event>
 5   0  0.1464205E-04  0.1100240E+04  0.7818609E-02  0.9204958E-01
       -2   -1    0    0    0  501  0.00000000000E+00  0.00000000000E+00  0.22831370331E+03  0.22831370333E+03  0.25500000920E-02 0.  1.
        2   -1    0    0  501    0  0.00000000000E+00  0.00000000000E+00 -0.13255107143E+04  0.13255107143E+04  0.25500000920E-02 0. -1.
    10030    2    1    2    0    0  0.00000000000E+00  0.00000000000E+00 -0.10971970110E+04  0.15538244176E+04  0.11002404464E+04 0.  0.
        3    1    3    3  502    0 -0.15495052633E+03  0.47819042502E+03 -0.86425181307E+03  0.99980345808E+03  0.10100000352E+00 0. -1.
       -3    1    3    3    0  502  0.15495052633E+03 -0.47819042502E+03 -0.23294519793E+03  0.55402095956E+03  0.10100000352E+00 0.  1.
</event>
<event>
 5   0  0.8921459E-05  0.1099906E+04  0.7818609E-02  0.9205283E-01
       -1   -1    0    0    0  501  0.00000000000E+00  0.00000000000E+00  0.54567442063E+03  0.54567442066E+03  0.50400001928E-02 0.  1.
        1   -1    0    0  501    0  0.00000000000E+00  0.00000000000E+00 -0.55426558296E+03  0.55426558299E+03  0.50400001928E-02 0. -1.
    10030    2    1    2    0    0  0.00000000000E+00  0.00000000000E+00 -0.85911623327E+01  0.10999400036E+04  0.10999064522E+04 0.  0.
        3    1    3    3  502    0  0.51351128801E+03  0.76750073668E+02 -0.18558576006E+03  0.55138598210E+03  0.10100000352E+00 0. -1.
       -3    1    3    3    0  502 -0.51351128801E+03 -0.76750073668E+02  0.17699459773E+03  0.54855402154E+03  0.10100000352E+00 0.  1.
</event>
<event>
 5   0  0.8621738E-05  0.1100242E+04  0.7818609E-02  0.9204956E-01
        1   -1    0    0  501    0  0.00000000000E+00  0.00000000000E+00  0.62895120912E+03  0.62895120914E+03  0.50400001928E-02 0.  1.
       -1   -1    0    0    0  501  0.00000000000E+00  0.00000000000E+00 -0.48117070031E+03  0.48117070034E+03  0.50400001928E-02 0. -1.
    10030    2    1    2    0    0  0.00000000000E+00  0.00000000000E+00  0.14778050881E+03  0.11101219095E+04  0.11002415985E+04 0.  0.
        2    1    3    3  502    0  0.23890522711E+03  0.35130832679E+03 -0.27873299336E+03  0.50811940487E+03  0.25500000920E-02 0. -1.
       -2    1    3    3    0  502 -0.23890522711E+03 -0.35130832679E+03  0.42651350217E+03  0.60200250461E+03  0.25500000920E-02 0.  1.
</event>
<event>
 5   0  0.1464205E-04  0.1099975E+04  0.7818609E-02  0.9205216E-01
       -2   -1    0    0    0  501  0.00000000000E+00  0.00000000000E+00  0.41818416941E+03  0.41818416942E+03  0.25500000920E-02 0. -1.
        2   -1    0    0  501    0  0.00000000000E+00  0.00000000000E+00 -0.72333295982E+03  0.72333295982E+03  0.25500000920E-02 0.  1.
    10030    2    1    2    0    0  0.00000000000E+00  0.00000000000E+00 -0.30514879041E+03  0.11415171292E+04  0.10999752597E+04 0.  0.
        3    1    3    3  502    0 -0.24951409714E+03  0.49012580020E+03 -0.15007552904E+03  0.57009057115E+03  0.10100000352E+00 0.  1.
       -3    1    3    3    0  502  0.24951409714E+03 -0.49012580020E+03 -0.15507326137E+03  0.57142655809E+03  0.10100000352E+00 0. -1.
</event>
<event>
 5   0  0.1503277E-04  0.1098524E+04  0.7818609E-02  0.9206632E-01
       -2   -1    0    0    0  501  0.00000000000E+00  0.00000000000E+00  0.33055905704E+03  0.33055905705E+03  0.25500000920E-02 0. -1.
        2   -1    0    0  501    0  0.00000000000E+00  0.00000000000E+00 -0.91266187779E+03  0.91266187779E+03  0.25500000920E-02 0.  1.
    10030    2    1    2    0    0  0.00000000000E+00  0.00000000000E+00 -0.58210282075E+03  0.12432209348E+04  0.10985238272E+04 0.  0.
        5    1    3    3  502    0 -0.11565374283E+03  0.47728378847E+03 -0.12706002827E+02  0.49128315203E+03  0.46999998093E+01 0. -1.
       -5    1    3    3    0  502  0.11565374283E+03 -0.47728378847E+03 -0.56939681793E+03  0.75193778281E+03  0.46999998093E+01 0.  1.
</event>
<event>
 5   0  0.1503277E-04  0.1099744E+04  0.7818609E-02  0.9205441E-01
        2   -1    0    0  501    0  0.00000000000E+00  0.00000000000E+00  0.76221534747E+03  0.76221534748E+03  0.25500000920E-02 0. -1.
       -2   -1    0    0    0  501  0.00000000000E+00  0.00000000000E+00 -0.39668501374E+03  0.39668501374E+03  0.25500000920E-02 0.  1.
    10030    2    1    2    0    0  0.00000000000E+00  0.00000000000E+00  0.36553033374E+03  0.11589003612E+04  0.10997443441E+04 0.  0.
        5    1    3    3  502    0 -0.26492977815E+03 -0.16801342508E+03  0.65863191134E+03  0.72954395549E+03  0.46999998093E+01 0. -1.
       -5    1    3    3    0  502  0.26492977815E+03  0.16801342508E+03 -0.29310157760E+03  0.42935640573E+03  0.46999998093E+01 0.  1.
</event>
<event>
 5   0  0.1503277E-04  0.1099860E+04  0.7818609E-02  0.9205328E-01
       -2   -1    0    0    0  501  0.00000000000E+00  0.00000000000E+00  0.16920757114E+03  0.16920757116E+03  0.25500000920E-02 0.  1.
        2   -1    0    0  501    0  0.00000000000E+00  0.00000000000E+00 -0.17872904742E+04  0.17872904742E+04  0.25500000920E-02 0. -1.
    10030    2    1    2    0    0  0.00000000000E+00  0.00000000000E+00 -0.16180829031E+04  0.19564980454E+04  0.10998601367E+04 0.  0.
        5    1    3    3  502    0  0.50193978244E+03 -0.81584926706E+02 -0.11813351437E+04  0.12861471367E+04  0.46999998093E+01 0.  1.
       -5    1    3    3    0  502 -0.50193978244E+03  0.81584926706E+02 -0.43674775933E+03  0.67035090866E+03  0.46999998093E+01 0. -1.
</event>
<event>
 5   0  0.1540772E-04  0.1099840E+04  0.7818609E-02  0.9205347E-01
       -2   -1    0    0    0  501  0.00000000000E+00  0.00000000000E+00  0.50262489221E+03  0.50262489221E+03  0.25500000920E-02 0.  1.
        2   -1    0    0  501    0  0.00000000000E+00  0.00000000000E+00 -0.60166585529E+03  0.60166585530E+03  0.25500000920E-02 0. -1.
    10030    2    1    2    0    0  0.00000000000E+00  0.00000000000E+00 -0.99040963088E+02  0.11042907475E+04  0.10998404169E+04 0.  0.
        2    1    3    3  502    0 -0.40718380455E+03 -0.12350055066E+03 -0.39929944583E+03  0.58351613872E+03  0.25500000920E-02 0. -1.
       -2    1    3    3    0  502  0.40718380455E+03  0.12350055066E+03  0.30025848274E+03  0.52077460879E+03  0.25500000920E-02 0.  1.
</event>
<event>
 5   0  0.1574101E-04  0.1099770E+04  0.7818609E-02  0.9205416E-01
       -2   -1    0    0    0  501  0.00000000000E+00  0.00000000000E+00  0.62921131178E+03  0.62921131179E+03  0.25500000920E-02 0.  1.
        2   -1    0    0  501    0  0.00000000000E+00  0.00000000000E+00 -0.48055923930E+03  0.48055923931E+03  0.25500000920E-02 0. -1.
    10030    2    1    2    0    0  0.00000000000E+00  0.00000000000E+00  0.14865207248E+03  0.11097705511E+04  0.10997696293E+04 0.  0.
        4    1    3    3  502    0  0.30713087449E+03 -0.19465910319E+03  0.49056971354E+03  0.61064048119E+03  0.12699999809E+01 0.  1.
       -4    1    3    3    0  502 -0.30713087449E+03  0.19465910319E+03 -0.34191764106E+03  0.49913006991E+03  0.12699999809E+01 0. -1.
</event>
<event>
 5   0  0.1464205E-04  0.1100403E+04  0.7818609E-02  0.9204799E-01
        2   -1    0    0  501    0  0.00000000000E+00  0.00000000000E+00  0.83743675634E+03  0.83743675634E+03  0.25500000920E-02 0.  1.
       -2   -1    0    0    0  501  0.00000000000E+00  0.00000000000E+00 -0.36148604068E+03  0.36148604068E+03  0.25500000920E-02 0. -1.
    10030    2    1    2    0    0  0.00000000000E+00  0.00000000000E+00  0.47595071566E+03  0.11989227970E+04  0.11004030123E+04 0.  0.
        3    1    3    3  502    0 -0.39548159234E+03  0.12376748842E+03  0.63231562584E+03  0.75600736898E+03  0.10100000352E+00 0.  1.
       -3    1    3    3    0  502  0.39548159234E+03 -0.12376748842E+03 -0.15636491017E+03  0.44291542805E+03  0.10100000352E+00 0. -1.
</event>
<event>
 5   0  0.1503277E-04  0.1099072E+04  0.7818609E-02  0.9206096E-01
        2   -1    0    0  501    0  0.00000000000E+00  0.00000000000E+00  0.14362748039E+04  0.14362748039E+04  0.25500000920E-02 0.  1.
       -2   -1    0    0    0  501  0.00000000000E+00  0.00000000000E+00 -0.21025922900E+03  0.21025922902E+03  0.25500000920E-02 0. -1.
    10030    2    1    2    0    0  0.00000000000E+00  0.00000000000E+00  0.12260155749E+04  0.16465340329E+04  0.10990723960E+04 0.  0.
        5    1    3    3  502    0  0.30949047609E+03  0.31894077637E+03  0.10972026641E+04  0.11838003842E+04  0.46999998093E+01 0.  1.
       -5    1    3    3    0  502 -0.30949047609E+03 -0.31894077637E+03  0.12881291078E+03  0.46273364867E+03  0.46999998093E+01 0. -1.
</event>
<event>
 5   0  0.1553937E-04  0.1097718E+04  0.7818609E-02  0.9207419E-01
        2   -1    0    0  501    0  0.00000000000E+00  0.00000000000E+00  0.64644815906E+03  0.64644815907E+03  0.25500000920E-02 0. -1.
       -2   -1    0    0    0  501  0.00000000000E+00  0.00000000000E+00 -0.46600195433E+03  0.46600195434E+03  0.25500000920E-02 0.  1.
    10030    2    1    2    0    0  0.00000000000E+00  0.00000000000E+00  0.18044620473E+03  0.11124501134E+04  0.10977178244E+04 0.  0.
        1    1    3    3  502    0 -0.34432480835E+02  0.54726200041E+03  0.66138358301E+02  0.55231836407E+03  0.50400001928E-02 0.  1.
       -1    1    3    3    0  502  0.34432480835E+02 -0.54726200041E+03  0.11430784643E+03  0.56013174933E+03  0.50400001928E-02 0. -1.
</event>
<event>
 5   0  0.9346836E-05  0.1099665E+04  0.7818609E-02  0.9205519E-01
       -1   -1    0    0    0  501  0.00000000000E+00  0.00000000000E+00  0.64544857895E+03  0.64544857897E+03  0.50400001928E-02 0.  1.
        1   -1    0    0  501    0  0.00000000000E+00  0.00000000000E+00 -0.46838067651E+03  0.46838067653E+03  0.50400001928E-02 0. -1.
    10030    2    1    2    0    0  0.00000000000E+00  0.00000000000E+00  0.17706790244E+03  0.11138292555E+04  0.10996647527E+04 0.  0.
        5    1    3    3  502    0 -0.23793782808E+03 -0.19238711355E+03  0.55121798770E+03  0.63046853328E+03  0.46999998093E+01 0.  1.
       -5    1    3    3    0  502  0.23793782808E+03  0.19238711355E+03 -0.37415008526E+03  0.48336072222E+03  0.46999998093E+01 0. -1.
</event>
<event>
 5   0  0.1553937E-04  0.1100209E+04  0.7818609E-02  0.9204988E-01
        2   -1    0    0  501    0  0.00000000000E+00  0.00000000000E+00  0.14398769857E+04  0.14398769857E+04  0.25500000920E-02 0. -1.
       -2   -1    0    0    0  501  0.00000000000E+00  0.00000000000E+00 -0.21016720473E+03  0.21016720474E+03  0.25500000920E-02 0.  1.
    10030    2    1    2    0    0  0.00000000000E+00  0.00000000000E+00  0.12297097810E+04  0.16500441905E+04  0.11002089279E+04 0.  0.
        1    1    3    3  502    0  0.44355291730E+03 -0.14423100573E+03  0.17741673490E+03  0.49901750601E+03  0.50400001928E-02 0.  1.
       -1    1    3    3    0  502 -0.44355291730E+03  0.14423100573E+03  0.10522930461E+04  0.11510266845E+04  0.50400001928E-02 0. -1.
</event>
<event>
 5   0  0.8621738E-05  0.1099801E+04  0.7818609E-02  0.9205386E-01
        1   -1    0    0  501    0  0.00000000000E+00  0.00000000000E+00  0.19074585547E+04  0.19074585547E+04  0.50400001928E-02 0.  1.
       -1   -1    0    0    0  501  0.00000000000E+00  0.00000000000E+00 -0.15853061795E+03  0.15853061803E+03  0.50400001928E-02 0. -1.
    10030    2    1    2    0    0  0.00000000000E+00  0.00000000000E+00  0.17489279368E+04  0.20659891727E+04  0.10998010429E+04 0.  0.
        2    1    3    3  502    0 -0.44005286252E+02  0.37320198355E+03  0.12030666354E+03  0.39457556823E+03  0.25500000920E-02 0. -1.
       -2    1    3    3    0  502  0.44005286252E+02 -0.37320198355E+03  0.16286212732E+04  0.16714136045E+04  0.25500000920E-02 0.  1.
</event>
<event>
 5   0  0.1464205E-04  0.1099878E+04  0.7818609E-02  0.9205311E-01
       -2   -1    0    0    0  501  0.00000000000E+00  0.00000000000E+00  0.46673297531E+03  0.46673297532E+03  0.25500000920E-02 0.  1.
        2   -1    0    0  501    0  0.00000000000E+00  0.00000000000E+00 -0.64797850162E+03  0.64797850163E+03  0.25500000920E-02 0. -1.
    10030    2    1    2    0    0  0.00000000000E+00  0.00000000000E+00 -0.18124552631E+03  0.11147114769E+04  0.10998780551E+04 0.  0.
        3    1    3    3  502    0  0.65143699343E+02 -0.40978930654E+01  0.46279319420E+03  0.46737356054E+03  0.10100000352E+00 0.  1.
       -3    1    3    3    0  502 -0.65143699343E+02  0.40978930654E+01 -0.64403872051E+03  0.64733791640E+03  0.10100000352E+00 0. -1.
</event>
<event>
 5   0  0.9016738E-05  0.1101769E+04  0.7818609E-02  0.9203469E-01
        1   -1    0    0  501    0  0.00000000000E+00  0.00000000000E+00  0.95767508477E+03  0.95767508479E+03  0.50400001928E-02 0.  1.
       -1   -1    0    0    0  501  0.00000000000E+00  0.00000000000E+00 -0.31688601783E+03  0.31688601787E+03  0.50400001928E-02 0. -1.
    10030    2    1    2    0    0  0.00000000000E+00  0.00000000000E+00  0.64078906695E+03  0.12745611027E+04  0.11017692027E+04 0.  0.
        4    1    3    3  502    0  0.51947477902E+03 -0.18266900559E+03  0.30209539736E+03  0.62808061079E+03  0.12699999809E+01 0.  1.
       -4    1    3    3    0  502 -0.51947477902E+03  0.18266900559E+03  0.33869366959E+03  0.64648049186E+03  0.12699999809E+01 0. -1.
</event>
<event>
 5   0  0.8657442E-05  0.1100354E+04  0.7818609E-02  0.9204847E-01
        1   -1    0    0  501    0  0.00000000000E+00  0.00000000000E+00  0.79229488524E+03  0.79229488525E+03  0.50400001928E-02 0.  1.
       -1   -1    0    0    0  501  0.00000000000E+00  0.00000000000E+00 -0.38204822822E+03  0.38204822826E+03  0.50400001928E-02 0. -1.
    10030    2    1    2    0    0  0.00000000000E+00  0.00000000000E+00  0.41024665701E+03  0.11743431135E+04  0.11003542287E+04 0.  0.
        1    1    3    3  502    0 -0.17438190434E+03  0.37400316633E+03 -0.18322253470E+03  0.45150627264E+03  0.50400001928E-02 0. -1.
       -1    1    3    3    0  502  0.17438190434E+03 -0.37400316633E+03  0.59346919171E+03  0.72283684087E+03  0.50400001928E-02 0.  1.
</event>
<event>
 5   0  0.9346836E-05  0.1099728E+04  0.7818609E-02  0.9205457E-01
        1   -1    0    0  501    0  0.00000000000E+00  0.00000000000E+00  0.65252649697E+03  0.65252649699E+03  0.50400001928E-02 0. -1.
       -1   -1    0    0    0  501  0.00000000000E+00  0.00000000000E+00 -0.46335328822E+03  0.46335328825E+03  0.50400001928E-02 0.  1.
    10030    2    1    2    0    0  0.00000000000E+00  0.00000000000E+00  0.18917320875E+03  0.11158797852E+04  0.10997277810E+04 0.  0.
        5    1    3    3  502    0 -0.54572241856E+03 -0.36304131816E+02  0.15196140472E+03  0.56766654528E+03  0.46999998093E+01 0.  1.
       -5    1    3    3    0  502  0.54572241856E+03  0.36304131816E+02  0.37211804033E+02  0.54821323996E+03  0.46999998093E+01 0. -1.
</event>
<event>
 5   0  0.1574101E-04  0.1100036E+04  0.7818609E-02  0.9205157E-01
        2   -1    0    0  501    0  0.00000000000E+00  0.00000000000E+00  0.80079582767E+03  0.80079582767E+03  0.25500000920E-02 0.  1.
       -2   -1    0    0    0  501  0.00000000000E+00  0.00000000000E+00 -0.37777395847E+03  0.37777395848E+03  0.25500000920E-02 0. -1.
    10030    2    1    2    0    0  0.00000000000E+00  0.00000000000E+00  0.42302186920E+03  0.11785697862E+04  0.11000360171E+04 0.  0.
        4    1    3    3  502    0 -0.50005991340E+03  0.14634555687E+03  0.22747420393E+02  0.52153235474E+03  0.12699999809E+01 0.  1.
       -4    1    3    3    0  502  0.50005991340E+03 -0.14634555687E+03  0.40027444881E+03  0.65703743141E+03  0.12699999809E+01 0. -1.
</event>
<event>
 5   0  0.8621738E-05  0.1100409E+04  0.7818609E-02  0.9204793E-01
       -1   -1    0    0    0  501  0.00000000000E+00  0.00000000000E+00  0.18273808636E+03  0.18273808643E+03  0.50400001928E-02 0.  1.
        1   -1    0    0  501    0  0.00000000000E+00  0.00000000000E+00 -0.16566070521E+04  0.16566070521E+04  0.50400001928E-02 0. -1.
    10030    2    1    2    0    0  0.00000000000E+00  0.00000000000E+00 -0.14738689658E+04  0.18393451386E+04  0.11004093831E+04 0.  0.
        2    1    3    3  502    0  0.11032666020E+03  0.37237136260E+03 -0.13883791548E+04  0.14416757892E+04  0.25500000920E-02 0. -1.
       -2    1    3    3    0  502 -0.11032666020E+03 -0.37237136260E+03 -0.85489810951E+02  0.39766934936E+03  0.25500000920E-02 0.  1.
</event>
<event>
 5   0  0.1540772E-04  0.1100101E+04  0.7818609E-02  0.9205094E-01
       -2   -1    0    0    0  501  0.00000000000E+00  0.00000000000E+00  0.45020114941E+03  0.45020114942E+03  0.25500000920E-02 0. -1.
        2   -1    0    0  501    0  0.00000000000E+00  0.00000000000E+00 -0.67204511878E+03  0.67204511878E+03  0.25500000920E-02 0.  1.
    10030    2    1    2    0    0  0.00000000000E+00  0.00000000000E+00 -0.22184396936E+03  0.11222462682E+04  0.11001008771E+04 0.  0.
        2    1    3    3  502    0 -0.11678923812E+03  0.52988088227E+03 -0.20297148990E+03  0.57931934307E+03  0.25500000920E-02 0. -1.
       -2    1    3    3    0  502  0.11678923812E+03 -0.52988088227E+03 -0.18872479463E+02  0.54292692513E+03  0.25500000920E-02 0.  1.
</event>
<event>
 5   0  0.6010125E-05  0.1100489E+04  0.7818609E-02  0.9204715E-01
        3   -1    0    0  501    0  0.00000000000E+00  0.00000000000E+00  0.96141518159E+03  0.96141518690E+03  0.10100000352E+00 0. -1.
       -3   -1    0    0    0  501  0.00000000000E+00  0.00000000000E+00 -0.31492031583E+03  0.31492033202E+03  0.10100000352E+00 0.  1.
    10030    2    1    2    0    0  0.00000000000E+00  0.00000000000E+00  0.64649486577E+03  0.12763355189E+04  0.11004893209E+04 0.  0.
        5    1    3    3  502    0  0.28236441247E+03 -0.21627361392E+03  0.81014225589E+03  0.88479178471E+03  0.46999998093E+01 0. -1.
       -5    1    3    3    0  502 -0.28236441247E+03  0.21627361392E+03 -0.16364739012E+03  0.39154373421E+03  0.46999998093E+01 0.  1.
</event>
<event>
 5   0  0.1553937E-04  0.1100126E+04  0.7818609E-02  0.9205069E-01
        2   -1    0    0  501    0  0.00000000000E+00  0.00000000000E+00  0.59935487029E+03  0.59935487029E+03  0.25500000920E-02 0.  1.
       -2   -1    0    0    0  501  0.00000000000E+00  0.00000000000E+00 -0.50482481962E+03  0.50482481963E+03  0.25500000920E-02 0. -1.
    10030    2    1    2    0    0  0.00000000000E+00  0.00000000000E+00  0.94530050669E+02  0.11041796899E+04  0.11001258370E+04 0.  0.
        1    1    3    3  502    0  0.21067471557E+03 -0.17257120413E+03 -0.43241294474E+03  0.51102408073E+03  0.50400001928E-02 0. -1.
       -1    1    3    3    0  502 -0.21067471557E+03  0.17257120413E+03  0.52694299541E+03  0.59315560919E+03  0.50400001928E-02 0.  1.
</event>
<event>
 5   0  0.1503277E-04  0.1100657E+04  0.7818609E-02  0.9204552E-01
       -2   -1    0    0    0  501  0.00000000000E+00  0.00000000000E+00  0.14903935243E+03  0.14903935245E+03  0.25500000920E-02 0.  1.
        2   -1    0    0  501    0  0.00000000000E+00  0.00000000000E+00 -0.20320909526E+04  0.20320909526E+04  0.25500000920E-02 0. -1.
    10030    2    1    2    0    0  0.00000000000E+00  0.00000000000E+00 -0.18830516002E+04  0.21811303050E+04  0.11006571122E+04 0.  0.
        5    1    3    3  502    0 -0.30996658368E+03  0.43658681074E+03 -0.68967455027E+03  0.87313252236E+03  0.46999998093E+01 0.  1.
       -5    1    3    3    0  502  0.30996658368E+03 -0.43658681074E+03 -0.11933770499E+04  0.13079977827E+04  0.46999998093E+01 0. -1.
</event>
<event>
 5   0  0.8621738E-05  0.1099957E+04  0.7818609E-02  0.9205234E-01
       -1   -1    0    0    0  501  0.00000000000E+00  0.00000000000E+00  0.39405947745E+03  0.39405947748E+03  0.50400001928E-02 0. -1.
        1   -1    0    0  501    0  0.00000000000E+00  0.00000000000E+00 -0.76758994430E+03  0.76758994431E+03  0.50400001928E-02 0.  1.
    10030    2    1    2    0    0  0.00000000000E+00  0.00000000000E+00 -0.37353046685E+03  0.11616494218E+04  0.10999565307E+04 0.  0.
        2    1    3    3  502    0  0.32193900699E+03  0.37965557594E+03  0.60216865903E+02  0.50140717138E+03  0.25500000920E-02 0. -1.
       -2    1    3    3    0  502 -0.32193900699E+03 -0.37965557594E+03 -0.43374733275E+03  0.66024225042E+03  0.25500000920E-02 0.  1.
</event>
<event>
 5   0  0.9016738E-05  0.1100053E+04  0.7818609E-02  0.9205141E-01
       -1   -1    0    0    0  501  0.00000000000E+00  0.00000000000E+00  0.41470341189E+03  0.41470341192E+03  0.50400001928E-02 0. -1.
        1   -1    0    0  501    0  0.00000000000E+00  0.00000000000E+00 -0.72950672794E+03  0.72950672795E+03  0.50400001928E-02 0.  1.
    10030    2    1    2    0    0  0.00000000000E+00  0.00000000000E+00 -0.31480331605E+03  0.11442101399E+04  0.11000525971E+04 0.  0.
        4    1    3    3  502    0  0.29473287933E+03 -0.44180622160E+03 -0.85956081178E+01  0.53116448016E+03  0.12699999809E+01 0. -1.
       -4    1    3    3    0  502 -0.29473287933E+03  0.44180622160E+03 -0.30620770793E+03  0.61304565972E+03  0.12699999809E+01 0.  1.
</event>
<event>
 5   0  0.1574101E-04  0.1100108E+04  0.7818609E-02  0.9205087E-01
       -2   -1    0    0    0  501  0.00000000000E+00  0.00000000000E+00  0.15377611581E+03  0.15377611584E+03  0.25500000920E-02 0.  1.
        2   -1    0    0  501    0  0.00000000000E+00  0.00000000000E+00 -0.19675316640E+04  0.19675316640E+04  0.25500000920E-02 0. -1.
    10030    2    1    2    0    0  0.00000000000E+00  0.00000000000E+00 -0.18137555482E+04  0.21213077798E+04  0.11001079530E+04 0.  0.
        4    1    3    3  502    0  0.45355489151E+03  0.29695295620E+03 -0.72738610241E+03  0.90718534638E+03  0.12699999809E+01 0.  1.
       -4    1    3    3    0  502 -0.45355489151E+03 -0.29695295620E+03 -0.10863694458E+04  0.12141224335E+04  0.12699999809E+01 0. -1.
</event>
<event>
 5   0  0.1464205E-04  0.1100068E+04  0.7818609E-02  0.9205126E-01
       -2   -1    0    0    0  501  0.00000000000E+00  0.00000000000E+00  0.32817556752E+03  0.32817556753E+03  0.25500000920E-02 0.  1.
        2   -1    0    0  501    0  0.00000000000E+00  0.00000000000E+00 -0.92187620142E+03  0.92187620142E+03  0.25500000920E-02 0. -1.
    10030    2    1    2    0    0  0.00000000000E+00  0.00000000000E+00 -0.59370063390E+03  0.12500517689E+04  0.11000677172E+04 0.  0.
        3    1    3    3  502    0 -0.17338885701E+02  0.54960450315E+03 -0.31173111220E+03  0.63209338183E+03  0.10100000352E+00 0.  1.
       -3    1    3    3    0  502  0.17338885701E+02 -0.54960450315E+03 -0.28196952171E+03  0.61795838712E+03  0.10100000352E+00 0. -1.
</event>
<event>
 5   0  0.8657442E-05  0.1100164E+04  0.7818609E-02  0.9205032E-01
       -1   -1    0    0    0  501  0.00000000000E+00  0.00000000000E+00  0.38493994509E+03  0.38493994513E+03  0.50400001928E-02 0.  1.
        1   -1    0    0  501    0  0.00000000000E+00  0.00000000000E+00 -0.78607093964E+03  0.78607093965E+03  0.50400001928E-02 0. -1.
    10030    2    1    2    0    0  0.00000000000E+00  0.00000000000E+00 -0.40113099454E+03  0.11710108848E+04  0.11001638139E+04 0.  0.
        1    1    3    3  502    0  0.41909033589E+02 -0.36117274424E+03  0.23879707743E+03  0.43500133620E+03  0.50400001928E-02 0.  1.
       -1    1    3    3    0  502 -0.41909033589E+02  0.36117274424E+03 -0.63992807197E+03  0.73600954858E+03  0.50400001928E-02 0. -1.
</event>
<event>
 5   0  0.8657442E-05  0.1099825E+04  0.7818609E-02  0.9205363E-01
        1   -1    0    0  501    0  0.00000000000E+00  0.00000000000E+00  0.36046458969E+03  0.36046458973E+03  0.50400001928E-02 0.  1.
       -1   -1    0    0    0  501  0.00000000000E+00  0.00000000000E+00 -0.83892738436E+03  0.83892738438E+03  0.50400001928E-02 0. -1.
    10030    2    1    2    0    0  0.00000000000E+00  0.00000000000E+00 -0.47846279467E+03  0.11993919741E+04  0.10998247413E+04 0.  0.
        1    1    3    3  502    0  0.29172945325E+03  0.11967156611E+03  0.25208388581E+03  0.40369994196E+03  0.50400001928E-02 0.  1.
       -1    1    3    3    0  502 -0.29172945325E+03 -0.11967156611E+03 -0.73054668048E+03  0.79569203215E+03  0.50400001928E-02 0. -1.
</event>
<event>
 5   0  0.8621738E-05  0.1100359E+04  0.7818609E-02  0.9204842E-01
       -1   -1    0    0    0  501  0.00000000000E+00  0.00000000000E+00  0.41130803390E+03  0.41130803393E+03  0.50400001928E-02 0. -1.
        1   -1    0    0  501    0  0.00000000000E+00  0.00000000000E+00 -0.73593805958E+03  0.73593805959E+03  0.50400001928E-02 0.  1.
    10030    2    1    2    0    0  0.00000000000E+00  0.00000000000E+00 -0.32463002568E+03  0.11472460935E+04  0.11003585532E+04 0.  0.
        2    1    3    3  502    0 -0.33255489089E+03  0.25979520247E+03 -0.53035960346E+03  0.67776663511E+03  0.25500000920E-02 0.  1.
       -2    1    3    3    0  502  0.33255489089E+03 -0.25979520247E+03  0.20572957778E+03  0.46947945841E+03  0.25500000920E-02 0. -1.
</event>
<event>
 5   0  0.8621738E-05  0.1100081E+04  0.7818609E-02  0.9205113E-01
        1   -1    0    0  501    0  0.00000000000E+00  0.00000000000E+00  0.77716292101E+03  0.77716292103E+03  0.50400001928E-02 0.  1.
       -1   -1    0    0    0  501  0.00000000000E+00  0.00000000000E+00 -0.38929346994E+03  0.38929346998E+03  0.50400001928E-02 0. -1.
    10030    2    1    2    0    0  0.00000000000E+00  0.00000000000E+00  0.38786945107E+03  0.11664563910E+04  0.11000808157E+04 0.  0.
        2    1    3    3  502    0 -0.38669229123E+03  0.13335344931E+03 -0.19599024645E+03  0.45357055377E+03  0.25500000920E-02 0. -1.
       -2    1    3    3    0  502  0.38669229123E+03 -0.13335344931E+03  0.58385969752E+03  0.71288583724E+03  0.25500000920E-02 0.  1.
</event>
<event>
 5   0  0.1503277E-04  0.1099967E+04  0.7818609E-02  0.9205224E-01
       -2   -1    0    0    0  501  0.00000000000E+00  0.00000000000E+00  0.72234801630E+03  0.72234801630E+03  0.25500000920E-02 0.  1.
        2   -1    0    0  501    0  0.00000000000E+00  0.00000000000E+00 -0.41874836172E+03  0.41874836173E+03  0.25500000920E-02 0. -1.
    10030    2    1    2    0    0  0.00000000000E+00  0.00000000000E+00  0.30359965458E+03  0.11410963780E+04  0.10999673603E+04 0.  0.
        5    1    3    3  502    0 -0.47343646600E+02 -0.50285798569E+02 -0.41421076821E+03  0.41995563208E+03  0.46999998093E+01 0. -1.
       -5    1    3    3    0  502  0.47343646600E+02  0.50285798569E+02  0.71781042279E+03  0.72114074596E+03  0.46999998093E+01 0.  1.
</event>
<event>
 5   0  0.9346836E-05  0.1100250E+04  0.7818609E-02  0.9204948E-01
        1   -1    0    0  501    0  0.00000000000E+00  0.00000000000E+00  0.11563759457E+04  0.11563759457E+04  0.50400001928E-02 0. -1.
       -1   -1    0    0    0  501  0.00000000000E+00  0.00000000000E+00 -0.26171206403E+03  0.26171206408E+03  0.50400001928E-02 0.  1.
    10030    2    1    2    0    0  0.00000000000E+00  0.00000000000E+00  0.89466388165E+03  0.14180880098E+04  0.11002500363E+04 0.  0.
        5    1    3    3  502    0  0.30686661167E+03  0.45456621450E+03  0.39237848867E+03  0.67437417588E+03  0.46999998093E+01 0. -1.
       -5    1    3    3    0  502 -0.30686661167E+03 -0.45456621450E+03  0.50228539298E+03  0.74371383389E+03  0.46999998093E+01 0.  1.
</event>
<event>
 5   0  0.8921459E-05  0.1099820E+04  0.7818609E-02  0.9205367E-01
       -1   -1    0    0    0  501  0.00000000000E+00  0.00000000000E+00  0.64034477807E+03  0.64034477809E+03  0.50400001928E-02 0. -1.
        1   -1    0    0  501    0  0.00000000000E+00  0.00000000000E+00 -0.47224750257E+03  0.47224750260E+03  0.50400001928E-02 0.  1.
    10030    2    1    2    0    0  0.00000000000E+00  0.00000000000E+00  0.16809727550E+03  0.11125922807E+04  0.10998203894E+04 0.  0.
        3    1    3    3  502    0  0.23084582182E+03  0.48529603987E+03 -0.33921072766E+02  0.53847255189E+03  0.10100000352E+00 0.  1.
       -3    1    3    3    0  502 -0.23084582182E+03 -0.48529603987E+03  0.20201834827E+03  0.57411972880E+03  0.10100000352E+00 0. -1.
</event>
<event>
 5   0  0.8921459E-05  0.1100538E+04  0.7818609E-02  0.9204668E-01
       -1   -1    0    0    0  501  0.00000000000E+00  0.00000000000E+00  0.70650529965E+03  0.70650529967E+03  0.50400001928E-02 0.  1.
        1   -1    0    0  501    0  0.00000000000E+00  0.00000000000E+00 -0.42858234907E+03  0.42858234910E+03  0.50400001928E-02 0. -1.
    10030    2    1    2    0    0  0.00000000000E+00  0.00000000000E+00  0.27792295058E+03  0.11350876488E+04  0.11005375068E+04 0.  0.
        3    1    3    3  502    0  0.49607635294E+03  0.74260718252E+02 -0.94391905227E+02  0.51040791941E+03  0.10100000352E+00 0. -1.
       -3    1    3    3    0  502 -0.49607635294E+03 -0.74260718252E+02  0.37231485581E+03  0.62467972936E+03  0.10100000352E+00 0.  1.
</event>
<event>
 5   0  0.9016738E-05  0.1104867E+04  0.7818609E-02  0.9200461E-01
       -1   -1    0    0    0  501  0.00000000000E+00  0.00000000000E+00  0.27388243620E+03  0.27388243624E+03  0.50400001928E-02 0.  1.
        1   -1    0    0  501    0  0.00000000000E+00  0.00000000000E+00 -0.11142831735E+04  0.11142831735E+04  0.50400001928E-02 0. -1.
    10030    2    1    2    0    0  0.00000000000E+00  0.00000000000E+00 -0.84040073729E+03  0.13881656097E+04  0.11048666711E+04 0.  0.
        4    1    3    3  502    0  0.13844062711E+03  0.29961911378E+03 -0.97678230995E+03  0.10310396280E+04  0.12699999809E+01 0. -1.
       -4    1    3    3    0  502 -0.13844062711E+03 -0.29961911378E+03  0.13638157266E+03  0.35712598174E+03  0.12699999809E+01 0.  1.
</event>
<event>
 5   0  0.1540772E-04  0.1100032E+04  0.7818609E-02  0.9205161E-01
        2   -1    0    0  501    0  0.00000000000E+00  0.00000000000E+00  0.10680732161E+04  0.10680732161E+04  0.25500000920E-02 0. -1.
       -2   -1    0    0    0  501  0.00000000000E+00  0.00000000000E+00 -0.28323681177E+03  0.28323681178E+03  0.25500000920E-02 0.  1.
    10030    2    1    2    0    0  0.00000000000E+00  0.00000000000E+00  0.78483640437E+03  0.13513100279E+04  0.11000320950E+04 0.  0.
        2    1    3    3  502    0 -0.51837301590E+03 -0.68684748515E+02  0.18290201665E+03  0.55396870489E+03  0.25500000920E-02 0.  1.
       -2    1    3    3    0  502  0.51837301590E+03  0.68684748515E+02  0.60193438772E+03  0.79734132303E+03  0.25500000920E-02 0. -1.
</event>
<event>
 5   0  0.1553937E-04  0.1099933E+04  0.7818609E-02  0.9205258E-01
        2   -1    0    0  501    0  0.00000000000E+00  0.00000000000E+00  0.13253557775E+04  0.13253557775E+04  0.25500000920E-02 0.  1.
       -2   -1    0    0    0  501  0.00000000000E+00  0.00000000000E+00 -0.22821264705E+03  0.22821264707E+03  0.25500000920E-02 0. -1.
    10030    2    1    2    0    0  0.00000000000E+00  0.00000000000E+00  0.10971431304E+04  0.15535684246E+04  0.10999326348E+04 0.  0.
        1    1    3    3  502    0  0.78875299279E+02 -0.21457186199E+03 -0.15792235882E+03  0.27785224173E+03  0.50400001928E-02 0. -1.
       -1    1    3    3    0  502 -0.78875299279E+02  0.21457186199E+03  0.12550654893E+04  0.12757161828E+04  0.50400001928E-02 0.  1.
</event>
<event>
 5   0  0.9346836E-05  0.1099664E+04  0.7818609E-02  0.9205520E-01
       -1   -1    0    0    0  501  0.00000000000E+00  0.00000000000E+00  0.79253219148E+03  0.79253219150E+03  0.50400001928E-02 0. -1.
        1   -1    0    0  501    0  0.00000000000E+00  0.00000000000E+00 -0.38145462842E+03  0.38145462845E+03  0.50400001928E-02 0.  1.
    10030    2    1    2    0    0  0.00000000000E+00  0.00000000000E+00  0.41107756306E+03  0.11739868199E+04  0.10996637170E+04 0.  0.
        5    1    3    3  502    0 -0.38841849583E+03 -0.11649375993E+03 -0.19084131912E+03  0.44819886556E+03  0.46999998093E+01 0.  1.
       -5    1    3    3    0  502  0.38841849583E+03  0.11649375993E+03  0.60191888218E+03  0.72578795439E+03  0.46999998093E+01 0. -1.
</event>
<event>
 5   0  0.8621738E-05  0.1100636E+04  0.7818609E-02  0.9204572E-01
       -1   -1    0    0    0  501  0.00000000000E+00  0.00000000000E+00  0.36441445114E+03  0.36441445117E+03  0.50400001928E-02 0.  1.
        1   -1    0    0  501    0  0.00000000000E+00  0.00000000000E+00 -0.83105859061E+03  0.83105859062E+03  0.50400001928E-02 0. -1.
    10030    2    1    2    0    0  0.00000000000E+00  0.00000000000E+00 -0.46664413947E+03  0.11954730418E+04  0.11006357439E+04 0.  0.
        2    1    3    3  502    0  0.93991649550E+02  0.52057167416E+03 -0.68523593200E+02  0.53340864350E+03  0.25500000920E-02 0.  1.
       -2    1    3    3    0  502 -0.93991649550E+02 -0.52057167416E+03 -0.39812054627E+03  0.66206439830E+03  0.25500000920E-02 0. -1.
</event>
<event>
 5   0  0.8921459E-05  0.1099654E+04  0.7818609E-02  0.9205529E-01
       -1   -1    0    0    0  501  0.00000000000E+00  0.00000000000E+00  0.30381360333E+03  0.30381360337E+03  0.50400001928E-02 0. -1.
        1   -1    0    0  501    0  0.00000000000E+00  0.00000000000E+00 -0.99505065432E+03  0.99505065433E+03  0.50400001928E-02 0.  1.
    10030    2    1    2    0    0  0.00000000000E+00  0.00000000000E+00 -0.69123705099E+03  0.12988642577E+04  0.10996543545E+04 0.  0.
        3    1    3    3  502    0  0.75525393771E+02 -0.52703508083E+03 -0.18349489383E+03  0.56315224211E+03  0.10100000352E+00 0. -1.
       -3    1    3    3    0  502 -0.75525393771E+02  0.52703508083E+03 -0.50774215716E+03  0.73571201559E+03  0.10100000352E+00 0.  1.
</event>
<event>
 5   0  0.1540772E-04  0.1101271E+04  0.7818609E-02  0.9203954E-01
        2   -1    0    0  501    0  0.00000000000E+00  0.00000000000E+00  0.49066494139E+03  0.49066494139E+03  0.25500000920E-02 0.  1.
       -2   -1    0    0    0  501  0.00000000000E+00  0.00000000000E+00 -0.61793582053E+03  0.61793582053E+03  0.25500000920E-02 0. -1.
    10030    2    1    2    0    0  0.00000000000E+00  0.00000000000E+00 -0.12727087914E+03  0.11086007619E+04  0.11012709806E+04 0.  0.
        2    1    3    3  502    0 -0.28759701282E+03  0.15146890195E+03  0.38378263970E+03  0.50293536819E+03  0.25500000920E-02 0.  1.
       -2    1    3    3    0  502  0.28759701282E+03 -0.15146890195E+03 -0.51105351884E+03  0.60566539373E+03  0.25500000920E-02 0. -1.
</event>
<event>
 5   0  0.1553937E-04  0.1098875E+04  0.7818609E-02  0.9206289E-01
        2   -1    0    0  501    0  0.00000000000E+00  0.00000000000E+00  0.78541046544E+03  0.78541046545E+03  0.25500000920E-02 0.  1.
       -2   -1    0    0    0  501  0.00000000000E+00  0.00000000000E+00 -0.38436167718E+03  0.38436167718E+03  0.25500000920E-02 0. -1.
    10030    2    1    2    0    0  0.00000000000E+00  0.00000000000E+00  0.40104878827E+03  0.11697721426E+04  0.10988752136E+04 0.  0.
        1    1    3    3  502    0  0.34394873364E+03  0.11292455404E+03  0.64050516200E+03  0.73573062247E+03  0.50400001928E-02 0.  1.
       -1    1    3    3    0  502 -0.34394873364E+03 -0.11292455404E+03 -0.23945637373E+03  0.43404152016E+03  0.50400001928E-02 0. -1.
</event>
<event>
 5   0  0.8657442E-05  0.1100082E+04  0.7818609E-02  0.9205112E-01
        1   -1    0    0  501    0  0.00000000000E+00  0.00000000000E+00  0.96550098327E+03  0.96550098329E+03  0.50400001928E-02 0.  1.
       -1   -1    0    0    0  501  0.00000000000E+00  0.00000000000E+00 -0.31335547904E+03  0.31335547909E+03  0.50400001928E-02 0. -1.
    10030    2    1    2    0    0  0.00000000000E+00  0.00000000000E+00  0.65214550423E+03  0.12788564624E+04  0.11000818573E+04 0.  0.
        1    1    3    3  502    0 -0.24251964887E+03  0.11578982284E+03  0.88398317368E+03  0.92393144471E+03  0.50400001928E-02 0.  1.
       -1    1    3    3    0  502  0.24251964887E+03 -0.11578982284E+03 -0.23183766945E+03  0.35492501766E+03  0.50400001928E-02 0. -1.
</event>
<event>
 5   0  0.1540772E-04  0.1099946E+04  0.7818609E-02  0.9205244E-01
        2   -1    0    0  501    0  0.00000000000E+00  0.00000000000E+00  0.13049236877E+04  0.13049236877E+04  0.25500000920E-02 0.  1.
       -2   -1    0    0    0  501  0.00000000000E+00  0.00000000000E+00 -0.23179174848E+03  0.23179174850E+03  0.25500000920E-02 0. -1.
    10030    2    1    2    0    0  0.00000000000E+00  0.00000000000E+00  0.10731319392E+04  0.15367154362E+04  0.10999464409E+04 0.  0.
        2    1    3    3  502    0 -0.20906675048E+03 -0.17628530439E+03  0.12032027134E+04  0.12338890486E+04  0.25500000920E-02 0.  1.
       -2    1    3    3    0  502  0.20906675048E+03  0.17628530439E+03 -0.13007077422E+03  0.30282638757E+03  0.25500000920E-02 0. -1.
</event>
<event>
 5   0  0.8621738E-05  0.1103840E+04  0.7818609E-02  0.9201457E-01
       -1   -1    0    0    0  501  0.00000000000E+00  0.00000000000E+00  0.48115700517E+03  0.48115700520E+03  0.50400001928E-02 0.  1.
        1   -1    0    0  501    0  0.00000000000E+00  0.00000000000E+00 -0.63308997116E+03  0.63308997118E+03  0.50400001928E-02 0. -1.
    10030    2    1    2    0    0  0.00000000000E+00  0.00000000000E+00 -0.15193296598E+03  0.11142469764E+04  0.11038399785E+04 0.  0.
        2    1    3    3  502    0 -0.45076483053E+02 -0.44944031191E+03 -0.39611145521E+03  0.60077680402E+03  0.25500000920E-02 0. -1.
       -2    1    3    3    0  502  0.45076483053E+02  0.44944031191E+03  0.24417848923E+03  0.51347017236E+03  0.25500000920E-02 0.  1.
</event>
<event>
 5   0  0.6010125E-05  0.1100737E+04  0.7818609E-02  0.9204474E-01
       -3   -1    0    0    0  501  0.00000000000E+00  0.00000000000E+00  0.23789820525E+03  0.23789822669E+03  0.10100000352E+00 0.  1.
        3   -1    0    0  501    0  0.00000000000E+00  0.00000000000E+00 -0.12732567268E+04  0.12732567308E+04  0.10100000352E+00 0. -1.
    10030    2    1    2    0    0  0.00000000000E+00  0.00000000000E+00 -0.10353585215E+04  0.15111549575E+04  0.11007370428E+04 0.  0.
        4    1    3    3  502    0 -0.12705773077E+03  0.12541804404E+03  0.19703843750E+03  0.26589304517E+03  0.12699999809E+01 0.  1.
       -4    1    3    3    0  502  0.12705773077E+03 -0.12541804404E+03 -0.12323969590E+04  0.12452619123E+04  0.12699999809E+01 0. -1.
</event>
<event>
 5   0  0.8921459E-05  0.1099705E+04  0.7818609E-02  0.9205480E-01
        1   -1    0    0  501    0  0.00000000000E+00  0.00000000000E+00  0.49242931444E+03  0.49242931446E+03  0.50400001928E-02 0.  1.
       -1   -1    0    0    0  501  0.00000000000E+00  0.00000000000E+00 -0.61397151703E+03  0.61397151705E+03  0.50400001928E-02 0. -1.
    10030    2    1    2    0    0  0.00000000000E+00  0.00000000000E+00 -0.12154220259E+03  0.11064008315E+04  0.10997046390E+04 0.  0.
        3    1    3    3  502    0 -0.39170834895E+03 -0.33693044496E+03 -0.25001217251E+03  0.57398924378E+03  0.10100000352E+00 0. -1.
       -3    1    3    3    0  502  0.39170834895E+03  0.33693044496E+03  0.12846996992E+03  0.53241158773E+03  0.10100000352E+00 0.  1.
</event>
<event>
 5   0  0.1503277E-04  0.1100077E+04  0.7818609E-02  0.9205117E-01
        2   -1    0    0  501    0  0.00000000000E+00  0.00000000000E+00  0.24374193994E+03  0.24374193995E+03  0.25500000920E-02 0. -1.
       -2   -1    0    0    0  501  0.00000000000E+00  0.00000000000E+00 -0.12412408826E+04  0.12412408826E+04  0.25500000920E-02 0.  1.
    10030    2    1    2    0    0  0.00000000000E+00  0.00000000000E+00 -0.99749894271E+03  0.14849828226E+04  0.11000771985E+04 0.  0.
        5    1    3    3  502    0 -0.28048691182E+03 -0.41571380921E+03 -0.80368560437E+03  0.94732440038E+03  0.46999998093E+01 0. -1.
       -5    1    3    3    0  502  0.28048691182E+03  0.41571380921E+03 -0.19381333833E+03  0.53765842222E+03  0.46999998093E+01 0.  1.
</event>
<event>
 5   0  0.1540772E-04  0.1099787E+04  0.7818609E-02  0.9205399E-01
        2   -1    0    0  501    0  0.00000000000E+00  0.00000000000E+00  0.13564568176E+04  0.13564568176E+04  0.25500000920E-02 0. -1.
       -2   -1    0    0    0  501  0.00000000000E+00  0.00000000000E+00 -0.22292120212E+03  0.22292120213E+03  0.25500000920E-02 0.  1.
    10030    2    1    2    0    0  0.00000000000E+00  0.00000000000E+00  0.11335356154E+04  0.15793780197E+04  0.10997872238E+04 0.  0.
        2    1    3    3  502    0 -0.30503496211E+03  0.20592294283E+03 -0.19974946809E+02  0.36857778690E+03  0.25500000920E-02 0.  1.
       -2    1    3    3    0  502  0.30503496211E+03 -0.20592294283E+03  0.11535105622E+04  0.12108002328E+04  0.25500000920E-02 0. -1.
</event>
<event>
 5   0  0.9346836E-05  0.1098492E+04  0.7818609E-02  0.9206663E-01
       -1   -1    0    0    0  501  0.00000000000E+00  0.00000000000E+00  0.44622238986E+03  0.44622238989E+03  0.50400001928E-02 0. -1.
        1   -1    0    0  501    0  0.00000000000E+00  0.00000000000E+00 -0.67605601938E+03  0.67605601940E+03  0.50400001928E-02 0.  1.
    10030    2    1    2    0    0  0.00000000000E+00  0.00000000000E+00 -0.22983362952E+03  0.11222784093E+04  0.10984922989E+04 0.  0.
        5    1    3    3  502    0  0.68680363669E+02 -0.87892569961E+02  0.43450778633E+03  0.44862144687E+03  0.46999998093E+01 0. -1.
       -5    1    3    3    0  502 -0.68680363669E+02  0.87892569961E+02 -0.66434141585E+03  0.67365696242E+03  0.46999998093E+01 0.  1.
</event>
<event>
 5   0  0.9346836E-05  0.1102279E+04  0.7818609E-02  0.9202974E-01
        1   -1    0    0  501    0  0.00000000000E+00  0.00000000000E+00  0.28144097609E+03  0.28144097613E+03  0.50400001928E-02 0.  1.
       -1   -1    0    0    0  501  0.00000000000E+00  0.00000000000E+00 -0.10792835920E+04  0.10792835920E+04  0.50400001928E-02 0. -1.
    10030    2    1    2    0    0  0.00000000000E+00  0.00000000000E+00 -0.79784261595E+03  0.13607245682E+04  0.11022787808E+04 0.  0.
        5    1    3    3  502    0  0.25268481703E+03 -0.12752966083E+03 -0.98267982891E+03  0.10226412701E+04  0.46999998093E+01 0. -1.
       -5    1    3    3    0  502 -0.25268481703E+03  0.12752966083E+03  0.18483721296E+03  0.33808329808E+03  0.46999998093E+01 0.  1.
</event>
<event>
 5   0  0.8621738E-05  0.1100594E+04  0.7818609E-02  0.9204613E-01
       -1   -1    0    0    0  501  0.00000000000E+00  0.00000000000E+00  0.88574865253E+03  0.88574865255E+03  0.50400001928E-02 0. -1.
        1   -1    0    0  501    0  0.00000000000E+00  0.00000000000E+00 -0.34188779498E+03  0.34188779502E+03  0.50400001928E-02 0.  1.
    10030    2    1    2    0    0  0.00000000000E+00  0.00000000000E+00  0.54386085755E+03  0.12276364476E+04  0.11005937557E+04 0.  0.
        2    1    3    3  502    0  0.24435527169E+03  0.29045702438E+03 -0.17249833274E+03  0.41692979819E+03  0.25500000920E-02 0.  1.
       -2    1    3    3    0  502 -0.24435527169E+03 -0.29045702438E+03  0.71635919029E+03  0.81070664938E+03  0.25500000920E-02 0. -1.
</event>
<event>
 5   0  0.8657442E-05  0.1099850E+04  0.7818609E-02  0.9205339E-01
        1   -1    0    0  501    0  0.00000000000E+00  0.00000000000E+00  0.69705529651E+03  0.69705529653E+03  0.50400001928E-02 0.  1.
       -1   -1    0    0    0  501  0.00000000000E+00  0.00000000000E+00 -0.43384970960E+03  0.43384970963E+03  0.50400001928E-02 0. -1.
    10030    2    1    2    0    0  0.00000000000E+00  0.00000000000E+00  0.26320558691E+03  0.11309050062E+04  0.10998495133E+04 0.  0.
        1    1    3    3  502    0  0.23501627012E+03 -0.35373198373E+03 -0.22763041118E+03  0.48184496226E+03  0.50400001928E-02 0. -1.
       -1    1    3    3    0  502 -0.23501627012E+03  0.35373198373E+03  0.49083599809E+03  0.64906004390E+03  0.50400001928E-02 0.  1.
</event>
<event>
 5   0  0.1540772E-04  0.1099917E+04  0.7818609E-02  0.9205273E-01
        2   -1    0    0  501    0  0.00000000000E+00  0.00000000000E+00  0.53568694457E+03  0.53568694458E+03  0.25500000920E-02 0. -1.
       -2   -1    0    0    0  501  0.00000000000E+00  0.00000000000E+00 -0.56461005404E+03  0.56461005404E+03  0.25500000920E-02 0.  1.
    10030    2    1    2    0    0  0.00000000000E+00  0.00000000000E+00 -0.28923109462E+02  0.11002969986E+04  0.10999167873E+04 0.  0.
        2    1    3    3  502    0  0.29772871878E+03 -0.18050305631E+03 -0.44032045856E+03  0.56134289837E+03  0.25500000920E-02 0.  1.
       -2    1    3    3    0  502 -0.29772871878E+03  0.18050305631E+03  0.41139734910E+03  0.53895410025E+03  0.25500000920E-02 0. -1.
</event>
<event>
 5   0  0.8657442E-05  0.1100269E+04  0.7818609E-02  0.9204930E-01
       -1   -1    0    0    0  501  0.00000000000E+00  0.00000000000E+00  0.64409949521E+03  0.64409949523E+03  0.50400001928E-02 0. -1.
        1   -1    0    0  501    0  0.00000000000E+00  0.00000000000E+00 -0.46987724620E+03  0.46987724622E+03  0.50400001928E-02 0.  1.
    10030    2    1    2    0    0  0.00000000000E+00  0.00000000000E+00  0.17422224902E+03  0.11139767415E+04  0.11002685074E+04 0.  0.
        1    1    3    3  502    0  0.41080272643E+02  0.14346313203E+03  0.62321598770E+03  0.64083338427E+03  0.50400001928E-02 0. -1.
       -1    1    3    3    0  502 -0.41080272643E+02 -0.14346313203E+03 -0.44899373868E+03  0.47314335719E+03  0.50400001928E-02 0.  1.
</event>
<event>
 5   0  0.6010125E-05  0.1098560E+04  0.7818609E-02  0.9206597E-01
        3   -1    0    0  501    0  0.00000000000E+00  0.00000000000E+00  0.22990222876E+03  0.22990225094E+03  0.10100000352E+00 0.  1.
       -3   -1    0    0    0  501  0.00000000000E+00  0.00000000000E+00 -0.13123328689E+04  0.13123328728E+04  0.10100000352E+00 0. -1.
    10030    2    1    2    0    0  0.00000000000E+00  0.00000000000E+00 -0.10824306402E+04  0.15422351238E+04  0.10985595506E+04 0.  0.
        3    1    3    3  502    0  0.24831978030E+03 -0.15760466099E+03 -0.11924754555E+04  0.12282099432E+04  0.10100000352E+00 0. -1.
       -3    1    3    3    0  502 -0.24831978030E+03  0.15760466099E+03  0.11004481530E+03  0.31402518057E+03  0.10100000352E+00 0.  1.
</event>
<event>
 5   0  0.1503277E-04  0.1100089E+04  0.7818609E-02  0.9205105E-01
       -2   -1    0    0    0  501  0.00000000000E+00  0.00000000000E+00  0.26616855676E+03  0.26616855677E+03  0.25500000920E-02 0. -1.
        2   -1    0    0  501    0  0.00000000000E+00  0.00000000000E+00 -0.11366824683E+04  0.11366824683E+04  0.25500000920E-02 0.  1.
    10030    2    1    2    0    0  0.00000000000E+00  0.00000000000E+00 -0.87051391153E+03  0.14028510251E+04  0.11000893274E+04 0.  0.
        5    1    3    3  502    0 -0.17216504180E+03  0.24966041608E+03 -0.10204071153E+04  0.10645298943E+04  0.46999998093E+01 0.  1.
       -5    1    3    3    0  502  0.17216504180E+03 -0.24966041608E+03  0.14989320376E+03  0.33832113074E+03  0.46999998093E+01 0. -1.
</event>
<event>
 5   0  0.8921459E-05  0.1100156E+04  0.7818609E-02  0.9205039E-01
        1   -1    0    0  501    0  0.00000000000E+00  0.00000000000E+00  0.13466978759E+04  0.13466978759E+04  0.50400001928E-02 0. -1.
       -1   -1    0    0    0  501  0.00000000000E+00  0.00000000000E+00 -0.22468740118E+03  0.22468740124E+03  0.50400001928E-02 0.  1.
    10030    2    1    2    0    0  0.00000000000E+00  0.00000000000E+00  0.11220104747E+04  0.15713852771E+04  0.11001564361E+04 0.  0.
        3    1    3    3  502    0 -0.52719986487E+03  0.10325384041E+03  0.39209374373E+03  0.66508538336E+03  0.10100000352E+00 0.  1.
       -3    1    3    3    0  502  0.52719986487E+03 -0.10325384041E+03  0.72991673095E+03  0.90629989374E+03  0.10100000352E+00 0. -1.
</event>
<event>
 5   0  0.9346836E-05  0.1101394E+04  0.7818609E-02  0.9203834E-01
        1   -1    0    0  501    0  0.00000000000E+00  0.00000000000E+00  0.88365530068E+03  0.88365530069E+03  0.50400001928E-02 0.  1.
       -1   -1    0    0    0  501  0.00000000000E+00  0.00000000000E+00 -0.34319651774E+03  0.34319651778E+03  0.50400001928E-02 0. -1.
    10030    2    1    2    0    0  0.00000000000E+00  0.00000000000E+00  0.54045878293E+03  0.12268518185E+04  0.11013944291E+04 0.  0.
        5    1    3    3  502    0 -0.23023837481E+03 -0.97622853313E+01  0.82733956157E+03  0.85884681497E+03  0.46999998093E+01 0.  1.
       -5    1    3    3    0  502  0.23023837481E+03  0.97622853313E+01 -0.28688077864E+03  0.36800500350E+03  0.46999998093E+01 0. -1.
</event>
<event>
 5   0  0.9346836E-05  0.1099792E+04  0.7818609E-02  0.9205395E-01
        1   -1    0    0  501    0  0.00000000000E+00  0.00000000000E+00  0.36858655778E+03  0.36858655781E+03  0.50400001928E-02 0.  1.
       -1   -1    0    0    0  501  0.00000000000E+00  0.00000000000E+00 -0.82039168915E+03  0.82039168916E+03  0.50400001928E-02 0. -1.
    10030    2    1    2    0    0  0.00000000000E+00  0.00000000000E+00 -0.45180513137E+03  0.11889782470E+04  0.10997915234E+04 0.  0.
        5    1    3    3  502    0 -0.37785087965E+03 -0.19519612531E+03 -0.60272313458E+03  0.73767884716E+03  0.46999998093E+01 0. -1.
       -5    1    3    3    0  502  0.37785087965E+03  0.19519612531E+03  0.15091800321E+03  0.45129939982E+03  0.46999998093E+01 0.  1.
</event>
<event>
 5   0  0.1540772E-04  0.1097829E+04  0.7818609E-02  0.9207311E-01
       -2   -1    0    0    0  501  0.00000000000E+00  0.00000000000E+00  0.33624981730E+03  0.33624981731E+03  0.25500000920E-02 0.  1.
        2   -1    0    0  501    0  0.00000000000E+00  0.00000000000E+00 -0.89608078348E+03  0.89608078348E+03  0.25500000920E-02 0. -1.
    10030    2    1    2    0    0  0.00000000000E+00  0.00000000000E+00 -0.55983096617E+03  0.12323306008E+04  0.10978287658E+04 0.  0.
        2    1    3    3  502    0 -0.14338073640E+03  0.51145499621E+03 -0.12452602395E+03  0.54557399074E+03  0.25500000920E-02 0.  1.
       -2    1    3    3    0  502  0.14338073640E+03 -0.51145499621E+03 -0.43530494222E+03  0.68675661005E+03  0.25500000920E-02 0. -1.
</event>
<event>
 5   0  0.9346836E-05  0.1100519E+04  0.7818609E-02  0.9204686E-01
       -1   -1    0    0    0  501  0.00000000000E+00  0.00000000000E+00  0.24377431912E+03  0.24377431917E+03  0.50400001928E-02 0.  1.
        1   -1    0    0  501    0  0.00000000000E+00  0.00000000000E+00 -0.12420729964E+04  0.12420729964E+04  0.50400001928E-02 0. -1.
    10030    2    1    2    0    0  0.00000000000E+00  0.00000000000E+00 -0.99829867729E+03  0.14858473156E+04  0.11005189667E+04 0.  0.
        5    1    3    3  502    0  0.41726669313E+02 -0.38583753402E+03 -0.10257907969E+04  0.10967591196E+04  0.46999998093E+01 0. -1.
       -5    1    3    3    0  502 -0.41726669313E+02  0.38583753402E+03  0.27492119564E+02  0.38908819595E+03  0.46999998093E+01 0.  1.
</event>
<event>
 5   0  0.8657442E-05  0.1099283E+04  0.7818609E-02  0.9205891E-01
        1   -1    0    0  501    0  0.00000000000E+00  0.00000000000E+00  0.20941242547E+03  0.20941242553E+03  0.50400001928E-02 0.  1.
       -1   -1    0    0    0  501  0.00000000000E+00  0.00000000000E+00 -0.14426343168E+04  0.14426343169E+04  0.50400001928E-02 0. -1.
    10030    2    1    2    0    0  0.00000000000E+00  0.00000000000E+00 -0.12332218914E+04  0.16520467424E+04  0.10992825868E+04 0.  0.
        1    1    3    3  502    0  0.61237349694E+01 -0.54441863649E+03 -0.50338408694E+03  0.74150164591E+03  0.50400001928E-02 0. -1.
       -1    1    3    3    0  502 -0.61237349694E+01  0.54441863649E+03 -0.72983780444E+03  0.91054509647E+03  0.50400001928E-02 0.  1.
</event>
<event>
 5   0  0.1540772E-04  0.1101745E+04  0.7818609E-02  0.9203493E-01
       -2   -1    0    0    0  501  0.00000000000E+00  0.00000000000E+00  0.12394351270E+03  0.12394351273E+03  0.25500000920E-02 0. -1.
        2   -1    0    0  501    0  0.00000000000E+00  0.00000000000E+00 -0.24483777617E+04  0.24483777617E+04  0.25500000920E-02 0.  1.
    10030    2    1    2    0    0  0.00000000000E+00  0.00000000000E+00 -0.23244342490E+04  0.25723212745E+04  0.11017450526E+04 0.  0.
        2    1    3    3  502    0 -0.46858538732E+02 -0.40609034225E+03 -0.30007204581E+03  0.50709794064E+03  0.25500000920E-02 0. -1.
       -2    1    3    3    0  502  0.46858538732E+02  0.40609034225E+03 -0.20243622032E+04  0.20652233338E+04  0.25500000920E-02 0.  1.
</event>
<event>
 5   0  0.6010125E-05  0.1100103E+04  0.7818609E-02  0.9205091E-01
       -4   -1    0    0    0  501  0.00000000000E+00  0.00000000000E+00  0.24907965134E+03  0.24908288904E+03  0.12699999809E+01 0.  1.
        4   -1    0    0  501    0  0.00000000000E+00  0.00000000000E+00 -0.12146877052E+04  0.12146883691E+04  0.12699999809E+01 0. -1.
    10030    2    1    2    0    0  0.00000000000E+00  0.00000000000E+00 -0.96560805388E+03  0.14637712582E+04  0.11001033509E+04 0.  0.
        1    1    3    3  502    0 -0.26974216697E+03  0.46192939327E+03 -0.65329047485E+03  0.84435066504E+03  0.50400001928E-02 0. -1.
       -1    1    3    3    0  502  0.26974216697E+03 -0.46192939327E+03 -0.31231757903E+03  0.61942059314E+03  0.50400001928E-02 0.  1.
</event>
<event>
 5   0  0.8621738E-05  0.1100178E+04  0.7818609E-02  0.9205018E-01
       -1   -1    0    0    0  501  0.00000000000E+00  0.00000000000E+00  0.74007728593E+03  0.74007728595E+03  0.50400001928E-02 0. -1.
        1   -1    0    0  501    0  0.00000000000E+00  0.00000000000E+00 -0.40887372868E+03  0.40887372872E+03  0.50400001928E-02 0.  1.
    10030    2    1    2    0    0  0.00000000000E+00  0.00000000000E+00  0.33120355725E+03  0.11489510147E+04  0.11001784572E+04 0.  0.
        2    1    3    3  502    0  0.39364525717E+03 -0.20484960973E+03  0.50509499213E+03  0.67233987103E+03  0.25500000920E-02 0. -1.
       -2    1    3    3    0  502 -0.39364525717E+03  0.20484960973E+03 -0.17389143489E+03  0.47661114363E+03  0.25500000920E-02 0.  1.
</event>
<event>
 5   0  0.8621738E-05  0.1100027E+04  0.7818609E-02  0.9205166E-01
        1   -1    0    0  501    0  0.00000000000E+00  0.00000000000E+00  0.19115172773E+03  0.19115172779E+03  0.50400001928E-02 0. -1.
       -1   -1    0    0    0  501  0.00000000000E+00  0.00000000000E+00 -0.15825887927E+04  0.15825887927E+04  0.50400001928E-02 0.  1.
    10030    2    1    2    0    0  0.00000000000E+00  0.00000000000E+00 -0.13914370649E+04  0.17737405205E+04  0.11000265125E+04 0.  0.
        2    1    3    3  502    0  0.10382685414E+03 -0.48219509783E+03 -0.30331750602E+03  0.57904545372E+03  0.25500000920E-02 0. -1.
       -2    1    3    3    0  502 -0.10382685414E+03  0.48219509783E+03 -0.10881195589E+04  0.11946950667E+04  0.25500000920E-02 0.  1.
</event>
<event>
 5   0  0.9016738E-05  0.1100286E+04  0.7818609E-02  0.9204913E-01
       -1   -1    0    0    0  501  0.00000000000E+00  0.00000000000E+00  0.38459052885E+03  0.38459052888E+03  0.50400001928E-02 0. -1.
        1   -1    0    0  501    0  0.00000000000E+00  0.00000000000E+00 -0.78696007462E+03  0.78696007464E+03  0.50400001928E-02 0.  1.
    10030    2    1    2    0    0  0.00000000000E+00  0.00000000000E+00 -0.40236954577E+03  0.11715506035E+04  0.11002861288E+04 0.  0.
        4    1    3    3  502    0  0.35163512377E+03 -0.16712549321E+02  0.24896100458E+03  0.43117254583E+03  0.12699999809E+01 0. -1.
       -4    1    3    3    0  502 -0.35163512377E+03  0.16712549321E+02 -0.65133055036E+03  0.74037805769E+03  0.12699999809E+01 0.  1.
</event>
<event>
 5   0  0.9346836E-05  0.1099812E+04  0.7818609E-02  0.9205375E-01
       -1   -1    0    0    0  501  0.00000000000E+00  0.00000000000E+00  0.17123900352E+03  0.17123900360E+03  0.50400001928E-02 0. -1.
        1   -1    0    0  501    0  0.00000000000E+00  0.00000000000E+00 -0.17659336142E+04  0.17659336142E+04  0.50400001928E-02 0.  1.
    10030    2    1    2    0    0  0.00000000000E+00  0.00000000000E+00 -0.15946946106E+04  0.19371726178E+04  0.10998121884E+04 0.  0.
        5    1    3    3  502    0  0.51759369729E+03  0.10529411514E+03 -0.10666955654E+04  0.11903157587E+04  0.46999998093E+01 0.  1.
       -5    1    3    3    0  502 -0.51759369729E+03 -0.10529411514E+03 -0.52799904522E+03  0.74685685905E+03  0.46999998093E+01 0. -1.
</event>
<event>
 5   0  0.8921459E-05  0.1100301E+04  0.7818609E-02  0.9204899E-01
       -1   -1    0    0    0  501  0.00000000000E+00  0.00000000000E+00  0.24808043095E+03  0.24808043100E+03  0.50400001928E-02 0.  1.
        1   -1    0    0  501    0  0.00000000000E+00  0.00000000000E+00 -0.12200295696E+04  0.12200295696E+04  0.50400001928E-02 0. -1.
    10030    2    1    2    0    0  0.00000000000E+00  0.00000000000E+00 -0.97194913867E+03  0.14681100006E+04  0.11003007979E+04 0.  0.
        3    1    3    3  502    0 -0.31312812852E+03 -0.36923744345E+03 -0.83462782440E+03  0.96487777982E+03  0.10100000352E+00 0. -1.
       -3    1    3    3    0  502  0.31312812852E+03  0.36923744345E+03 -0.13732131427E+03  0.50323222082E+03  0.10100000352E+00 0.  1.
</event>
<event>
 5   0  0.1503277E-04  0.1100219E+04  0.7818609E-02  0.9204979E-01
       -2   -1    0    0    0  501  0.00000000000E+00  0.00000000000E+00  0.32582634105E+03  0.32582634106E+03  0.25500000920E-02 0. -1.
        2   -1    0    0  501    0  0.00000000000E+00  0.00000000000E+00 -0.92877764702E+03  0.92877764703E+03  0.25500000920E-02 0.  1.
    10030    2    1    2    0    0  0.00000000000E+00  0.00000000000E+00 -0.60295130597E+03  0.12546039881E+04  0.11002185644E+04 0.  0.
        5    1    3    3  502    0  0.91242235153E+02  0.10073786564E+03  0.30635461049E+03  0.33518427829E+03  0.46999998093E+01 0. -1.
       -5    1    3    3    0  502 -0.91242235153E+02 -0.10073786564E+03 -0.90930591646E+03  0.91941970979E+03  0.46999998093E+01 0.  1.
</event>
<event>
 5   0  0.9346836E-05  0.1099786E+04  0.7818609E-02  0.9205400E-01
       -1   -1    0    0    0  501  0.00000000000E+00  0.00000000000E+00  0.25022002139E+03  0.25022002144E+03  0.50400001928E-02 0.  1.
        1   -1    0    0  501    0  0.00000000000E+00  0.00000000000E+00 -0.12084657240E+04  0.12084657240E+04  0.50400001928E-02 0. -1.
    10030    2    1    2    0    0  0.00000000000E+00  0.00000000000E+00 -0.95824570257E+03  0.14586857454E+04  0.10997860143E+04 0.  0.
        5    1    3    3  502    0  0.18845244274E+03  0.51004193150E+03 -0.58771351962E+03  0.80067869099E+03  0.46999998093E+01 0. -1.
       -5    1    3    3    0  502 -0.18845244274E+03 -0.51004193150E+03 -0.37053218295E+03  0.65800705441E+03  0.46999998093E+01 0.  1.
</event>
<event>
 5   0  0.1553937E-04  0.1100157E+04  0.7818609E-02  0.9205039E-01
        2   -1    0    0  501    0  0.00000000000E+00  0.00000000000E+00  0.14500142264E+04  0.14500142264E+04  0.25500000920E-02 0.  1.
       -2   -1    0    0    0  501  0.00000000000E+00  0.00000000000E+00 -0.20867810690E+03  0.20867810692E+03  0.25500000920E-02 0. -1.
    10030    2    1    2    0    0  0.00000000000E+00  0.00000000000E+00  0.12413361195E+04  0.16586923334E+04  0.11001567593E+04 0.  0.
        1    1    3    3  502    0 -0.44798145141E+03 -0.10929832500E+03  0.10728554150E+04  0.11677552167E+04  0.50400001928E-02 0.  1.
       -1    1    3    3    0  502  0.44798145141E+03  0.10929832500E+03  0.16848070451E+03  0.49093711662E+03  0.50400001928E-02 0. -1.
</event>
<event>
 5   0  0.8921459E-05  0.1099949E+04  0.7818609E-02  0.9205241E-01
        1   -1    0    0  501    0  0.00000000000E+00  0.00000000000E+00  0.46607241285E+03  0.46607241287E+03  0.50400001928E-02 0. -1.
       -1   -1    0    0    0  501  0.00000000000E+00  0.00000000000E+00 -0.64898080536E+03  0.64898080538E+03  0.50400001928E-02 0.  1.
    10030    2    1    2    0    0  0.00000000000E+00  0.00000000000E+00 -0.18290839252E+03  0.11150532183E+04  0.10999491804E+04 0.  0.
        3    1    3    3  502    0 -0.37998503421E+03 -0.37512788205E+03  0.42121954340E+02  0.53561536885E+03  0.10100000352E+00 0.  1.
       -3    1    3    3    0  502  0.37998503421E+03  0.37512788205E+03 -0.22503034686E+03  0.57943784940E+03  0.10100000352E+00 0. -1.
</event>
<event>
 5   0  0.8621738E-05  0.1100169E+04  0.7818609E-02  0.9205028E-01
       -1   -1    0    0    0  501  0.00000000000E+00  0.00000000000E+00  0.30085882136E+03  0.30085882140E+03  0.50400001928E-02 0. -1.
        1   -1    0    0  501    0  0.00000000000E+00  0.00000000000E+00 -0.10057632628E+04  0.10057632628E+04  0.50400001928E-02 0.  1.
    10030    2    1    2    0    0  0.00000000000E+00  0.00000000000E+00 -0.70490444147E+03  0.13066220842E+04  0.11001686232E+04 0.  0.
        2    1    3    3  502    0 -0.48740661308E+03 -0.12044625019E+03 -0.85506194656E+02  0.50929737384E+03  0.25500000920E-02 0. -1.
       -2    1    3    3    0  502  0.48740661308E+03  0.12044625019E+03 -0.61939824681E+03  0.79732471041E+03  0.25500000920E-02 0.  1.
</event>
<event>
 5   0  0.6010125E-05  0.1100513E+04  0.7818609E-02  0.9204692E-01
       -3   -1    0    0    0  501  0.00000000000E+00  0.00000000000E+00  0.96727803280E+03  0.96727803807E+03  0.10100000352E+00 0.  1.
        3   -1    0    0  501    0  0.00000000000E+00  0.00000000000E+00 -0.31302523905E+03  0.31302525534E+03  0.10100000352E+00 0. -1.
    10030    2    1    2    0    0  0.00000000000E+00  0.00000000000E+00  0.65425279375E+03  0.12803032934E+04  0.11005134279E+04 0.  0.
        4    1    3    3  502    0 -0.13547155940E+02 -0.35574785919E+03  0.81524364130E+03  0.88958634900E+03  0.12699999809E+01 0.  1.
       -4    1    3    3    0  502  0.13547155940E+02  0.35574785919E+03 -0.16099084756E+03  0.39071694441E+03  0.12699999809E+01 0. -1.
</event>
<event>
 5   0  0.1553937E-04  0.1101230E+04  0.7818609E-02  0.9203994E-01
        2   -1    0    0  501    0  0.00000000000E+00  0.00000000000E+00  0.81855598326E+03  0.81855598327E+03  0.25500000920E-02 0.  1.
       -2   -1    0    0    0  501  0.00000000000E+00  0.00000000000E+00 -0.37038037624E+03  0.37038037625E+03  0.25500000920E-02 0. -1.
    10030    2    1    2    0    0  0.00000000000E+00  0.00000000000E+00  0.44817560702E+03  0.11889363595E+04  0.11012303539E+04 0.  0.
        1    1    3    3  502    0  0.49510794224E+03  0.17778419056E+03  0.48540334940E+02  0.52829466874E+03  0.50400001928E-02 0.  1.
       -1    1    3    3    0  502 -0.49510794224E+03 -0.17778419056E+03  0.39963527208E+03  0.66064169078E+03  0.50400001928E-02 0. -1.
</event>
<event>
 5   0  0.1464205E-04  0.1099878E+04  0.7818609E-02  0.9205311E-01
        2   -1    0    0  501    0  0.00000000000E+00  0.00000000000E+00  0.56584996629E+03  0.56584996629E+03  0.25500000920E-02 0.  1.
       -2   -1    0    0    0  501  0.00000000000E+00  0.00000000000E+00 -0.53447556972E+03  0.53447556972E+03  0.25500000920E-02 0. -1.
    10030    2    1    2    0    0  0.00000000000E+00  0.00000000000E+00  0.31374396573E+02  0.11003255360E+04  0.10998781444E+04 0.  0.
        3    1    3    3  502    0  0.39033031853E+03 -0.34635876418E+03  0.18928248292E+03  0.55511261887E+03  0.10100000352E+00 0. -1.
       -3    1    3    3    0  502 -0.39033031853E+03  0.34635876418E+03 -0.15790808635E+03  0.54521291715E+03  0.10100000352E+00 0.  1.
</event>
<event>
 5   0  0.1553937E-04  0.1100348E+04  0.7818609E-02  0.9204853E-01
       -2   -1    0    0    0  501  0.00000000000E+00  0.00000000000E+00  0.15797567367E+03  0.15797567369E+03  0.25500000920E-02 0.  1.
        2   -1    0    0  501    0  0.00000000000E+00  0.00000000000E+00 -0.19160631168E+04  0.19160631168E+04  0.25500000920E-02 0. -1.
    10030    2    1    2    0    0  0.00000000000E+00  0.00000000000E+00 -0.17580874431E+04  0.20740387905E+04  0.11003478753E+04 0.  0.
        1    1    3    3  502    0  0.21538040829E+03  0.48698950171E+03 -0.61824725959E+03  0.81595169531E+03  0.50400001928E-02 0.  1.
       -1    1    3    3    0  502 -0.21538040829E+03 -0.48698950171E+03 -0.11398401835E+04  0.12580870952E+04  0.50400001928E-02 0. -1.
</event>
<event>
 5   0  0.1464205E-04  0.1099613E+04  0.7818609E-02  0.9205569E-01
        2   -1    0    0  501    0  0.00000000000E+00  0.00000000000E+00  0.30020048793E+04  0.30020048793E+04  0.25500000920E-02 0.  1.
       -2   -1    0    0    0  501  0.00000000000E+00  0.00000000000E+00 -0.10069512739E+03  0.10069512742E+03  0.25500000920E-02 0. -1.
    10030    2    1    2    0    0  0.00000000000E+00  0.00000000000E+00  0.29013097519E+04  0.31027000067E+04  0.10996131389E+04 0.  0.
        3    1    3    3  502    0  0.19458105016E+03  0.46978056097E+03  0.86059238035E+03  0.99958732279E+03  0.10100000352E+00 0. -1.
       -3    1    3    3    0  502 -0.19458105016E+03 -0.46978056097E+03  0.20407173715E+04  0.21031126839E+04  0.10100000352E+00 0.  1.
</event>
<event>
 5   0  0.1540772E-04  0.1101375E+04  0.7818609E-02  0.9203853E-01
        2   -1    0    0  501    0  0.00000000000E+00  0.00000000000E+00  0.66595960279E+03  0.66595960280E+03  0.25500000920E-02 0.  1.
       -2   -1    0    0    0  501  0.00000000000E+00  0.00000000000E+00 -0.45536767624E+03  0.45536767625E+03  0.25500000920E-02 0. -1.
    10030    2    1    2    0    0  0.00000000000E+00  0.00000000000E+00  0.21059192655E+03  0.11213272790E+04  0.11013745535E+04 0.  0.
        2    1    3    3  502    0  0.45533567927E+03 -0.25835842322E+03  0.27920267195E+03  0.59332435286E+03  0.25500000920E-02 0.  1.
       -2    1    3    3    0  502 -0.45533567927E+03  0.25835842322E+03 -0.68610745399E+02  0.52800292618E+03  0.25500000920E-02 0. -1.
</event>
<event>
 5   0  0.1553937E-04  0.1099574E+04  0.7818609E-02  0.9205607E-01
       -2   -1    0    0    0  501  0.00000000000E+00  0.00000000000E+00  0.22914744009E+03  0.22914744010E+03  0.25500000920E-02 0. -1.
        2   -1    0    0  501    0  0.00000000000E+00  0.00000000000E+00 -0.13190889156E+04  0.13190889156E+04  0.25500000920E-02 0.  1.
    10030    2    1    2    0    0  0.00000000000E+00  0.00000000000E+00 -0.10899414755E+04  0.15482363557E+04  0.10995741872E+04 0.  0.
        1    1    3    3  502    0  0.32993784177E+03  0.33685420962E+03 -0.14687802199E+03  0.49386525626E+03  0.50400001928E-02 0. -1.
       -1    1    3    3    0  502 -0.32993784177E+03 -0.33685420962E+03 -0.94306345355E+03  0.10543710995E+04  0.50400001928E-02 0.  1.
</event>
<event>
 5   0  0.9346836E-05  0.1100201E+04  0.7818609E-02  0.9204996E-01
        1   -1    0    0  501    0  0.00000000000E+00  0.00000000000E+00  0.27214353359E+03  0.27214353364E+03  0.50400001928E-02 0. -1.
       -1   -1    0    0    0  501  0.00000000000E+00  0.00000000000E+00 -0.11119513787E+04  0.11119513787E+04  0.50400001928E-02 0.  1.
    10030    2    1    2    0    0  0.00000000000E+00  0.00000000000E+00 -0.83980784512E+03  0.13840949124E+04  0.11002006679E+04 0.  0.
        5    1    3    3  502    0  0.84605554806E+02  0.71062070667E+02  0.25801474784E+03  0.28071625869E+03  0.46999998093E+01 0. -1.
       -5    1    3    3    0  502 -0.84605554806E+02 -0.71062070667E+02 -0.10978225930E+04  0.11033786537E+04  0.46999998093E+01 0.  1.
</event>
<event>
 5   0  0.8921459E-05  0.1101259E+04  0.7818609E-02  0.9203966E-01
        1   -1    0    0  501    0  0.00000000000E+00  0.00000000000E+00  0.72865895657E+03  0.72865895659E+03  0.50400001928E-02 0.  1.
       -1   -1    0    0    0  501  0.00000000000E+00  0.00000000000E+00 -0.41609676165E+03  0.41609676168E+03  0.50400001928E-02 0. -1.
    10030    2    1    2    0    0  0.00000000000E+00  0.00000000000E+00  0.31256219492E+03  0.11447557183E+04  0.11012586112E+04 0.  0.
        3    1    3    3  502    0  0.14998746352E+03  0.47579147865E+03 -0.85988431073E+02  0.50622899052E+03  0.10100000352E+00 0. -1.
       -3    1    3    3    0  502 -0.14998746352E+03 -0.47579147865E+03  0.39855062600E+03  0.63852672775E+03  0.10100000352E+00 0.  1.
</event>
<event>
 5   0  0.1540772E-04  0.1099781E+04  0.7818609E-02  0.9205405E-01
        2   -1    0    0  501    0  0.00000000000E+00  0.00000000000E+00  0.58989395984E+03  0.58989395984E+03  0.25500000920E-02 0. -1.
       -2   -1    0    0    0  501  0.00000000000E+00  0.00000000000E+00 -0.51260028835E+03  0.51260028836E+03  0.25500000920E-02 0.  1.
    10030    2    1    2    0    0  0.00000000000E+00  0.00000000000E+00  0.77293671486E+02  0.11024942482E+04  0.10997814581E+04 0.  0.
        2    1    3    3  502    0 -0.38173593834E+03  0.37753139251E+03 -0.80505657494E+02  0.54289358059E+03  0.25500000920E-02 0. -1.
       -2    1    3    3    0  502  0.38173593834E+03 -0.37753139251E+03  0.15779932898E+03  0.55960066761E+03  0.25500000920E-02 0.  1.
</event>
<event>
 5   0  0.8921459E-05  0.1098860E+04  0.7818609E-02  0.9206303E-01
        1   -1    0    0  501    0  0.00000000000E+00  0.00000000000E+00  0.10796270308E+04  0.10796270308E+04  0.50400001928E-02 0. -1.
       -1   -1    0    0    0  501  0.00000000000E+00  0.00000000000E+00 -0.27960915237E+03  0.27960915242E+03  0.50400001928E-02 0.  1.
    10030    2    1    2    0    0  0.00000000000E+00  0.00000000000E+00  0.80001787841E+03  0.13592361832E+04  0.10988604989E+04 0.  0.
        3    1    3    3  502    0  0.14871519996E+03 -0.52878740647E+03  0.38530759246E+03  0.67096518758E+03  0.10100000352E+00 0.  1.
       -3    1    3    3    0  502 -0.14871519996E+03  0.52878740647E+03  0.41471028596E+03  0.68827099563E+03  0.10100000352E+00 0. -1.
</event>
<event>
 5   0  0.8921459E-05  0.1099161E+04  0.7818609E-02  0.9206010E-01
        1   -1    0    0  501    0  0.00000000000E+00  0.00000000000E+00  0.35267534014E+03  0.35267534018E+03  0.50400001928E-02 0. -1.
       -1   -1    0    0    0  501  0.00000000000E+00  0.00000000000E+00 -0.85642103374E+03  0.85642103375E+03  0.50400001928E-02 0.  1.
    10030    2    1    2    0    0  0.00000000000E+00  0.00000000000E+00 -0.50374569359E+03  0.12090963739E+04  0.10991607333E+04 0.  0.
        3    1    3    3  502    0 -0.11672722046E+03  0.94331280603E+01 -0.84253666416E+03  0.85063639033E+03  0.10100000352E+00 0.  1.
       -3    1    3    3    0  502  0.11672722046E+03 -0.94331280603E+01  0.33879097057E+03  0.35845998360E+03  0.10100000352E+00 0. -1.
</event>
<event>
 5   0  0.1503277E-04  0.1100443E+04  0.7818609E-02  0.9204760E-01
        2   -1    0    0  501    0  0.00000000000E+00  0.00000000000E+00  0.73310016080E+03  0.73310016080E+03  0.25500000920E-02 0.  1.
       -2   -1    0    0    0  501  0.00000000000E+00  0.00000000000E+00 -0.41296349277E+03  0.41296349277E+03  0.25500000920E-02 0. -1.
    10030    2    1    2    0    0  0.00000000000E+00  0.00000000000E+00  0.32013666803E+03  0.11460636536E+04  0.11004428253E+04 0.  0.
        5    1    3    3  502    0 -0.42503512285E+03 -0.34358689031E+03  0.94079852366E+02  0.55459887799E+03  0.46999998093E+01 0. -1.
       -5    1    3    3    0  502  0.42503512285E+03  0.34358689031E+03  0.22605681566E+03  0.59146477558E+03  0.46999998093E+01 0.  1.
</event>
<event>
 5   0  0.1464205E-04  0.1100322E+04  0.7818609E-02  0.9204878E-01
       -2   -1    0    0    0  501  0.00000000000E+00  0.00000000000E+00  0.34227303514E+03  0.34227303515E+03  0.25500000920E-02 0. -1.
        2   -1    0    0  501    0  0.00000000000E+00  0.00000000000E+00 -0.88431416889E+03  0.88431416889E+03  0.25500000920E-02 0.  1.
    10030    2    1    2    0    0  0.00000000000E+00  0.00000000000E+00 -0.54204113375E+03  0.12265872040E+04  0.11003215796E+04 0.  0.
        3    1    3    3  502    0  0.16480072717E+03  0.19772170874E+02  0.31369565404E+03  0.35490166523E+03  0.10100000352E+00 0. -1.
       -3    1    3    3    0  502 -0.16480072717E+03 -0.19772170874E+02 -0.85573678778E+03  0.87168553882E+03  0.10100000352E+00 0.  1.
</event>
<event>
 5   0  0.9346836E-05  0.1099585E+04  0.7818609E-02  0.9205597E-01
       -1   -1    0    0    0  501  0.00000000000E+00  0.00000000000E+00  0.18060334280E+03  0.18060334287E+03  0.50400001928E-02 0.  1.
        1   -1    0    0  501    0  0.00000000000E+00  0.00000000000E+00 -0.16736768152E+04  0.16736768152E+04  0.50400001928E-02 0. -1.
    10030    2    1    2    0    0  0.00000000000E+00  0.00000000000E+00 -0.14930734724E+04  0.18542801581E+04  0.10995846992E+04 0.  0.
        5    1    3    3  502    0 -0.31687217781E+03  0.11068885433E+03 -0.12270011480E+02  0.33590570511E+03  0.46999998093E+01 0.  1.
       -5    1    3    3    0  502  0.31687217781E+03 -0.11068885433E+03 -0.14808034609E+04  0.15183744530E+04  0.46999998093E+01 0. -1.
</event>
<event>
 5   0  0.1540772E-04  0.1099952E+04  0.7818609E-02  0.9205238E-01
       -2   -1    0    0    0  501  0.00000000000E+00  0.00000000000E+00  0.30795794968E+03  0.30795794969E+03  0.25500000920E-02 0. -1.
        2   -1    0    0  501    0  0.00000000000E+00  0.00000000000E+00 -0.98219174387E+03  0.98219174387E+03  0.25500000920E-02 0.  1.
    10030    2    1    2    0    0  0.00000000000E+00  0.00000000000E+00 -0.67423379418E+03  0.12901496936E+04  0.10999522820E+04 0.  0.
        2    1    3    3  502    0  0.23840419246E+02  0.27125188028E+03 -0.89757823827E+03  0.93797262325E+03  0.25500000920E-02 0.  1.
       -2    1    3    3    0  502 -0.23840419246E+02 -0.27125188028E+03  0.22334444409E+03  0.35217707031E+03  0.25500000920E-02 0. -1.
</event>
<event>
 5   0  0.8657442E-05  0.1102804E+04  0.7818609E-02  0.9202464E-01
        1   -1    0    0  501    0  0.00000000000E+00  0.00000000000E+00  0.10106548279E+04  0.10106548279E+04  0.50400001928E-02 0.  1.
       -1   -1    0    0    0  501  0.00000000000E+00  0.00000000000E+00 -0.30083858576E+03  0.30083858580E+03  0.50400001928E-02 0. -1.
    10030    2    1    2    0    0  0.00000000000E+00  0.00000000000E+00  0.70981624216E+03  0.13114934137E+04  0.11028036437E+04 0.  0.
        1    1    3    3  502    0 -0.51501974657E+03  0.17788513832E+03  0.45550584099E+03  0.71019295476E+03  0.50400001928E-02 0. -1.
       -1    1    3    3    0  502  0.51501974657E+03 -0.17788513832E+03  0.25431040117E+03  0.60130045897E+03  0.50400001928E-02 0.  1.
</event>
<event>
 5   0  0.9346836E-05  0.1100014E+04  0.7818609E-02  0.9205179E-01
       -1   -1    0    0    0  501  0.00000000000E+00  0.00000000000E+00  0.10066960412E+04  0.10066960412E+04  0.50400001928E-02 0. -1.
        1   -1    0    0  501    0  0.00000000000E+00  0.00000000000E+00 -0.30049531861E+03  0.30049531865E+03  0.50400001928E-02 0.  1.
    10030    2    1    2    0    0  0.00000000000E+00  0.00000000000E+00  0.70620072257E+03  0.13071913598E+04  0.11000135411E+04 0.  0.
        5    1    3    3  502    0  0.14099777212E+03  0.49010539644E+02  0.98213924389E+03  0.99342940822E+03  0.46999998093E+01 0. -1.
       -5    1    3    3    0  502 -0.14099777212E+03 -0.49010539644E+02 -0.27593852132E+03  0.31376195162E+03  0.46999998093E+01 0.  1.
</event>
<event>
 5   0  0.1464205E-04  0.1098694E+04  0.7818609E-02  0.9206466E-01
       -2   -1    0    0    0  501  0.00000000000E+00  0.00000000000E+00  0.22985382008E+03  0.22985382009E+03  0.25500000920E-02 0. -1.
        2   -1    0    0  501    0  0.00000000000E+00  0.00000000000E+00 -0.13129310239E+04  0.13129310239E+04  0.25500000920E-02 0.  1.
    10030    2    1    2    0    0  0.00000000000E+00  0.00000000000E+00 -0.10830772038E+04  0.15427848440E+04  0.10986941546E+04 0.  0.
        3    1    3    3  502    0 -0.19139045929E+03  0.16309363906E+03  0.14429760190E+03  0.28991662789E+03  0.10100000352E+00 0. -1.
       -3    1    3    3    0  502  0.19139045929E+03 -0.16309363906E+03 -0.12273748057E+04  0.12528682161E+04  0.10100000352E+00 0.  1.
</event>
<event>
 5   0  0.8621738E-05  0.1099992E+04  0.7818609E-02  0.9205199E-01
        1   -1    0    0  501    0  0.00000000000E+00  0.00000000000E+00  0.56158641544E+03  0.56158641546E+03  0.50400001928E-02 0.  1.
       -1   -1    0    0    0  501  0.00000000000E+00  0.00000000000E+00 -0.53864525415E+03  0.53864525417E+03  0.50400001928E-02 0. -1.
    10030    2    1    2    0    0  0.00000000000E+00  0.00000000000E+00  0.22941161290E+02  0.11002316696E+04  0.10999924681E+04 0.  0.
        2    1    3    3  502    0 -0.97526698863E+01 -0.48849096493E+03  0.26406721722E+03  0.55538278026E+03  0.25500000920E-02 0.  1.
       -2    1    3    3    0  502  0.97526698863E+01  0.48849096493E+03 -0.24112605593E+03  0.54484888937E+03  0.25500000920E-02 0. -1.
</event>
<event>
 5   0  0.8921459E-05  0.1100336E+04  0.7818609E-02  0.9204865E-01
        1   -1    0    0  501    0  0.00000000000E+00  0.00000000000E+00  0.11610740283E+04  0.11610740283E+04  0.50400001928E-02 0. -1.
       -1   -1    0    0    0  501  0.00000000000E+00  0.00000000000E+00 -0.26069367285E+03  0.26069367290E+03  0.50400001928E-02 0.  1.
    10030    2    1    2    0    0  0.00000000000E+00  0.00000000000E+00  0.90038035548E+03  0.14217677012E+04  0.11003356814E+04 0.  0.
        3    1    3    3  502    0  0.18244404193E+03  0.21195523129E+03  0.10623802343E+04  0.10985729930E+04  0.10100000352E+00 0. -1.
       -3    1    3    3    0  502 -0.18244404193E+03 -0.21195523129E+03 -0.16199987881E+03  0.32319470825E+03  0.10100000352E+00 0.  1.
</event>
<event>
 5   0  0.9346836E-05  0.1099968E+04  0.7818609E-02  0.9205223E-01
        1   -1    0    0  501    0  0.00000000000E+00  0.00000000000E+00  0.71102682752E+03  0.71102682754E+03  0.50400001928E-02 0.  1.
       -1   -1    0    0    0  501  0.00000000000E+00  0.00000000000E+00 -0.42541619626E+03  0.42541619629E+03  0.50400001928E-02 0. -1.
    10030    2    1    2    0    0  0.00000000000E+00  0.00000000000E+00  0.28561063126E+03  0.11364430238E+04  0.10999678694E+04 0.  0.
        5    1    3    3  502    0 -0.22606332960E+03  0.48344695212E+03  0.56062548753E+01  0.53374067167E+03  0.46999998093E+01 0. -1.
       -5    1    3    3    0  502  0.22606332960E+03 -0.48344695212E+03  0.28000437639E+03  0.60270235216E+03  0.46999998093E+01 0.  1.
</event>
<event>
 5   0  0.8621738E-05  0.1102401E+04  0.7818609E-02  0.9202855E-01
       -1   -1    0    0    0  501  0.00000000000E+00  0.00000000000E+00  0.98158360228E+03  0.98158360229E+03  0.50400001928E-02 0.  1.
        1   -1    0    0  501    0  0.00000000000E+00  0.00000000000E+00 -0.30952202655E+03  0.30952202660E+03  0.50400001928E-02 0. -1.
    10030    2    1    2    0    0  0.00000000000E+00  0.00000000000E+00  0.67206157573E+03  0.12911056289E+04  0.11024005549E+04 0.  0.
        2    1    3    3  502    0 -0.35976093812E+03  0.90329552233E+02 -0.14147955431E+03  0.39699348219E+03  0.25500000920E-02 0. -1.
       -2    1    3    3    0  502  0.35976093812E+03 -0.90329552233E+02  0.81354113004E+03  0.89411214670E+03  0.25500000920E-02 0.  1.
</event>
<event>
 5   0  0.6010125E-05  0.1099766E+04  0.7818609E-02  0.9205420E-01
       -3   -1    0    0    0  501  0.00000000000E+00  0.00000000000E+00  0.59214312323E+03  0.59214313184E+03  0.10100000352E+00 0.  1.
        3   -1    0    0  501    0  0.00000000000E+00  0.00000000000E+00 -0.51063858350E+03  0.51063859348E+03  0.10100000352E+00 0. -1.
    10030    2    1    2    0    0  0.00000000000E+00  0.00000000000E+00  0.81504539731E+02  0.11027817253E+04  0.10997656767E+04 0.  0.
        5    1    3    3  502    0 -0.42382937929E+03  0.26213770749E+03  0.27377184895E+03  0.56861290498E+03  0.46999998093E+01 0.  1.
       -5    1    3    3    0  502  0.42382937929E+03 -0.26213770749E+03 -0.19226730922E+03  0.53416882034E+03  0.46999998093E+01 0. -1.
</event>
<event>
 5   0  0.1574101E-04  0.1100180E+04  0.7818609E-02  0.9205017E-01
        2   -1    0    0  501    0  0.00000000000E+00  0.00000000000E+00  0.11576727794E+04  0.11576727794E+04  0.25500000920E-02 0. -1.
       -2   -1    0    0    0  501  0.00000000000E+00  0.00000000000E+00 -0.26138545028E+03  0.26138545029E+03  0.25500000920E-02 0.  1.
    10030    2    1    2    0    0  0.00000000000E+00  0.00000000000E+00  0.89628732908E+03  0.14190582296E+04  0.11001796594E+04 0.  0.
        4    1    3    3  502    0  0.13105033282E+03 -0.52945643698E+03  0.54024688763E+03  0.76770216939E+03  0.12699999809E+01 0. -1.
       -4    1    3    3    0  502 -0.13105033282E+03  0.52945643698E+03  0.35604044145E+03  0.65135606026E+03  0.12699999809E+01 0.  1.
</event>
<event>
 5   0  0.9016738E-05  0.1099637E+04  0.7818609E-02  0.9205546E-01
       -1   -1    0    0    0  501  0.00000000000E+00  0.00000000000E+00  0.33242665885E+03  0.33242665888E+03  0.50400001928E-02 0. -1.
        1   -1    0    0  501    0  0.00000000000E+00  0.00000000000E+00 -0.90937465774E+03  0.90937465776E+03  0.50400001928E-02 0.  1.
    10030    2    1    2    0    0  0.00000000000E+00  0.00000000000E+00 -0.57694799890E+03  0.12418013166E+04  0.10996369931E+04 0.  0.
        4    1    3    3  502    0  0.19689009184E+03  0.12889596399E+03  0.27267724580E+03  0.36018657815E+03  0.12699999809E+01 0. -1.
       -4    1    3    3    0  502 -0.19689009184E+03 -0.12889596399E+03 -0.84962524470E+03  0.88161473850E+03  0.12699999809E+01 0.  1.
</event>
<event>
 5   0  0.8921459E-05  0.1103071E+04  0.7818609E-02  0.9202204E-01
        1   -1    0    0  501    0  0.00000000000E+00  0.00000000000E+00  0.96061487658E+03  0.96061487660E+03  0.50400001928E-02 0. -1.
       -1   -1    0    0    0  501  0.00000000000E+00  0.00000000000E+00 -0.31666312639E+03  0.31666312643E+03  0.50400001928E-02 0.  1.
    10030    2    1    2    0    0  0.00000000000E+00  0.00000000000E+00  0.64395175020E+03  0.12772780030E+04  0.11030708229E+04 0.  0.
        3    1    3    3  502    0  0.54069694360E+03 -0.10878896948E+03  0.32400645114E+03  0.63966273557E+03  0.10100000352E+00 0.  1.
       -3    1    3    3    0  502 -0.54069694360E+03  0.10878896948E+03  0.31994529906E+03  0.63761526745E+03  0.10100000352E+00 0. -1.
</event>
<event>
 5   0  0.6010125E-05  0.1096742E+04  0.7818609E-02  0.9208373E-01
       -4   -1    0    0    0  501  0.00000000000E+00  0.00000000000E+00  0.30440832688E+03  0.30441097610E+03  0.12699999809E+01 0.  1.
        4   -1    0    0  501    0  0.00000000000E+00  0.00000000000E+00 -0.98784630920E+03  0.98784712557E+03  0.12699999809E+01 0. -1.
    10030    2    1    2    0    0  0.00000000000E+00  0.00000000000E+00 -0.68343798232E+03  0.12922581017E+04  0.10967422330E+04 0.  0.
        2    1    3    3  502    0 -0.14326912008E+03  0.27299949792E+03 -0.87605631326E+03  0.92872462584E+03  0.25500000920E-02 0. -1.
       -2    1    3    3    0  502  0.14326912008E+03 -0.27299949792E+03  0.19261833094E+03  0.36353347584E+03  0.25500000920E-02 0.  1.
</event>
<event>
 5   0  0.1553937E-04  0.1099326E+04  0.7818609E-02  0.9205849E-01
        2   -1    0    0  501    0  0.00000000000E+00  0.00000000000E+00  0.91940396718E+03  0.91940396718E+03  0.25500000920E-02 0.  1.
       -2   -1    0    0    0  501  0.00000000000E+00  0.00000000000E+00 -0.32861416471E+03  0.32861416472E+03  0.25500000920E-02 0. -1.
    10030    2    1    2    0    0  0.00000000000E+00  0.00000000000E+00  0.59078980247E+03  0.12480181319E+04  0.10993255509E+04 0.  0.
        1    1    3    3  502    0 -0.89525904400E+02 -0.29539592650E+03 -0.22093602253E+03  0.37958710071E+03  0.50400001928E-02 0. -1.
       -1    1    3    3    0  502  0.89525904400E+02  0.29539592650E+03  0.81172582500E+03  0.86843103119E+03  0.50400001928E-02 0.  1.
</event>
<event>
 5   0  0.1464205E-04  0.1099999E+04  0.7818609E-02  0.9205193E-01
       -2   -1    0    0    0  501  0.00000000000E+00  0.00000000000E+00  0.46959720788E+03  0.46959720789E+03  0.25500000920E-02 0.  1.
        2   -1    0    0  501    0  0.00000000000E+00  0.00000000000E+00 -0.64416781146E+03  0.64416781146E+03  0.25500000920E-02 0. -1.
    10030    2    1    2    0    0  0.00000000000E+00  0.00000000000E+00 -0.17457060358E+03  0.11137650194E+04  0.10999989194E+04 0.  0.
        3    1    3    3  502    0  0.30705075285E+00  0.36662358604E+03  0.32782896935E+03  0.49181784378E+03  0.10100000352E+00 0.  1.
       -3    1    3    3    0  502 -0.30705075285E+00 -0.36662358604E+03 -0.50239957292E+03  0.62194717557E+03  0.10100000352E+00 0. -1.
</event>
<event>
 5   0  0.1464205E-04  0.1099963E+04  0.7818609E-02  0.9205228E-01
        2   -1    0    0  501    0  0.00000000000E+00  0.00000000000E+00  0.31047000283E+03  0.31047000284E+03  0.25500000920E-02 0. -1.
       -2   -1    0    0    0  501  0.00000000000E+00  0.00000000000E+00 -0.97426403842E+03  0.97426403842E+03  0.25500000920E-02 0.  1.
    10030    2    1    2    0    0  0.00000000000E+00  0.00000000000E+00 -0.66379403559E+03  0.12847340413E+04  0.10999631972E+04 0.  0.
        3    1    3    3  502    0 -0.17172018136E+03  0.29382278338E+03 -0.83651279378E+03  0.90309097719E+03  0.10100000352E+00 0.  1.
       -3    1    3    3    0  502  0.17172018136E+03 -0.29382278338E+03  0.17271875819E+03  0.38164306407E+03  0.10100000352E+00 0. -1.
</event>
<event>
 5   0  0.9016738E-05  0.1100149E+04  0.7818609E-02  0.9205047E-01
       -1   -1    0    0    0  501  0.00000000000E+00  0.00000000000E+00  0.27809795983E+03  0.27809795988E+03  0.50400001928E-02 0.  1.
        1   -1    0    0  501    0  0.00000000000E+00  0.00000000000E+00 -0.10880410318E+04  0.10880410318E+04  0.50400001928E-02 0. -1.
    10030    2    1    2    0    0  0.00000000000E+00  0.00000000000E+00 -0.80994307193E+03  0.13661389916E+04  0.11001490648E+04 0.  0.
        4    1    3    3  502    0  0.32395391883E+03  0.44455924433E+03 -0.40354752880E+03  0.68222524444E+03  0.12699999809E+01 0. -1.
       -4    1    3    3    0  502 -0.32395391883E+03 -0.44455924433E+03 -0.40639554312E+03  0.68391374721E+03  0.12699999809E+01 0.  1.
</event>
<event>
 5   0  0.1553937E-04  0.1100189E+04  0.7818609E-02  0.9205008E-01
       -2   -1    0    0    0  501  0.00000000000E+00  0.00000000000E+00  0.32427574931E+03  0.32427574932E+03  0.25500000920E-02 0.  1.
        2   -1    0    0  501    0  0.00000000000E+00  0.00000000000E+00 -0.93316793294E+03  0.93316793294E+03  0.25500000920E-02 0. -1.
    10030    2    1    2    0    0  0.00000000000E+00  0.00000000000E+00 -0.60889218363E+03  0.12574436823E+04  0.11001885851E+04 0.  0.
        1    1    3    3  502    0  0.85022452714E+01  0.34102117158E+03  0.18878816214E+03  0.38988292837E+03  0.50400001928E-02 0.  1.
       -1    1    3    3    0  502 -0.85022452714E+01 -0.34102117158E+03 -0.79768034577E+03  0.86756075389E+03  0.50400001928E-02 0. -1.
</event>
<event>
 5   0  0.8621738E-05  0.1099866E+04  0.7818609E-02  0.9205323E-01
       -1   -1    0    0    0  501  0.00000000000E+00  0.00000000000E+00  0.10680916624E+04  0.10680916624E+04  0.50400001928E-02 0.  1.
        1   -1    0    0  501    0  0.00000000000E+00  0.00000000000E+00 -0.28314620399E+03  0.28314620403E+03  0.50400001928E-02 0. -1.
    10030    2    1    2    0    0  0.00000000000E+00  0.00000000000E+00  0.78494545839E+03  0.13512378664E+04  0.10998656277E+04 0.  0.
        2    1    3    3  502    0 -0.23855320909E+03 -0.44933427844E+03  0.13589383378E+03  0.52657009164E+03  0.25500000920E-02 0. -1.
       -2    1    3    3    0  502  0.23855320909E+03  0.44933427844E+03  0.64905162461E+03  0.82466777478E+03  0.25500000920E-02 0.  1.
</event>
<event>
 5   0  0.8657442E-05  0.1100058E+04  0.7818609E-02  0.9205135E-01
       -1   -1    0    0    0  501  0.00000000000E+00  0.00000000000E+00  0.46798634519E+03  0.46798634522E+03  0.50400001928E-02 0. -1.
        1   -1    0    0  501    0  0.00000000000E+00  0.00000000000E+00 -0.64645472677E+03  0.64645472679E+03  0.50400001928E-02 0.  1.
    10030    2    1    2    0    0  0.00000000000E+00  0.00000000000E+00 -0.17846838158E+03  0.11144410720E+04  0.11000581529E+04 0.  0.
        1    1    3    3  502    0  0.11209281930E+03 -0.24508185174E+03  0.39651591824E+03  0.47943173407E+03  0.50400001928E-02 0. -1.
       -1    1    3    3    0  502 -0.11209281930E+03  0.24508185174E+03 -0.57498429982E+03  0.63500933793E+03  0.50400001928E-02 0.  1.
</event>
<event>
 5   0  0.9346836E-05  0.1099435E+04  0.7818609E-02  0.9205742E-01
        1   -1    0    0  501    0  0.00000000000E+00  0.00000000000E+00  0.12693666408E+04  0.12693666408E+04  0.50400001928E-02 0.  1.
       -1   -1    0    0    0  501  0.00000000000E+00  0.00000000000E+00 -0.23806324372E+03  0.23806324377E+03  0.50400001928E-02 0. -1.
    10030    2    1    2    0    0  0.00000000000E+00  0.00000000000E+00  0.10313033971E+04  0.15074298846E+04  0.10994353824E+04 0.  0.
        5    1    3    3  502    0 -0.13465350593E+03 -0.50284159646E+03  0.27352162915E+03  0.58806241965E+03  0.46999998093E+01 0. -1.
       -5    1    3    3    0  502  0.13465350593E+03  0.50284159646E+03  0.75778176797E+03  0.91936746497E+03  0.46999998093E+01 0.  1.
</event>
<event>
 5   0  0.1540772E-04  0.1099988E+04  0.7818609E-02  0.9205204E-01
       -2   -1    0    0    0  501  0.00000000000E+00  0.00000000000E+00  0.26014696265E+03  0.26014696266E+03  0.25500000920E-02 0. -1.
        2   -1    0    0  501    0  0.00000000000E+00  0.00000000000E+00 -0.11627789404E+04  0.11627789404E+04  0.25500000920E-02 0.  1.
    10030    2    1    2    0    0  0.00000000000E+00  0.00000000000E+00 -0.90263197777E+03  0.14229259031E+04  0.10999880174E+04 0.  0.
        2    1    3    3  502    0  0.31682401047E+03 -0.31463770128E+03 -0.35918534237E+02  0.44795588822E+03  0.25500000920E-02 0. -1.
       -2    1    3    3    0  502 -0.31682401047E+03  0.31463770128E+03 -0.86671344353E+03  0.97497001487E+03  0.25500000920E-02 0.  1.
</event>
<event>
 5   0  0.1553937E-04  0.1099945E+04  0.7818609E-02  0.9205246E-01
       -2   -1    0    0    0  501  0.00000000000E+00  0.00000000000E+00  0.26579696322E+03  0.26579696324E+03  0.25500000920E-02 0.  1.
        2   -1    0    0  501    0  0.00000000000E+00  0.00000000000E+00 -0.11379723236E+04  0.11379723236E+04  0.25500000920E-02 0. -1.
    10030    2    1    2    0    0  0.00000000000E+00  0.00000000000E+00 -0.87217536033E+03  0.14037692868E+04  0.10999447038E+04 0.  0.
        1    1    3    3  502    0  0.99891348472E+02  0.19307304105E+03 -0.10808167044E+04  0.11024609876E+04  0.50400001928E-02 0. -1.
       -1    1    3    3    0  502 -0.99891348472E+02 -0.19307304105E+03  0.20864134406E+03  0.30130829918E+03  0.50400001928E-02 0.  1.
</event>
<event>
 5   0  0.1464205E-04  0.1101483E+04  0.7818609E-02  0.9203747E-01
       -2   -1    0    0    0  501  0.00000000000E+00  0.00000000000E+00  0.66626475606E+03  0.66626475607E+03  0.25500000920E-02 0. -1.
        2   -1    0    0  501    0  0.00000000000E+00  0.00000000000E+00 -0.45524899802E+03  0.45524899803E+03  0.25500000920E-02 0.  1.
    10030    2    1    2    0    0  0.00000000000E+00  0.00000000000E+00  0.21101575804E+03  0.11215137541E+04  0.11014832956E+04 0.  0.
        3    1    3    3  502    0 -0.40909879058E+03  0.31456501487E+03 -0.90352867947E+02  0.52390516316E+03  0.10100000352E+00 0.  1.
       -3    1    3    3    0  502  0.40909879058E+03 -0.31456501487E+03  0.30136862599E+03  0.59760859094E+03  0.10100000352E+00 0. -1.
</event>
<event>
 5   0  0.9346836E-05  0.1100098E+04  0.7818609E-02  0.9205097E-01
       -1   -1    0    0    0  501  0.00000000000E+00  0.00000000000E+00  0.75209557122E+03  0.75209557124E+03  0.50400001928E-02 0.  1.
        1   -1    0    0  501    0  0.00000000000E+00  0.00000000000E+00 -0.40228098103E+03  0.40228098106E+03  0.50400001928E-02 0. -1.
    10030    2    1    2    0    0  0.00000000000E+00  0.00000000000E+00  0.34981459019E+03  0.11543765523E+04  0.11000977125E+04 0.  0.
        5    1    3    3  502    0 -0.28967629934E+03 -0.28789358840E+03 -0.21169522673E+03  0.46003482005E+03  0.46999998093E+01 0. -1.
       -5    1    3    3    0  502  0.28967629934E+03  0.28789358840E+03  0.56150981692E+03  0.69434173225E+03  0.46999998093E+01 0.  1.
</event>
<event>
 5   0  0.1503277E-04  0.1099801E+04  0.7818609E-02  0.9205386E-01
       -2   -1    0    0    0  501  0.00000000000E+00  0.00000000000E+00  0.48594741866E+03  0.48594741867E+03  0.25500000920E-02 0. -1.
        2   -1    0    0  501    0  0.00000000000E+00  0.00000000000E+00 -0.62226960977E+03  0.62226960978E+03  0.25500000920E-02 0.  1.
    10030    2    1    2    0    0  0.00000000000E+00  0.00000000000E+00 -0.13632219111E+03  0.11082170284E+04  0.10998005466E+04 0.  0.
        5    1    3    3  502    0  0.41445764934E+03  0.34927052715E+03  0.25302030082E+02  0.54261158019E+03  0.46999998093E+01 0. -1.
       -5    1    3    3    0  502 -0.41445764934E+03 -0.34927052715E+03 -0.16162422119E+03  0.56560544826E+03  0.46999998093E+01 0.  1.
</event>
<event>
 5   0  0.1574101E-04  0.1099787E+04  0.7818609E-02  0.9205400E-01
        2   -1    0    0  501    0  0.00000000000E+00  0.00000000000E+00  0.48443248212E+03  0.48443248213E+03  0.25500000920E-02 0.  1.
       -2   -1    0    0    0  501  0.00000000000E+00  0.00000000000E+00 -0.62420008019E+03  0.62420008019E+03  0.25500000920E-02 0. -1.
    10030    2    1    2    0    0  0.00000000000E+00  0.00000000000E+00 -0.13976759807E+03  0.11086325623E+04  0.10997868779E+04 0.  0.
        4    1    3    3  502    0 -0.43850949922E+03 -0.32051176209E+03  0.16613175194E+02  0.54341142888E+03  0.12699999809E+01 0. -1.
       -4    1    3    3    0  502  0.43850949922E+03  0.32051176209E+03 -0.15638077326E+03  0.56522113344E+03  0.12699999809E+01 0.  1.
</event>
<event>
 5   0  0.1553937E-04  0.1100571E+04  0.7818609E-02  0.9204635E-01
       -2   -1    0    0    0  501  0.00000000000E+00  0.00000000000E+00  0.14283400930E+03  0.14283400933E+03  0.25500000920E-02 0. -1.
        2   -1    0    0  501    0  0.00000000000E+00  0.00000000000E+00 -0.21200434103E+04  0.21200434103E+04  0.25500000920E-02 0.  1.
    10030    2    1    2    0    0  0.00000000000E+00  0.00000000000E+00 -0.19772094010E+04  0.22628774197E+04  0.11005713066E+04 0.  0.
        1    1    3    3  502    0 -0.44222603337E+03 -0.23928298825E+03 -0.52887542096E+03  0.72974613666E+03  0.50400001928E-02 0. -1.
       -1    1    3    3    0  502  0.44222603337E+03  0.23928298825E+03 -0.14483339801E+04  0.15331312830E+04  0.50400001928E-02 0.  1.
</event>
<event>
 5   0  0.9016738E-05  0.1100057E+04  0.7818609E-02  0.9205136E-01
        1   -1    0    0  501    0  0.00000000000E+00  0.00000000000E+00  0.48935273701E+03  0.48935273704E+03  0.50400001928E-02 0. -1.
       -1   -1    0    0    0  501  0.00000000000E+00  0.00000000000E+00 -0.61822789886E+03  0.61822789888E+03  0.50400001928E-02 0.  1.
    10030    2    1    2    0    0  0.00000000000E+00  0.00000000000E+00 -0.12887516185E+03  0.11075806359E+04  0.11000572975E+04 0.  0.
        4    1    3    3  502    0  0.26141557165E+03  0.20431100365E+03  0.37725252165E+03  0.50239642246E+03  0.12699999809E+01 0. -1.
       -4    1    3    3    0  502 -0.26141557165E+03 -0.20431100365E+03 -0.50612768350E+03  0.60518421346E+03  0.12699999809E+01 0.  1.
</event>
<event>
 5   0  0.9346836E-05  0.1099622E+04  0.7818609E-02  0.9205560E-01
        1   -1    0    0  501    0  0.00000000000E+00  0.00000000000E+00  0.77882490731E+03  0.77882490732E+03  0.50400001928E-02 0. -1.
       -1   -1    0    0    0  501  0.00000000000E+00  0.00000000000E+00 -0.38813911370E+03  0.38813911374E+03  0.50400001928E-02 0.  1.
    10030    2    1    2    0    0  0.00000000000E+00  0.00000000000E+00  0.39068579360E+03  0.11669640211E+04  0.10996224976E+04 0.  0.
        5    1    3    3  502    0 -0.88272119606E+02  0.13139864877E+03  0.75409664341E+03  0.77054617616E+03  0.46999998093E+01 0. -1.
       -5    1    3    3    0  502  0.88272119606E+02 -0.13139864877E+03 -0.36341084981E+03  0.39641784490E+03  0.46999998093E+01 0.  1.
</event>
<event>
 5   0  0.1503277E-04  0.1100234E+04  0.7818609E-02  0.9204964E-01
       -2   -1    0    0    0  501  0.00000000000E+00  0.00000000000E+00  0.63994758750E+03  0.63994758751E+03  0.25500000920E-02 0. -1.
        2   -1    0    0  501    0  0.00000000000E+00  0.00000000000E+00 -0.47289590798E+03  0.47289590799E+03  0.25500000920E-02 0.  1.
    10030    2    1    2    0    0  0.00000000000E+00  0.00000000000E+00  0.16705167952E+03  0.11128434955E+04  0.11002337851E+04 0.  0.
        5    1    3    3  502    0 -0.36723492337E+03 -0.12248005691E+03 -0.31177769724E+03  0.49708175965E+03  0.46999998093E+01 0.  1.
       -5    1    3    3    0  502  0.36723492337E+03  0.12248005691E+03  0.47882937676E+03  0.61576173584E+03  0.46999998093E+01 0. -1.
</event>
<event>
 5   0  0.1503277E-04  0.1100018E+04  0.7818609E-02  0.9205174E-01
       -2   -1    0    0    0  501  0.00000000000E+00  0.00000000000E+00  0.17340014923E+03  0.17340014925E+03  0.25500000920E-02 0.  1.
        2   -1    0    0  501    0  0.00000000000E+00  0.00000000000E+00 -0.17445783508E+04  0.17445783508E+04  0.25500000920E-02 0. -1.
    10030    2    1    2    0    0  0.00000000000E+00  0.00000000000E+00 -0.15711782016E+04  0.19179785001E+04  0.11000184479E+04 0.  0.
        5    1    3    3  502    0 -0.16971813775E+03  0.34376771877E+03 -0.98014971619E+02  0.39573920125E+03  0.46999998093E+01 0.  1.
       -5    1    3    3    0  502  0.16971813775E+03 -0.34376771877E+03 -0.14731632300E+04  0.15222392988E+04  0.46999998093E+01 0. -1.
</event>
<event>
 5   0  0.1503277E-04  0.1099688E+04  0.7818609E-02  0.9205496E-01
        2   -1    0    0  501    0  0.00000000000E+00  0.00000000000E+00  0.76927427442E+03  0.76927427443E+03  0.25500000920E-02 0.  1.
       -2   -1    0    0    0  501  0.00000000000E+00  0.00000000000E+00 -0.39300507477E+03  0.39300507478E+03  0.25500000920E-02 0. -1.
    10030    2    1    2    0    0  0.00000000000E+00  0.00000000000E+00  0.37626919965E+03  0.11622793492E+04  0.10996884900E+04 0.  0.
        5    1    3    3  502    0  0.26809008130E+03 -0.46205646097E+03  0.50580453051E+02  0.53660873739E+03  0.46999998093E+01 0. -1.
       -5    1    3    3    0  502 -0.26809008130E+03  0.46205646097E+03  0.32568874660E+03  0.62567061181E+03  0.46999998093E+01 0.  1.
</event>
<event>
 5   0  0.1574101E-04  0.1102112E+04  0.7818609E-02  0.9203136E-01
       -2   -1    0    0    0  501  0.00000000000E+00  0.00000000000E+00  0.18603343096E+03  0.18603343098E+03  0.25500000920E-02 0.  1.
        2   -1    0    0  501    0  0.00000000000E+00  0.00000000000E+00 -0.16323024602E+04  0.16323024602E+04  0.25500000920E-02 0. -1.
    10030    2    1    2    0    0  0.00000000000E+00  0.00000000000E+00 -0.14462690292E+04  0.18183358912E+04  0.11021122031E+04 0.  0.
        4    1    3    3  502    0 -0.10414014315E+03 -0.54112427479E+03 -0.72437352862E+03  0.91015343324E+03  0.12699999809E+01 0.  1.
       -4    1    3    3    0  502  0.10414014315E+03  0.54112427479E+03 -0.72189550059E+03  0.90818245791E+03  0.12699999809E+01 0. -1.
</event>
<event>
 5   0  0.1574101E-04  0.1099874E+04  0.7818609E-02  0.9205315E-01
        2   -1    0    0  501    0  0.00000000000E+00  0.00000000000E+00  0.43749197438E+03  0.43749197439E+03  0.25500000920E-02 0. -1.
       -2   -1    0    0    0  501  0.00000000000E+00  0.00000000000E+00 -0.69128270726E+03  0.69128270727E+03  0.25500000920E-02 0.  1.
    10030    2    1    2    0    0  0.00000000000E+00  0.00000000000E+00 -0.25379073288E+03  0.11287746817E+04  0.10998738772E+04 0.  0.
        4    1    3    3  502    0 -0.34066885241E+03  0.33273879536E+03 -0.40918417971E+03  0.62785641572E+03  0.12699999809E+01 0.  1.
       -4    1    3    3    0  502  0.34066885241E+03 -0.33273879536E+03  0.15539344682E+03  0.50091826594E+03  0.12699999809E+01 0. -1.
</event>
<event>
 5   0  0.9346836E-05  0.1100092E+04  0.7818609E-02  0.9205102E-01
       -1   -1    0    0    0  501  0.00000000000E+00  0.00000000000E+00  0.34040886421E+03  0.34040886425E+03  0.50400001928E-02 0. -1.
        1   -1    0    0  501    0  0.00000000000E+00  0.00000000000E+00 -0.88878635608E+03  0.88878635610E+03  0.50400001928E-02 0.  1.
    10030    2    1    2    0    0  0.00000000000E+00  0.00000000000E+00 -0.54837749187E+03  0.12291952203E+04  0.11000922762E+04 0.  0.
        5    1    3    3  502    0  0.63642820397E+02  0.14650262965E+03 -0.86227844803E+03  0.87696045579E+03  0.46999998093E+01 0.  1.
       -5    1    3    3    0  502 -0.63642820397E+02 -0.14650262965E+03  0.31390095616E+03  0.35223476455E+03  0.46999998093E+01 0. -1.
</event>
<event>
 5   0  0.1464205E-04  0.1100036E+04  0.7818609E-02  0.9205157E-01
       -2   -1    0    0    0  501  0.00000000000E+00  0.00000000000E+00  0.19247167268E+03  0.19247167270E+03  0.25500000920E-02 0.  1.
        2   -1    0    0  501    0  0.00000000000E+00  0.00000000000E+00 -0.15717630511E+04  0.15717630511E+04  0.25500000920E-02 0. -1.
    10030    2    1    2    0    0  0.00000000000E+00  0.00000000000E+00 -0.13792913784E+04  0.17642347238E+04  0.11000361149E+04 0.  0.
        3    1    3    3  502    0  0.41874106531E+03  0.10623075624E+03 -0.14366924918E+03  0.45526905968E+03  0.10100000352E+00 0.  1.
       -3    1    3    3    0  502 -0.41874106531E+03 -0.10623075624E+03 -0.12356221292E+04  0.13089656641E+04  0.10100000352E+00 0. -1.
</event>
<event>
 5   0  0.1540772E-04  0.1095590E+04  0.7818609E-02  0.9209501E-01
        2   -1    0    0  501    0  0.00000000000E+00  0.00000000000E+00  0.51192195503E+03  0.51192195504E+03  0.25500000920E-02 0. -1.
       -2   -1    0    0    0  501  0.00000000000E+00  0.00000000000E+00 -0.58618137438E+03  0.58618137439E+03  0.25500000920E-02 0.  1.
    10030    2    1    2    0    0  0.00000000000E+00  0.00000000000E+00 -0.74259419350E+02  0.10981033294E+04  0.10955895494E+04 0.  0.
        2    1    3    3  502    0  0.57857775093E+02  0.32387970774E+03 -0.47612269862E+03  0.57873863823E+03  0.25500000920E-02 0.  1.
       -2    1    3    3    0  502 -0.57857775093E+02 -0.32387970774E+03  0.40186327927E+03  0.51936469120E+03  0.25500000920E-02 0. -1.
</event>
<event>
 5   0  0.8657442E-05  0.1100599E+04  0.7818609E-02  0.9204608E-01
        1   -1    0    0  501    0  0.00000000000E+00  0.00000000000E+00  0.49537569777E+03  0.49537569780E+03  0.50400001928E-02 0.  1.
       -1   -1    0    0    0  501  0.00000000000E+00  0.00000000000E+00 -0.61131323557E+03  0.61131323559E+03  0.50400001928E-02 0. -1.
    10030    2    1    2    0    0  0.00000000000E+00  0.00000000000E+00 -0.11593753780E+03  0.11066889334E+04  0.11005993288E+04 0.  0.
        1    1    3    3  502    0  0.37029051547E+03  0.10999810413E+03 -0.45207494217E+03  0.59463131613E+03  0.50400001928E-02 0. -1.
       -1    1    3    3    0  502 -0.37029051547E+03 -0.10999810413E+03  0.33613740436E+03  0.51205761726E+03  0.50400001928E-02 0.  1.
</event>
<event>
 5   0  0.1503277E-04  0.1099073E+04  0.7818609E-02  0.9206096E-01
       -2   -1    0    0    0  501  0.00000000000E+00  0.00000000000E+00  0.33923669395E+03  0.33923669396E+03  0.25500000920E-02 0.  1.
        2   -1    0    0  501    0  0.00000000000E+00  0.00000000000E+00 -0.89020513671E+03  0.89020513672E+03  0.25500000920E-02 0. -1.
    10030    2    1    2    0    0  0.00000000000E+00  0.00000000000E+00 -0.55096844276E+03  0.12294418307E+04  0.10990727865E+04 0.  0.
        5    1    3    3  502    0  0.35825840524E+02  0.41456644334E+03 -0.67697174141E+03  0.79464561627E+03  0.46999998093E+01 0. -1.
       -5    1    3    3    0  502 -0.35825840524E+02 -0.41456644334E+03  0.12600329865E+03  0.43479621441E+03  0.46999998093E+01 0.  1.
</event>
<event>
 5   0  0.1540772E-04  0.1099748E+04  0.7818609E-02  0.9205438E-01
       -2   -1    0    0    0  501  0.00000000000E+00  0.00000000000E+00  0.46142890528E+03  0.46142890529E+03  0.25500000920E-02 0.  1.
        2   -1    0    0  501    0  0.00000000000E+00  0.00000000000E+00 -0.65527154311E+03  0.65527154312E+03  0.25500000920E-02 0. -1.
    10030    2    1    2    0    0  0.00000000000E+00  0.00000000000E+00 -0.19384263784E+03  0.11167004484E+04  0.10997476634E+04 0.  0.
        2    1    3    3  502    0  0.28948806028E+03 -0.45877307961E+03 -0.56177355416E+01  0.54250127611E+03  0.25500000920E-02 0.  1.
       -2    1    3    3    0  502 -0.28948806028E+03  0.45877307961E+03 -0.18822490229E+03  0.57419917230E+03  0.25500000920E-02 0. -1.
</event>
<event>
 5   0  0.8657442E-05  0.1100236E+04  0.7818609E-02  0.9204962E-01
        1   -1    0    0  501    0  0.00000000000E+00  0.00000000000E+00  0.12356627405E+04  0.12356627405E+04  0.50400001928E-02 0.  1.
       -1   -1    0    0    0  501  0.00000000000E+00  0.00000000000E+00 -0.24491277406E+03  0.24491277411E+03  0.50400001928E-02 0. -1.
    10030    2    1    2    0    0  0.00000000000E+00  0.00000000000E+00  0.99074996640E+03  0.14805755146E+04  0.11002355922E+04 0.  0.
        1    1    3    3  502    0  0.47968332629E+03  0.21356318196E+03  0.27456597462E+03  0.59252999979E+03  0.50400001928E-02 0. -1.
       -1    1    3    3    0  502 -0.47968332629E+03 -0.21356318196E+03  0.71618399177E+03  0.88804551478E+03  0.50400001928E-02 0.  1.
</event>
<event>
 5   0  0.1503277E-04  0.1100017E+04  0.7818609E-02  0.9205176E-01
       -2   -1    0    0    0  501  0.00000000000E+00  0.00000000000E+00  0.43385172929E+03  0.43385172930E+03  0.25500000920E-02 0. -1.
        2   -1    0    0  501    0  0.00000000000E+00  0.00000000000E+00 -0.69726407607E+03  0.69726407607E+03  0.25500000920E-02 0.  1.
    10030    2    1    2    0    0  0.00000000000E+00  0.00000000000E+00 -0.26341234678E+03  0.11311158054E+04  0.11000167729E+04 0.  0.
        5    1    3    3  502    0 -0.18207241830E+03  0.25825326243E+03  0.33117819929E+03  0.45776216832E+03  0.46999998093E+01 0.  1.
       -5    1    3    3    0  502  0.18207241830E+03 -0.25825326243E+03 -0.59459054607E+03  0.67335363705E+03  0.46999998093E+01 0. -1.
</event>
<event>
 5   0  0.1503277E-04  0.1099914E+04  0.7818609E-02  0.9205276E-01
       -2   -1    0    0    0  501  0.00000000000E+00  0.00000000000E+00  0.25295074910E+03  0.25295074911E+03  0.25500000920E-02 0. -1.
        2   -1    0    0  501    0  0.00000000000E+00  0.00000000000E+00 -0.11956969607E+04  0.11956969607E+04  0.25500000920E-02 0.  1.
    10030    2    1    2    0    0  0.00000000000E+00  0.00000000000E+00 -0.94274621162E+03  0.14486477098E+04  0.10999135274E+04 0.  0.
        5    1    3    3  502    0 -0.36773626332E+02  0.30005230308E+03 -0.10764262061E+04  0.11180783297E+04  0.46999998093E+01 0.  1.
       -5    1    3    3    0  502  0.36773626332E+02 -0.30005230308E+03  0.13367999446E+03  0.33056938015E+03  0.46999998093E+01 0. -1.
</event>
<event>
 5   0  0.1464205E-04  0.1100151E+04  0.7818609E-02  0.9205045E-01
        2   -1    0    0  501    0  0.00000000000E+00  0.00000000000E+00  0.30728299952E+03  0.30728299953E+03  0.25500000920E-02 0.  1.
       -2   -1    0    0    0  501  0.00000000000E+00  0.00000000000E+00 -0.98470517994E+03  0.98470517994E+03  0.25500000920E-02 0. -1.
    10030    2    1    2    0    0  0.00000000000E+00  0.00000000000E+00 -0.67742218042E+03  0.12919881795E+04  0.11001511921E+04 0.  0.
        3    1    3    3  502    0  0.36381525856E+03  0.20359868134E+03  0.82705997359E+02  0.42503441932E+03  0.10100000352E+00 0.  1.
       -3    1    3    3    0  502 -0.36381525856E+03 -0.20359868134E+03 -0.76012817778E+03  0.86695376016E+03  0.10100000352E+00 0. -1.
</event>
<event>
 5   0  0.6010125E-05  0.1099794E+04  0.7818609E-02  0.9205392E-01
       -4   -1    0    0    0  501  0.00000000000E+00  0.00000000000E+00  0.45672794737E+03  0.45672971307E+03  0.12699999809E+01 0.  1.
        4   -1    0    0  501    0  0.00000000000E+00  0.00000000000E+00 -0.66206876821E+03  0.66206998629E+03  0.12699999809E+01 0. -1.
    10030    2    1    2    0    0  0.00000000000E+00  0.00000000000E+00 -0.20534082085E+03  0.11187996994E+04  0.10997944874E+04 0.  0.
        1    1    3    3  502    0 -0.33398118720E+03  0.38551731420E+03 -0.31169608685E+03  0.59776373555E+03  0.50400001928E-02 0. -1.
       -1    1    3    3    0  502  0.33398118720E+03 -0.38551731420E+03  0.10635526600E+03  0.52103596381E+03  0.50400001928E-02 0.  1.
</event>
<event>
 5   0  0.9346836E-05  0.1099793E+04  0.7818609E-02  0.9205394E-01
       -1   -1    0    0    0  501  0.00000000000E+00  0.00000000000E+00  0.39678599933E+03  0.39678599936E+03  0.50400001928E-02 0. -1.
        1   -1    0    0  501    0  0.00000000000E+00  0.00000000000E+00 -0.76208833849E+03  0.76208833851E+03  0.50400001928E-02 0.  1.
    10030    2    1    2    0    0  0.00000000000E+00  0.00000000000E+00 -0.36530233916E+03  0.11588743379E+04  0.10997926768E+04 0.  0.
        5    1    3    3  502    0 -0.10253292222E+03 -0.21297038543E+03  0.34050234341E+03  0.41452782908E+03  0.46999998093E+01 0. -1.
       -5    1    3    3    0  502  0.10253292222E+03  0.21297038543E+03 -0.70580468258E+03  0.74434650880E+03  0.46999998093E+01 0.  1.
</event>
<event>
 5   0  0.1540772E-04  0.1100094E+04  0.7818609E-02  0.9205100E-01
       -2   -1    0    0    0  501  0.00000000000E+00  0.00000000000E+00  0.45073558815E+03  0.45073558816E+03  0.25500000920E-02 0.  1.
        2   -1    0    0  501    0  0.00000000000E+00  0.00000000000E+00 -0.67124002304E+03  0.67124002304E+03  0.25500000920E-02 0. -1.
    10030    2    1    2    0    0  0.00000000000E+00  0.00000000000E+00 -0.22050443488E+03  0.11219756112E+04  0.11000941170E+04 0.  0.
        2    1    3    3  502    0 -0.54837516401E+03 -0.41884957726E+02 -0.11949314562E+03  0.56280394637E+03  0.25500000920E-02 0.  1.
       -2    1    3    3    0  502  0.54837516401E+03  0.41884957726E+02 -0.10101128926E+03  0.55917166483E+03  0.25500000920E-02 0. -1.
</event>
<event>
 5   0  0.1553937E-04  0.1100231E+04  0.7818609E-02  0.9204967E-01
        2   -1    0    0  501    0  0.00000000000E+00  0.00000000000E+00  0.83626379910E+03  0.83626379911E+03  0.25500000920E-02 0. -1.
       -2   -1    0    0    0  501  0.00000000000E+00  0.00000000000E+00 -0.36187964607E+03  0.36187964608E+03  0.25500000920E-02 0.  1.
    10030    2    1    2    0    0  0.00000000000E+00  0.00000000000E+00  0.47438415303E+03  0.11981434452E+04  0.11002306079E+04 0.  0.
        1    1    3    3  502    0  0.38231770318E+03 -0.75988134762E+02  0.65992034755E+03  0.76644366259E+03  0.50400001928E-02 0. -1.
       -1    1    3    3    0  502 -0.38231770318E+03  0.75988134762E+02 -0.18553619452E+03  0.43169978260E+03  0.50400001928E-02 0.  1.
</event>
<event>
 5   0  0.8621738E-05  0.1100084E+04  0.7818609E-02  0.9205110E-01
        1   -1    0    0  501    0  0.00000000000E+00  0.00000000000E+00  0.65639343889E+03  0.65639343891E+03  0.50400001928E-02 0. -1.
       -1   -1    0    0    0  501  0.00000000000E+00  0.00000000000E+00 -0.46092195313E+03  0.46092195316E+03  0.50400001928E-02 0.  1.
    10030    2    1    2    0    0  0.00000000000E+00  0.00000000000E+00  0.19547148576E+03  0.11173153921E+04  0.11000838984E+04 0.  0.
        2    1    3    3  502    0 -0.60178381559E+02 -0.54609594323E+03  0.70788494505E+02  0.55394334348E+03  0.25500000920E-02 0.  1.
       -2    1    3    3    0  502  0.60178381559E+02  0.54609594323E+03  0.12468299125E+03  0.56337204859E+03  0.25500000920E-02 0. -1.
</event>
<event>
 5   0  0.8657442E-05  0.1100385E+04  0.7818609E-02  0.9204817E-01
        1   -1    0    0  501    0  0.00000000000E+00  0.00000000000E+00  0.12626919889E+04  0.12626919889E+04  0.50400001928E-02 0.  1.
       -1   -1    0    0    0  501  0.00000000000E+00  0.00000000000E+00 -0.23973528377E+03  0.23973528382E+03  0.50400001928E-02 0. -1.
    10030    2    1    2    0    0  0.00000000000E+00  0.00000000000E+00  0.10229567051E+04  0.15024272727E+04  0.11003850641E+04 0.  0.
        1    1    3    3  502    0  0.42937485263E+03 -0.50270042659E+02  0.97614795832E+03  0.10675929364E+04  0.50400001928E-02 0.  1.
       -1    1    3    3    0  502 -0.42937485263E+03  0.50270042659E+02  0.46808746804E+02  0.43483433634E+03  0.50400001928E-02 0. -1.
</event>
<event>
 5   0  0.1540772E-04  0.1099352E+04  0.7818609E-02  0.9205824E-01
        2   -1    0    0  501    0  0.00000000000E+00  0.00000000000E+00  0.80033256418E+03  0.80033256418E+03  0.25500000920E-02 0.  1.
       -2   -1    0    0    0  501  0.00000000000E+00  0.00000000000E+00 -0.37752236982E+03  0.37752236983E+03  0.25500000920E-02 0. -1.
    10030    2    1    2    0    0  0.00000000000E+00  0.00000000000E+00  0.42281019436E+03  0.11778549340E+04  0.10993515294E+04 0.  0.
        2    1    3    3  502    0 -0.36415735254E+03 -0.18095207004E+03 -0.18485574001E+03  0.44668319163E+03  0.25500000920E-02 0. -1.
       -2    1    3    3    0  502  0.36415735254E+03  0.18095207004E+03  0.60766593438E+03  0.73117174239E+03  0.25500000920E-02 0.  1.
</event>
<event>
 5   0  0.8657442E-05  0.1100042E+04  0.7818609E-02  0.9205151E-01
        1   -1    0    0  501    0  0.00000000000E+00  0.00000000000E+00  0.68994290734E+03  0.68994290736E+03  0.50400001928E-02 0.  1.
       -1   -1    0    0    0  501  0.00000000000E+00  0.00000000000E+00 -0.43847584227E+03  0.43847584230E+03  0.50400001928E-02 0. -1.
    10030    2    1    2    0    0  0.00000000000E+00  0.00000000000E+00  0.25146706507E+03  0.11284187497E+04  0.11000423582E+04 0.  0.
        1    1    3    3  502    0  0.19169453350E+03  0.14050381355E+03  0.63454804746E+03  0.67759821454E+03  0.50400001928E-02 0.  1.
       -1    1    3    3    0  502 -0.19169453350E+03 -0.14050381355E+03 -0.38308098239E+03  0.45082053512E+03  0.50400001928E-02 0. -1.
</event>
<event>
 5   0  0.8657442E-05  0.1101640E+04  0.7818609E-02  0.9203595E-01
       -1   -1    0    0    0  501  0.00000000000E+00  0.00000000000E+00  0.50104419257E+03  0.50104419259E+03  0.50400001928E-02 0.  1.
        1   -1    0    0  501    0  0.00000000000E+00  0.00000000000E+00 -0.60554026405E+03  0.60554026407E+03  0.50400001928E-02 0. -1.
    10030    2    1    2    0    0  0.00000000000E+00  0.00000000000E+00 -0.10449607148E+03  0.11065844567E+04  0.11016395648E+04 0.  0.
        1    1    3    3  502    0 -0.85232924320E+02 -0.15409603326E+03 -0.57650278017E+03  0.60279822032E+03  0.50400001928E-02 0. -1.
       -1    1    3    3    0  502  0.85232924320E+02  0.15409603326E+03  0.47200670869E+03  0.50378623634E+03  0.50400001928E-02 0.  1.
</event>
<event>
 5   0  0.8621738E-05  0.1100008E+04  0.7818609E-02  0.9205184E-01
        1   -1    0    0  501    0  0.00000000000E+00  0.00000000000E+00  0.99584565386E+03  0.99584565388E+03  0.50400001928E-02 0. -1.
       -1   -1    0    0    0  501  0.00000000000E+00  0.00000000000E+00 -0.30376659565E+03  0.30376659569E+03  0.50400001928E-02 0.  1.
    10030    2    1    2    0    0  0.00000000000E+00  0.00000000000E+00  0.69207905822E+03  0.12996122496E+04  0.11000084438E+04 0.  0.
        2    1    3    3  502    0 -0.97604747619E+02 -0.53407736340E+02 -0.29033205875E+03  0.31092085392E+03  0.25500000920E-02 0.  1.
       -2    1    3    3    0  502  0.97604747619E+02  0.53407736340E+02  0.98241111697E+03  0.98869139564E+03  0.25500000920E-02 0. -1.
</event>
<event>
 5   0  0.1574101E-04  0.1100015E+04  0.7818609E-02  0.9205177E-01
       -2   -1    0    0    0  501  0.00000000000E+00  0.00000000000E+00  0.17662821196E+03  0.17662821198E+03  0.25500000920E-02 0.  1.
        2   -1    0    0  501    0  0.00000000000E+00  0.00000000000E+00 -0.17126828635E+04  0.17126828635E+04  0.25500000920E-02 0. -1.
    10030    2    1    2    0    0  0.00000000000E+00  0.00000000000E+00 -0.15360546515E+04  0.18893110755E+04  0.11000147487E+04 0.  0.
        4    1    3    3  502    0  0.45986092082E+02 -0.36601038434E+03 -0.14687051782E+04  0.15143232269E+04  0.12699999809E+01 0. -1.
       -4    1    3    3    0  502 -0.45986092082E+02  0.36601038434E+03 -0.67349473305E+02  0.37498784856E+03  0.12699999809E+01 0.  1.
</event>
<event>
 5   0  0.1503277E-04  0.1099938E+04  0.7818609E-02  0.9205252E-01
        2   -1    0    0  501    0  0.00000000000E+00  0.00000000000E+00  0.47223115050E+03  0.47223115050E+03  0.25500000920E-02 0. -1.
       -2   -1    0    0    0  501  0.00000000000E+00  0.00000000000E+00 -0.64050436414E+03  0.64050436414E+03  0.25500000920E-02 0.  1.
    10030    2    1    2    0    0  0.00000000000E+00  0.00000000000E+00 -0.16827321364E+03  0.11127355146E+04  0.10999383851E+04 0.  0.
        5    1    3    3  502    0 -0.28001773503E+02  0.49913821488E+03  0.14770423422E+03  0.52130767084E+03  0.46999998093E+01 0. -1.
       -5    1    3    3    0  502  0.28001773503E+02 -0.49913821488E+03 -0.31597744786E+03  0.59142784380E+03  0.46999998093E+01 0.  1.
</event>
<event>
 5   0  0.1574101E-04  0.1099811E+04  0.7818609E-02  0.9205376E-01
       -2   -1    0    0    0  501  0.00000000000E+00  0.00000000000E+00  0.58123814787E+03  0.58123814787E+03  0.25500000920E-02 0. -1.
        2   -1    0    0  501    0  0.00000000000E+00  0.00000000000E+00 -0.52026183835E+03  0.52026183836E+03  0.25500000920E-02 0.  1.
    10030    2    1    2    0    0  0.00000000000E+00  0.00000000000E+00  0.60976309514E+02  0.11014999862E+04  0.10998109425E+04 0.  0.
        4    1    3    3  502    0 -0.24518901740E+03 -0.45413737432E+03  0.22061120861E+03  0.56127473422E+03  0.12699999809E+01 0. -1.
       -4    1    3    3    0  502  0.24518901740E+03  0.45413737432E+03 -0.15963489910E+03  0.54022525201E+03  0.12699999809E+01 0.  1.
</event>
<event>
 5   0  0.1553937E-04  0.1100073E+04  0.7818609E-02  0.9205121E-01
       -2   -1    0    0    0  501  0.00000000000E+00  0.00000000000E+00  0.14173203598E+03  0.14173203600E+03  0.25500000920E-02 0. -1.
        2   -1    0    0  501    0  0.00000000000E+00  0.00000000000E+00 -0.21345924285E+04  0.21345924285E+04  0.25500000920E-02 0.  1.
    10030    2    1    2    0    0  0.00000000000E+00  0.00000000000E+00 -0.19928603925E+04  0.22763244645E+04  0.11000729629E+04 0.  0.
        1    1    3    3  502    0  0.36209157824E+03  0.20202123087E+03 -0.17442774961E+04  0.17928822806E+04  0.50400001928E-02 0.  1.
       -1    1    3    3    0  502 -0.36209157824E+03 -0.20202123087E+03 -0.24858289646E+03  0.48344218392E+03  0.50400001928E-02 0. -1.
</event>
<event>
 5   0  0.1503277E-04  0.1098979E+04  0.7818609E-02  0.9206188E-01
        2   -1    0    0  501    0  0.00000000000E+00  0.00000000000E+00  0.92487566158E+03  0.92487566159E+03  0.25500000920E-02 0.  1.
       -2   -1    0    0    0  501  0.00000000000E+00  0.00000000000E+00 -0.32646390075E+03  0.32646390076E+03  0.25500000920E-02 0. -1.
    10030    2    1    2    0    0  0.00000000000E+00  0.00000000000E+00  0.59841176083E+03  0.12513395623E+04  0.10989786462E+04 0.  0.
        5    1    3    3  502    0  0.30337425648E+03 -0.18257202424E+02 -0.22202100916E+03  0.37641025948E+03  0.46999998093E+01 0. -1.
       -5    1    3    3    0  502 -0.30337425648E+03  0.18257202424E+02  0.82043276999E+03  0.87492930287E+03  0.46999998093E+01 0.  1.
</event>
<event>
 5   0  0.1464205E-04  0.1099979E+04  0.7818609E-02  0.9205212E-01
        2   -1    0    0  501    0  0.00000000000E+00  0.00000000000E+00  0.20441686934E+04  0.20441686934E+04  0.25500000920E-02 0.  1.
       -2   -1    0    0    0  501  0.00000000000E+00  0.00000000000E+00 -0.14797624013E+03  0.14797624015E+03  0.25500000920E-02 0. -1.
    10030    2    1    2    0    0  0.00000000000E+00  0.00000000000E+00  0.18961924532E+04  0.21921449335E+04  0.10999789043E+04 0.  0.
        3    1    3    3  502    0 -0.43000592573E+03 -0.24171914215E+03  0.14328053323E+04  0.15153429877E+04  0.10100000352E+00 0.  1.
       -3    1    3    3    0  502  0.43000592573E+03  0.24171914215E+03  0.46338712091E+03  0.67680194582E+03  0.10100000352E+00 0. -1.
</event>
<event>
 5   0  0.1574101E-04  0.1099908E+04  0.7818609E-02  0.9205282E-01
       -2   -1    0    0    0  501  0.00000000000E+00  0.00000000000E+00  0.29165148968E+03  0.29165148969E+03  0.25500000920E-02 0.  1.
        2   -1    0    0  501    0  0.00000000000E+00  0.00000000000E+00 -0.10370224803E+04  0.10370224803E+04  0.25500000920E-02 0. -1.
    10030    2    1    2    0    0  0.00000000000E+00  0.00000000000E+00 -0.74537099059E+03  0.13286739700E+04  0.10999075438E+04 0.  0.
        4    1    3    3  502    0 -0.59012927939E+02  0.12593787712E+03 -0.10154261311E+04  0.10249071739E+04  0.12699999809E+01 0. -1.
       -4    1    3    3    0  502  0.59012927939E+02 -0.12593787712E+03  0.27005514050E+03  0.30376679603E+03  0.12699999809E+01 0.  1.
</event>
<event>
 5   0  0.8921459E-05  0.1099998E+04  0.7818609E-02  0.9205194E-01
       -1   -1    0    0    0  501  0.00000000000E+00  0.00000000000E+00  0.39665982790E+03  0.39665982793E+03  0.50400001928E-02 0.  1.
        1   -1    0    0  501    0  0.00000000000E+00  0.00000000000E+00 -0.76261479265E+03  0.76261479266E+03  0.50400001928E-02 0. -1.
    10030    2    1    2    0    0  0.00000000000E+00  0.00000000000E+00 -0.36595496475E+03  0.11592746206E+04  0.10999975499E+04 0.  0.
        3    1    3    3  502    0  0.26596368495E+03  0.28260013495E+03  0.22776747970E+03  0.44997505819E+03  0.10100000352E+00 0.  1.
       -3    1    3    3    0  502 -0.26596368495E+03 -0.28260013495E+03 -0.59372244445E+03  0.70929956240E+03  0.10100000352E+00 0. -1.
</event>
<event>
 5   0  0.8621738E-05  0.1098391E+04  0.7818609E-02  0.9206761E-01
        1   -1    0    0  501    0  0.00000000000E+00  0.00000000000E+00  0.12121638950E+04  0.12121638950E+04  0.50400001928E-02 0. -1.
       -1   -1    0    0    0  501  0.00000000000E+00  0.00000000000E+00 -0.24882430913E+03  0.24882430918E+03  0.50400001928E-02 0.  1.
    10030    2    1    2    0    0  0.00000000000E+00  0.00000000000E+00  0.96333958584E+03  0.14609882042E+04  0.10983912668E+04 0.  0.
        2    1    3    3  502    0  0.46325092933E+03 -0.28755827894E+03  0.39419852049E+03  0.67281770256E+03  0.25500000920E-02 0.  1.
       -2    1    3    3    0  502 -0.46325092933E+03  0.28755827894E+03  0.56914106535E+03  0.78817050159E+03  0.25500000920E-02 0. -1.
</event>
<event>
 5   0  0.8921459E-05  0.1100118E+04  0.7818609E-02  0.9205077E-01
       -1   -1    0    0    0  501  0.00000000000E+00  0.00000000000E+00  0.28517118417E+03  0.28517118421E+03  0.50400001928E-02 0.  1.
        1   -1    0    0  501    0  0.00000000000E+00  0.00000000000E+00 -0.10609937081E+04  0.10609937081E+04  0.50400001928E-02 0. -1.
    10030    2    1    2    0    0  0.00000000000E+00  0.00000000000E+00 -0.77582252392E+03  0.13461648923E+04  0.11001178704E+04 0.  0.
        3    1    3    3  502    0  0.89727232806E+01  0.33961401111E+03 -0.91726995908E+03  0.97816275452E+03  0.10100000352E+00 0. -1.
       -3    1    3    3    0  502 -0.89727232806E+01 -0.33961401111E+03  0.14144743516E+03  0.36800213779E+03  0.10100000352E+00 0.  1.
</event>
<event>
 5   0  0.1574101E-04  0.1101014E+04  0.7818609E-02  0.9204204E-01
        2   -1    0    0  501    0  0.00000000000E+00  0.00000000000E+00  0.11634008200E+04  0.11634008200E+04  0.25500000920E-02 0. -1.
       -2   -1    0    0    0  501  0.00000000000E+00  0.00000000000E+00 -0.26049304654E+03  0.26049304655E+03  0.25500000920E-02 0.  1.
    10030    2    1    2    0    0  0.00000000000E+00  0.00000000000E+00  0.90290777348E+03  0.14238938666E+04  0.11010137582E+04 0.  0.
        4    1    3    3  502    0 -0.29113509346E+03 -0.31108914874E+03  0.90227988214E+03  0.99782097579E+03  0.12699999809E+01 0. -1.
       -4    1    3    3    0  502  0.29113509346E+03  0.31108914874E+03  0.62789134245E+00  0.42607289078E+03  0.12699999809E+01 0.  1.
</event>
<event>
 5   0  0.8657442E-05  0.1097990E+04  0.7818609E-02  0.9207153E-01
       -1   -1    0    0    0  501  0.00000000000E+00  0.00000000000E+00  0.37969783009E+03  0.37969783012E+03  0.50400001928E-02 0.  1.
        1   -1    0    0  501    0  0.00000000000E+00  0.00000000000E+00 -0.79377784166E+03  0.79377784168E+03  0.50400001928E-02 0. -1.
    10030    2    1    2    0    0  0.00000000000E+00  0.00000000000E+00 -0.41408001157E+03  0.11734756718E+04  0.10979903899E+04 0.  0.
        1    1    3    3  502    0  0.30609434749E+03  0.69452292480E+02  0.27434594052E+03  0.41687296098E+03  0.50400001928E-02 0.  1.
       -1    1    3    3    0  502 -0.30609434749E+03 -0.69452292480E+02 -0.68842595209E+03  0.75660271083E+03  0.50400001928E-02 0. -1.
</event>
<event>
 5   0  0.9346836E-05  0.1100318E+04  0.7818609E-02  0.9204882E-01
       -1   -1    0    0    0  501  0.00000000000E+00  0.00000000000E+00  0.23722310166E+03  0.23722310172E+03  0.50400001928E-02 0. -1.
        1   -1    0    0  501    0  0.00000000000E+00  0.00000000000E+00 -0.12759079754E+04  0.12759079754E+04  0.50400001928E-02 0.  1.
    10030    2    1    2    0    0  0.00000000000E+00  0.00000000000E+00 -0.10386848737E+04  0.15131310771E+04  0.11003178585E+04 0.  0.
        5    1    3    3  502    0  0.49366188863E+03  0.24183850306E+03 -0.54899130122E+03  0.77691792402E+03  0.46999998093E+01 0.  1.
       -5    1    3    3    0  502 -0.49366188863E+03 -0.24183850306E+03 -0.48969357250E+03  0.73621315310E+03  0.46999998093E+01 0. -1.
</event>
<event>
 5   0  0.8657442E-05  0.1096674E+04  0.7818609E-02  0.9208440E-01
       -1   -1    0    0    0  501  0.00000000000E+00  0.00000000000E+00  0.43596876312E+03  0.43596876315E+03  0.50400001928E-02 0. -1.
        1   -1    0    0  501    0  0.00000000000E+00  0.00000000000E+00 -0.68966758638E+03  0.68966758640E+03  0.50400001928E-02 0.  1.
    10030    2    1    2    0    0  0.00000000000E+00  0.00000000000E+00 -0.25369882326E+03  0.11256363495E+04  0.10966741077E+04 0.  0.
        1    1    3    3  502    0 -0.58605778399E+01  0.52496326916E+03  0.35611232812E+02  0.52620237577E+03  0.50400001928E-02 0. -1.
       -1    1    3    3    0  502  0.58605778399E+01 -0.52496326916E+03 -0.28931005607E+03  0.59943397377E+03  0.50400001928E-02 0.  1.
</event>
<event>
 5   0  0.8621738E-05  0.1093536E+04  0.7818609E-02  0.9211515E-01
       -1   -1    0    0    0  501  0.00000000000E+00  0.00000000000E+00  0.60329227618E+03  0.60329227620E+03  0.50400001928E-02 0.  1.
        1   -1    0    0  501    0  0.00000000000E+00  0.00000000000E+00 -0.49553976031E+03  0.49553976034E+03  0.50400001928E-02 0. -1.
    10030    2    1    2    0    0  0.00000000000E+00  0.00000000000E+00  0.10775251586E+03  0.10988320365E+04  0.10935361173E+04 0.  0.
        2    1    3    3  502    0  0.53439004001E+03 -0.73902943466E+01  0.16988222407E+03  0.56079167377E+03  0.25500000920E-02 0.  1.
       -2    1    3    3    0  502 -0.53439004001E+03  0.73902943466E+01 -0.62129708210E+02  0.53804036276E+03  0.25500000920E-02 0. -1.
</event>
<event>
 5   0  0.1503277E-04  0.1100674E+04  0.7818609E-02  0.9204535E-01
       -2   -1    0    0    0  501  0.00000000000E+00  0.00000000000E+00  0.11745904320E+04  0.11745904320E+04  0.25500000920E-02 0.  1.
        2   -1    0    0  501    0  0.00000000000E+00  0.00000000000E+00 -0.25785235277E+03  0.25785235279E+03  0.25500000920E-02 0. -1.
    10030    2    1    2    0    0  0.00000000000E+00  0.00000000000E+00  0.91673807918E+03  0.14324427847E+04  0.11006741687E+04 0.  0.
        5    1    3    3  502    0 -0.29115702427E+03 -0.21678379591E+02  0.10654608766E+04  0.11047494442E+04  0.46999998093E+01 0.  1.
       -5    1    3    3    0  502  0.29115702427E+03  0.21678379591E+02 -0.14872279745E+03  0.32769334049E+03  0.46999998093E+01 0. -1.
</event>
<event>
 5   0  0.1574101E-04  0.1099780E+04  0.7818609E-02  0.9205406E-01
        2   -1    0    0  501    0  0.00000000000E+00  0.00000000000E+00  0.51354440907E+03  0.51354440907E+03  0.25500000920E-02 0.  1.
       -2   -1    0    0    0  501  0.00000000000E+00  0.00000000000E+00 -0.58880829645E+03  0.58880829645E+03  0.25500000920E-02 0. -1.
    10030    2    1    2    0    0  0.00000000000E+00  0.00000000000E+00 -0.75263887384E+02  0.11023527055E+04  0.10997803575E+04 0.  0.
        4    1    3    3  502    0 -0.11888263163E+03  0.44083468230E+03 -0.34479495167E+03  0.57214811790E+03  0.12699999809E+01 0. -1.
       -4    1    3    3    0  502  0.11888263163E+03 -0.44083468230E+03  0.26953106429E+03  0.53020458762E+03  0.12699999809E+01 0.  1.
</event>
<event>
 5   0  0.8921459E-05  0.1099816E+04  0.7818609E-02  0.9205372E-01
        1   -1    0    0  501    0  0.00000000000E+00  0.00000000000E+00  0.92460339880E+03  0.92460339882E+03  0.50400001928E-02 0.  1.
       -1   -1    0    0    0  501  0.00000000000E+00  0.00000000000E+00 -0.32705759049E+03  0.32705759053E+03  0.50400001928E-02 0. -1.
    10030    2    1    2    0    0  0.00000000000E+00  0.00000000000E+00  0.59754580831E+03  0.12516609893E+04  0.10998155478E+04 0.  0.
        3    1    3    3  502    0 -0.40687073013E+03  0.18462490163E+03 -0.66062241357E+02  0.45165736491E+03  0.10100000352E+00 0. -1.
       -3    1    3    3    0  502  0.40687073013E+03 -0.18462490163E+03  0.66360804966E+03  0.80000362444E+03  0.10100000352E+00 0.  1.
</event>
<event>
 5   0  0.6010125E-05  0.1099976E+04  0.7818609E-02  0.9205215E-01
       -4   -1    0    0    0  501  0.00000000000E+00  0.00000000000E+00  0.39499645920E+03  0.39499850086E+03  0.12699999809E+01 0.  1.
        4   -1    0    0  501    0  0.00000000000E+00  0.00000000000E+00 -0.76579139511E+03  0.76579244820E+03  0.12699999809E+01 0. -1.
    10030    2    1    2    0    0  0.00000000000E+00  0.00000000000E+00 -0.37079493591E+03  0.11607909491E+04  0.10999757920E+04 0.  0.
        5    1    3    3  502    0 -0.50583497428E+03 -0.11520506817E+03 -0.37803695913E+03  0.64193088523E+03  0.46999998093E+01 0. -1.
       -5    1    3    3    0  502  0.50583497428E+03  0.11520506817E+03  0.72420232253E+01  0.51886006383E+03  0.46999998093E+01 0.  1.
</event>
<event>
 5   0  0.1574101E-04  0.1100108E+04  0.7818609E-02  0.9205087E-01
        2   -1    0    0  501    0  0.00000000000E+00  0.00000000000E+00  0.42443726150E+03  0.42443726151E+03  0.25500000920E-02 0. -1.
       -2   -1    0    0    0  501  0.00000000000E+00  0.00000000000E+00 -0.71284822863E+03  0.71284822864E+03  0.25500000920E-02 0.  1.
    10030    2    1    2    0    0  0.00000000000E+00  0.00000000000E+00 -0.28841096713E+03  0.11372854901E+04  0.11001079039E+04 0.  0.
        4    1    3    3  502    0 -0.40968411873E+03  0.56158709897E+02 -0.51917923280E+03  0.66373456028E+03  0.12699999809E+01 0.  1.
       -4    1    3    3    0  502  0.40968411873E+03 -0.56158709897E+02  0.23076826567E+03  0.47355092987E+03  0.12699999809E+01 0. -1.
</event>
<event>
 5   0  0.9016738E-05  0.1101781E+04  0.7818609E-02  0.9203458E-01
       -1   -1    0    0    0  501  0.00000000000E+00  0.00000000000E+00  0.32441492723E+03  0.32441492726E+03  0.50400001928E-02 0.  1.
        1   -1    0    0  501    0  0.00000000000E+00  0.00000000000E+00 -0.93546944367E+03  0.93546944368E+03  0.50400001928E-02 0. -1.
    10030    2    1    2    0    0  0.00000000000E+00  0.00000000000E+00 -0.61105451644E+03  0.12598843709E+04  0.11017808340E+04 0.  0.
        4    1    3    3  502    0  0.23910993047E+03 -0.82049648595E+02 -0.86522602734E+03  0.90140079596E+03  0.12699999809E+01 0. -1.
       -4    1    3    3    0  502 -0.23910993047E+03  0.82049648595E+02  0.25417151089E+03  0.35848357498E+03  0.12699999809E+01 0.  1.
</event>
<event>
 5   0  0.1553937E-04  0.1099596E+04  0.7818609E-02  0.9205585E-01
        2   -1    0    0  501    0  0.00000000000E+00  0.00000000000E+00  0.14131098327E+04  0.14131098327E+04  0.25500000920E-02 0. -1.
       -2   -1    0    0    0  501  0.00000000000E+00  0.00000000000E+00 -0.21390977354E+03  0.21390977356E+03  0.25500000920E-02 0.  1.
    10030    2    1    2    0    0  0.00000000000E+00  0.00000000000E+00  0.11992000592E+04  0.16270196063E+04  0.10995962974E+04 0.  0.
        1    1    3    3  502    0  0.53626650420E+03 -0.80582670101E+02  0.46559001797E+03  0.71473729097E+03  0.50400001928E-02 0. -1.
       -1    1    3    3    0  502 -0.53626650420E+03  0.80582670101E+02  0.73361004122E+03  0.91228231532E+03  0.50400001928E-02 0.  1.
</event>
<event>
 5   0  0.9016738E-05  0.1099798E+04  0.7818609E-02  0.9205389E-01
        1   -1    0    0  501    0  0.00000000000E+00  0.00000000000E+00  0.71652368010E+03  0.71652368012E+03  0.50400001928E-02 0.  1.
       -1   -1    0    0    0  501  0.00000000000E+00  0.00000000000E+00 -0.42202217141E+03  0.42202217144E+03  0.50400001928E-02 0. -1.
    10030    2    1    2    0    0  0.00000000000E+00  0.00000000000E+00  0.29450150869E+03  0.11385458516E+04  0.10997979439E+04 0.  0.
        4    1    3    3  502    0  0.19476620667E+03  0.80334450250E+01 -0.38505258880E+03  0.43158489378E+03  0.12699999809E+01 0. -1.
       -4    1    3    3    0  502 -0.19476620667E+03 -0.80334450250E+01  0.67955409749E+03  0.70696095777E+03  0.12699999809E+01 0.  1.
</event>
<event>
 5   0  0.8657442E-05  0.1099924E+04  0.7818609E-02  0.9205266E-01
        1   -1    0    0  501    0  0.00000000000E+00  0.00000000000E+00  0.16634158750E+04  0.16634158750E+04  0.50400001928E-02 0.  1.
       -1   -1    0    0    0  501  0.00000000000E+00  0.00000000000E+00 -0.18182942570E+03  0.18182942577E+03  0.50400001928E-02 0. -1.
    10030    2    1    2    0    0  0.00000000000E+00  0.00000000000E+00  0.14815864493E+04  0.18452453007E+04  0.10999235488E+04 0.  0.
        1    1    3    3  502    0 -0.35657352890E+03  0.40344256552E+03  0.92871102812E+03  0.10735058262E+04  0.50400001928E-02 0. -1.
       -1    1    3    3    0  502  0.35657352890E+03 -0.40344256552E+03  0.55287542113E+03  0.77173947450E+03  0.50400001928E-02 0.  1.
</event>
<event>
 5   0  0.1464205E-04  0.1100134E+04  0.7818609E-02  0.9205062E-01
       -2   -1    0    0    0  501  0.00000000000E+00  0.00000000000E+00  0.23066273962E+03  0.23066273963E+03  0.25500000920E-02 0. -1.
        2   -1    0    0  501    0  0.00000000000E+00  0.00000000000E+00 -0.13117574223E+04  0.13117574223E+04  0.25500000920E-02 0.  1.
    10030    2    1    2    0    0  0.00000000000E+00  0.00000000000E+00 -0.10810946827E+04  0.15424201619E+04  0.11001337387E+04 0.  0.
        3    1    3    3  502    0  0.34735118920E+03 -0.29404976964E+02  0.56025844940E+02  0.35306714207E+03  0.10100000352E+00 0. -1.
       -3    1    3    3    0  502 -0.34735118920E+03  0.29404976964E+02 -0.11371205276E+04  0.11893530198E+04  0.10100000352E+00 0.  1.
</event>
<event>
 5   0  0.9346836E-05  0.1100138E+04  0.7818609E-02  0.9205058E-01
       -1   -1    0    0    0  501  0.00000000000E+00  0.00000000000E+00  0.35419725886E+03  0.35419725890E+03  0.50400001928E-02 0. -1.
        1   -1    0    0  501    0  0.00000000000E+00  0.00000000000E+00 -0.85425780745E+03  0.85425780747E+03  0.50400001928E-02 0.  1.
    10030    2    1    2    0    0  0.00000000000E+00  0.00000000000E+00 -0.50006054859E+03  0.12084550664E+04  0.11001377619E+04 0.  0.
        5    1    3    3  502    0 -0.26467583573E+03  0.37561797381E+03 -0.58214176995E+03  0.74165577635E+03  0.46999998093E+01 0.  1.
       -5    1    3    3    0  502  0.26467583573E+03 -0.37561797381E+03  0.82081221363E+02  0.46679929002E+03  0.46999998093E+01 0. -1.
</event>
<event>
 5   0  0.1464205E-04  0.1100121E+04  0.7818609E-02  0.9205074E-01
        2   -1    0    0  501    0  0.00000000000E+00  0.00000000000E+00  0.67315011408E+03  0.67315011408E+03  0.25500000920E-02 0.  1.
       -2   -1    0    0    0  501  0.00000000000E+00  0.00000000000E+00 -0.44947870530E+03  0.44947870531E+03  0.25500000920E-02 0. -1.
    10030    2    1    2    0    0  0.00000000000E+00  0.00000000000E+00  0.22367140877E+03  0.11226288194E+04  0.11001211602E+04 0.  0.
        3    1    3    3  502    0  0.20241065781E+03  0.46445917165E+03 -0.10672902846E+03  0.51776779762E+03  0.10100000352E+00 0. -1.
       -3    1    3    3    0  502 -0.20241065781E+03 -0.46445917165E+03  0.33040043724E+03  0.60486102177E+03  0.10100000352E+00 0.  1.
</event>
<event>
 5   0  0.1574101E-04  0.1099225E+04  0.7818609E-02  0.9205948E-01
       -2   -1    0    0    0  501  0.00000000000E+00  0.00000000000E+00  0.44887985330E+03  0.44887985331E+03  0.25500000920E-02 0. -1.
        2   -1    0    0  501    0  0.00000000000E+00  0.00000000000E+00 -0.67295042810E+03  0.67295042810E+03  0.25500000920E-02 0.  1.
    10030    2    1    2    0    0  0.00000000000E+00  0.00000000000E+00 -0.22407057480E+03  0.11218302814E+04  0.10992249805E+04 0.  0.
        4    1    3    3  502    0  0.18944451882E+02 -0.56212132505E+02  0.44560187839E+03  0.44953458490E+03  0.12699999809E+01 0. -1.
       -4    1    3    3    0  502 -0.18944451882E+02  0.56212132505E+02 -0.66967245318E+03  0.67229569651E+03  0.12699999809E+01 0.  1.
</event>
<event>
 5   0  0.1464205E-04  0.1100337E+04  0.7818609E-02  0.9204863E-01
        2   -1    0    0  501    0  0.00000000000E+00  0.00000000000E+00  0.16000800091E+04  0.16000800091E+04  0.25500000920E-02 0. -1.
       -2   -1    0    0    0  501  0.00000000000E+00  0.00000000000E+00 -0.18916895705E+03  0.18916895706E+03  0.25500000920E-02 0.  1.
    10030    2    1    2    0    0  0.00000000000E+00  0.00000000000E+00  0.14109110520E+04  0.17892489661E+04  0.11003371602E+04 0.  0.
        3    1    3    3  502    0 -0.25727437355E+03  0.48569463913E+03  0.66575522204E+03  0.86331883545E+03  0.10100000352E+00 0.  1.
       -3    1    3    3    0  502  0.25727437355E+03 -0.48569463913E+03  0.74515583000E+03  0.92593013070E+03  0.10100000352E+00 0. -1.
</event>
<event>
 5   0  0.1553937E-04  0.1098805E+04  0.7818609E-02  0.9206357E-01
       -2   -1    0    0    0  501  0.00000000000E+00  0.00000000000E+00  0.10112535560E+04  0.10112535560E+04  0.25500000920E-02 0.  1.
        2   -1    0    0  501    0  0.00000000000E+00  0.00000000000E+00 -0.29848424675E+03  0.29848424676E+03  0.25500000920E-02 0. -1.
    10030    2    1    2    0    0  0.00000000000E+00  0.00000000000E+00  0.71276930923E+03  0.13097378027E+04  0.10988052711E+04 0.  0.
        1    1    3    3  502    0 -0.13801041998E+03  0.32489749006E+01 -0.27747403121E+03  0.30991816642E+03  0.50400001928E-02 0. -1.
       -1    1    3    3    0  502  0.13801041998E+03 -0.32489749006E+01  0.99024334044E+03  0.99981963632E+03  0.50400001928E-02 0.  1.
</event>
<event>
 5   0  0.6010125E-05  0.1100155E+04  0.7818609E-02  0.9205041E-01
        4   -1    0    0  501    0  0.00000000000E+00  0.00000000000E+00  0.29267210852E+03  0.29267486398E+03  0.12699999809E+01 0.  1.
       -4   -1    0    0    0  501  0.00000000000E+00  0.00000000000E+00 -0.10338630227E+04  0.10338638027E+04  0.12699999809E+01 0. -1.
    10030    2    1    2    0    0  0.00000000000E+00  0.00000000000E+00 -0.74119091414E+03  0.13265386667E+04  0.11001549268E+04 0.  0.
        5    1    3    3  502    0  0.40771068021E+03 -0.28670985203E+03 -0.90055026120E+02  0.50652002501E+03  0.46999998093E+01 0.  1.
       -5    1    3    3    0  502 -0.40771068021E+03  0.28670985203E+03 -0.65113588802E+03  0.82001864166E+03  0.46999998093E+01 0. -1.
</event>
<event>
 5   0  0.9016738E-05  0.1102529E+04  0.7818609E-02  0.9202730E-01
       -1   -1    0    0    0  501  0.00000000000E+00  0.00000000000E+00  0.71537426777E+03  0.71537426778E+03  0.50400001928E-02 0.  1.
        1   -1    0    0  501    0  0.00000000000E+00  0.00000000000E+00 -0.42480249934E+03  0.42480249937E+03  0.50400001928E-02 0. -1.
    10030    2    1    2    0    0  0.00000000000E+00  0.00000000000E+00  0.29057176843E+03  0.11401767672E+04  0.11025294135E+04 0.  0.
        4    1    3    3  502    0 -0.42085860913E+03  0.29849926379E+03  0.34599390877E+03  0.62123842216E+03  0.12699999809E+01 0.  1.
       -4    1    3    3    0  502  0.42085860913E+03 -0.29849926379E+03 -0.55422140335E+02  0.51893834499E+03  0.12699999809E+01 0. -1.
</event>
<event>
 5   0  0.1503277E-04  0.1100348E+04  0.7818609E-02  0.9204853E-01
        2   -1    0    0  501    0  0.00000000000E+00  0.00000000000E+00  0.79445029242E+03  0.79445029242E+03  0.25500000920E-02 0. -1.
       -2   -1    0    0    0  501  0.00000000000E+00  0.00000000000E+00 -0.38100715206E+03  0.38100715207E+03  0.25500000920E-02 0.  1.
    10030    2    1    2    0    0  0.00000000000E+00  0.00000000000E+00  0.41344314036E+03  0.11754574445E+04  0.11003476603E+04 0.  0.
        5    1    3    3  502    0  0.46027906633E+03  0.35632874749E+01 -0.11517699712E+03  0.47450747790E+03  0.46999998093E+01 0.  1.
       -5    1    3    3    0  502 -0.46027906633E+03 -0.35632874749E+01  0.52862013748E+03  0.70094996659E+03  0.46999998093E+01 0. -1.
</event>
<event>
 5   0  0.8657442E-05  0.1100782E+04  0.7818609E-02  0.9204430E-01
       -1   -1    0    0    0  501  0.00000000000E+00  0.00000000000E+00  0.21183652398E+03  0.21183652404E+03  0.50400001928E-02 0. -1.
        1   -1    0    0  501    0  0.00000000000E+00  0.00000000000E+00 -0.14300188308E+04  0.14300188308E+04  0.50400001928E-02 0.  1.
    10030    2    1    2    0    0  0.00000000000E+00  0.00000000000E+00 -0.12181823069E+04  0.16418553549E+04  0.11007819374E+04 0.  0.
        1    1    3    3  502    0  0.41227026634E+03  0.25214931600E+03 -0.21620765120E+03  0.52942591411E+03  0.50400001928E-02 0. -1.
       -1    1    3    3    0  502 -0.41227026634E+03 -0.25214931600E+03 -0.10019746557E+04  0.11124294408E+04  0.50400001928E-02 0.  1.
</event>
<event>
 5   0  0.9016738E-05  0.1099662E+04  0.7818609E-02  0.9205521E-01
       -1   -1    0    0    0  501  0.00000000000E+00  0.00000000000E+00  0.28187614292E+03  0.28187614296E+03  0.50400001928E-02 0.  1.
        1   -1    0    0  501    0  0.00000000000E+00  0.00000000000E+00 -0.10725077618E+04  0.10725077618E+04  0.50400001928E-02 0. -1.
    10030    2    1    2    0    0  0.00000000000E+00  0.00000000000E+00 -0.79063161891E+03  0.13543839048E+04  0.10996624049E+04 0.  0.
        4    1    3    3  502    0  0.26655175235E+03 -0.35700774508E+03  0.15087982014E+01  0.44554265351E+03  0.12699999809E+01 0.  1.
       -4    1    3    3    0  502 -0.26655175235E+03  0.35700774508E+03 -0.79214041711E+03  0.90884125129E+03  0.12699999809E+01 0. -1.
</event>
<event>
 5   0  0.9346836E-05  0.1098634E+04  0.7818609E-02  0.9206524E-01
        1   -1    0    0  501    0  0.00000000000E+00  0.00000000000E+00  0.16208878613E+04  0.16208878613E+04  0.50400001928E-02 0. -1.
       -1   -1    0    0    0  501  0.00000000000E+00  0.00000000000E+00 -0.18616302466E+03  0.18616302473E+03  0.50400001928E-02 0.  1.
    10030    2    1    2    0    0  0.00000000000E+00  0.00000000000E+00  0.14347248367E+04  0.18070508861E+04  0.10986344014E+04 0.  0.
        5    1    3    3  502    0 -0.16799192387E+03 -0.36335948517E+03  0.13360315015E+04  0.13947235084E+04  0.46999998093E+01 0. -1.
       -5    1    3    3    0  502  0.16799192387E+03  0.36335948517E+03  0.98693335173E+02  0.41232737764E+03  0.46999998093E+01 0.  1.
</event>
<event>
 5   0  0.1574101E-04  0.1099752E+04  0.7818609E-02  0.9205434E-01
        2   -1    0    0  501    0  0.00000000000E+00  0.00000000000E+00  0.46795732400E+03  0.46795732401E+03  0.25500000920E-02 0. -1.
       -2   -1    0    0    0  501  0.00000000000E+00  0.00000000000E+00 -0.64613461826E+03  0.64613461827E+03  0.25500000920E-02 0.  1.
    10030    2    1    2    0    0  0.00000000000E+00  0.00000000000E+00 -0.17817729426E+03  0.11140919423E+04  0.10997516573E+04 0.  0.
        4    1    3    3  502    0  0.22981481364E+03  0.33190033941E+03  0.28912819308E+03  0.49655755840E+03  0.12699999809E+01 0. -1.
       -4    1    3    3    0  502 -0.22981481364E+03 -0.33190033941E+03 -0.46730548734E+03  0.61753438388E+03  0.12699999809E+01 0.  1.
</event>
<event>
 5   0  0.8657442E-05  0.1100454E+04  0.7818609E-02  0.9204750E-01
        1   -1    0    0  501    0  0.00000000000E+00  0.00000000000E+00  0.91583558255E+03  0.91583558257E+03  0.50400001928E-02 0. -1.
       -1   -1    0    0    0  501  0.00000000000E+00  0.00000000000E+00 -0.33057190351E+03  0.33057190355E+03  0.50400001928E-02 0.  1.
    10030    2    1    2    0    0  0.00000000000E+00  0.00000000000E+00  0.58526367904E+03  0.12464074861E+04  0.11004535644E+04 0.  0.
        1    1    3    3  502    0 -0.32906498310E+03  0.79783951685E+02 -0.19859607329E+03  0.39254253578E+03  0.50400001928E-02 0.  1.
       -1    1    3    3    0  502  0.32906498310E+03 -0.79783951685E+02  0.78385975234E+03  0.85386495033E+03  0.50400001928E-02 0. -1.
</event>
<event>
 5   0  0.1540772E-04  0.1099898E+04  0.7818609E-02  0.9205291E-01
        2   -1    0    0  501    0  0.00000000000E+00  0.00000000000E+00  0.52011669737E+03  0.52011669737E+03  0.25500000920E-02 0. -1.
       -2   -1    0    0    0  501  0.00000000000E+00  0.00000000000E+00 -0.58149251905E+03  0.58149251905E+03  0.25500000920E-02 0.  1.
    10030    2    1    2    0    0  0.00000000000E+00  0.00000000000E+00 -0.61375821679E+02  0.11016092164E+04  0.10998981199E+04 0.  0.
        2    1    3    3  502    0  0.20425151436E+03 -0.36384767727E+03  0.32811534978E+03  0.53081399392E+03  0.25500000920E-02 0. -1.
       -2    1    3    3    0  502 -0.20425151436E+03  0.36384767727E+03 -0.38949117146E+03  0.57079522250E+03  0.25500000920E-02 0.  1.
</event>
<event>
 5   0  0.1503277E-04  0.1100371E+04  0.7818609E-02  0.9204831E-01
       -2   -1    0    0    0  501  0.00000000000E+00  0.00000000000E+00  0.38558279293E+03  0.38558279293E+03  0.25500000920E-02 0.  1.
        2   -1    0    0  501    0  0.00000000000E+00  0.00000000000E+00 -0.78505556993E+03  0.78505556994E+03  0.25500000920E-02 0. -1.
    10030    2    1    2    0    0  0.00000000000E+00  0.00000000000E+00 -0.39947277701E+03  0.11706383629E+04  0.11003706998E+04 0.  0.
        5    1    3    3  502    0 -0.53696869406E+03 -0.10406831117E+03 -0.26282091303E+03  0.60684636780E+03  0.46999998093E+01 0. -1.
       -5    1    3    3    0  502  0.53696869406E+03  0.10406831117E+03 -0.13665186398E+03  0.56379199508E+03  0.46999998093E+01 0.  1.
</event>
<event>
 5   0  0.8921459E-05  0.1101081E+04  0.7818609E-02  0.9204139E-01
       -1   -1    0    0    0  501  0.00000000000E+00  0.00000000000E+00  0.50867022189E+03  0.50867022191E+03  0.50400001928E-02 0. -1.
        1   -1    0    0  501    0  0.00000000000E+00  0.00000000000E+00 -0.59585722257E+03  0.59585722260E+03  0.50400001928E-02 0.  1.
    10030    2    1    2    0    0  0.00000000000E+00  0.00000000000E+00 -0.87187000685E+02  0.11045274445E+04  0.11010809700E+04 0.  0.
        3    1    3    3  502    0  0.72638795260E+02  0.54557377176E+03 -0.56583180258E+02  0.55328907589E+03  0.10100000352E+00 0. -1.
       -3    1    3    3    0  502 -0.72638795260E+02 -0.54557377176E+03 -0.30603820427E+02  0.55123836862E+03  0.10100000352E+00 0.  1.
</event>
<event>
 5   0  0.6010125E-05  0.1099395E+04  0.7818609E-02  0.9205782E-01
       -3   -1    0    0    0  501  0.00000000000E+00  0.00000000000E+00  0.70161979318E+03  0.70161980045E+03  0.10100000352E+00 0. -1.
        3   -1    0    0  501    0  0.00000000000E+00  0.00000000000E+00 -0.43067095021E+03  0.43067096205E+03  0.10100000352E+00 0.  1.
    10030    2    1    2    0    0  0.00000000000E+00  0.00000000000E+00  0.27094884297E+03  0.11322907625E+04  0.10993948769E+04 0.  0.
        4    1    3    3  502    0 -0.12306090478E+03  0.12600091876E+03  0.67177147442E+03  0.69447731753E+03  0.12699999809E+01 0. -1.
       -4    1    3    3    0  502  0.12306090478E+03 -0.12600091876E+03 -0.40082263145E+03  0.43781344497E+03  0.12699999809E+01 0.  1.
</event>
<event>
 5   0  0.8921459E-05  0.1099879E+04  0.7818609E-02  0.9205310E-01
       -1   -1    0    0    0  501  0.00000000000E+00  0.00000000000E+00  0.23427049369E+03  0.23427049375E+03  0.50400001928E-02 0.  1.
        1   -1    0    0  501    0  0.00000000000E+00  0.00000000000E+00 -0.12909581487E+04  0.12909581487E+04  0.50400001928E-02 0. -1.
    10030    2    1    2    0    0  0.00000000000E+00  0.00000000000E+00 -0.10566876550E+04  0.15252286424E+04  0.10998789076E+04 0.  0.
        3    1    3    3  502    0  0.16880938391E+03  0.38458149693E+03 -0.36039456344E+02  0.42154286674E+03  0.10100000352E+00 0.  1.
       -3    1    3    3    0  502 -0.16880938391E+03 -0.38458149693E+03 -0.10206481986E+04  0.11036857757E+04  0.10100000352E+00 0. -1.
</event>
<event>
 5   0  0.1540772E-04  0.1099843E+04  0.7818609E-02  0.9205344E-01
        2   -1    0    0  501    0  0.00000000000E+00  0.00000000000E+00  0.72623711702E+03  0.72623711703E+03  0.25500000920E-02 0.  1.
       -2   -1    0    0    0  501  0.00000000000E+00  0.00000000000E+00 -0.41641206901E+03  0.41641206902E+03  0.25500000920E-02 0. -1.
    10030    2    1    2    0    0  0.00000000000E+00  0.00000000000E+00  0.30982504801E+03  0.11426491860E+04  0.10998434443E+04 0.  0.
        2    1    3    3  502    0  0.45091721369E+03 -0.26242633742E+03 -0.25692223143E+02  0.52235429213E+03  0.25500000920E-02 0.  1.
       -2    1    3    3    0  502 -0.45091721369E+03  0.26242633742E+03  0.33551727115E+03  0.62029489392E+03  0.25500000920E-02 0. -1.
</event>
<event>
 5   0  0.9016738E-05  0.1099470E+04  0.7818609E-02  0.9205709E-01
       -1   -1    0    0    0  501  0.00000000000E+00  0.00000000000E+00  0.54786839105E+03  0.54786839107E+03  0.50400001928E-02 0. -1.
        1   -1    0    0  501    0  0.00000000000E+00  0.00000000000E+00 -0.55160800170E+03  0.55160800172E+03  0.50400001928E-02 0.  1.
    10030    2    1    2    0    0  0.00000000000E+00  0.00000000000E+00 -0.37396106510E+01  0.10994763928E+04  0.10994700331E+04 0.  0.
        4    1    3    3  502    0 -0.17624503991E+03 -0.48937633793E+03  0.17605104084E+03  0.54913304044E+03  0.12699999809E+01 0.  1.
       -4    1    3    3    0  502  0.17624503991E+03  0.48937633793E+03 -0.17979065149E+03  0.55034335235E+03  0.12699999809E+01 0. -1.
</event>
<event>
 5   0  0.1464205E-04  0.1100027E+04  0.7818609E-02  0.9205166E-01
       -2   -1    0    0    0  501  0.00000000000E+00  0.00000000000E+00  0.25482193615E+03  0.25482193617E+03  0.25500000920E-02 0.  1.
        2   -1    0    0  501    0  0.00000000000E+00  0.00000000000E+00 -0.11871607418E+04  0.11871607418E+04  0.25500000920E-02 0. -1.
    10030    2    1    2    0    0  0.00000000000E+00  0.00000000000E+00 -0.93233880562E+03  0.14419826779E+04  0.11000265429E+04 0.  0.
        3    1    3    3  502    0 -0.39564066193E+03 -0.34818381795E+03 -0.67240042379E+03  0.85433356751E+03  0.10100000352E+00 0. -1.
       -3    1    3    3    0  502  0.39564066193E+03  0.34818381795E+03 -0.25993838183E+03  0.58764911044E+03  0.10100000352E+00 0.  1.
</event>
<event>
 5   0  0.1503277E-04  0.1099402E+04  0.7818609E-02  0.9205775E-01
        2   -1    0    0  501    0  0.00000000000E+00  0.00000000000E+00  0.61492645630E+03  0.61492645630E+03  0.25500000920E-02 0.  1.
       -2   -1    0    0    0  501  0.00000000000E+00  0.00000000000E+00 -0.49139409947E+03  0.49139409948E+03  0.25500000920E-02 0. -1.
    10030    2    1    2    0    0  0.00000000000E+00  0.00000000000E+00  0.12353235682E+03  0.11063205558E+04  0.10994020779E+04 0.  0.
        5    1    3    3  502    0 -0.17219391072E+02 -0.91761755128E+02  0.60686905313E+03  0.61402676227E+03  0.46999998093E+01 0.  1.
       -5    1    3    3    0  502  0.17219391072E+02  0.91761755128E+02 -0.48333669631E+03  0.49229379351E+03  0.46999998093E+01 0. -1.
</event>
<event>
 5   0  0.1553937E-04  0.1099797E+04  0.7818609E-02  0.9205390E-01
        2   -1    0    0  501    0  0.00000000000E+00  0.00000000000E+00  0.29268052966E+03  0.29268052967E+03  0.25500000920E-02 0.  1.
       -2   -1    0    0    0  501  0.00000000000E+00  0.00000000000E+00 -0.10331683323E+04  0.10331683323E+04  0.25500000920E-02 0. -1.
    10030    2    1    2    0    0  0.00000000000E+00  0.00000000000E+00 -0.74048780268E+03  0.13258488620E+04  0.10997968080E+04 0.  0.
        1    1    3    3  502    0 -0.39193789778E+03 -0.30436950136E+03 -0.65586309384E+03  0.82244301137E+03  0.50400001928E-02 0. -1.
       -1    1    3    3    0  502  0.39193789778E+03  0.30436950136E+03 -0.84624708840E+02  0.50340585063E+03  0.50400001928E-02 0.  1.
</event>
<event>
 5   0  0.9016738E-05  0.1100574E+04  0.7818609E-02  0.9204633E-01
        1   -1    0    0  501    0  0.00000000000E+00  0.00000000000E+00  0.10864377969E+04  0.10864377969E+04  0.50400001928E-02 0. -1.
       -1   -1    0    0    0  501  0.00000000000E+00  0.00000000000E+00 -0.27872351225E+03  0.27872351229E+03  0.50400001928E-02 0.  1.
    10030    2    1    2    0    0  0.00000000000E+00  0.00000000000E+00  0.80771428468E+03  0.13651613092E+04  0.11005739569E+04 0.  0.
        4    1    3    3  502    0  0.28426381684E+03 -0.45034342967E+03  0.57572881748E+03  0.78427062063E+03  0.12699999809E+01 0. -1.
       -4    1    3    3    0  502 -0.28426381684E+03  0.45034342967E+03  0.23198546720E+03  0.58089068860E+03  0.12699999809E+01 0.  1.
</event>
<event>
 5   0  0.1553937E-04  0.1096252E+04  0.7818609E-02  0.9208853E-01
        2   -1    0    0  501    0  0.00000000000E+00  0.00000000000E+00  0.10877638781E+04  0.10877638781E+04  0.25500000920E-02 0.  1.
       -2   -1    0    0    0  501  0.00000000000E+00  0.00000000000E+00 -0.27620152512E+03  0.27620152513E+03  0.25500000920E-02 0. -1.
    10030    2    1    2    0    0  0.00000000000E+00  0.00000000000E+00  0.81156235294E+03  0.13639654032E+04  0.10962518727E+04 0.  0.
        1    1    3    3  502    0 -0.44179651026E+03 -0.22406639004E+03  0.69771210129E+03  0.85568223070E+03  0.50400001928E-02 0.  1.
       -1    1    3    3    0  502  0.44179651026E+03  0.22406639004E+03  0.11385025165E+03  0.50828317250E+03  0.50400001928E-02 0. -1.
</event>
<event>
 5   0  0.9016738E-05  0.1099873E+04  0.7818609E-02  0.9205315E-01
       -1   -1    0    0    0  501  0.00000000000E+00  0.00000000000E+00  0.23643921641E+03  0.23643921646E+03  0.50400001928E-02 0. -1.
        1   -1    0    0  501    0  0.00000000000E+00  0.00000000000E+00 -0.12791043114E+04  0.12791043114E+04  0.50400001928E-02 0.  1.
    10030    2    1    2    0    0  0.00000000000E+00  0.00000000000E+00 -0.10426650950E+04  0.15155435279E+04  0.10998734857E+04 0.  0.
        4    1    3    3  502    0 -0.28838789444E+03  0.36629578804E+03 -0.92327274119E+03  0.10342989652E+04  0.12699999809E+01 0.  1.
       -4    1    3    3    0  502  0.28838789444E+03 -0.36629578804E+03 -0.11939235380E+03  0.48124456261E+03  0.12699999809E+01 0. -1.
</event>
<event>
 5   0  0.1574101E-04  0.1099413E+04  0.7818609E-02  0.9205764E-01
        2   -1    0    0  501    0  0.00000000000E+00  0.00000000000E+00  0.26501040869E+03  0.26501040870E+03  0.25500000920E-02 0. -1.
       -2   -1    0    0    0  501  0.00000000000E+00  0.00000000000E+00 -0.11402463860E+04  0.11402463860E+04  0.25500000920E-02 0.  1.
    10030    2    1    2    0    0  0.00000000000E+00  0.00000000000E+00 -0.87523597727E+03  0.14052567947E+04  0.10994128629E+04 0.  0.
        4    1    3    3  502    0 -0.45143055542E+03  0.20367077528E+03 -0.74252478520E+03  0.89253347310E+03  0.12699999809E+01 0.  1.
       -4    1    3    3    0  502  0.45143055542E+03 -0.20367077528E+03 -0.13271119207E+03  0.51272332156E+03  0.12699999809E+01 0. -1.
</event>
<event>
 5   0  0.8657442E-05  0.1108357E+04  0.7818609E-02  0.9197084E-01
       -1   -1    0    0    0  501  0.00000000000E+00  0.00000000000E+00  0.19819800575E+03  0.19819800581E+03  0.50400001928E-02 0. -1.
        1   -1    0    0  501    0  0.00000000000E+00  0.00000000000E+00 -0.15495315570E+04  0.15495315570E+04  0.50400001928E-02 0.  1.
    10030    2    1    2    0    0  0.00000000000E+00  0.00000000000E+00 -0.13513335512E+04  0.17477295628E+04  0.11083574595E+04 0.  0.
        1    1    3    3  502    0  0.11566871784E+03  0.19382760421E+03 -0.14737622521E+04  0.14909472050E+04  0.50400001928E-02 0.  1.
       -1    1    3    3    0  502 -0.11566871784E+03 -0.19382760421E+03  0.12242870087E+03  0.25678235777E+03  0.50400001928E-02 0. -1.
</event>
<event>
 5   0  0.1503277E-04  0.1099736E+04  0.7818609E-02  0.9205449E-01
       -2   -1    0    0    0  501  0.00000000000E+00  0.00000000000E+00  0.31796550189E+03  0.31796550190E+03  0.25500000920E-02 0.  1.
        2   -1    0    0  501    0  0.00000000000E+00  0.00000000000E+00 -0.95090463801E+03  0.95090463802E+03  0.25500000920E-02 0. -1.
    10030    2    1    2    0    0  0.00000000000E+00  0.00000000000E+00 -0.63293913612E+03  0.12688701399E+04  0.10997360965E+04 0.  0.
        5    1    3    3  502    0  0.57609963732E+02  0.47972997255E+03 -0.13671374783E+02  0.48339295710E+03  0.46999998093E+01 0.  1.
       -5    1    3    3    0  502 -0.57609963732E+02 -0.47972997255E+03 -0.61926776134E+03  0.78547718281E+03  0.46999998093E+01 0. -1.
</event>
<event>
 5   0  0.1503277E-04  0.1099721E+04  0.7818609E-02  0.9205464E-01
        2   -1    0    0  501    0  0.00000000000E+00  0.00000000000E+00  0.44163874558E+03  0.44163874559E+03  0.25500000920E-02 0. -1.
       -2   -1    0    0    0  501  0.00000000000E+00  0.00000000000E+00 -0.68460096087E+03  0.68460096088E+03  0.25500000920E-02 0.  1.
    10030    2    1    2    0    0  0.00000000000E+00  0.00000000000E+00 -0.24296221529E+03  0.11262397065E+04  0.10997205274E+04 0.  0.
        5    1    3    3  502    0  0.46147844841E+03  0.19565946192E+03  0.10997609515E+03  0.51318789433E+03  0.46999998093E+01 0. -1.
       -5    1    3    3    0  502 -0.46147844841E+03 -0.19565946192E+03 -0.35293831044E+03  0.61305181213E+03  0.46999998093E+01 0.  1.
</event>
<event>
 5   0  0.1540772E-04  0.1100311E+04  0.7818609E-02  0.9204889E-01
       -2   -1    0    0    0  501  0.00000000000E+00  0.00000000000E+00  0.28093381035E+03  0.28093381036E+03  0.25500000920E-02 0.  1.
        2   -1    0    0  501    0  0.00000000000E+00  0.00000000000E+00 -0.10773742489E+04  0.10773742489E+04  0.25500000920E-02 0. -1.
    10030    2    1    2    0    0  0.00000000000E+00  0.00000000000E+00 -0.79644043852E+03  0.13583080592E+04  0.11003105978E+04 0.  0.
        2    1    3    3  502    0 -0.31445913445E+03  0.11103456428E+03  0.14193592707E+03  0.36243486188E+03  0.25500000920E-02 0.  1.
       -2    1    3    3    0  502  0.31445913445E+03 -0.11103456428E+03 -0.93837636559E+03  0.99587319735E+03  0.25500000920E-02 0. -1.
</event>
<event>
 5   0  0.1540772E-04  0.1100020E+04  0.7818609E-02  0.9205172E-01
        2   -1    0    0  501    0  0.00000000000E+00  0.00000000000E+00  0.13233220834E+04  0.13233220834E+04  0.25500000920E-02 0. -1.
       -2   -1    0    0    0  501  0.00000000000E+00  0.00000000000E+00 -0.22859963029E+03  0.22859963031E+03  0.25500000920E-02 0.  1.
    10030    2    1    2    0    0  0.00000000000E+00  0.00000000000E+00  0.10947224531E+04  0.15519217137E+04  0.11000198890E+04 0.  0.
        2    1    3    3  502    0  0.51081742115E+03 -0.18528527487E+03  0.42726911336E+03  0.69124812193E+03  0.25500000920E-02 0.  1.
       -2    1    3    3    0  502 -0.51081742115E+03  0.18528527487E+03  0.66745333970E+03  0.86067359173E+03  0.25500000920E-02 0. -1.
</event>
<event>
 5   0  0.1553937E-04  0.1099674E+04  0.7818609E-02  0.9205510E-01
        2   -1    0    0  501    0  0.00000000000E+00  0.00000000000E+00  0.13885724012E+04  0.13885724012E+04  0.25500000920E-02 0. -1.
       -2   -1    0    0    0  501  0.00000000000E+00  0.00000000000E+00 -0.21772051838E+03  0.21772051839E+03  0.25500000920E-02 0.  1.
    10030    2    1    2    0    0  0.00000000000E+00  0.00000000000E+00  0.11708518829E+04  0.16062929196E+04  0.10996739572E+04 0.  0.
        1    1    3    3  502    0  0.10460045060E+03 -0.85644457416E+02  0.13639176269E+04  0.13706011529E+04  0.50400001928E-02 0. -1.
       -1    1    3    3    0  502 -0.10460045060E+03  0.85644457416E+02 -0.19306574404E+03  0.23569176672E+03  0.50400001928E-02 0.  1.
</event>
<event>
 5   0  0.8921459E-05  0.1100733E+04  0.7818609E-02  0.9204477E-01
        1   -1    0    0  501    0  0.00000000000E+00  0.00000000000E+00  0.54325201256E+03  0.54325201259E+03  0.50400001928E-02 0. -1.
       -1   -1    0    0    0  501  0.00000000000E+00  0.00000000000E+00 -0.55757462082E+03  0.55757462084E+03  0.50400001928E-02 0.  1.
    10030    2    1    2    0    0  0.00000000000E+00  0.00000000000E+00 -0.14322608259E+02  0.11008266334E+04  0.11007334554E+04 0.  0.
        3    1    3    3  502    0 -0.36487773754E+03 -0.36655871689E+03 -0.19533266862E+03  0.55286157211E+03  0.10100000352E+00 0.  1.
       -3    1    3    3    0  502  0.36487773754E+03  0.36655871689E+03  0.18101006036E+03  0.54796506133E+03  0.10100000352E+00 0. -1.
</event>
<event>
 5   0  0.8921459E-05  0.1100755E+04  0.7818609E-02  0.9204456E-01
       -1   -1    0    0    0  501  0.00000000000E+00  0.00000000000E+00  0.11306176848E+04  0.11306176848E+04  0.50400001928E-02 0. -1.
        1   -1    0    0  501    0  0.00000000000E+00  0.00000000000E+00 -0.26792042418E+03  0.26792042423E+03  0.50400001928E-02 0.  1.
    10030    2    1    2    0    0  0.00000000000E+00  0.00000000000E+00  0.86269726064E+03  0.13985381091E+04  0.11007553220E+04 0.  0.
        3    1    3    3  502    0  0.51960838975E+03  0.21509305517E+02  0.66025505059E+03  0.84047145754E+03  0.10100000352E+00 0. -1.
       -3    1    3    3    0  502 -0.51960838975E+03 -0.21509305517E+02  0.20244221006E+03  0.55806665152E+03  0.10100000352E+00 0.  1.
</event>
<event>
 5   0  0.6010125E-05  0.1099972E+04  0.7818609E-02  0.9205219E-01
       -3   -1    0    0    0  501  0.00000000000E+00  0.00000000000E+00  0.36973465161E+03  0.36973466540E+03  0.10100000352E+00 0. -1.
        3   -1    0    0  501    0  0.00000000000E+00  0.00000000000E+00 -0.81811261889E+03  0.81811262512E+03  0.10100000352E+00 0.  1.
    10030    2    1    2    0    0  0.00000000000E+00  0.00000000000E+00 -0.44837796728E+03  0.11878472905E+04  0.10999719924E+04 0.  0.
        2    1    3    3  502    0 -0.49763725025E+03 -0.21478960625E+03 -0.12342207152E+03  0.55588705286E+03  0.25500000920E-02 0.  1.
       -2    1    3    3    0  502  0.49763725025E+03  0.21478960625E+03 -0.32495589576E+03  0.63196023766E+03  0.25500000920E-02 0. -1.
</event>
<event>
 5   0  0.1464205E-04  0.1100143E+04  0.7818609E-02  0.9205052E-01
        2   -1    0    0  501    0  0.00000000000E+00  0.00000000000E+00  0.15759505938E+03  0.15759505940E+03  0.25500000920E-02 0. -1.
       -2   -1    0    0    0  501  0.00000000000E+00  0.00000000000E+00 -0.19199759183E+04  0.19199759183E+04  0.25500000920E-02 0.  1.
    10030    2    1    2    0    0  0.00000000000E+00  0.00000000000E+00 -0.17623808589E+04  0.20775709777E+04  0.11001431159E+04 0.  0.
        3    1    3    3  502    0  0.13946650880E+02  0.20106044388E+03  0.85357202875E+02  0.21887364722E+03  0.10100000352E+00 0. -1.
       -3    1    3    3    0  502 -0.13946650880E+02 -0.20106044388E+03 -0.18477380618E+04  0.18586973305E+04  0.10100000352E+00 0.  1.
</event>
<event>
 5   0  0.9016738E-05  0.1100049E+04  0.7818609E-02  0.9205144E-01
        1   -1    0    0  501    0  0.00000000000E+00  0.00000000000E+00  0.12755151341E+04  0.12755151341E+04  0.50400001928E-02 0.  1.
       -1   -1    0    0    0  501  0.00000000000E+00  0.00000000000E+00 -0.23718029992E+03  0.23718029998E+03  0.50400001928E-02 0. -1.
    10030    2    1    2    0    0  0.00000000000E+00  0.00000000000E+00  0.10383348341E+04  0.15126954340E+04  0.11000492027E+04 0.  0.
        4    1    3    3  502    0  0.33609715227E+03  0.33315589673E+03  0.90462035488E+03  0.10209278851E+04  0.12699999809E+01 0.  1.
       -4    1    3    3    0  502 -0.33609715227E+03 -0.33315589673E+03  0.13371447925E+03  0.49176754890E+03  0.12699999809E+01 0. -1.
</event>
<event>
 5   0  0.1540772E-04  0.1102134E+04  0.7818609E-02  0.9203114E-01
       -2   -1    0    0    0  501  0.00000000000E+00  0.00000000000E+00  0.13247311847E+04  0.13247311847E+04  0.25500000920E-02 0. -1.
        2   -1    0    0  501    0  0.00000000000E+00  0.00000000000E+00 -0.22923503420E+03  0.22923503421E+03  0.25500000920E-02 0.  1.
    10030    2    1    2    0    0  0.00000000000E+00  0.00000000000E+00  0.10954961505E+04  0.15539662189E+04  0.11021339273E+04 0.  0.
        2    1    3    3  502    0 -0.49741657591E+03  0.13706366173E+03  0.82065883359E+03  0.96937640703E+03  0.25500000920E-02 0.  1.
       -2    1    3    3    0  502  0.49741657591E+03 -0.13706366173E+03  0.27483731687E+03  0.58458981184E+03  0.25500000920E-02 0. -1.
</event>
<event>
 5   0  0.9016738E-05  0.1099951E+04  0.7818609E-02  0.9205239E-01
        1   -1    0    0  501    0  0.00000000000E+00  0.00000000000E+00  0.12226765276E+04  0.12226765276E+04  0.50400001928E-02 0.  1.
       -1   -1    0    0    0  501  0.00000000000E+00  0.00000000000E+00 -0.24738606109E+03  0.24738606114E+03  0.50400001928E-02 0. -1.
    10030    2    1    2    0    0  0.00000000000E+00  0.00000000000E+00  0.97529046651E+03  0.14700625887E+04  0.10999511447E+04 0.  0.
        4    1    3    3  502    0  0.23376839113E+02  0.48981133778E+03  0.82045259482E+03  0.95582723150E+03  0.12699999809E+01 0.  1.
       -4    1    3    3    0  502 -0.23376839113E+02 -0.48981133778E+03  0.15483787169E+03  0.51423535724E+03  0.12699999809E+01 0. -1.
</event>
<event>
 5   0  0.8657442E-05  0.1100080E+04  0.7818609E-02  0.9205114E-01
       -1   -1    0    0    0  501  0.00000000000E+00  0.00000000000E+00  0.38248198723E+03  0.38248198726E+03  0.50400001928E-02 0. -1.
        1   -1    0    0  501    0  0.00000000000E+00  0.00000000000E+00 -0.79100184852E+03  0.79100184854E+03  0.50400001928E-02 0.  1.
    10030    2    1    2    0    0  0.00000000000E+00  0.00000000000E+00 -0.40851986129E+03  0.11734838358E+04  0.11000799225E+04 0.  0.
        1    1    3    3  502    0 -0.49941266057E+03 -0.21650124149E+03 -0.28864709756E+03  0.61611925798E+03  0.50400001928E-02 0. -1.
       -1    1    3    3    0  502  0.49941266057E+03  0.21650124149E+03 -0.11987276374E+03  0.55736457782E+03  0.50400001928E-02 0.  1.
</event>
<event>
 5   0  0.8621738E-05  0.1099992E+04  0.7818609E-02  0.9205200E-01
        1   -1    0    0  501    0  0.00000000000E+00  0.00000000000E+00  0.65583447654E+03  0.65583447656E+03  0.50400001928E-02 0. -1.
       -1   -1    0    0    0  501  0.00000000000E+00  0.00000000000E+00 -0.46123773468E+03  0.46123773470E+03  0.50400001928E-02 0.  1.
    10030    2    1    2    0    0  0.00000000000E+00  0.00000000000E+00  0.19459674187E+03  0.11170722113E+04  0.10999920151E+04 0.  0.
        2    1    3    3  502    0  0.17397373864E+02  0.12053684051E+03 -0.44737272554E+03  0.46365305359E+03  0.25500000920E-02 0.  1.
       -2    1    3    3    0  502 -0.17397373864E+02 -0.12053684051E+03  0.64196946740E+03  0.65341915768E+03  0.25500000920E-02 0. -1.
</event>
<event>
 5   0  0.8921459E-05  0.1099987E+04  0.7818609E-02  0.9205205E-01
        1   -1    0    0  501    0  0.00000000000E+00  0.00000000000E+00  0.23161892742E+04  0.23161892742E+04  0.50400001928E-02 0. -1.
       -1   -1    0    0    0  501  0.00000000000E+00  0.00000000000E+00 -0.13059935336E+03  0.13059935346E+03  0.50400001928E-02 0.  1.
    10030    2    1    2    0    0  0.00000000000E+00  0.00000000000E+00  0.21855899208E+04  0.24467886277E+04  0.10999869483E+04 0.  0.
        3    1    3    3  502    0  0.14211217672E+03  0.48955402461E+03  0.15520838405E+04  0.16336533512E+04  0.10100000352E+00 0. -1.
       -3    1    3    3    0  502 -0.14211217672E+03 -0.48955402461E+03  0.63350608035E+03  0.81313527646E+03  0.10100000352E+00 0.  1.
</event>
<event>
 5   0  0.1574101E-04  0.1100190E+04  0.7818609E-02  0.9205007E-01
       -2   -1    0    0    0  501  0.00000000000E+00  0.00000000000E+00  0.55543108309E+03  0.55543108310E+03  0.25500000920E-02 0.  1.
        2   -1    0    0  501    0  0.00000000000E+00  0.00000000000E+00 -0.54480983444E+03  0.54480983444E+03  0.25500000920E-02 0. -1.
    10030    2    1    2    0    0  0.00000000000E+00  0.00000000000E+00  0.10621248652E+02  0.11002409175E+04  0.11001896499E+04 0.  0.
        4    1    3    3  502    0  0.10607040116E+03 -0.23808219343E+03  0.48975929428E+03  0.55479711613E+03  0.12699999809E+01 0.  1.
       -4    1    3    3    0  502 -0.10607040116E+03  0.23808219343E+03 -0.47913804563E+03  0.54544380141E+03  0.12699999809E+01 0. -1.
</event>
<event>
 5   0  0.1574101E-04  0.1100090E+04  0.7818609E-02  0.9205105E-01
       -2   -1    0    0    0  501  0.00000000000E+00  0.00000000000E+00  0.35536987316E+03  0.35536987317E+03  0.25500000920E-02 0.  1.
        2   -1    0    0  501    0  0.00000000000E+00  0.00000000000E+00 -0.85136435544E+03  0.85136435544E+03  0.25500000920E-02 0. -1.
    10030    2    1    2    0    0  0.00000000000E+00  0.00000000000E+00 -0.49599448228E+03  0.12067342286E+04  0.11000895291E+04 0.  0.
        4    1    3    3  502    0  0.22926191012E+03  0.49637124895E+03 -0.31383376655E+03  0.63042738372E+03  0.12699999809E+01 0. -1.
       -4    1    3    3    0  502 -0.22926191012E+03 -0.49637124895E+03 -0.18216071572E+03  0.57630684489E+03  0.12699999809E+01 0.  1.
</event>
<event>
 5   0  0.8621738E-05  0.1095237E+04  0.7818609E-02  0.9209846E-01
       -1   -1    0    0    0  501  0.00000000000E+00  0.00000000000E+00  0.28872499077E+03  0.28872499081E+03  0.50400001928E-02 0. -1.
        1   -1    0    0  501    0  0.00000000000E+00  0.00000000000E+00 -0.10386568236E+04  0.10386568236E+04  0.50400001928E-02 0.  1.
    10030    2    1    2    0    0  0.00000000000E+00  0.00000000000E+00 -0.74993183279E+03  0.13273818144E+04  0.10952372927E+04 0.  0.
        2    1    3    3  502    0  0.15091737881E+03  0.43331361539E+03 -0.12694931981E+02  0.45901841555E+03  0.25500000920E-02 0.  1.
       -2    1    3    3    0  502 -0.15091737881E+03 -0.43331361539E+03 -0.73723690080E+03  0.86836339883E+03  0.25500000920E-02 0. -1.
</event>
<event>
 5   0  0.1574101E-04  0.1102310E+04  0.7818609E-02  0.9202943E-01
       -2   -1    0    0    0  501  0.00000000000E+00  0.00000000000E+00  0.20016885422E+03  0.20016885424E+03  0.25500000920E-02 0.  1.
        2   -1    0    0  501    0  0.00000000000E+00  0.00000000000E+00 -0.15175775460E+04  0.15175775460E+04  0.25500000920E-02 0. -1.
    10030    2    1    2    0    0  0.00000000000E+00  0.00000000000E+00 -0.13174086918E+04  0.17177464003E+04  0.11023098631E+04 0.  0.
        4    1    3    3  502    0 -0.88385793282E+02 -0.18006951676E+03  0.14126420032E+03  0.24534519868E+03  0.12699999809E+01 0.  1.
       -4    1    3    3    0  502  0.88385793282E+02  0.18006951676E+03 -0.14586728921E+04  0.14724012016E+04  0.12699999809E+01 0. -1.
</event>
<event>
 5   0  0.1553937E-04  0.1100188E+04  0.7818609E-02  0.9205008E-01
       -2   -1    0    0    0  501  0.00000000000E+00  0.00000000000E+00  0.11718289730E+04  0.11718289730E+04  0.25500000920E-02 0. -1.
        2   -1    0    0  501    0  0.00000000000E+00  0.00000000000E+00 -0.25823182837E+03  0.25823182838E+03  0.25500000920E-02 0.  1.
    10030    2    1    2    0    0  0.00000000000E+00  0.00000000000E+00  0.91359714459E+03  0.14300608013E+04  0.11001882352E+04 0.  0.
        1    1    3    3  502    0 -0.18992808984E+03  0.50698006516E+03  0.33009272010E+03  0.63408411876E+03  0.50400001928E-02 0. -1.
       -1    1    3    3    0  502  0.18992808984E+03 -0.50698006516E+03  0.58350442449E+03  0.79597668258E+03  0.50400001928E-02 0.  1.
</event>
<event>
 5   0  0.6010125E-05  0.1099210E+04  0.7818609E-02  0.9205962E-01
       -3   -1    0    0    0  501  0.00000000000E+00  0.00000000000E+00  0.67089988992E+03  0.67089989753E+03  0.10100000352E+00 0.  1.
        3   -1    0    0  501    0  0.00000000000E+00  0.00000000000E+00 -0.45023975406E+03  0.45023976539E+03  0.10100000352E+00 0. -1.
    10030    2    1    2    0    0  0.00000000000E+00  0.00000000000E+00  0.22066013586E+03  0.11211396629E+04  0.10992102839E+04 0.  0.
        3    1    3    3  502    0 -0.43362506094E+02 -0.54022321214E+03  0.17160117130E+02  0.54223233553E+03  0.10100000352E+00 0. -1.
       -3    1    3    3    0  502  0.43362506094E+02  0.54022321214E+03  0.20350001873E+03  0.57890732738E+03  0.10100000352E+00 0.  1.
</event>
<event>
 5   0  0.1574101E-04  0.1099880E+04  0.7818609E-02  0.9205309E-01
       -2   -1    0    0    0  501  0.00000000000E+00  0.00000000000E+00  0.37484648502E+03  0.37484648503E+03  0.25500000920E-02 0.  1.
        2   -1    0    0  501    0  0.00000000000E+00  0.00000000000E+00 -0.80682048877E+03  0.80682048877E+03  0.25500000920E-02 0. -1.
    10030    2    1    2    0    0  0.00000000000E+00  0.00000000000E+00 -0.43197400375E+03  0.11816669738E+04  0.10998796739E+04 0.  0.
        4    1    3    3  502    0 -0.30949514164E+03 -0.44124419565E+03 -0.33342459256E+03  0.63376435267E+03  0.12699999809E+01 0. -1.
       -4    1    3    3    0  502  0.30949514164E+03  0.44124419565E+03 -0.98549411194E+02  0.54790262113E+03  0.12699999809E+01 0.  1.
</event>
<event>
 5   0  0.8921459E-05  0.1099771E+04  0.7818609E-02  0.9205415E-01
        1   -1    0    0  501    0  0.00000000000E+00  0.00000000000E+00  0.51895156117E+03  0.51895156120E+03  0.50400001928E-02 0.  1.
       -1   -1    0    0    0  501  0.00000000000E+00  0.00000000000E+00 -0.58266310569E+03  0.58266310571E+03  0.50400001928E-02 0. -1.
    10030    2    1    2    0    0  0.00000000000E+00  0.00000000000E+00 -0.63711544511E+02  0.11016146669E+04  0.10997707549E+04 0.  0.
        3    1    3    3  502    0  0.36295842956E+03 -0.24200912883E+02  0.38120610123E+03  0.52691802739E+03  0.10100000352E+00 0.  1.
       -3    1    3    3    0  502 -0.36295842956E+03  0.24200912883E+02 -0.44491764574E+03  0.57469663951E+03  0.10100000352E+00 0. -1.
</event>
<event>
 5   0  0.1503277E-04  0.1099609E+04  0.7818609E-02  0.9205573E-01
        2   -1    0    0  501    0  0.00000000000E+00  0.00000000000E+00  0.13039128229E+04  0.13039128229E+04  0.25500000920E-02 0. -1.
       -2   -1    0    0    0  501  0.00000000000E+00  0.00000000000E+00 -0.23182895800E+03  0.23182895801E+03  0.25500000920E-02 0.  1.
    10030    2    1    2    0    0  0.00000000000E+00  0.00000000000E+00  0.10720838649E+04  0.15357417809E+04  0.10996085686E+04 0.  0.
        5    1    3    3  502    0 -0.31350123623E+03  0.34682286905E+03  0.13200037533E+03  0.48581407627E+03  0.46999998093E+01 0.  1.
       -5    1    3    3    0  502  0.31350123623E+03 -0.34682286905E+03  0.94008348952E+03  0.10499277046E+04  0.46999998093E+01 0. -1.
</event>
<event>
 5   0  0.8921459E-05  0.1100318E+04  0.7818609E-02  0.9204882E-01
       -1   -1    0    0    0  501  0.00000000000E+00  0.00000000000E+00  0.31113924232E+03  0.31113924236E+03  0.50400001928E-02 0. -1.
        1   -1    0    0  501    0  0.00000000000E+00  0.00000000000E+00 -0.97279611826E+03  0.97279611827E+03  0.50400001928E-02 0.  1.
    10030    2    1    2    0    0  0.00000000000E+00  0.00000000000E+00 -0.66165687594E+03  0.12839353606E+04  0.11003182216E+04 0.  0.
        3    1    3    3  502    0 -0.15244374022E+02 -0.42981082089E+03  0.69505927153E+02  0.43566135565E+03  0.10100000352E+00 0. -1.
       -3    1    3    3    0  502  0.15244374022E+02  0.42981082089E+03 -0.73116280310E+03  0.84827400498E+03  0.10100000352E+00 0.  1.
</event>
<event>
 5   0  0.8921459E-05  0.1100142E+04  0.7818609E-02  0.9205053E-01
       -1   -1    0    0    0  501  0.00000000000E+00  0.00000000000E+00  0.14839153776E+04  0.14839153776E+04  0.50400001928E-02 0.  1.
        1   -1    0    0  501    0  0.00000000000E+00  0.00000000000E+00 -0.20390529454E+03  0.20390529461E+03  0.50400001928E-02 0. -1.
    10030    2    1    2    0    0  0.00000000000E+00  0.00000000000E+00  0.12800100831E+04  0.16878206722E+04  0.11001421766E+04 0.  0.
        3    1    3    3  502    0 -0.50029543032E+03 -0.22861471590E+03  0.63349856638E+03  0.83897595301E+03  0.10100000352E+00 0. -1.
       -3    1    3    3    0  502  0.50029543032E+03  0.22861471590E+03  0.64651151667E+03  0.84884471920E+03  0.10100000352E+00 0.  1.
</event>
<event>
 5   0  0.1464205E-04  0.1099780E+04  0.7818609E-02  0.9205406E-01
        2   -1    0    0  501    0  0.00000000000E+00  0.00000000000E+00  0.60276022557E+03  0.60276022558E+03  0.25500000920E-02 0.  1.
       -2   -1    0    0    0  501  0.00000000000E+00  0.00000000000E+00 -0.50165731204E+03  0.50165731205E+03  0.25500000920E-02 0. -1.
    10030    2    1    2    0    0  0.00000000000E+00  0.00000000000E+00  0.10110291353E+03  0.11044175376E+04  0.10997801136E+04 0.  0.
        3    1    3    3  502    0 -0.13226743122E+01  0.52373019591E+03  0.21884090611E+03  0.56761467561E+03  0.10100000352E+00 0.  1.
       -3    1    3    3    0  502  0.13226743122E+01 -0.52373019591E+03 -0.11773799258E+03  0.53680286202E+03  0.10100000352E+00 0. -1.
</event>
<event>
 5   0  0.8657442E-05  0.1100577E+04  0.7818609E-02  0.9204629E-01
        1   -1    0    0  501    0  0.00000000000E+00  0.00000000000E+00  0.25482614142E+03  0.25482614147E+03  0.50400001928E-02 0.  1.
       -1   -1    0    0    0  501  0.00000000000E+00  0.00000000000E+00 -0.11883306001E+04  0.11883306001E+04  0.50400001928E-02 0. -1.
    10030    2    1    2    0    0  0.00000000000E+00  0.00000000000E+00 -0.93350445868E+03  0.14431567416E+04  0.11005774877E+04 0.  0.
        1    1    3    3  502    0  0.52954323422E+03  0.13781320169E+03 -0.54331510409E+03  0.77110298782E+03  0.50400001928E-02 0. -1.
       -1    1    3    3    0  502 -0.52954323422E+03 -0.13781320169E+03 -0.39018935459E+03  0.67205375375E+03  0.50400001928E-02 0.  1.
</event>
<event>
 5   0  0.9016738E-05  0.1100044E+04  0.7818609E-02  0.9205149E-01
       -1   -1    0    0    0  501  0.00000000000E+00  0.00000000000E+00  0.34651186444E+03  0.34651186448E+03  0.50400001928E-02 0.  1.
        1   -1    0    0  501    0  0.00000000000E+00  0.00000000000E+00 -0.87305631283E+03  0.87305631284E+03  0.50400001928E-02 0. -1.
    10030    2    1    2    0    0  0.00000000000E+00  0.00000000000E+00 -0.52654444839E+03  0.12195681773E+04  0.11000443096E+04 0.  0.
        4    1    3    3  502    0 -0.48957089923E+03 -0.19876690020E+03 -0.93917211125E+02  0.53666563281E+03  0.12699999809E+01 0.  1.
       -4    1    3    3    0  502  0.48957089923E+03  0.19876690020E+03 -0.43262723726E+03  0.68290254452E+03  0.12699999809E+01 0. -1.
</event>
<event>
 5   0  0.9346836E-05  0.1099968E+04  0.7818609E-02  0.9205223E-01
        1   -1    0    0  501    0  0.00000000000E+00  0.00000000000E+00  0.29476791041E+03  0.29476791045E+03  0.50400001928E-02 0. -1.
       -1   -1    0    0    0  501  0.00000000000E+00  0.00000000000E+00 -0.10261711066E+04  0.10261711066E+04  0.50400001928E-02 0.  1.
    10030    2    1    2    0    0  0.00000000000E+00  0.00000000000E+00 -0.73140319617E+03  0.13209390170E+04  0.10999678411E+04 0.  0.
        5    1    3    3  502    0  0.20763879055E+03  0.58114012100E+02  0.24186874293E+03  0.32405814995E+03  0.46999998093E+01 0. -1.
       -5    1    3    3    0  502 -0.20763879055E+03 -0.58114012100E+02 -0.97327193910E+03  0.99688086710E+03  0.46999998093E+01 0.  1.
</event>
<event>
 5   0  0.9016738E-05  0.1099924E+04  0.7818609E-02  0.9205266E-01
       -1   -1    0    0    0  501  0.00000000000E+00  0.00000000000E+00  0.32785164447E+03  0.32785164451E+03  0.50400001928E-02 0.  1.
        1   -1    0    0  501    0  0.00000000000E+00  0.00000000000E+00 -0.92254544653E+03  0.92254544654E+03  0.50400001928E-02 0. -1.
    10030    2    1    2    0    0  0.00000000000E+00  0.00000000000E+00 -0.59469380206E+03  0.12503970911E+04  0.10999237097E+04 0.  0.
        4    1    3    3  502    0 -0.42186679878E+03  0.32843168363E+03 -0.44389079929E+03  0.69489540315E+03  0.12699999809E+01 0.  1.
       -4    1    3    3    0  502  0.42186679878E+03 -0.32843168363E+03 -0.15080300277E+03  0.55550168791E+03  0.12699999809E+01 0. -1.
</event>
<event>
 5   0  0.8657442E-05  0.1100391E+04  0.7818609E-02  0.9204811E-01
       -1   -1    0    0    0  501  0.00000000000E+00  0.00000000000E+00  0.69695896010E+03  0.69695896012E+03  0.50400001928E-02 0.  1.
        1   -1    0    0  501    0  0.00000000000E+00  0.00000000000E+00 -0.43433728851E+03  0.43433728854E+03  0.50400001928E-02 0. -1.
    10030    2    1    2    0    0  0.00000000000E+00  0.00000000000E+00  0.26262167159E+03  0.11312962487E+04  0.11003913212E+04 0.  0.
        1    1    3    3  502    0 -0.51060378744E+02 -0.25875573626E+03  0.62773192931E+03  0.68088844051E+03  0.50400001928E-02 0.  1.
       -1    1    3    3    0  502  0.51060378744E+02  0.25875573626E+03 -0.36511025772E+03  0.45040780815E+03  0.50400001928E-02 0. -1.
</event>
<event>
 5   0  0.1574101E-04  0.1099944E+04  0.7818609E-02  0.9205247E-01
       -2   -1    0    0    0  501  0.00000000000E+00  0.00000000000E+00  0.14204389436E+04  0.14204389436E+04  0.25500000920E-02 0.  1.
        2   -1    0    0  501    0  0.00000000000E+00  0.00000000000E+00 -0.21294050573E+03  0.21294050574E+03  0.25500000920E-02 0. -1.
    10030    2    1    2    0    0  0.00000000000E+00  0.00000000000E+00  0.12074984379E+04  0.16333794493E+04  0.10999436113E+04 0.  0.
        4    1    3    3  502    0  0.27209981623E+03  0.26929952190E+03  0.17409602677E+02  0.38323002186E+03  0.12699999809E+01 0. -1.
       -4    1    3    3    0  502 -0.27209981623E+03 -0.26929952190E+03  0.11900888352E+04  0.12501494275E+04  0.12699999809E+01 0.  1.
</event>
<event>
 5   0  0.9016738E-05  0.1099605E+04  0.7818609E-02  0.9205577E-01
        1   -1    0    0  501    0  0.00000000000E+00  0.00000000000E+00  0.11982211520E+04  0.11982211520E+04  0.50400001928E-02 0.  1.
       -1   -1    0    0    0  501  0.00000000000E+00  0.00000000000E+00 -0.25227619279E+03  0.25227619284E+03  0.50400001928E-02 0. -1.
    10030    2    1    2    0    0  0.00000000000E+00  0.00000000000E+00  0.94594495924E+03  0.14504973449E+04  0.10996047843E+04 0.  0.
        4    1    3    3  502    0 -0.30180658763E+03 -0.33513784647E+03  0.88776105223E+03  0.99575393106E+03  0.12699999809E+01 0.  1.
       -4    1    3    3    0  502  0.30180658763E+03  0.33513784647E+03  0.58183907012E+02  0.45474341381E+03  0.12699999809E+01 0. -1.
</event>
<event>
 5   0  0.9016738E-05  0.1100030E+04  0.7818609E-02  0.9205163E-01
       -1   -1    0    0    0  501  0.00000000000E+00  0.00000000000E+00  0.16507178564E+03  0.16507178572E+03  0.50400001928E-02 0. -1.
        1   -1    0    0  501    0  0.00000000000E+00  0.00000000000E+00 -0.18326354029E+04  0.18326354029E+04  0.50400001928E-02 0.  1.
    10030    2    1    2    0    0  0.00000000000E+00  0.00000000000E+00 -0.16675636173E+04  0.19977071886E+04  0.11000298150E+04 0.  0.
        4    1    3    3  502    0 -0.42394507541E+03 -0.34956201601E+03 -0.78960457118E+03  0.96197714200E+03  0.12699999809E+01 0. -1.
       -4    1    3    3    0  502  0.42394507541E+03  0.34956201601E+03 -0.87795904607E+03  0.10357300466E+04  0.12699999809E+01 0.  1.
</event>
<event>
 5   0  0.8921459E-05  0.1099705E+04  0.7818609E-02  0.9205479E-01
        1   -1    0    0  501    0  0.00000000000E+00  0.00000000000E+00  0.35855833188E+03  0.35855833192E+03  0.50400001928E-02 0.  1.
       -1   -1    0    0    0  501  0.00000000000E+00  0.00000000000E+00 -0.84320439230E+03  0.84320439231E+03  0.50400001928E-02 0. -1.
    10030    2    1    2    0    0  0.00000000000E+00  0.00000000000E+00 -0.48464606041E+03  0.12017627242E+04  0.10997053430E+04 0.  0.
        3    1    3    3  502    0 -0.23030665650E+03  0.16087597113E+03 -0.75885743520E+03  0.80918900838E+03  0.10100000352E+00 0. -1.
       -3    1    3    3    0  502  0.23030665650E+03 -0.16087597113E+03  0.27421137479E+03  0.39257371586E+03  0.10100000352E+00 0.  1.
</event>
<event>
 5   0  0.8921459E-05  0.1099802E+04  0.7818609E-02  0.9205385E-01
        1   -1    0    0  501    0  0.00000000000E+00  0.00000000000E+00  0.47537134717E+03  0.47537134719E+03  0.50400001928E-02 0.  1.
       -1   -1    0    0    0  501  0.00000000000E+00  0.00000000000E+00 -0.63611530245E+03  0.63611530247E+03  0.50400001928E-02 0. -1.
    10030    2    1    2    0    0  0.00000000000E+00  0.00000000000E+00 -0.16074395528E+03  0.11114866497E+04  0.10998017791E+04 0.  0.
        3    1    3    3  502    0  0.12249945951E+03  0.41333337524E+03 -0.42537909174E+03  0.60563848834E+03  0.10100000352E+00 0. -1.
       -3    1    3    3    0  502 -0.12249945951E+03 -0.41333337524E+03  0.26463513646E+03  0.50584816132E+03  0.10100000352E+00 0.  1.
</event>
<event>
 5   0  0.6010125E-05  0.1099386E+04  0.7818609E-02  0.9205791E-01
       -3   -1    0    0    0  501  0.00000000000E+00  0.00000000000E+00  0.13081739517E+04  0.13081739556E+04  0.10100000352E+00 0. -1.
        3   -1    0    0  501    0  0.00000000000E+00  0.00000000000E+00 -0.23098009880E+03  0.23098012088E+03  0.10100000352E+00 0.  1.
    10030    2    1    2    0    0  0.00000000000E+00  0.00000000000E+00  0.10771938529E+04  0.15391540765E+04  0.10993855895E+04 0.  0.
        5    1    3    3  502    0  0.46089219649E+03  0.28605668326E+03  0.66295430077E+03  0.85660990989E+03  0.46999998093E+01 0. -1.
       -5    1    3    3    0  502 -0.46089219649E+03 -0.28605668326E+03  0.41423955218E+03  0.68254416664E+03  0.46999998093E+01 0.  1.
</event>
<event>
 5   0  0.1574101E-04  0.1099748E+04  0.7818609E-02  0.9205438E-01
        2   -1    0    0  501    0  0.00000000000E+00  0.00000000000E+00  0.86662777169E+03  0.86662777170E+03  0.25500000920E-02 0.  1.
       -2   -1    0    0    0  501  0.00000000000E+00  0.00000000000E+00 -0.34889401996E+03  0.34889401997E+03  0.25500000920E-02 0. -1.
    10030    2    1    2    0    0  0.00000000000E+00  0.00000000000E+00  0.51773375173E+03  0.12155217917E+04  0.10997476930E+04 0.  0.
        4    1    3    3  502    0 -0.72620149734E+02  0.16915210164E+03  0.83155794911E+03  0.85169029304E+03  0.12699999809E+01 0.  1.
       -4    1    3    3    0  502  0.72620149734E+02 -0.16915210164E+03 -0.31382419737E+03  0.36383149863E+03  0.12699999809E+01 0. -1.
</event>
<event>
 5   0  0.8621738E-05  0.1100661E+04  0.7818609E-02  0.9204548E-01
        1   -1    0    0  501    0  0.00000000000E+00  0.00000000000E+00  0.13069385552E+04  0.13069385552E+04  0.50400001928E-02 0.  1.
       -1   -1    0    0    0  501  0.00000000000E+00  0.00000000000E+00 -0.23173517416E+03  0.23173517422E+03  0.50400001928E-02 0. -1.
    10030    2    1    2    0    0  0.00000000000E+00  0.00000000000E+00  0.10752033810E+04  0.15386737294E+04  0.11006609537E+04 0.  0.
        2    1    3    3  502    0  0.48182878168E+03  0.15515667371E+03  0.23572425748E+03  0.55838919565E+03  0.25500000920E-02 0. -1.
       -2    1    3    3    0  502 -0.48182878168E+03 -0.15515667371E+03  0.83947912354E+03  0.98028453375E+03  0.25500000920E-02 0.  1.
</event>
<event>
 5   0  0.9016738E-05  0.1100297E+04  0.7818609E-02  0.9204902E-01
       -1   -1    0    0    0  501  0.00000000000E+00  0.00000000000E+00  0.69718275220E+03  0.69718275222E+03  0.50400001928E-02 0. -1.
        1   -1    0    0  501    0  0.00000000000E+00  0.00000000000E+00 -0.43412361399E+03  0.43412361402E+03  0.50400001928E-02 0.  1.
    10030    2    1    2    0    0  0.00000000000E+00  0.00000000000E+00  0.26305913822E+03  0.11313063662E+04  0.11002972253E+04 0.  0.
        4    1    3    3  502    0 -0.71139105602E+02  0.20766772489E+02  0.69202565897E+03  0.69598358943E+03  0.12699999809E+01 0. -1.
       -4    1    3    3    0  502  0.71139105602E+02 -0.20766772489E+02 -0.42896652075E+03  0.43532277681E+03  0.12699999809E+01 0.  1.
</event>
<event>
 5   0  0.1574101E-04  0.1099978E+04  0.7818609E-02  0.9205213E-01
        2   -1    0    0  501    0  0.00000000000E+00  0.00000000000E+00  0.12938939868E+04  0.12938939868E+04  0.25500000920E-02 0. -1.
       -2   -1    0    0    0  501  0.00000000000E+00  0.00000000000E+00 -0.23378105037E+03  0.23378105038E+03  0.25500000920E-02 0.  1.
    10030    2    1    2    0    0  0.00000000000E+00  0.00000000000E+00  0.10601129364E+04  0.15276750372E+04  0.10999779912E+04 0.  0.
        4    1    3    3  502    0  0.61807132262E+02  0.49065553782E+03  0.19580474900E+03  0.53188729165E+03  0.12699999809E+01 0.  1.
       -4    1    3    3    0  502 -0.61807132262E+02 -0.49065553782E+03  0.86430818741E+03  0.99578774552E+03  0.12699999809E+01 0. -1.
</event>
<event>
 5   0  0.1503277E-04  0.1100124E+04  0.7818609E-02  0.9205071E-01
       -2   -1    0    0    0  501  0.00000000000E+00  0.00000000000E+00  0.57882819419E+03  0.57882819419E+03  0.25500000920E-02 0. -1.
        2   -1    0    0  501    0  0.00000000000E+00  0.00000000000E+00 -0.52272565697E+03  0.52272565697E+03  0.25500000920E-02 0.  1.
    10030    2    1    2    0    0  0.00000000000E+00  0.00000000000E+00  0.56102537220E+02  0.11015538512E+04  0.11001242622E+04 0.  0.
        5    1    3    3  502    0 -0.93771223874E+02 -0.45785856691E+03  0.31846048263E+03  0.56556757220E+03  0.46999998093E+01 0. -1.
       -5    1    3    3    0  502  0.93771223874E+02  0.45785856691E+03 -0.26235794541E+03  0.53598627897E+03  0.46999998093E+01 0.  1.
</event>
<event>
 5   0  0.9016738E-05  0.1099912E+04  0.7818609E-02  0.9205277E-01
       -1   -1    0    0    0  501  0.00000000000E+00  0.00000000000E+00  0.81383005544E+03  0.81383005545E+03  0.50400001928E-02 0.  1.
        1   -1    0    0  501    0  0.00000000000E+00  0.00000000000E+00 -0.37163986412E+03  0.37163986416E+03  0.50400001928E-02 0. -1.
    10030    2    1    2    0    0  0.00000000000E+00  0.00000000000E+00  0.44219019132E+03  0.11854699196E+04  0.10999121624E+04 0.  0.
        4    1    3    3  502    0  0.35373462306E+03  0.86537275240E+02  0.66525957463E+03  0.75841202397E+03  0.12699999809E+01 0.  1.
       -4    1    3    3    0  502 -0.35373462306E+03 -0.86537275240E+02 -0.22306938332E+03  0.42705789564E+03  0.12699999809E+01 0. -1.
</event>
<event>
 5   0  0.1574101E-04  0.1099988E+04  0.7818609E-02  0.9205203E-01
        2   -1    0    0  501    0  0.00000000000E+00  0.00000000000E+00  0.13624459184E+04  0.13624459184E+04  0.25500000920E-02 0. -1.
       -2   -1    0    0    0  501  0.00000000000E+00  0.00000000000E+00 -0.22202246443E+03  0.22202246445E+03  0.25500000920E-02 0.  1.
    10030    2    1    2    0    0  0.00000000000E+00  0.00000000000E+00  0.11404234540E+04  0.15844683829E+04  0.10999883644E+04 0.  0.
        4    1    3    3  502    0  0.22259209327E+03 -0.40518856899E+03  0.99937365430E+03  0.11011241212E+04  0.12699999809E+01 0. -1.
       -4    1    3    3    0  502 -0.22259209327E+03  0.40518856899E+03  0.14104979970E+03  0.48334426171E+03  0.12699999809E+01 0.  1.
</event>
<event>
 5   0  0.1464205E-04  0.1100026E+04  0.7818609E-02  0.9205167E-01
        2   -1    0    0  501    0  0.00000000000E+00  0.00000000000E+00  0.95136537898E+03  0.95136537898E+03  0.25500000920E-02 0.  1.
       -2   -1    0    0    0  501  0.00000000000E+00  0.00000000000E+00 -0.31797908848E+03  0.31797908849E+03  0.25500000920E-02 0. -1.
    10030    2    1    2    0    0  0.00000000000E+00  0.00000000000E+00  0.63338629050E+03  0.12693444675E+04  0.11000259925E+04 0.  0.
        3    1    3    3  502    0 -0.39614579728E+03  0.37646734407E+03  0.24504644850E+03  0.59892146896E+03  0.10100000352E+00 0.  1.
       -3    1    3    3    0  502  0.39614579728E+03 -0.37646734407E+03  0.38833984200E+03  0.67042299852E+03  0.10100000352E+00 0. -1.
</event>
<event>
 5   0  0.9346836E-05  0.1099914E+04  0.7818609E-02  0.9205276E-01
        1   -1    0    0  501    0  0.00000000000E+00  0.00000000000E+00  0.72231812283E+03  0.72231812285E+03  0.50400001928E-02 0.  1.
       -1   -1    0    0    0  501  0.00000000000E+00  0.00000000000E+00 -0.41872482730E+03  0.41872482733E+03  0.50400001928E-02 0. -1.
    10030    2    1    2    0    0  0.00000000000E+00  0.00000000000E+00  0.30359329553E+03  0.11410429502E+04  0.10999136898E+04 0.  0.
        5    1    3    3  502    0 -0.45868697359E+03 -0.15822300024E+03 -0.11673029252E+03  0.49907545395E+03  0.46999998093E+01 0. -1.
       -5    1    3    3    0  502  0.45868697359E+03  0.15822300024E+03  0.42032358805E+03  0.64196749623E+03  0.46999998093E+01 0.  1.
</event>
<event>
 5   0  0.1540772E-04  0.1099445E+04  0.7818609E-02  0.9205733E-01
       -2   -1    0    0    0  501  0.00000000000E+00  0.00000000000E+00  0.34923225492E+03  0.34923225493E+03  0.25500000920E-02 0.  1.
        2   -1    0    0  501    0  0.00000000000E+00  0.00000000000E+00 -0.86531120210E+03  0.86531120211E+03  0.25500000920E-02 0. -1.
    10030    2    1    2    0    0  0.00000000000E+00  0.00000000000E+00 -0.51607894718E+03  0.12145434570E+04  0.10994445549E+04 0.  0.
        2    1    3    3  502    0 -0.26454934188E+03 -0.29597943233E+03  0.16203905627E+03  0.42877364007E+03  0.25500000920E-02 0.  1.
       -2    1    3    3    0  502  0.26454934188E+03  0.29597943233E+03 -0.67811800345E+03  0.78576981697E+03  0.25500000920E-02 0. -1.
</event>
<event>
 5   0  0.9346836E-05  0.1100366E+04  0.7818609E-02  0.9204835E-01
        1   -1    0    0  501    0  0.00000000000E+00  0.00000000000E+00  0.11109321899E+04  0.11109321899E+04  0.50400001928E-02 0.  1.
       -1   -1    0    0    0  501  0.00000000000E+00  0.00000000000E+00 -0.27247531049E+03  0.27247531054E+03  0.50400001928E-02 0. -1.
    10030    2    1    2    0    0  0.00000000000E+00  0.00000000000E+00  0.83845687942E+03  0.13834075005E+04  0.11003664724E+04 0.  0.
        5    1    3    3  502    0  0.26152994645E+03 -0.39421425724E+03  0.66137014935E+02  0.47770177752E+03  0.46999998093E+01 0. -1.
       -5    1    3    3    0  502 -0.26152994645E+03  0.39421425724E+03  0.77231986449E+03  0.90570572295E+03  0.46999998093E+01 0.  1.
</event>
<event>
 5   0  0.1540772E-04  0.1099631E+04  0.7818609E-02  0.9205551E-01
       -2   -1    0    0    0  501  0.00000000000E+00  0.00000000000E+00  0.47977529544E+03  0.47977529545E+03  0.25500000920E-02 0.  1.
        2   -1    0    0  501    0  0.00000000000E+00  0.00000000000E+00 -0.63008091947E+03  0.63008091948E+03  0.25500000920E-02 0. -1.
    10030    2    1    2    0    0  0.00000000000E+00  0.00000000000E+00 -0.15030562403E+03  0.11098562149E+04  0.10996313188E+04 0.  0.
        2    1    3    3  502    0 -0.33886246945E+03 -0.15816054138E+02  0.36155903249E+03  0.49578508927E+03  0.25500000920E-02 0.  1.
       -2    1    3    3    0  502  0.33886246945E+03  0.15816054138E+02 -0.51186465651E+03  0.61407112565E+03  0.25500000920E-02 0. -1.
</event>
<event>
 5   0  0.8921459E-05  0.1100291E+04  0.7818609E-02  0.9204908E-01
        1   -1    0    0  501    0  0.00000000000E+00  0.00000000000E+00  0.61901336614E+03  0.61901336616E+03  0.50400001928E-02 0.  1.
       -1   -1    0    0    0  501  0.00000000000E+00  0.00000000000E+00 -0.48893972225E+03  0.48893972228E+03  0.50400001928E-02 0. -1.
    10030    2    1    2    0    0  0.00000000000E+00  0.00000000000E+00  0.13007364389E+03  0.11079530884E+04  0.11002912766E+04 0.  0.
        3    1    3    3  502    0 -0.59021105875E+02 -0.12695805209E+03  0.60077390332E+03  0.61687205403E+03  0.10100000352E+00 0.  1.
       -3    1    3    3    0  502  0.59021105875E+02  0.12695805209E+03 -0.47070025943E+03  0.49108103441E+03  0.10100000352E+00 0. -1.
</event>
<event>
 5   0  0.1464205E-04  0.1094003E+04  0.7818609E-02  0.9211057E-01
        2   -1    0    0  501    0  0.00000000000E+00  0.00000000000E+00  0.51512737165E+03  0.51512737166E+03  0.25500000920E-02 0.  1.
       -2   -1    0    0    0  501  0.00000000000E+00  0.00000000000E+00 -0.58084760775E+03  0.58084760776E+03  0.25500000920E-02 0. -1.
    10030    2    1    2    0    0  0.00000000000E+00  0.00000000000E+00 -0.65720236105E+02  0.10959749794E+04  0.10940027450E+04 0.  0.
        3    1    3    3  502    0  0.20659990970E+03  0.23547359014E+03  0.41636678351E+03  0.52104955902E+03  0.10100000352E+00 0.  1.
       -3    1    3    3    0  502 -0.20659990970E+03 -0.23547359014E+03 -0.48208701962E+03  0.57492542040E+03  0.10100000352E+00 0. -1.
</event>
<event>
 5   0  0.8621738E-05  0.1098098E+04  0.7818609E-02  0.9207047E-01
        1   -1    0    0  501    0  0.00000000000E+00  0.00000000000E+00  0.72420940840E+03  0.72420940842E+03  0.50400001928E-02 0. -1.
       -1   -1    0    0    0  501  0.00000000000E+00  0.00000000000E+00 -0.41625400535E+03  0.41625400538E+03  0.50400001928E-02 0.  1.
    10030    2    1    2    0    0  0.00000000000E+00  0.00000000000E+00  0.30795540305E+03  0.11404634138E+04  0.10980984783E+04 0.  0.
        2    1    3    3  502    0 -0.40626411067E+03 -0.20740525773E+03  0.47136144006E+03  0.65593374340E+03  0.25500000920E-02 0. -1.
       -2    1    3    3    0  502  0.40626411067E+03  0.20740525773E+03 -0.16340603701E+03  0.48452967039E+03  0.25500000920E-02 0.  1.
</event>
<event>
 5   0  0.8657442E-05  0.1101276E+04  0.7818609E-02  0.9203949E-01
        1   -1    0    0  501    0  0.00000000000E+00  0.00000000000E+00  0.13810617143E+04  0.13810617143E+04  0.50400001928E-02 0. -1.
       -1   -1    0    0    0  501  0.00000000000E+00  0.00000000000E+00 -0.21954293582E+03  0.21954293588E+03  0.50400001928E-02 0.  1.
    10030    2    1    2    0    0  0.00000000000E+00  0.00000000000E+00  0.11615187785E+04  0.16006046502E+04  0.11012762476E+04 0.  0.
        1    1    3    3  502    0 -0.19066039464E+03 -0.14380277612E+03 -0.14035951514E+03  0.27700436462E+03  0.50400001928E-02 0.  1.
       -1    1    3    3    0  502  0.19066039464E+03  0.14380277612E+03  0.13018782936E+04  0.13236002856E+04  0.50400001928E-02 0. -1.
</event>
<event>
 5   0  0.1540772E-04  0.1100213E+04  0.7818609E-02  0.9204984E-01
       -2   -1    0    0    0  501  0.00000000000E+00  0.00000000000E+00  0.26417607017E+03  0.26417607018E+03  0.25500000920E-02 0.  1.
        2   -1    0    0  501    0  0.00000000000E+00  0.00000000000E+00 -0.11455141505E+04  0.11455141505E+04  0.25500000920E-02 0. -1.
    10030    2    1    2    0    0  0.00000000000E+00  0.00000000000E+00 -0.88133808034E+03  0.14096902207E+04  0.11002134822E+04 0.  0.
        2    1    3    3  502    0  0.37443982955E+02 -0.54743442406E+03 -0.49080205677E+03  0.73618826359E+03  0.25500000920E-02 0. -1.
       -2    1    3    3    0  502 -0.37443982955E+02  0.54743442406E+03 -0.39053602358E+03  0.67350195711E+03  0.25500000920E-02 0.  1.
</event>
<event>
 5   0  0.8921459E-05  0.1100563E+04  0.7818609E-02  0.9204643E-01
       -1   -1    0    0    0  501  0.00000000000E+00  0.00000000000E+00  0.59954561153E+03  0.59954561156E+03  0.50400001928E-02 0.  1.
        1   -1    0    0  501    0  0.00000000000E+00  0.00000000000E+00 -0.50506545325E+03  0.50506545327E+03  0.50400001928E-02 0. -1.
    10030    2    1    2    0    0  0.00000000000E+00  0.00000000000E+00  0.94480158289E+02  0.11046110648E+04  0.11005630851E+04 0.  0.
        3    1    3    3  502    0  0.34226401363E+03  0.50927298673E+02  0.47668240127E+03  0.58903681265E+03  0.10100000352E+00 0.  1.
       -3    1    3    3    0  502 -0.34226401363E+03 -0.50927298673E+02 -0.38220224298E+03  0.51557425218E+03  0.10100000352E+00 0. -1.
</event>
<event>
 5   0  0.1574101E-04  0.1100084E+04  0.7818609E-02  0.9205110E-01
        2   -1    0    0  501    0  0.00000000000E+00  0.00000000000E+00  0.47210883042E+03  0.47210883043E+03  0.25500000920E-02 0.  1.
       -2   -1    0    0    0  501  0.00000000000E+00  0.00000000000E+00 -0.64084028640E+03  0.64084028641E+03  0.25500000920E-02 0. -1.
    10030    2    1    2    0    0  0.00000000000E+00  0.00000000000E+00 -0.16873145598E+03  0.11129491168E+04  0.11000842842E+04 0.  0.
        4    1    3    3  502    0 -0.15842722765E+03  0.34683161287E+03 -0.48542746194E+03  0.61727853344E+03  0.12699999809E+01 0. -1.
       -4    1    3    3    0  502  0.15842722765E+03 -0.34683161287E+03  0.31669600596E+03  0.49567058339E+03  0.12699999809E+01 0.  1.
</event>
<event>
 5   0  0.1464205E-04  0.1100391E+04  0.7818609E-02  0.9204811E-01
        2   -1    0    0  501    0  0.00000000000E+00  0.00000000000E+00  0.10223905531E+04  0.10223905531E+04  0.25500000920E-02 0. -1.
       -2   -1    0    0    0  501  0.00000000000E+00  0.00000000000E+00 -0.29608569659E+03  0.29608569660E+03  0.25500000920E-02 0.  1.
    10030    2    1    2    0    0  0.00000000000E+00  0.00000000000E+00  0.72630485646E+03  0.13184762497E+04  0.11003912379E+04 0.  0.
        3    1    3    3  502    0 -0.35080540804E+03  0.17473633133E+03  0.82584252774E+03  0.91411876177E+03  0.10100000352E+00 0. -1.
       -3    1    3    3    0  502  0.35080540804E+03 -0.17473633133E+03 -0.99537671278E+02  0.40435748788E+03  0.10100000352E+00 0.  1.
</event>
<event>
 5   0  0.1503277E-04  0.1099889E+04  0.7818609E-02  0.9205300E-01
       -2   -1    0    0    0  501  0.00000000000E+00  0.00000000000E+00  0.41470551348E+03  0.41470551349E+03  0.25500000920E-02 0. -1.
        2   -1    0    0  501    0  0.00000000000E+00  0.00000000000E+00 -0.72928562470E+03  0.72928562470E+03  0.25500000920E-02 0.  1.
    10030    2    1    2    0    0  0.00000000000E+00  0.00000000000E+00 -0.31458011121E+03  0.11439911382E+04  0.10998886661E+04 0.  0.
        5    1    3    3  502    0 -0.19840225912E+03  0.38891164005E+03 -0.50506372558E+03  0.66762802299E+03  0.46999998093E+01 0.  1.
       -5    1    3    3    0  502  0.19840225912E+03 -0.38891164005E+03  0.19048361436E+03  0.47636311521E+03  0.46999998093E+01 0. -1.
</event>
<event>
 5   0  0.9016738E-05  0.1098394E+04  0.7818609E-02  0.9206759E-01
       -1   -1    0    0    0  501  0.00000000000E+00  0.00000000000E+00  0.24327818536E+03  0.24327818541E+03  0.50400001928E-02 0. -1.
        1   -1    0    0  501    0  0.00000000000E+00  0.00000000000E+00 -0.12398045061E+04  0.12398045061E+04  0.50400001928E-02 0.  1.
    10030    2    1    2    0    0  0.00000000000E+00  0.00000000000E+00 -0.99652632072E+03  0.14830826915E+04  0.10983940832E+04 0.  0.
        4    1    3    3  502    0  0.12958523689E+03  0.17307096335E+03  0.18339469474E+03  0.28351564143E+03  0.12699999809E+01 0. -1.
       -4    1    3    3    0  502 -0.12958523689E+03 -0.17307096335E+03 -0.11799210155E+04  0.11995670501E+04  0.12699999809E+01 0.  1.
</event>
<event>
 5   0  0.8657442E-05  0.1099948E+04  0.7818609E-02  0.9205243E-01
        1   -1    0    0  501    0  0.00000000000E+00  0.00000000000E+00  0.27939221322E+03  0.27939221326E+03  0.50400001928E-02 0.  1.
       -1   -1    0    0    0  501  0.00000000000E+00  0.00000000000E+00 -0.10826041128E+04  0.10826041128E+04  0.50400001928E-02 0. -1.
    10030    2    1    2    0    0  0.00000000000E+00  0.00000000000E+00 -0.80321189961E+03  0.13619963261E+04  0.10999475609E+04 0.  0.
        1    1    3    3  502    0 -0.15482312170E+03 -0.21675380608E+03 -0.99740120108E+03  0.10323572867E+04  0.50400001928E-02 0. -1.
       -1    1    3    3    0  502  0.15482312170E+03  0.21675380608E+03  0.19418930147E+03  0.32963903940E+03  0.50400001928E-02 0.  1.
</event>
<event>
 5   0  0.9346836E-05  0.1100162E+04  0.7818609E-02  0.9205034E-01
        1   -1    0    0  501    0  0.00000000000E+00  0.00000000000E+00  0.12031511747E+04  0.12031511747E+04  0.50400001928E-02 0.  1.
       -1   -1    0    0    0  501  0.00000000000E+00  0.00000000000E+00 -0.25149706066E+03  0.25149706071E+03  0.50400001928E-02 0. -1.
    10030    2    1    2    0    0  0.00000000000E+00  0.00000000000E+00  0.95165411404E+03  0.14546482354E+04  0.11001617772E+04 0.  0.
        5    1    3    3  502    0 -0.72532145854E+01  0.47412141086E+03  0.84444518761E+03  0.96847998753E+03  0.46999998093E+01 0.  1.
       -5    1    3    3    0  502  0.72532145854E+01 -0.47412141086E+03  0.10720892643E+03  0.48616824789E+03  0.46999998093E+01 0. -1.
</event>
<event>
 5   0  0.1574101E-04  0.1099811E+04  0.7818609E-02  0.9205376E-01
        2   -1    0    0  501    0  0.00000000000E+00  0.00000000000E+00  0.70878236424E+03  0.70878236424E+03  0.25500000920E-02 0. -1.
       -2   -1    0    0    0  501  0.00000000000E+00  0.00000000000E+00 -0.42664181582E+03  0.42664181583E+03  0.25500000920E-02 0.  1.
    10030    2    1    2    0    0  0.00000000000E+00  0.00000000000E+00  0.28214054841E+03  0.11354241801E+04  0.10998112473E+04 0.  0.
        4    1    3    3  502    0  0.33458055941E+03  0.27077067272E+03 -0.21226001179E+03  0.47991336035E+03  0.12699999809E+01 0.  1.
       -4    1    3    3    0  502 -0.33458055941E+03 -0.27077067272E+03  0.49440056020E+03  0.65551081972E+03  0.12699999809E+01 0. -1.
</event>
<event>
 5   0  0.1553937E-04  0.1099986E+04  0.7818609E-02  0.9205205E-01
       -2   -1    0    0    0  501  0.00000000000E+00  0.00000000000E+00  0.48767433382E+03  0.48767433382E+03  0.25500000920E-02 0. -1.
        2   -1    0    0  501    0  0.00000000000E+00  0.00000000000E+00 -0.62027554801E+03  0.62027554802E+03  0.25500000920E-02 0.  1.
    10030    2    1    2    0    0  0.00000000000E+00  0.00000000000E+00 -0.13260121419E+03  0.11079498818E+04  0.10999862993E+04 0.  0.
        1    1    3    3  502    0  0.10537671174E+03 -0.10076494409E+03 -0.60045554211E+03  0.61790345801E+03  0.50400001928E-02 0.  1.
       -1    1    3    3    0  502 -0.10537671174E+03  0.10076494409E+03  0.46785432792E+03  0.49004642384E+03  0.50400001928E-02 0. -1.
</event>
<event>
 5   0  0.1503277E-04  0.1100119E+04  0.7818609E-02  0.9205076E-01
       -2   -1    0    0    0  501  0.00000000000E+00  0.00000000000E+00  0.48723991821E+03  0.48723991822E+03  0.25500000920E-02 0.  1.
        2   -1    0    0  501    0  0.00000000000E+00  0.00000000000E+00 -0.62097828709E+03  0.62097828710E+03  0.25500000920E-02 0. -1.
    10030    2    1    2    0    0  0.00000000000E+00  0.00000000000E+00 -0.13373836888E+03  0.11082182053E+04  0.11001189205E+04 0.  0.
        5    1    3    3  502    0  0.23088491166E+03  0.36657880799E+03 -0.40826756716E+03  0.59530862693E+03  0.46999998093E+01 0. -1.
       -5    1    3    3    0  502 -0.23088491166E+03 -0.36657880799E+03  0.27452919828E+03  0.51290957839E+03  0.46999998093E+01 0.  1.
</event>
<event>
 5   0  0.1574101E-04  0.1097841E+04  0.7818609E-02  0.9207299E-01
       -2   -1    0    0    0  501  0.00000000000E+00  0.00000000000E+00  0.25025596332E+03  0.25025596333E+03  0.25500000920E-02 0. -1.
        2   -1    0    0  501    0  0.00000000000E+00  0.00000000000E+00 -0.12040214845E+04  0.12040214845E+04  0.25500000920E-02 0.  1.
    10030    2    1    2    0    0  0.00000000000E+00  0.00000000000E+00 -0.95376552113E+03  0.14542774478E+04  0.10978407106E+04 0.  0.
        4    1    3    3  502    0 -0.48091993978E+03  0.39033011360E+02 -0.82359334903E+03  0.95452353660E+03  0.12699999809E+01 0.  1.
       -4    1    3    3    0  502  0.48091993978E+03 -0.39033011360E+02 -0.13017217210E+03  0.49975391119E+03  0.12699999809E+01 0. -1.
</event>
<event>
 5   0  0.1540772E-04  0.1099376E+04  0.7818609E-02  0.9205800E-01
        2   -1    0    0  501    0  0.00000000000E+00  0.00000000000E+00  0.15109126081E+04  0.15109126081E+04  0.25500000920E-02 0.  1.
       -2   -1    0    0    0  501  0.00000000000E+00  0.00000000000E+00 -0.19998305824E+03  0.19998305826E+03  0.25500000920E-02 0. -1.
    10030    2    1    2    0    0  0.00000000000E+00  0.00000000000E+00  0.13109295498E+04  0.17108956663E+04  0.10993760487E+04 0.  0.
        2    1    3    3  502    0 -0.12902235496E+03 -0.21690373938E+03  0.14154194438E+04  0.14377434410E+04  0.25500000920E-02 0.  1.
       -2    1    3    3    0  502  0.12902235496E+03  0.21690373938E+03 -0.10448989399E+03  0.27315222531E+03  0.25500000920E-02 0. -1.
</event>
<event>
 5   0  0.1503277E-04  0.1099715E+04  0.7818609E-02  0.9205469E-01
        2   -1    0    0  501    0  0.00000000000E+00  0.00000000000E+00  0.14955433279E+04  0.14955433279E+04  0.25500000920E-02 0. -1.
       -2   -1    0    0    0  501  0.00000000000E+00  0.00000000000E+00 -0.20216290133E+03  0.20216290134E+03  0.25500000920E-02 0.  1.
    10030    2    1    2    0    0  0.00000000000E+00  0.00000000000E+00  0.12933804265E+04  0.16977062292E+04  0.10997151963E+04 0.  0.
        5    1    3    3  502    0 -0.49612199544E+03 -0.12782393285E+03  0.33853405946E+03  0.61408744620E+03  0.46999998093E+01 0.  1.
       -5    1    3    3    0  502  0.49612199544E+03  0.12782393285E+03  0.95484636707E+03  0.10836187830E+04  0.46999998093E+01 0. -1.
</event>
<event>
 5   0  0.1503277E-04  0.1101065E+04  0.7818609E-02  0.9204154E-01
       -2   -1    0    0    0  501  0.00000000000E+00  0.00000000000E+00  0.27485119499E+03  0.27485119500E+03  0.25500000920E-02 0.  1.
        2   -1    0    0  501    0  0.00000000000E+00  0.00000000000E+00 -0.11027283882E+04  0.11027283882E+04  0.25500000920E-02 0. -1.
    10030    2    1    2    0    0  0.00000000000E+00  0.00000000000E+00 -0.82787719318E+03  0.13775795832E+04  0.11010653300E+04 0.  0.
        5    1    3    3  502    0  0.20624260773E+03 -0.13827706555E+03  0.20078381579E+03  0.31936310179E+03  0.46999998093E+01 0.  1.
       -5    1    3    3    0  502 -0.20624260773E+03  0.13827706555E+03 -0.10286610090E+04  0.10582164814E+04  0.46999998093E+01 0. -1.
</event>
<event>
 5   0  0.6010125E-05  0.1100323E+04  0.7818609E-02  0.9204878E-01
        4   -1    0    0  501    0  0.00000000000E+00  0.00000000000E+00  0.30149159822E+03  0.30149427308E+03  0.12699999809E+01 0.  1.
       -4   -1    0    0    0  501  0.00000000000E+00  0.00000000000E+00 -0.10039256699E+04  0.10039264732E+04  0.12699999809E+01 0. -1.
    10030    2    1    2    0    0  0.00000000000E+00  0.00000000000E+00 -0.70243407171E+03  0.13054207463E+04  0.11003225435E+04 0.  0.
        5    1    3    3  502    0 -0.18091537769E+03 -0.50301364113E+03 -0.19697505126E+03  0.56971427740E+03  0.46999998093E+01 0. -1.
       -5    1    3    3    0  502  0.18091537769E+03  0.50301364113E+03 -0.50545902045E+03  0.73570646891E+03  0.46999998093E+01 0.  1.
</event>
<event>
 5   0  0.8621738E-05  0.1099875E+04  0.7818609E-02  0.9205313E-01
        1   -1    0    0  501    0  0.00000000000E+00  0.00000000000E+00  0.22776109886E+03  0.22776109891E+03  0.50400001928E-02 0. -1.
       -1   -1    0    0    0  501  0.00000000000E+00  0.00000000000E+00 -0.13278453160E+04  0.13278453160E+04  0.50400001928E-02 0.  1.
    10030    2    1    2    0    0  0.00000000000E+00  0.00000000000E+00 -0.11000842171E+04  0.15556064149E+04  0.10998754626E+04 0.  0.
        2    1    3    3  502    0  0.27540296331E+03 -0.45406637228E+01  0.12316975119E+03  0.30172536758E+03  0.25500000920E-02 0. -1.
       -2    1    3    3    0  502 -0.27540296331E+03  0.45406637228E+01 -0.12232539683E+04  0.12538810473E+04  0.25500000920E-02 0.  1.
</event>
<event>
 5   0  0.6010125E-05  0.1099762E+04  0.7818609E-02  0.9205424E-01
       -4   -1    0    0    0  501  0.00000000000E+00  0.00000000000E+00  0.11593720101E+04  0.11593727057E+04  0.12699999809E+01 0. -1.
        4   -1    0    0  501    0  0.00000000000E+00  0.00000000000E+00 -0.26080174760E+03  0.26080483978E+03  0.12699999809E+01 0.  1.
    10030    2    1    2    0    0  0.00000000000E+00  0.00000000000E+00  0.89857026250E+03  0.14201775455E+04  0.10997616760E+04 0.  0.
        2    1    3    3  502    0  0.41491325585E+03 -0.28010110507E+03  0.74307596719E+03  0.89597518490E+03  0.25500000920E-02 0. -1.
       -2    1    3    3    0  502 -0.41491325585E+03  0.28010110507E+03  0.15549429532E+03  0.52420236057E+03  0.25500000920E-02 0.  1.
</event>
<event>
 5   0  0.8921459E-05  0.1099273E+04  0.7818609E-02  0.9205901E-01
       -1   -1    0    0    0  501  0.00000000000E+00  0.00000000000E+00  0.53164304232E+03  0.53164304235E+03  0.50400001928E-02 0.  1.
        1   -1    0    0  501    0  0.00000000000E+00  0.00000000000E+00 -0.56823875869E+03  0.56823875872E+03  0.50400001928E-02 0. -1.
    10030    2    1    2    0    0  0.00000000000E+00  0.00000000000E+00 -0.36595716372E+02  0.10998818011E+04  0.10992728187E+04 0.  0.
        3    1    3    3  502    0 -0.31419260445E+03  0.44875883032E+03 -0.63029355946E+02  0.55142922519E+03  0.10100000352E+00 0. -1.
       -3    1    3    3    0  502  0.31419260445E+03 -0.44875883032E+03  0.26433639573E+02  0.54845257587E+03  0.10100000352E+00 0.  1.
</event>
<event>
 5   0  0.1464205E-04  0.1099636E+04  0.7818609E-02  0.9205547E-01
        2   -1    0    0  501    0  0.00000000000E+00  0.00000000000E+00  0.54516986315E+03  0.54516986316E+03  0.25500000920E-02 0.  1.
       -2   -1    0    0    0  501  0.00000000000E+00  0.00000000000E+00 -0.55450571197E+03  0.55450571197E+03  0.25500000920E-02 0. -1.
    10030    2    1    2    0    0  0.00000000000E+00  0.00000000000E+00 -0.93358488130E+01  0.10996755751E+04  0.10996359454E+04 0.  0.
        3    1    3    3  502    0 -0.19597077476E+03  0.90708294904E+02  0.50098579295E+03  0.54554496997E+03  0.10100000352E+00 0.  1.
       -3    1    3    3    0  502  0.19597077476E+03 -0.90708294904E+02 -0.51032164176E+03  0.55413060516E+03  0.10100000352E+00 0. -1.
</event>
<event>
 5   0  0.8657442E-05  0.1099794E+04  0.7818609E-02  0.9205393E-01
       -1   -1    0    0    0  501  0.00000000000E+00  0.00000000000E+00  0.43829299792E+03  0.43829299795E+03  0.50400001928E-02 0. -1.
        1   -1    0    0  501    0  0.00000000000E+00  0.00000000000E+00 -0.68991912554E+03  0.68991912556E+03  0.50400001928E-02 0.  1.
    10030    2    1    2    0    0  0.00000000000E+00  0.00000000000E+00 -0.25162612762E+03  0.11282121235E+04  0.10997940205E+04 0.  0.
        1    1    3    3  502    0  0.28056767074E+03 -0.32479420414E+03  0.22683890215E+03  0.48545378818E+03  0.50400001928E-02 0. -1.
       -1    1    3    3    0  502 -0.28056767074E+03  0.32479420414E+03 -0.47846502976E+03  0.64275833533E+03  0.50400001928E-02 0.  1.
</event>
<event>
 5   0  0.8621738E-05  0.1099921E+04  0.7818609E-02  0.9205269E-01
        1   -1    0    0  501    0  0.00000000000E+00  0.00000000000E+00  0.99699150827E+03  0.99699150828E+03  0.50400001928E-02 0.  1.
       -1   -1    0    0    0  501  0.00000000000E+00  0.00000000000E+00 -0.30336905289E+03  0.30336905293E+03  0.50400001928E-02 0. -1.
    10030    2    1    2    0    0  0.00000000000E+00  0.00000000000E+00  0.69362245538E+03  0.13003605612E+04  0.10999206692E+04 0.  0.
        2    1    3    3  502    0 -0.48274623741E+02  0.44392899395E+03 -0.32707053693E+02  0.44774227222E+03  0.25500000920E-02 0. -1.
       -2    1    3    3    0  502  0.48274623741E+02 -0.44392899395E+03  0.72632950907E+03  0.85261828899E+03  0.25500000920E-02 0.  1.
</event>
<event>
 5   0  0.9346836E-05  0.1099393E+04  0.7818609E-02  0.9205784E-01
       -1   -1    0    0    0  501  0.00000000000E+00  0.00000000000E+00  0.41017103035E+03  0.41017103038E+03  0.50400001928E-02 0. -1.
        1   -1    0    0  501    0  0.00000000000E+00  0.00000000000E+00 -0.73668294500E+03  0.73668294501E+03  0.50400001928E-02 0.  1.
    10030    2    1    2    0    0  0.00000000000E+00  0.00000000000E+00 -0.32651191465E+03  0.11468539754E+04  0.10993925643E+04 0.  0.
        5    1    3    3  502    0  0.20398629417E+03 -0.42923919208E+03 -0.45138114434E+03  0.65545687859E+03  0.46999998093E+01 0.  1.
       -5    1    3    3    0  502 -0.20398629417E+03  0.42923919208E+03  0.12486922970E+03  0.49139709680E+03  0.46999998093E+01 0. -1.
</event>
<event>
 5   0  0.1540772E-04  0.1099945E+04  0.7818609E-02  0.9205246E-01
        2   -1    0    0  501    0  0.00000000000E+00  0.00000000000E+00  0.44293184315E+03  0.44293184316E+03  0.25500000920E-02 0. -1.
       -2   -1    0    0    0  501  0.00000000000E+00  0.00000000000E+00 -0.68288079174E+03  0.68288079174E+03  0.25500000920E-02 0.  1.
    10030    2    1    2    0    0  0.00000000000E+00  0.00000000000E+00 -0.23994894859E+03  0.11258126349E+04  0.10999448127E+04 0.  0.
        2    1    3    3  502    0  0.12593662218E+03  0.44982620425E+03  0.17713836137E+03  0.49958147074E+03  0.25500000920E-02 0. -1.
       -2    1    3    3    0  502 -0.12593662218E+03 -0.44982620425E+03 -0.41708730995E+03  0.62623116416E+03  0.25500000920E-02 0.  1.
</event>
<event>
 5   0  0.1574101E-04  0.1100087E+04  0.7818609E-02  0.9205107E-01
        2   -1    0    0  501    0  0.00000000000E+00  0.00000000000E+00  0.10887905703E+04  0.10887905703E+04  0.25500000920E-02 0.  1.
       -2   -1    0    0    0  501  0.00000000000E+00  0.00000000000E+00 -0.27787515580E+03  0.27787515581E+03  0.25500000920E-02 0. -1.
    10030    2    1    2    0    0  0.00000000000E+00  0.00000000000E+00  0.81091541452E+03  0.13666657261E+04  0.11000869954E+04 0.  0.
        4    1    3    3  502    0  0.23878558120E+02  0.51112926545E+03  0.65615794989E+03  0.83208664191E+03  0.12699999809E+01 0. -1.
       -4    1    3    3    0  502 -0.23878558120E+02 -0.51112926545E+03  0.15475746463E+03  0.53457908423E+03  0.12699999809E+01 0.  1.
</event>
<event>
 5   0  0.8921459E-05  0.1099855E+04  0.7818609E-02  0.9205334E-01
        1   -1    0    0  501    0  0.00000000000E+00  0.00000000000E+00  0.22566902041E+04  0.22566902041E+04  0.50400001928E-02 0.  1.
       -1   -1    0    0    0  501  0.00000000000E+00  0.00000000000E+00 -0.13401043179E+03  0.13401043188E+03  0.50400001928E-02 0. -1.
    10030    2    1    2    0    0  0.00000000000E+00  0.00000000000E+00  0.21226797723E+04  0.23907006359E+04  0.10998545882E+04 0.  0.
        3    1    3    3  502    0  0.14884890586E+03 -0.22838885095E+03  0.20994776770E+04  0.21171027349E+04  0.10100000352E+00 0.  1.
       -3    1    3    3    0  502 -0.14884890586E+03  0.22838885095E+03  0.23202095321E+02  0.27359790102E+03  0.10100000352E+00 0. -1.
</event>
<event>
 5   0  0.1540772E-04  0.1099901E+04  0.7818609E-02  0.9205289E-01
       -2   -1    0    0    0  501  0.00000000000E+00  0.00000000000E+00  0.21061763323E+03  0.21061763325E+03  0.25500000920E-02 0. -1.
        2   -1    0    0  501    0  0.00000000000E+00  0.00000000000E+00 -0.14359924429E+04  0.14359924429E+04  0.25500000920E-02 0.  1.
    10030    2    1    2    0    0  0.00000000000E+00  0.00000000000E+00 -0.12253748096E+04  0.16466100761E+04  0.10999005949E+04 0.  0.
        2    1    3    3  502    0 -0.10396594229E+03  0.18507041352E+03 -0.13721899743E+04  0.13885119016E+04  0.25500000920E-02 0.  1.
       -2    1    3    3    0  502  0.10396594229E+03 -0.18507041352E+03  0.14681516470E+03  0.25809817456E+03  0.25500000920E-02 0. -1.
</event>
<event>
 5   0  0.9346836E-05  0.1099759E+04  0.7818609E-02  0.9205427E-01
        1   -1    0    0  501    0  0.00000000000E+00  0.00000000000E+00  0.45516118451E+03  0.45516118454E+03  0.50400001928E-02 0. -1.
       -1   -1    0    0    0  501  0.00000000000E+00  0.00000000000E+00 -0.66430853751E+03  0.66430853753E+03  0.50400001928E-02 0.  1.
    10030    2    1    2    0    0  0.00000000000E+00  0.00000000000E+00 -0.20914735299E+03  0.11194697221E+04  0.10997589933E+04 0.  0.
        5    1    3    3  502    0  0.16056958599E+03 -0.42529236278E+03 -0.41945453273E+03  0.61856315830E+03  0.46999998093E+01 0.  1.
       -5    1    3    3    0  502 -0.16056958599E+03  0.42529236278E+03  0.21030717973E+03  0.50090656377E+03  0.46999998093E+01 0. -1.
</event>
<event>
 5   0  0.6010125E-05  0.1100434E+04  0.7818609E-02  0.9204769E-01
        3   -1    0    0  501    0  0.00000000000E+00  0.00000000000E+00  0.47502483070E+03  0.47502484144E+03  0.10100000352E+00 0. -1.
       -3   -1    0    0    0  501  0.00000000000E+00  0.00000000000E+00 -0.63731121770E+03  0.63731122571E+03  0.10100000352E+00 0.  1.
    10030    2    1    2    0    0  0.00000000000E+00  0.00000000000E+00 -0.16228638700E+03  0.11123360671E+04  0.11004338485E+04 0.  0.
        2    1    3    3  502    0  0.40900818931E+03  0.36789668638E+03 -0.70884883907E+02  0.55467137798E+03  0.25500000920E-02 0. -1.
       -2    1    3    3    0  502 -0.40900818931E+03 -0.36789668638E+03 -0.91401503094E+02  0.55766468917E+03  0.25500000920E-02 0.  1.
</event>
<event>
 5   0  0.9016738E-05  0.1100186E+04  0.7818609E-02  0.9205010E-01
       -1   -1    0    0    0  501  0.00000000000E+00  0.00000000000E+00  0.51102311672E+03  0.51102311675E+03  0.50400001928E-02 0.  1.
        1   -1    0    0  501    0  0.00000000000E+00  0.00000000000E+00 -0.59215021553E+03  0.59215021555E+03  0.50400001928E-02 0. -1.
    10030    2    1    2    0    0  0.00000000000E+00  0.00000000000E+00 -0.81127098811E+02  0.11031733323E+04  0.11001862547E+04 0.  0.
        4    1    3    3  502    0 -0.17408893667E+01 -0.54661984266E+03 -0.10241207412E+03  0.55613499163E+03  0.12699999809E+01 0. -1.
       -4    1    3    3    0  502  0.17408893667E+01  0.54661984266E+03  0.21284975306E+02  0.54703834067E+03  0.12699999809E+01 0.  1.
</event>
<event>
 5   0  0.8621738E-05  0.1100418E+04  0.7818609E-02  0.9204785E-01
       -1   -1    0    0    0  501  0.00000000000E+00  0.00000000000E+00  0.61660052709E+03  0.61660052711E+03  0.50400001928E-02 0.  1.
        1   -1    0    0  501    0  0.00000000000E+00  0.00000000000E+00 -0.49096597008E+03  0.49096597010E+03  0.50400001928E-02 0. -1.
    10030    2    1    2    0    0  0.00000000000E+00  0.00000000000E+00  0.12563455702E+03  0.11075664972E+04  0.11004178769E+04 0.  0.
        2    1    3    3  502    0 -0.15619747717E+03 -0.19673942116E+03  0.55551321792E+03  0.60967121222E+03  0.25500000920E-02 0.  1.
       -2    1    3    3    0  502  0.15619747717E+03  0.19673942116E+03 -0.42987866091E+03  0.49789528500E+03  0.25500000920E-02 0. -1.
</event>
<event>
 5   0  0.9346836E-05  0.1100202E+04  0.7818609E-02  0.9204995E-01
       -1   -1    0    0    0  501  0.00000000000E+00  0.00000000000E+00  0.21268214610E+03  0.21268214616E+03  0.50400001928E-02 0.  1.
        1   -1    0    0  501    0  0.00000000000E+00  0.00000000000E+00 -0.14228318049E+04  0.14228318049E+04  0.50400001928E-02 0. -1.
    10030    2    1    2    0    0  0.00000000000E+00  0.00000000000E+00 -0.12101496588E+04  0.16355139510E+04  0.11002016576E+04 0.  0.
        5    1    3    3  502    0  0.22019900919E+03 -0.55988979155E+02  0.13963965811E+03  0.26672775175E+03  0.46999998093E+01 0.  1.
       -5    1    3    3    0  502 -0.22019900919E+03  0.55988979155E+02 -0.13497893169E+04  0.13687861993E+04  0.46999998093E+01 0. -1.
</event>
<event>
 5   0  0.8657442E-05  0.1099473E+04  0.7818609E-02  0.9205706E-01
       -1   -1    0    0    0  501  0.00000000000E+00  0.00000000000E+00  0.20261477622E+03  0.20261477628E+03  0.50400001928E-02 0.  1.
        1   -1    0    0  501    0  0.00000000000E+00  0.00000000000E+00 -0.14915497788E+04  0.14915497788E+04  0.50400001928E-02 0. -1.
    10030    2    1    2    0    0  0.00000000000E+00  0.00000000000E+00 -0.12889350026E+04  0.16941645551E+04  0.10994726458E+04 0.  0.
        1    1    3    3  502    0  0.15230322663E+03  0.51466036138E+03 -0.82768724938E+03  0.98647744183E+03  0.50400001928E-02 0. -1.
       -1    1    3    3    0  502 -0.15230322663E+03 -0.51466036138E+03 -0.46124775320E+03  0.70768711326E+03  0.50400001928E-02 0.  1.
</event>
<event>
 5   0  0.1464205E-04  0.1099896E+04  0.7818609E-02  0.9205293E-01
        2   -1    0    0  501    0  0.00000000000E+00  0.00000000000E+00  0.57385864692E+03  0.57385864692E+03  0.25500000920E-02 0.  1.
       -2   -1    0    0    0  501  0.00000000000E+00  0.00000000000E+00 -0.52703396416E+03  0.52703396416E+03  0.25500000920E-02 0. -1.
    10030    2    1    2    0    0  0.00000000000E+00  0.00000000000E+00  0.46824682762E+02  0.11008926111E+04  0.10998963543E+04 0.  0.
        3    1    3    3  502    0 -0.36148720796E+02  0.47304664649E+03  0.30180655463E+03  0.56228735215E+03  0.10100000352E+00 0. -1.
       -3    1    3    3    0  502  0.36148720796E+02 -0.47304664649E+03 -0.25498187187E+03  0.53860525893E+03  0.10100000352E+00 0.  1.
</event>
<event>
 5   0  0.1464205E-04  0.1099937E+04  0.7818609E-02  0.9205254E-01
       -2   -1    0    0    0  501  0.00000000000E+00  0.00000000000E+00  0.20048643594E+03  0.20048643595E+03  0.25500000920E-02 0. -1.
        2   -1    0    0  501    0  0.00000000000E+00  0.00000000000E+00 -0.15086567043E+04  0.15086567043E+04  0.25500000920E-02 0.  1.
    10030    2    1    2    0    0  0.00000000000E+00  0.00000000000E+00 -0.13081702684E+04  0.17091431403E+04  0.10999367359E+04 0.  0.
        3    1    3    3  502    0  0.43595778133E+03 -0.11814862178E+03 -0.16654342277E+03  0.48140939521E+03  0.10100000352E+00 0. -1.
       -3    1    3    3    0  502 -0.43595778133E+03  0.11814862178E+03 -0.11416268456E+04  0.12277337451E+04  0.10100000352E+00 0.  1.
</event>
<event>
 5   0  0.9346836E-05  0.1100892E+04  0.7818609E-02  0.9204323E-01
        1   -1    0    0  501    0  0.00000000000E+00  0.00000000000E+00  0.36942706333E+03  0.36942706336E+03  0.50400001928E-02 0.  1.
       -1   -1    0    0    0  501  0.00000000000E+00  0.00000000000E+00 -0.82016458819E+03  0.82016458820E+03  0.50400001928E-02 0. -1.
    10030    2    1    2    0    0  0.00000000000E+00  0.00000000000E+00 -0.45073752486E+03  0.11895916516E+04  0.11008923567E+04 0.  0.
        5    1    3    3  502    0  0.36250396963E+03  0.29935638469E+03  0.83956714574E+02  0.47759207801E+03  0.46999998093E+01 0.  1.
       -5    1    3    3    0  502 -0.36250396963E+03 -0.29935638469E+03 -0.53469423943E+03  0.71199957355E+03  0.46999998093E+01 0. -1.
</event>
<event>
 5   0  0.8657442E-05  0.1099588E+04  0.7818609E-02  0.9205594E-01
        1   -1    0    0  501    0  0.00000000000E+00  0.00000000000E+00  0.30244717867E+03  0.30244717871E+03  0.50400001928E-02 0.  1.
       -1   -1    0    0    0  501  0.00000000000E+00  0.00000000000E+00 -0.99942508479E+03  0.99942508481E+03  0.50400001928E-02 0. -1.
    10030    2    1    2    0    0  0.00000000000E+00  0.00000000000E+00 -0.69697790613E+03  0.13018722635E+04  0.10995877359E+04 0.  0.
        1    1    3    3  502    0  0.41399610754E+03 -0.55006910278E+02 -0.77183639283E+03  0.87758187912E+03  0.50400001928E-02 0. -1.
       -1    1    3    3    0  502 -0.41399610754E+03  0.55006910278E+02  0.74858486707E+02  0.42429038440E+03  0.50400001928E-02 0.  1.
</event>
<event>
 5   0  0.8921459E-05  0.1099746E+04  0.7818609E-02  0.9205440E-01
        1   -1    0    0  501    0  0.00000000000E+00  0.00000000000E+00  0.19759295144E+03  0.19759295150E+03  0.50400001928E-02 0.  1.
       -1   -1    0    0    0  501  0.00000000000E+00  0.00000000000E+00 -0.15302172337E+04  0.15302172337E+04  0.50400001928E-02 0. -1.
    10030    2    1    2    0    0  0.00000000000E+00  0.00000000000E+00 -0.13326242823E+04  0.17278101852E+04  0.10997456790E+04 0.  0.
        3    1    3    3  502    0  0.41191161345E+03 -0.64099840491E+02 -0.12296782938E+04  0.12984177614E+04  0.10100000352E+00 0. -1.
       -3    1    3    3    0  502 -0.41191161345E+03  0.64099840491E+02 -0.10294598850E+03  0.42939242378E+03  0.10100000352E+00 0.  1.
</event>
<event>
 5   0  0.1540772E-04  0.1099939E+04  0.7818609E-02  0.9205252E-01
       -2   -1    0    0    0  501  0.00000000000E+00  0.00000000000E+00  0.70592899368E+03  0.70592899368E+03  0.25500000920E-02 0.  1.
        2   -1    0    0  501    0  0.00000000000E+00  0.00000000000E+00 -0.42846560002E+03  0.42846560003E+03  0.25500000920E-02 0. -1.
    10030    2    1    2    0    0  0.00000000000E+00  0.00000000000E+00  0.27746339366E+03  0.11343945937E+04  0.10999387071E+04 0.  0.
        2    1    3    3  502    0  0.21893398484E+03 -0.37788012636E+03 -0.20601615674E+03  0.48287486625E+03  0.25500000920E-02 0. -1.
       -2    1    3    3    0  502 -0.21893398484E+03  0.37788012636E+03  0.48347955040E+03  0.65151972746E+03  0.25500000920E-02 0.  1.
</event>
<event>
 5   0  0.1540772E-04  0.1099981E+04  0.7818609E-02  0.9205211E-01
       -2   -1    0    0    0  501  0.00000000000E+00  0.00000000000E+00  0.17415310876E+03  0.17415310878E+03  0.25500000920E-02 0.  1.
        2   -1    0    0  501    0  0.00000000000E+00  0.00000000000E+00 -0.17369162552E+04  0.17369162552E+04  0.25500000920E-02 0. -1.
    10030    2    1    2    0    0  0.00000000000E+00  0.00000000000E+00 -0.15627631465E+04  0.19110693640E+04  0.10999806644E+04 0.  0.
        2    1    3    3  502    0  0.18898916075E+03 -0.32634719824E+03 -0.14769141494E+04  0.15243014142E+04  0.25500000920E-02 0. -1.
       -2    1    3    3    0  502 -0.18898916075E+03  0.32634719824E+03 -0.85848997059E+02  0.38676794979E+03  0.25500000920E-02 0.  1.
</event>
<event>
 5   0  0.9016738E-05  0.1099492E+04  0.7818609E-02  0.9205687E-01
       -1   -1    0    0    0  501  0.00000000000E+00  0.00000000000E+00  0.19981449140E+03  0.19981449147E+03  0.50400001928E-02 0.  1.
        1   -1    0    0  501    0  0.00000000000E+00  0.00000000000E+00 -0.15125059264E+04  0.15125059264E+04  0.50400001928E-02 0. -1.
    10030    2    1    2    0    0  0.00000000000E+00  0.00000000000E+00 -0.13126914350E+04  0.17123204179E+04  0.10994918872E+04 0.  0.
        4    1    3    3  502    0  0.20776851947E+03  0.13990215987E+03  0.10577957959E+03  0.27190311579E+03  0.12699999809E+01 0.  1.
       -4    1    3    3    0  502 -0.20776851947E+03 -0.13990215987E+03 -0.14184710146E+04  0.14404173021E+04  0.12699999809E+01 0. -1.
</event>
<event>
 5   0  0.1553937E-04  0.1100438E+04  0.7818609E-02  0.9204765E-01
        2   -1    0    0  501    0  0.00000000000E+00  0.00000000000E+00  0.37617624393E+03  0.37617624394E+03  0.25500000920E-02 0.  1.
       -2   -1    0    0    0  501  0.00000000000E+00  0.00000000000E+00 -0.80478431588E+03  0.80478431588E+03  0.25500000920E-02 0. -1.
    10030    2    1    2    0    0  0.00000000000E+00  0.00000000000E+00 -0.42860807195E+03  0.11809605598E+04  0.11004376241E+04 0.  0.
        1    1    3    3  502    0 -0.18075035167E+03  0.32116073861E+03  0.22415773873E+03  0.43134858468E+03  0.50400001928E-02 0.  1.
       -1    1    3    3    0  502  0.18075035167E+03 -0.32116073861E+03 -0.65276581067E+03  0.74961197513E+03  0.50400001928E-02 0. -1.
</event>
<event>
 5   0  0.9346836E-05  0.1099993E+04  0.7818609E-02  0.9205199E-01
       -1   -1    0    0    0  501  0.00000000000E+00  0.00000000000E+00  0.64369017047E+03  0.64369017049E+03  0.50400001928E-02 0.  1.
        1   -1    0    0  501    0  0.00000000000E+00  0.00000000000E+00 -0.46994064492E+03  0.46994064494E+03  0.50400001928E-02 0. -1.
    10030    2    1    2    0    0  0.00000000000E+00  0.00000000000E+00  0.17374952556E+03  0.11136308154E+04  0.10999930434E+04 0.  0.
        5    1    3    3  502    0 -0.43581751458E+02  0.13648799765E+03  0.62444358271E+03  0.64068730325E+03  0.46999998093E+01 0.  1.
       -5    1    3    3    0  502  0.43581751458E+02 -0.13648799765E+03 -0.45069405715E+03  0.47294351218E+03  0.46999998093E+01 0. -1.
</event>
<event>
 5   0  0.1503277E-04  0.1099644E+04  0.7818609E-02  0.9205539E-01
       -2   -1    0    0    0  501  0.00000000000E+00  0.00000000000E+00  0.46464892694E+03  0.46464892695E+03  0.25500000920E-02 0.  1.
        2   -1    0    0  501    0  0.00000000000E+00  0.00000000000E+00 -0.65060811188E+03  0.65060811188E+03  0.25500000920E-02 0. -1.
    10030    2    1    2    0    0  0.00000000000E+00  0.00000000000E+00 -0.18595918494E+03  0.11152570388E+04  0.10996442353E+04 0.  0.
        5    1    3    3  502    0 -0.48945378920E+02 -0.48092807281E+03 -0.35860425701E+03  0.60191906805E+03  0.46999998093E+01 0. -1.
       -5    1    3    3    0  502  0.48945378920E+02  0.48092807281E+03  0.17264507207E+03  0.51333797078E+03  0.46999998093E+01 0.  1.
</event>
<event>
 5   0  0.1503277E-04  0.1099769E+04  0.7818609E-02  0.9205417E-01
       -2   -1    0    0    0  501  0.00000000000E+00  0.00000000000E+00  0.19589913391E+03  0.19589913392E+03  0.25500000920E-02 0. -1.
        2   -1    0    0  501    0  0.00000000000E+00  0.00000000000E+00 -0.15435149262E+04  0.15435149262E+04  0.25500000920E-02 0.  1.
    10030    2    1    2    0    0  0.00000000000E+00  0.00000000000E+00 -0.13476157923E+04  0.17394140601E+04  0.10997694981E+04 0.  0.
        5    1    3    3  502    0 -0.38593655261E+02 -0.38051595940E+03 -0.12986352321E+04  0.13537937146E+04  0.46999998093E+01 0.  1.
       -5    1    3    3    0  502  0.38593655261E+02  0.38051595940E+03 -0.48980560136E+02  0.38562034549E+03  0.46999998093E+01 0. -1.
</event>
<event>
 5   0  0.6010125E-05  0.1099480E+04  0.7818609E-02  0.9205699E-01
       -3   -1    0    0    0  501  0.00000000000E+00  0.00000000000E+00  0.77577359019E+03  0.77577359676E+03  0.10100000352E+00 0.  1.
        3   -1    0    0  501    0  0.00000000000E+00  0.00000000000E+00 -0.38956488297E+03  0.38956489606E+03  0.10100000352E+00 0. -1.
    10030    2    1    2    0    0  0.00000000000E+00  0.00000000000E+00  0.38620870722E+03  0.11653384928E+04  0.10994801669E+04 0.  0.
        3    1    3    3  502    0 -0.46565334311E+03  0.21824469293E+03  0.39903703886E+03  0.65091808281E+03  0.10100000352E+00 0.  1.
       -3    1    3    3    0  502  0.46565334311E+03 -0.21824469293E+03 -0.12828331635E+02  0.51442041001E+03  0.10100000352E+00 0. -1.
</event>
<event>
 5   0  0.1540772E-04  0.1100197E+04  0.7818609E-02  0.9205000E-01
        2   -1    0    0  501    0  0.00000000000E+00  0.00000000000E+00  0.59336925436E+03  0.59336925437E+03  0.25500000920E-02 0. -1.
       -2   -1    0    0    0  501  0.00000000000E+00  0.00000000000E+00 -0.50998278498E+03  0.50998278499E+03  0.25500000920E-02 0.  1.
    10030    2    1    2    0    0  0.00000000000E+00  0.00000000000E+00  0.83386469379E+02  0.11033520394E+04  0.11001965367E+04 0.  0.
        2    1    3    3  502    0  0.90428236305E+01  0.33210632915E+03  0.48139312024E+03  0.58490659318E+03  0.25500000920E-02 0. -1.
       -2    1    3    3    0  502 -0.90428236305E+01 -0.33210632915E+03 -0.39800665086E+03  0.51844544618E+03  0.25500000920E-02 0.  1.
</event>
<event>
 5   0  0.9346836E-05  0.1100468E+04  0.7818609E-02  0.9204736E-01
       -1   -1    0    0    0  501  0.00000000000E+00  0.00000000000E+00  0.61685594434E+03  0.61685594436E+03  0.50400001928E-02 0. -1.
        1   -1    0    0  501    0  0.00000000000E+00  0.00000000000E+00 -0.49080750722E+03  0.49080750725E+03  0.50400001928E-02 0.  1.
    10030    2    1    2    0    0  0.00000000000E+00  0.00000000000E+00  0.12604843711E+03  0.11076634516E+04  0.11004681338E+04 0.  0.
        5    1    3    3  502    0  0.13116166213E+03 -0.52353230313E+03 -0.44661206987E+02  0.54157748055E+03  0.46999998093E+01 0.  1.
       -5    1    3    3    0  502 -0.13116166213E+03  0.52353230313E+03  0.17070964410E+03  0.56608597105E+03  0.46999998093E+01 0. -1.
</event>
<event>
 5   0  0.1464205E-04  0.1100810E+04  0.7818609E-02  0.9204403E-01
        2   -1    0    0  501    0  0.00000000000E+00  0.00000000000E+00  0.62832048668E+03  0.62832048669E+03  0.25500000920E-02 0. -1.
       -2   -1    0    0    0  501  0.00000000000E+00  0.00000000000E+00 -0.48215141670E+03  0.48215141670E+03  0.25500000920E-02 0.  1.
    10030    2    1    2    0    0  0.00000000000E+00  0.00000000000E+00  0.14616906998E+03  0.11104719034E+04  0.11008099069E+04 0.  0.
        3    1    3    3  502    0  0.35888646565E+02 -0.54745846458E+03  0.28574281832E+02  0.54937716113E+03  0.10100000352E+00 0. -1.
       -3    1    3    3    0  502 -0.35888646565E+02  0.54745846458E+03  0.11759478815E+03  0.56109474226E+03  0.10100000352E+00 0.  1.
</event>
<event>
 5   0  0.8921459E-05  0.1100084E+04  0.7818609E-02  0.9205110E-01
       -1   -1    0    0    0  501  0.00000000000E+00  0.00000000000E+00  0.22644784791E+03  0.22644784796E+03  0.50400001928E-02 0. -1.
        1   -1    0    0  501    0  0.00000000000E+00  0.00000000000E+00 -0.13360514566E+04  0.13360514566E+04  0.50400001928E-02 0.  1.
    10030    2    1    2    0    0  0.00000000000E+00  0.00000000000E+00 -0.11096036087E+04  0.15624993045E+04  0.11000835915E+04 0.  0.
        3    1    3    3  502    0 -0.48803363058E+02 -0.39659759982E+03 -0.17928793489E+02  0.39999109523E+03  0.10100000352E+00 0. -1.
       -3    1    3    3    0  502  0.48803363058E+02  0.39659759982E+03 -0.10916748152E+04  0.11625082093E+04  0.10100000352E+00 0.  1.
</event>
<event>
 5   0  0.1574101E-04  0.1099561E+04  0.7818609E-02  0.9205620E-01
        2   -1    0    0  501    0  0.00000000000E+00  0.00000000000E+00  0.11027754206E+04  0.11027754206E+04  0.25500000920E-02 0.  1.
       -2   -1    0    0    0  501  0.00000000000E+00  0.00000000000E+00 -0.27408883457E+03  0.27408883458E+03  0.25500000920E-02 0. -1.
    10030    2    1    2    0    0  0.00000000000E+00  0.00000000000E+00  0.82868658602E+03  0.13768642552E+04  0.10995606938E+04 0.  0.
        4    1    3    3  502    0 -0.43032962034E+03  0.30517511414E+03  0.22059113450E+03  0.57181945923E+03  0.12699999809E+01 0. -1.
       -4    1    3    3    0  502  0.43032962034E+03 -0.30517511414E+03  0.60809545152E+03  0.80504479595E+03  0.12699999809E+01 0.  1.
</event>
<event>
 5   0  0.8621738E-05  0.1099754E+04  0.7818609E-02  0.9205432E-01
       -1   -1    0    0    0  501  0.00000000000E+00  0.00000000000E+00  0.31111696228E+03  0.31111696232E+03  0.50400001928E-02 0.  1.
        1   -1    0    0  501    0  0.00000000000E+00  0.00000000000E+00 -0.97186759091E+03  0.97186759092E+03  0.50400001928E-02 0. -1.
    10030    2    1    2    0    0  0.00000000000E+00  0.00000000000E+00 -0.66075062862E+03  0.12829845532E+04  0.10997535954E+04 0.  0.
        2    1    3    3  502    0  0.16808485081E+03  0.32620203649E+03  0.14737173761E+03  0.39544748670E+03  0.25500000920E-02 0.  1.
       -2    1    3    3    0  502 -0.16808485081E+03 -0.32620203649E+03 -0.80812236623E+03  0.88753706655E+03  0.25500000920E-02 0. -1.
</event>
<event>
 5   0  0.8657442E-05  0.1100484E+04  0.7818609E-02  0.9204721E-01
        1   -1    0    0  501    0  0.00000000000E+00  0.00000000000E+00  0.54310493920E+03  0.54310493923E+03  0.50400001928E-02 0. -1.
       -1   -1    0    0    0  501  0.00000000000E+00  0.00000000000E+00 -0.55747248222E+03  0.55747248224E+03  0.50400001928E-02 0.  1.
    10030    2    1    2    0    0  0.00000000000E+00  0.00000000000E+00 -0.14367543016E+02  0.11005774215E+04  0.11004836366E+04 0.  0.
        1    1    3    3  502    0  0.15118596652E+03  0.46518323830E+03  0.24485638953E+03  0.54699843984E+03  0.50400001928E-02 0. -1.
       -1    1    3    3    0  502 -0.15118596652E+03 -0.46518323830E+03 -0.25922393254E+03  0.55357898163E+03  0.50400001928E-02 0.  1.
</event>
<event>
 5   0  0.1503277E-04  0.1100206E+04  0.7818609E-02  0.9204991E-01
       -2   -1    0    0    0  501  0.00000000000E+00  0.00000000000E+00  0.34165229187E+03  0.34165229188E+03  0.25500000920E-02 0.  1.
        2   -1    0    0  501    0  0.00000000000E+00  0.00000000000E+00 -0.88573471128E+03  0.88573471129E+03  0.25500000920E-02 0. -1.
    10030    2    1    2    0    0  0.00000000000E+00  0.00000000000E+00 -0.54408241941E+03  0.12273870032E+04  0.11002059700E+04 0.  0.
        5    1    3    3  502    0  0.17526660717E+03  0.29013165455E+03 -0.75536207560E+03  0.82794245924E+03  0.46999998093E+01 0. -1.
       -5    1    3    3    0  502 -0.17526660717E+03 -0.29013165455E+03  0.21127965619E+03  0.39944454393E+03  0.46999998093E+01 0.  1.
</event>
<event>
 5   0  0.9346836E-05  0.1099540E+04  0.7818609E-02  0.9205640E-01
        1   -1    0    0  501    0  0.00000000000E+00  0.00000000000E+00  0.48289018363E+03  0.48289018366E+03  0.50400001928E-02 0. -1.
       -1   -1    0    0    0  501  0.00000000000E+00  0.00000000000E+00 -0.62591258189E+03  0.62591258191E+03  0.50400001928E-02 0.  1.
    10030    2    1    2    0    0  0.00000000000E+00  0.00000000000E+00 -0.14302239826E+03  0.11088027656E+04  0.10995399795E+04 0.  0.
        5    1    3    3  502    0  0.26184395700E+03 -0.44113461828E+03  0.12779726934E+03  0.52869295561E+03  0.46999998093E+01 0. -1.
       -5    1    3    3    0  502 -0.26184395700E+03  0.44113461828E+03 -0.27081966760E+03  0.58010980996E+03  0.46999998093E+01 0.  1.
</event>
<event>
 5   0  0.1464205E-04  0.1100134E+04  0.7818609E-02  0.9205061E-01
       -2   -1    0    0    0  501  0.00000000000E+00  0.00000000000E+00  0.38175218651E+03  0.38175218652E+03  0.25500000920E-02 0.  1.
        2   -1    0    0  501    0  0.00000000000E+00  0.00000000000E+00 -0.79259240299E+03  0.79259240300E+03  0.25500000920E-02 0. -1.
    10030    2    1    2    0    0  0.00000000000E+00  0.00000000000E+00 -0.41084021648E+03  0.11743445895E+04  0.11001343243E+04 0.  0.
        3    1    3    3  502    0 -0.29923235143E+03  0.34297851824E+01  0.28725676490E+03  0.41481106874E+03  0.10100000352E+00 0.  1.
       -3    1    3    3    0  502  0.29923235143E+03 -0.34297851824E+01 -0.69809698138E+03  0.75953352078E+03  0.10100000352E+00 0. -1.
</event>
<event>
 5   0  0.1553937E-04  0.1099793E+04  0.7818609E-02  0.9205394E-01
       -2   -1    0    0    0  501  0.00000000000E+00  0.00000000000E+00  0.15899198490E+03  0.15899198492E+03  0.25500000920E-02 0. -1.
        2   -1    0    0  501    0  0.00000000000E+00  0.00000000000E+00 -0.19018960195E+04  0.19018960195E+04  0.25500000920E-02 0.  1.
    10030    2    1    2    0    0  0.00000000000E+00  0.00000000000E+00 -0.17429040345E+04  0.20608880044E+04  0.10997931137E+04 0.  0.
        1    1    3    3  502    0 -0.35460856477E+03 -0.23345596245E+03 -0.21656322569E+03  0.47660104003E+03  0.50400001928E-02 0. -1.
       -1    1    3    3    0  502  0.35460856477E+03  0.23345596245E+03 -0.15263408089E+04  0.15842869644E+04  0.50400001928E-02 0.  1.
</event>
<event>
 5   0  0.8621738E-05  0.1100145E+04  0.7818609E-02  0.9205051E-01
        1   -1    0    0  501    0  0.00000000000E+00  0.00000000000E+00  0.78732537558E+03  0.78732537560E+03  0.50400001928E-02 0. -1.
       -1   -1    0    0    0  501  0.00000000000E+00  0.00000000000E+00 -0.38431325769E+03  0.38431325773E+03  0.50400001928E-02 0.  1.
    10030    2    1    2    0    0  0.00000000000E+00  0.00000000000E+00  0.40301211789E+03  0.11716386333E+04  0.11001446814E+04 0.  0.
        2    1    3    3  502    0  0.41373932122E+03  0.20869196481E+02  0.58691302929E+03  0.71838892896E+03  0.25500000920E-02 0. -1.
       -2    1    3    3    0  502 -0.41373932122E+03 -0.20869196481E+02 -0.18390091140E+03  0.45324970437E+03  0.25500000920E-02 0.  1.
</event>
<event>
 5   0  0.6010125E-05  0.1099429E+04  0.7818609E-02  0.9205748E-01
       -4   -1    0    0    0  501  0.00000000000E+00  0.00000000000E+00  0.11223993444E+04  0.11224000629E+04  0.12699999809E+01 0. -1.
        4   -1    0    0  501    0  0.00000000000E+00  0.00000000000E+00 -0.26922993199E+03  0.26923292737E+03  0.12699999809E+01 0.  1.
    10030    2    1    2    0    0  0.00000000000E+00  0.00000000000E+00  0.85316941238E+03  0.13916329902E+04  0.10994290943E+04 0.  0.
        5    1    3    3  502    0 -0.55475841995E+02  0.52736539983E+03  0.60989171241E+03  0.80819664986E+03  0.46999998093E+01 0. -1.
       -5    1    3    3    0  502  0.55475841995E+02 -0.52736539983E+03  0.24327769997E+03  0.58343634039E+03  0.46999998093E+01 0.  1.
</event>
<event>
 5   0  0.1464205E-04  0.1100059E+04  0.7818609E-02  0.9205135E-01
       -2   -1    0    0    0  501  0.00000000000E+00  0.00000000000E+00  0.53671375450E+03  0.53671375451E+03  0.25500000920E-02 0.  1.
        2   -1    0    0  501    0  0.00000000000E+00  0.00000000000E+00 -0.56367516138E+03  0.56367516139E+03  0.25500000920E-02 0. -1.
    10030    2    1    2    0    0  0.00000000000E+00  0.00000000000E+00 -0.26961406883E+02  0.11003889159E+04  0.11000585661E+04 0.  0.
        3    1    3    3  502    0 -0.19628139192E+03  0.41259033632E+03 -0.31979975554E+03  0.55769979763E+03  0.10100000352E+00 0. -1.
       -3    1    3    3    0  502  0.19628139192E+03 -0.41259033632E+03  0.29283834866E+03  0.54268911826E+03  0.10100000352E+00 0.  1.
</event>
<event>
 5   0  0.1464205E-04  0.1100041E+04  0.7818609E-02  0.9205152E-01
       -2   -1    0    0    0  501  0.00000000000E+00  0.00000000000E+00  0.17446045203E+04  0.17446045203E+04  0.25500000920E-02 0.  1.
        2   -1    0    0  501    0  0.00000000000E+00  0.00000000000E+00 -0.17340454098E+03  0.17340454100E+03  0.25500000920E-02 0. -1.
    10030    2    1    2    0    0  0.00000000000E+00  0.00000000000E+00  0.15711999793E+04  0.19180090613E+04  0.11000406285E+04 0.  0.
        3    1    3    3  502    0  0.48245248491E+02 -0.53795321321E+03  0.60439282513E+03  0.81056274334E+03  0.10100000352E+00 0.  1.
       -3    1    3    3    0  502 -0.48245248491E+02  0.53795321321E+03  0.96680715418E+03  0.11074463180E+04  0.10100000352E+00 0. -1.
</event>
<event>
 5   0  0.9016738E-05  0.1100052E+04  0.7818609E-02  0.9205141E-01
       -1   -1    0    0    0  501  0.00000000000E+00  0.00000000000E+00  0.45246738113E+03  0.45246738116E+03  0.50400001928E-02 0.  1.
        1   -1    0    0  501    0  0.00000000000E+00  0.00000000000E+00 -0.66861963896E+03  0.66861963898E+03  0.50400001928E-02 0. -1.
    10030    2    1    2    0    0  0.00000000000E+00  0.00000000000E+00 -0.21615225783E+03  0.11210870201E+04  0.11000519570E+04 0.  0.
        4    1    3    3  502    0 -0.19103955269E+03 -0.30129440908E+03 -0.53471289392E+03  0.64280162061E+03  0.12699999809E+01 0. -1.
       -4    1    3    3    0  502  0.19103955269E+03  0.30129440908E+03  0.31856063609E+03  0.47828539953E+03  0.12699999809E+01 0.  1.
</event>
<event>
 5   0  0.9016738E-05  0.1101346E+04  0.7818609E-02  0.9203881E-01
        1   -1    0    0  501    0  0.00000000000E+00  0.00000000000E+00  0.31498491094E+03  0.31498491098E+03  0.50400001928E-02 0. -1.
       -1   -1    0    0    0  501  0.00000000000E+00  0.00000000000E+00 -0.96271444155E+03  0.96271444157E+03  0.50400001928E-02 0.  1.
    10030    2    1    2    0    0  0.00000000000E+00  0.00000000000E+00 -0.64772953062E+03  0.12776993525E+04  0.11013455818E+04 0.  0.
        4    1    3    3  502    0  0.85093576747E+02  0.54128315267E+03 -0.38751901111E+03  0.67111918840E+03  0.12699999809E+01 0.  1.
       -4    1    3    3    0  502 -0.85093576747E+02 -0.54128315267E+03 -0.26021051951E+03  0.60658016414E+03  0.12699999809E+01 0. -1.
</event>
<event>
 5   0  0.8657442E-05  0.1101140E+04  0.7818609E-02  0.9204081E-01
        1   -1    0    0  501    0  0.00000000000E+00  0.00000000000E+00  0.74277736268E+03  0.74277736270E+03  0.50400001928E-02 0. -1.
       -1   -1    0    0    0  501  0.00000000000E+00  0.00000000000E+00 -0.40809984157E+03  0.40809984160E+03  0.50400001928E-02 0.  1.
    10030    2    1    2    0    0  0.00000000000E+00  0.00000000000E+00  0.33467752111E+03  0.11508772043E+04  0.11011399985E+04 0.  0.
        1    1    3    3  502    0 -0.51878673166E+03 -0.61863296944E+02  0.34885116914E+03  0.62822279383E+03  0.50400001928E-02 0. -1.
       -1    1    3    3    0  502  0.51878673166E+03  0.61863296944E+02 -0.14173648026E+02  0.52265441046E+03  0.50400001928E-02 0.  1.
</event>
<event>
 5   0  0.8657442E-05  0.1101081E+04  0.7818609E-02  0.9204139E-01
        1   -1    0    0  501    0  0.00000000000E+00  0.00000000000E+00  0.47647500140E+03  0.47647500143E+03  0.50400001928E-02 0.  1.
       -1   -1    0    0    0  501  0.00000000000E+00  0.00000000000E+00 -0.63611917703E+03  0.63611917705E+03  0.50400001928E-02 0. -1.
    10030    2    1    2    0    0  0.00000000000E+00  0.00000000000E+00 -0.15964417563E+03  0.11125941785E+04  0.11010810793E+04 0.  0.
        1    1    3    3  502    0  0.13623321430E+03 -0.52727354222E+03  0.17562689805E+01  0.54459155476E+03  0.50400001928E-02 0. -1.
       -1    1    3    3    0  502 -0.13623321430E+03  0.52727354222E+03 -0.16140044461E+03  0.56800262372E+03  0.50400001928E-02 0.  1.
</event>
<event>
 5   0  0.8621738E-05  0.1099437E+04  0.7818609E-02  0.9205740E-01
       -1   -1    0    0    0  501  0.00000000000E+00  0.00000000000E+00  0.21853773453E+03  0.21853773459E+03  0.50400001928E-02 0.  1.
        1   -1    0    0  501    0  0.00000000000E+00  0.00000000000E+00 -0.13827848033E+04  0.13827848033E+04  0.50400001928E-02 0. -1.
    10030    2    1    2    0    0  0.00000000000E+00  0.00000000000E+00 -0.11642470687E+04  0.16013225379E+04  0.10994374167E+04 0.  0.
        2    1    3    3  502    0 -0.50105856007E+03  0.43887643167E+02 -0.90520516796E+03  0.10355588839E+04  0.25500000920E-02 0.  1.
       -2    1    3    3    0  502  0.50105856007E+03 -0.43887643167E+02 -0.25904190079E+03  0.56576365402E+03  0.25500000920E-02 0. -1.
</event>
<event>
 5   0  0.9346836E-05  0.1099970E+04  0.7818609E-02  0.9205221E-01
       -1   -1    0    0    0  501  0.00000000000E+00  0.00000000000E+00  0.20834752163E+03  0.20834752169E+03  0.50400001928E-02 0.  1.
        1   -1    0    0  501    0  0.00000000000E+00  0.00000000000E+00 -0.14518214005E+04  0.14518214005E+04  0.50400001928E-02 0. -1.
    10030    2    1    2    0    0  0.00000000000E+00  0.00000000000E+00 -0.12434738789E+04  0.16601689222E+04  0.10999698009E+04 0.  0.
        5    1    3    3  502    0  0.41606905678E+03 -0.27870261316E+03 -0.96482220788E+03  0.10870568474E+04  0.46999998093E+01 0. -1.
       -5    1    3    3    0  502 -0.41606905678E+03  0.27870261316E+03 -0.27865167101E+03  0.57311207486E+03  0.46999998093E+01 0.  1.
</event>
<event>
 5   0  0.6010125E-05  0.1100621E+04  0.7818609E-02  0.9204586E-01
       -3   -1    0    0    0  501  0.00000000000E+00  0.00000000000E+00  0.12718404710E+04  0.12718404750E+04  0.10100000352E+00 0.  1.
        3   -1    0    0  501    0  0.00000000000E+00  0.00000000000E+00 -0.23811305642E+03  0.23811307784E+03  0.10100000352E+00 0. -1.
    10030    2    1    2    0    0  0.00000000000E+00  0.00000000000E+00  0.10337274146E+04  0.15099535528E+04  0.11006213537E+04 0.  0.
        3    1    3    3  502    0  0.33742865566E+03 -0.25700498854E+03  0.99787849283E+03  0.10842837075E+04  0.10100000352E+00 0.  1.
       -3    1    3    3    0  502 -0.33742865566E+03  0.25700498854E+03  0.35848921729E+02  0.42566984529E+03  0.10100000352E+00 0. -1.
</event>
<event>
 5   0  0.8621738E-05  0.1099665E+04  0.7818609E-02  0.9205518E-01
        1   -1    0    0  501    0  0.00000000000E+00  0.00000000000E+00  0.35569065327E+03  0.35569065331E+03  0.50400001928E-02 0. -1.
       -1   -1    0    0    0  501  0.00000000000E+00  0.00000000000E+00 -0.84994049228E+03  0.84994049230E+03  0.50400001928E-02 0.  1.
    10030    2    1    2    0    0  0.00000000000E+00  0.00000000000E+00 -0.49424983901E+03  0.12056311456E+04  0.10996652017E+04 0.  0.
        2    1    3    3  502    0  0.33774851662E+03 -0.42600401785E+02 -0.72050330255E+03  0.79687757134E+03  0.25500000920E-02 0.  1.
       -2    1    3    3    0  502 -0.33774851662E+03  0.42600401785E+02  0.22625346354E+03  0.40875357427E+03  0.25500000920E-02 0. -1.
</event>
<event>
 5   0  0.1553937E-04  0.1100185E+04  0.7818609E-02  0.9205011E-01
       -2   -1    0    0    0  501  0.00000000000E+00  0.00000000000E+00  0.25434391667E+03  0.25434391669E+03  0.25500000920E-02 0.  1.
        2   -1    0    0  501    0  0.00000000000E+00  0.00000000000E+00 -0.11897356333E+04  0.11897356333E+04  0.25500000920E-02 0. -1.
    10030    2    1    2    0    0  0.00000000000E+00  0.00000000000E+00 -0.93539171665E+03  0.14440795500E+04  0.11001854767E+04 0.  0.
        1    1    3    3  502    0 -0.43796052332E+02  0.29516878738E+03 -0.10742708045E+04  0.11149441549E+04  0.50400001928E-02 0. -1.
       -1    1    3    3    0  502  0.43796052332E+02 -0.29516878738E+03  0.13887908781E+03  0.32913539509E+03  0.50400001928E-02 0.  1.
</event>
<event>
 5   0  0.1553937E-04  0.1100274E+04  0.7818609E-02  0.9204925E-01
       -2   -1    0    0    0  501  0.00000000000E+00  0.00000000000E+00  0.48282141626E+03  0.48282141626E+03  0.25500000920E-02 0.  1.
        2   -1    0    0  501    0  0.00000000000E+00  0.00000000000E+00 -0.62683789866E+03  0.62683789867E+03  0.25500000920E-02 0. -1.
    10030    2    1    2    0    0  0.00000000000E+00  0.00000000000E+00 -0.14401648241E+03  0.11096593149E+04  0.11002740786E+04 0.  0.
        1    1    3    3  502    0 -0.45107641847E+03 -0.30844601332E+03 -0.78901359623E+01  0.54650812684E+03  0.50400001928E-02 0.  1.
       -1    1    3    3    0  502  0.45107641847E+03  0.30844601332E+03 -0.13612634645E+03  0.56315118809E+03  0.50400001928E-02 0. -1.
</event>
<event>
 5   0  0.1540772E-04  0.1100303E+04  0.7818609E-02  0.9204897E-01
       -2   -1    0    0    0  501  0.00000000000E+00  0.00000000000E+00  0.17837389174E+03  0.17837389175E+03  0.25500000920E-02 0.  1.
        2   -1    0    0  501    0  0.00000000000E+00  0.00000000000E+00 -0.16968093900E+04  0.16968093900E+04  0.25500000920E-02 0. -1.
    10030    2    1    2    0    0  0.00000000000E+00  0.00000000000E+00 -0.15184354983E+04  0.18751832818E+04  0.11003026755E+04 0.  0.
        2    1    3    3  502    0 -0.45258237678E+03 -0.75858533496E+02 -0.12763682704E+04  0.13563558850E+04  0.25500000920E-02 0. -1.
       -2    1    3    3    0  502  0.45258237678E+03  0.75858533496E+02 -0.24206722783E+03  0.51882739680E+03  0.25500000920E-02 0.  1.
</event>
<event>
 5   0  0.8621738E-05  0.1099726E+04  0.7818609E-02  0.9205459E-01
       -1   -1    0    0    0  501  0.00000000000E+00  0.00000000000E+00  0.17323768109E+03  0.17323768116E+03  0.50400001928E-02 0. -1.
        1   -1    0    0  501    0  0.00000000000E+00  0.00000000000E+00 -0.17452862707E+04  0.17452862707E+04  0.50400001928E-02 0.  1.
    10030    2    1    2    0    0  0.00000000000E+00  0.00000000000E+00 -0.15720485896E+04  0.19185239518E+04  0.10997260503E+04 0.  0.
        2    1    3    3  502    0 -0.13321101979E+03  0.35255522863E+03 -0.87531967175E+02  0.38691369879E+03  0.25500000920E-02 0.  1.
       -2    1    3    3    0  502  0.13321101979E+03 -0.35255522863E+03 -0.14845166224E+04  0.15316102530E+04  0.25500000920E-02 0. -1.
</event>
<event>
 5   0  0.9016738E-05  0.1100335E+04  0.7818609E-02  0.9204866E-01
       -1   -1    0    0    0  501  0.00000000000E+00  0.00000000000E+00  0.36280259380E+03  0.36280259383E+03  0.50400001928E-02 0. -1.
        1   -1    0    0  501    0  0.00000000000E+00  0.00000000000E+00 -0.83429398684E+03  0.83429398686E+03  0.50400001928E-02 0.  1.
    10030    2    1    2    0    0  0.00000000000E+00  0.00000000000E+00 -0.47149139304E+03  0.11970965807E+04  0.11003345354E+04 0.  0.
        4    1    3    3  502    0  0.31296455942E+02  0.12161319712E+03  0.34700082447E+03  0.36902631742E+03  0.12699999809E+01 0. -1.
       -4    1    3    3    0  502 -0.31296455942E+02 -0.12161319712E+03 -0.81849221752E+03  0.82807026327E+03  0.12699999809E+01 0.  1.
</event>
<event>
 5   0  0.8657442E-05  0.1102299E+04  0.7818609E-02  0.9202954E-01
        1   -1    0    0  501    0  0.00000000000E+00  0.00000000000E+00  0.82314541869E+03  0.82314541871E+03  0.50400001928E-02 0. -1.
       -1   -1    0    0    0  501  0.00000000000E+00  0.00000000000E+00 -0.36903067675E+03  0.36903067678E+03  0.50400001928E-02 0.  1.
    10030    2    1    2    0    0  0.00000000000E+00  0.00000000000E+00  0.45411474195E+03  0.11921760955E+04  0.11022992533E+04 0.  0.
        1    1    3    3  502    0  0.25672034039E+02 -0.55027740137E+03  0.24584122647E+03  0.60324305255E+03  0.50400001928E-02 0. -1.
       -1    1    3    3    0  502 -0.25672034039E+02  0.55027740137E+03  0.20827351548E+03  0.58893304294E+03  0.50400001928E-02 0.  1.
</event>
<event>
 5   0  0.8621738E-05  0.1099956E+04  0.7818609E-02  0.9205235E-01
        1   -1    0    0  501    0  0.00000000000E+00  0.00000000000E+00  0.40472504544E+03  0.40472504547E+03  0.50400001928E-02 0.  1.
       -1   -1    0    0    0  501  0.00000000000E+00  0.00000000000E+00 -0.74736078246E+03  0.74736078247E+03  0.50400001928E-02 0. -1.
    10030    2    1    2    0    0  0.00000000000E+00  0.00000000000E+00 -0.34263573702E+03  0.11520858279E+04  0.10999556840E+04 0.  0.
        2    1    3    3  502    0  0.29086122699E+03  0.67542809685E+01  0.31752383128E+03  0.43065909617E+03  0.25500000920E-02 0.  1.
       -2    1    3    3    0  502 -0.29086122699E+03 -0.67542809685E+01 -0.66015956831E+03  0.72142673177E+03  0.25500000920E-02 0. -1.
</event>
<event>
 5   0  0.6010125E-05  0.1099333E+04  0.7818609E-02  0.9205843E-01
       -4   -1    0    0    0  501  0.00000000000E+00  0.00000000000E+00  0.18805100690E+03  0.18805529532E+03  0.12699999809E+01 0. -1.
        4   -1    0    0  501    0  0.00000000000E+00  0.00000000000E+00 -0.16066316510E+04  0.16066321530E+04  0.12699999809E+01 0.  1.
    10030    2    1    2    0    0  0.00000000000E+00  0.00000000000E+00 -0.14185806441E+04  0.17946874483E+04  0.10993325217E+04 0.  0.
        1    1    3    3  502    0  0.27671493034E+03 -0.98512633503E+02 -0.14677682117E+04  0.14968698725E+04  0.50400001928E-02 0.  1.
       -1    1    3    3    0  502 -0.27671493034E+03  0.98512633503E+02  0.49187567634E+02  0.29781757582E+03  0.50400001928E-02 0. -1.
</event>
<event>
 5   0  0.1464205E-04  0.1099871E+04  0.7818609E-02  0.9205317E-01
       -2   -1    0    0    0  501  0.00000000000E+00  0.00000000000E+00  0.40777748743E+03  0.40777748744E+03  0.25500000920E-02 0. -1.
        2   -1    0    0  501    0  0.00000000000E+00  0.00000000000E+00 -0.74165267812E+03  0.74165267812E+03  0.25500000920E-02 0.  1.
    10030    2    1    2    0    0  0.00000000000E+00  0.00000000000E+00 -0.33387519069E+03  0.11494301656E+04  0.10998713845E+04 0.  0.
        3    1    3    3  502    0 -0.40267306313E+03  0.27147822092E+03  0.10272650516E+03  0.49638570212E+03  0.10100000352E+00 0. -1.
       -3    1    3    3    0  502  0.40267306313E+03 -0.27147822092E+03 -0.43660169585E+03  0.65304446344E+03  0.10100000352E+00 0.  1.
</event>
<event>
 5   0  0.1553937E-04  0.1100202E+04  0.7818609E-02  0.9204995E-01
       -2   -1    0    0    0  501  0.00000000000E+00  0.00000000000E+00  0.16896037215E+03  0.16896037217E+03  0.25500000920E-02 0. -1.
        2   -1    0    0  501    0  0.00000000000E+00  0.00000000000E+00 -0.17910198265E+04  0.17910198266E+04  0.25500000920E-02 0.  1.
    10030    2    1    2    0    0  0.00000000000E+00  0.00000000000E+00 -0.16220594544E+04  0.19599801987E+04  0.11002024840E+04 0.  0.
        1    1    3    3  502    0 -0.38432534208E+03  0.21986958725E+03 -0.22948674641E+03  0.49871110953E+03  0.50400001928E-02 0. -1.
       -1    1    3    3    0  502  0.38432534208E+03 -0.21986958725E+03 -0.13925727080E+04  0.14612690892E+04  0.50400001928E-02 0.  1.
</event>
<event>
 5   0  0.1464205E-04  0.1099101E+04  0.7818609E-02  0.9206068E-01
       -2   -1    0    0    0  501  0.00000000000E+00  0.00000000000E+00  0.36800430404E+03  0.36800430405E+03  0.25500000920E-02 0. -1.
        2   -1    0    0  501    0  0.00000000000E+00  0.00000000000E+00 -0.82065869862E+03  0.82065869862E+03  0.25500000920E-02 0.  1.
    10030    2    1    2    0    0  0.00000000000E+00  0.00000000000E+00 -0.45265439458E+03  0.11886630027E+04  0.10991013297E+04 0.  0.
        3    1    3    3  502    0  0.21599286664E+03  0.13131457565E+03 -0.75405425463E+03  0.79529508068E+03  0.10100000352E+00 0.  1.
       -3    1    3    3    0  502 -0.21599286664E+03 -0.13131457565E+03  0.30139986005E+03  0.39336792200E+03  0.10100000352E+00 0. -1.
</event>
<event>
 5   0  0.9016738E-05  0.1100107E+04  0.7818609E-02  0.9205088E-01
       -1   -1    0    0    0  501  0.00000000000E+00  0.00000000000E+00  0.16832536728E+03  0.16832536735E+03  0.50400001928E-02 0. -1.
        1   -1    0    0  501    0  0.00000000000E+00  0.00000000000E+00 -0.17974642749E+04  0.17974642749E+04  0.50400001928E-02 0.  1.
    10030    2    1    2    0    0  0.00000000000E+00  0.00000000000E+00 -0.16291389077E+04  0.19657896423E+04  0.11001069663E+04 0.  0.
        4    1    3    3  502    0  0.12827945489E+03 -0.12775237692E+03 -0.17426971954E+04  0.17520763157E+04  0.12699999809E+01 0.  1.
       -4    1    3    3    0  502 -0.12827945489E+03  0.12775237692E+03  0.11355828772E+03  0.21371332660E+03  0.12699999809E+01 0. -1.
</event>
<event>
 5   0  0.1540772E-04  0.1099754E+04  0.7818609E-02  0.9205432E-01
        2   -1    0    0  501    0  0.00000000000E+00  0.00000000000E+00  0.27260605650E+03  0.27260605651E+03  0.25500000920E-02 0. -1.
       -2   -1    0    0    0  501  0.00000000000E+00  0.00000000000E+00 -0.11091627441E+04  0.11091627441E+04  0.25500000920E-02 0.  1.
    10030    2    1    2    0    0  0.00000000000E+00  0.00000000000E+00 -0.83655668756E+03  0.13817688006E+04  0.10997535755E+04 0.  0.
        2    1    3    3  502    0  0.52509013146E+02 -0.30790100833E+03  0.15032510126E+03  0.34663794291E+03  0.25500000920E-02 0. -1.
       -2    1    3    3    0  502 -0.52509013146E+02  0.30790100833E+03 -0.98688178881E+03  0.10351308577E+04  0.25500000920E-02 0.  1.
</event>
<event>
 5   0  0.1540772E-04  0.1100163E+04  0.7818609E-02  0.9205033E-01
       -2   -1    0    0    0  501  0.00000000000E+00  0.00000000000E+00  0.60650930293E+03  0.60650930293E+03  0.25500000920E-02 0.  1.
        2   -1    0    0  501    0  0.00000000000E+00  0.00000000000E+00 -0.49890325999E+03  0.49890325999E+03  0.25500000920E-02 0. -1.
    10030    2    1    2    0    0  0.00000000000E+00  0.00000000000E+00  0.10760604294E+03  0.11054125629E+04  0.11001626579E+04 0.  0.
        2    1    3    3  502    0  0.36189845216E+03 -0.32413571017E+03  0.31301669437E+03  0.57793935602E+03  0.25500000920E-02 0.  1.
       -2    1    3    3    0  502 -0.36189845216E+03  0.32413571017E+03 -0.20541065143E+03  0.52747320691E+03  0.25500000920E-02 0. -1.
</event>
<event>
 5   0  0.9016738E-05  0.1100032E+04  0.7818609E-02  0.9205160E-01
        1   -1    0    0  501    0  0.00000000000E+00  0.00000000000E+00  0.93590800564E+03  0.93590800565E+03  0.50400001928E-02 0. -1.
       -1   -1    0    0    0  501  0.00000000000E+00  0.00000000000E+00 -0.32323451588E+03  0.32323451592E+03  0.50400001928E-02 0.  1.
    10030    2    1    2    0    0  0.00000000000E+00  0.00000000000E+00  0.61267348976E+03  0.12591425216E+04  0.11000323107E+04 0.  0.
        4    1    3    3  502    0  0.65895036776E+00  0.35991545678E+03  0.78239830104E+03  0.86121326314E+03  0.12699999809E+01 0. -1.
       -4    1    3    3    0  502 -0.65895036776E+00 -0.35991545678E+03 -0.16972481128E+03  0.39792925843E+03  0.12699999809E+01 0.  1.
</event>
<event>
 5   0  0.8621738E-05  0.1100998E+04  0.7818609E-02  0.9204220E-01
        1   -1    0    0  501    0  0.00000000000E+00  0.00000000000E+00  0.12618202153E+04  0.12618202153E+04  0.50400001928E-02 0. -1.
       -1   -1    0    0    0  501  0.00000000000E+00  0.00000000000E+00 -0.24016809881E+03  0.24016809886E+03  0.50400001928E-02 0.  1.
    10030    2    1    2    0    0  0.00000000000E+00  0.00000000000E+00  0.10216521165E+04  0.15019883142E+04  0.11009976607E+04 0.  0.
        2    1    3    3  502    0  0.37694593588E+03 -0.40059485155E+03  0.48079836956E+03  0.73056932994E+03  0.25500000920E-02 0. -1.
       -2    1    3    3    0  502 -0.37694593588E+03  0.40059485155E+03  0.54085374695E+03  0.77141898425E+03  0.25500000920E-02 0.  1.
</event>
<event>
 5   0  0.9346836E-05  0.1100033E+04  0.7818609E-02  0.9205160E-01
       -1   -1    0    0    0  501  0.00000000000E+00  0.00000000000E+00  0.67807352775E+03  0.67807352777E+03  0.50400001928E-02 0. -1.
        1   -1    0    0  501    0  0.00000000000E+00  0.00000000000E+00 -0.44614364822E+03  0.44614364824E+03  0.50400001928E-02 0.  1.
    10030    2    1    2    0    0  0.00000000000E+00  0.00000000000E+00  0.23192987954E+03  0.11242171760E+04  0.11000330858E+04 0.  0.
        5    1    3    3  502    0  0.15558411276E+03  0.36966764205E+02 -0.42183914916E+03  0.45115775020E+03  0.46999998093E+01 0.  1.
       -5    1    3    3    0  502 -0.15558411276E+03 -0.36966764205E+02  0.65376902870E+03  0.67305942582E+03  0.46999998093E+01 0. -1.
</event>
<event>
 5   0  0.1574101E-04  0.1100116E+04  0.7818609E-02  0.9205079E-01
       -2   -1    0    0    0  501  0.00000000000E+00  0.00000000000E+00  0.21593252731E+03  0.21593252733E+03  0.25500000920E-02 0. -1.
        2   -1    0    0  501    0  0.00000000000E+00  0.00000000000E+00 -0.14011968013E+04  0.14011968013E+04  0.25500000920E-02 0.  1.
    10030    2    1    2    0    0  0.00000000000E+00  0.00000000000E+00 -0.11852642740E+04  0.16171293287E+04  0.11001162967E+04 0.  0.
        4    1    3    3  502    0 -0.51994903440E+03  0.15856741429E+03 -0.71624651970E+03  0.89916701070E+03  0.12699999809E+01 0. -1.
       -4    1    3    3    0  502  0.51994903440E+03 -0.15856741429E+03 -0.46901775432E+03  0.71796231797E+03  0.12699999809E+01 0.  1.
</event>
<event>
 5   0  0.9346836E-05  0.1099969E+04  0.7818609E-02  0.9205222E-01
        1   -1    0    0  501    0  0.00000000000E+00  0.00000000000E+00  0.75194391684E+03  0.75194391685E+03  0.50400001928E-02 0. -1.
       -1   -1    0    0    0  501  0.00000000000E+00  0.00000000000E+00 -0.40226830364E+03  0.40226830367E+03  0.50400001928E-02 0.  1.
    10030    2    1    2    0    0  0.00000000000E+00  0.00000000000E+00  0.34967561320E+03  0.11542122205E+04  0.10999694612E+04 0.  0.
        5    1    3    3  502    0  0.53648713986E+03 -0.28924209358E+02  0.29813119970E+03  0.61445859368E+03  0.46999998093E+01 0.  1.
       -5    1    3    3    0  502 -0.53648713986E+03  0.28924209358E+02  0.51544413505E+02  0.53975362684E+03  0.46999998093E+01 0. -1.
</event>
<event>
 5   0  0.1553937E-04  0.1101967E+04  0.7818609E-02  0.9203277E-01
        2   -1    0    0  501    0  0.00000000000E+00  0.00000000000E+00  0.89758743168E+03  0.89758743168E+03  0.25500000920E-02 0.  1.
       -2   -1    0    0    0  501  0.00000000000E+00  0.00000000000E+00 -0.33822106280E+03  0.33822106281E+03  0.25500000920E-02 0. -1.
    10030    2    1    2    0    0  0.00000000000E+00  0.00000000000E+00  0.55936636888E+03  0.12358084945E+04  0.11019672865E+04 0.  0.
        1    1    3    3  502    0 -0.30287179038E+03  0.30872287169E+03  0.66252856689E+03  0.79119228692E+03  0.50400001928E-02 0.  1.
       -1    1    3    3    0  502  0.30287179038E+03 -0.30872287169E+03 -0.10316219800E+03  0.44461620757E+03  0.50400001928E-02 0. -1.
</event>
<event>
 5   0  0.9346836E-05  0.1100866E+04  0.7818609E-02  0.9204348E-01
       -1   -1    0    0    0  501  0.00000000000E+00  0.00000000000E+00  0.21167744211E+03  0.21167744217E+03  0.50400001928E-02 0. -1.
        1   -1    0    0  501    0  0.00000000000E+00  0.00000000000E+00 -0.14313118467E+04  0.14313118467E+04  0.50400001928E-02 0.  1.
    10030    2    1    2    0    0  0.00000000000E+00  0.00000000000E+00 -0.12196344046E+04  0.16429892888E+04  0.11008658967E+04 0.  0.
        5    1    3    3  502    0 -0.29438175668E+03  0.40319381893E+02 -0.13013042334E+04  0.13348037568E+04  0.46999998093E+01 0.  1.
       -5    1    3    3    0  502  0.29438175668E+03 -0.40319381893E+02  0.81669828864E+02  0.30818553205E+03  0.46999998093E+01 0. -1.
</event>
<event>
 5   0  0.8657442E-05  0.1099784E+04  0.7818609E-02  0.9205403E-01
        1   -1    0    0  501    0  0.00000000000E+00  0.00000000000E+00  0.31089794880E+03  0.31089794884E+03  0.50400001928E-02 0.  1.
       -1   -1    0    0    0  501  0.00000000000E+00  0.00000000000E+00 -0.97260574303E+03  0.97260574304E+03  0.50400001928E-02 0. -1.
    10030    2    1    2    0    0  0.00000000000E+00  0.00000000000E+00 -0.66170779423E+03  0.12835036919E+04  0.10997838525E+04 0.  0.
        1    1    3    3  502    0  0.25514668911E+03  0.57419349041E+02 -0.89537886800E+03  0.93279158009E+03  0.50400001928E-02 0. -1.
       -1    1    3    3    0  502 -0.25514668911E+03 -0.57419349041E+02  0.23367107377E+03  0.35071211178E+03  0.50400001928E-02 0.  1.
</event>
<event>
 5   0  0.8657442E-05  0.1099722E+04  0.7818609E-02  0.9205463E-01
        1   -1    0    0  501    0  0.00000000000E+00  0.00000000000E+00  0.16994188951E+04  0.16994188951E+04  0.50400001928E-02 0.  1.
       -1   -1    0    0    0  501  0.00000000000E+00  0.00000000000E+00 -0.17791198676E+03  0.17791198684E+03  0.50400001928E-02 0. -1.
    10030    2    1    2    0    0  0.00000000000E+00  0.00000000000E+00  0.15215069083E+04  0.18773308819E+04  0.10997217685E+04 0.  0.
        1    1    3    3  502    0 -0.53162092283E+03 -0.13824214474E+03  0.80309824509E+03  0.97298432025E+03  0.50400001928E-02 0. -1.
       -1    1    3    3    0  502  0.53162092283E+03  0.13824214474E+03  0.71840866322E+03  0.90434656166E+03  0.50400001928E-02 0.  1.
</event>
<event>
 5   0  0.9346836E-05  0.1100222E+04  0.7818609E-02  0.9204975E-01
       -1   -1    0    0    0  501  0.00000000000E+00  0.00000000000E+00  0.46593527786E+03  0.46593527789E+03  0.50400001928E-02 0. -1.
        1   -1    0    0  501    0  0.00000000000E+00  0.00000000000E+00 -0.64949419077E+03  0.64949419079E+03  0.50400001928E-02 0.  1.
    10030    2    1    2    0    0  0.00000000000E+00  0.00000000000E+00 -0.18355891291E+03  0.11154294687E+04  0.11002222617E+04 0.  0.
        5    1    3    3  502    0 -0.29322566027E+03  0.45953411583E+03 -0.16953663299E+02  0.54540114425E+03  0.46999998093E+01 0.  1.
       -5    1    3    3    0  502  0.29322566027E+03 -0.45953411583E+03 -0.16660524961E+03  0.57002832443E+03  0.46999998093E+01 0. -1.
</event>
<event>
 5   0  0.1574101E-04  0.1098988E+04  0.7818609E-02  0.9206179E-01
        2   -1    0    0  501    0  0.00000000000E+00  0.00000000000E+00  0.88440370902E+03  0.88440370902E+03  0.25500000920E-02 0. -1.
       -2   -1    0    0    0  501  0.00000000000E+00  0.00000000000E+00 -0.34140930311E+03  0.34140930312E+03  0.25500000920E-02 0.  1.
    10030    2    1    2    0    0  0.00000000000E+00  0.00000000000E+00  0.54299440591E+03  0.12258130121E+04  0.10989879962E+04 0.  0.
        4    1    3    3  502    0  0.50407717080E+03 -0.16130730146E+03  0.10670363573E+03  0.53990843520E+03  0.12699999809E+01 0.  1.
       -4    1    3    3    0  502 -0.50407717080E+03  0.16130730146E+03  0.43629077018E+03  0.68590457694E+03  0.12699999809E+01 0. -1.
</event>
<event>
 5   0  0.1464205E-04  0.1099564E+04  0.7818609E-02  0.9205617E-01
        2   -1    0    0  501    0  0.00000000000E+00  0.00000000000E+00  0.64182659390E+03  0.64182659391E+03  0.25500000920E-02 0.  1.
       -2   -1    0    0    0  501  0.00000000000E+00  0.00000000000E+00 -0.47093772161E+03  0.47093772161E+03  0.25500000920E-02 0. -1.
    10030    2    1    2    0    0  0.00000000000E+00  0.00000000000E+00  0.17088887230E+03  0.11127643155E+04  0.10995641933E+04 0.  0.
        3    1    3    3  502    0 -0.31944758627E+03 -0.39720084624E+03  0.29393971887E+03  0.58840108867E+03  0.10100000352E+00 0.  1.
       -3    1    3    3    0  502  0.31944758627E+03  0.39720084624E+03 -0.12305084657E+03  0.52436322684E+03  0.10100000352E+00 0. -1.
</event>
<event>
 5   0  0.1540772E-04  0.1097549E+04  0.7818609E-02  0.9207584E-01
        2   -1    0    0  501    0  0.00000000000E+00  0.00000000000E+00  0.58629481778E+03  0.58629481779E+03  0.25500000920E-02 0. -1.
       -2   -1    0    0    0  501  0.00000000000E+00  0.00000000000E+00 -0.51365560699E+03  0.51365560699E+03  0.25500000920E-02 0.  1.
    10030    2    1    2    0    0  0.00000000000E+00  0.00000000000E+00  0.72639210794E+02  0.10999504248E+04  0.10975493073E+04 0.  0.
        2    1    3    3  502    0 -0.37036518844E+03  0.23021878169E+03  0.37018887068E+03  0.57202347874E+03  0.25500000920E-02 0. -1.
       -2    1    3    3    0  502  0.37036518844E+03 -0.23021878169E+03 -0.29754965989E+03  0.52792694604E+03  0.25500000920E-02 0.  1.
</event>
<event>
 5   0  0.1553937E-04  0.1100101E+04  0.7818609E-02  0.9205093E-01
       -2   -1    0    0    0  501  0.00000000000E+00  0.00000000000E+00  0.36959348197E+03  0.36959348198E+03  0.25500000920E-02 0. -1.
        2   -1    0    0  501    0  0.00000000000E+00  0.00000000000E+00 -0.81861747892E+03  0.81861747892E+03  0.25500000920E-02 0.  1.
    10030    2    1    2    0    0  0.00000000000E+00  0.00000000000E+00 -0.44902399695E+03  0.11882109609E+04  0.11001012398E+04 0.  0.
        1    1    3    3  502    0  0.16464961744E+03 -0.48200915178E+02 -0.78898077715E+03  0.80741779240E+03  0.50400001928E-02 0.  1.
       -1    1    3    3    0  502 -0.16464961744E+03  0.48200915178E+02  0.33995678020E+03  0.38079316850E+03  0.50400001928E-02 0. -1.
</event>
<event>
 5   0  0.1503277E-04  0.1100074E+04  0.7818609E-02  0.9205120E-01
        2   -1    0    0  501    0  0.00000000000E+00  0.00000000000E+00  0.50031733346E+03  0.50031733347E+03  0.25500000920E-02 0. -1.
       -2   -1    0    0    0  501  0.00000000000E+00  0.00000000000E+00 -0.60469756102E+03  0.60469756102E+03  0.25500000920E-02 0.  1.
    10030    2    1    2    0    0  0.00000000000E+00  0.00000000000E+00 -0.10438022756E+03  0.11050148945E+04  0.11000739453E+04 0.  0.
        5    1    3    3  502    0 -0.46983751807E+03 -0.10727901912E+03  0.21407118873E+03  0.52735627916E+03  0.46999998093E+01 0.  1.
       -5    1    3    3    0  502  0.46983751807E+03  0.10727901912E+03 -0.31845141629E+03  0.57765861533E+03  0.46999998093E+01 0. -1.
</event>
<event>
 5   0  0.1464205E-04  0.1100013E+04  0.7818609E-02  0.9205179E-01
        2   -1    0    0  501    0  0.00000000000E+00  0.00000000000E+00  0.14776391410E+04  0.14776391410E+04  0.25500000920E-02 0. -1.
       -2   -1    0    0    0  501  0.00000000000E+00  0.00000000000E+00 -0.20472347316E+03  0.20472347318E+03  0.25500000920E-02 0.  1.
    10030    2    1    2    0    0  0.00000000000E+00  0.00000000000E+00  0.12729156678E+04  0.16823626142E+04  0.11000134854E+04 0.  0.
        3    1    3    3  502    0 -0.13513834725E+03 -0.15947925028E+03  0.14145182170E+04  0.14298803449E+04  0.10100000352E+00 0. -1.
       -3    1    3    3    0  502  0.13513834725E+03  0.15947925028E+03 -0.14160254920E+03  0.25248226929E+03  0.10100000352E+00 0.  1.
</event>
<event>
 5   0  0.8657442E-05  0.1100092E+04  0.7818609E-02  0.9205103E-01
        1   -1    0    0  501    0  0.00000000000E+00  0.00000000000E+00  0.20825187705E+04  0.20825187705E+04  0.50400001928E-02 0.  1.
       -1   -1    0    0    0  501  0.00000000000E+00  0.00000000000E+00 -0.14528100168E+03  0.14528100177E+03  0.50400001928E-02 0. -1.
    10030    2    1    2    0    0  0.00000000000E+00  0.00000000000E+00  0.19372377688E+04  0.22277997723E+04  0.11000916564E+04 0.  0.
        1    1    3    3  502    0 -0.32658229467E+03  0.13033209501E+03  0.11205034406E+03  0.36904976604E+03  0.50400001928E-02 0. -1.
       -1    1    3    3    0  502  0.32658229467E+03 -0.13033209501E+03  0.18251874248E+04  0.18587500062E+04  0.50400001928E-02 0.  1.
</event>
<event>
 5   0  0.8921459E-05  0.1100043E+04  0.7818609E-02  0.9205150E-01
        1   -1    0    0  501    0  0.00000000000E+00  0.00000000000E+00  0.19613399474E+04  0.19613399474E+04  0.50400001928E-02 0.  1.
       -1   -1    0    0    0  501  0.00000000000E+00  0.00000000000E+00 -0.15424336238E+03  0.15424336246E+03  0.50400001928E-02 0. -1.
    10030    2    1    2    0    0  0.00000000000E+00  0.00000000000E+00  0.18070965850E+04  0.21155833099E+04  0.11000430325E+04 0.  0.
        3    1    3    3  502    0 -0.49333094490E+03 -0.20821467091E+03  0.11452494498E+04  0.12642488216E+04  0.10100000352E+00 0. -1.
       -3    1    3    3    0  502  0.49333094490E+03  0.20821467091E+03  0.66184713525E+03  0.85133448833E+03  0.10100000352E+00 0.  1.
</event>
<event>
 5   0  0.9346836E-05  0.1097767E+04  0.7818609E-02  0.9207371E-01
       -1   -1    0    0    0  501  0.00000000000E+00  0.00000000000E+00  0.88477928713E+03  0.88477928715E+03  0.50400001928E-02 0. -1.
        1   -1    0    0  501    0  0.00000000000E+00  0.00000000000E+00 -0.34050646666E+03  0.34050646669E+03  0.50400001928E-02 0.  1.
    10030    2    1    2    0    0  0.00000000000E+00  0.00000000000E+00  0.54427282048E+03  0.12252857538E+04  0.10977669495E+04 0.  0.
        5    1    3    3  502    0  0.43644212035E+03  0.32601068086E+03  0.19737612929E+03  0.57943430590E+03  0.46999998093E+01 0.  1.
       -5    1    3    3    0  502 -0.43644212035E+03 -0.32601068086E+03  0.34689669119E+03  0.64585144794E+03  0.46999998093E+01 0. -1.
</event>
<event>
 5   0  0.8921459E-05  0.1100059E+04  0.7818609E-02  0.9205134E-01
        1   -1    0    0  501    0  0.00000000000E+00  0.00000000000E+00  0.92794656186E+03  0.92794656187E+03  0.50400001928E-02 0. -1.
       -1   -1    0    0    0  501  0.00000000000E+00  0.00000000000E+00 -0.32602363979E+03  0.32602363983E+03  0.50400001928E-02 0.  1.
    10030    2    1    2    0    0  0.00000000000E+00  0.00000000000E+00  0.60192292207E+03  0.12539702017E+04  0.11000591178E+04 0.  0.
        3    1    3    3  502    0 -0.32812973774E+03  0.38062562460E+03  0.46101294097E+02  0.50464871982E+03  0.10100000352E+00 0.  1.
       -3    1    3    3    0  502  0.32812973774E+03 -0.38062562460E+03  0.55582162797E+03  0.74932148188E+03  0.10100000352E+00 0. -1.
</event>
<event>
 5   0  0.1540772E-04  0.1099914E+04  0.7818609E-02  0.9205276E-01
        2   -1    0    0  501    0  0.00000000000E+00  0.00000000000E+00  0.13862344464E+04  0.13862344464E+04  0.25500000920E-02 0. -1.
       -2   -1    0    0    0  501  0.00000000000E+00  0.00000000000E+00 -0.21818284281E+03  0.21818284283E+03  0.25500000920E-02 0.  1.
    10030    2    1    2    0    0  0.00000000000E+00  0.00000000000E+00  0.11680516036E+04  0.16044172893E+04  0.10999137645E+04 0.  0.
        2    1    3    3  502    0  0.94950905372E+02 -0.31954666425E+03  0.12220639285E+04  0.12667146445E+04  0.25500000920E-02 0. -1.
       -2    1    3    3    0  502 -0.94950905372E+02  0.31954666425E+03 -0.54012324907E+02  0.33770264481E+03  0.25500000920E-02 0.  1.
</event>
<event>
 5   0  0.1464205E-04  0.1100006E+04  0.7818609E-02  0.9205186E-01
       -2   -1    0    0    0  501  0.00000000000E+00  0.00000000000E+00  0.28909400042E+03  0.28909400043E+03  0.25500000920E-02 0. -1.
        2   -1    0    0  501    0  0.00000000000E+00  0.00000000000E+00 -0.10463847935E+04  0.10463847935E+04  0.25500000920E-02 0.  1.
    10030    2    1    2    0    0  0.00000000000E+00  0.00000000000E+00 -0.75729079308E+03  0.13354787939E+04  0.11000064835E+04 0.  0.
        3    1    3    3  502    0  0.20922482313E+03 -0.46702282117E+03 -0.62332747504E+03  0.80648775158E+03  0.10100000352E+00 0.  1.
       -3    1    3    3    0  502 -0.20922482313E+03  0.46702282117E+03 -0.13396331804E+03  0.52899104235E+03  0.10100000352E+00 0. -1.
</event>
<event>
 5   0  0.8921459E-05  0.1099607E+04  0.7818609E-02  0.9205575E-01
        1   -1    0    0  501    0  0.00000000000E+00  0.00000000000E+00  0.37098225707E+03  0.37098225711E+03  0.50400001928E-02 0.  1.
       -1   -1    0    0    0  501  0.00000000000E+00  0.00000000000E+00 -0.81481999506E+03  0.81481999508E+03  0.50400001928E-02 0. -1.
    10030    2    1    2    0    0  0.00000000000E+00  0.00000000000E+00 -0.44383773799E+03  0.11858022522E+04  0.10996067677E+04 0.  0.
        3    1    3    3  502    0 -0.11602777981E+03  0.16227022405E+03  0.33057947795E+03  0.38610474323E+03  0.10100000352E+00 0.  1.
       -3    1    3    3    0  502  0.11602777981E+03 -0.16227022405E+03 -0.77441721593E+03  0.79969750896E+03  0.10100000352E+00 0. -1.
</event>
<event>
 5   0  0.8621738E-05  0.1099773E+04  0.7818609E-02  0.9205413E-01
        1   -1    0    0  501    0  0.00000000000E+00  0.00000000000E+00  0.10388934444E+04  0.10388934444E+04  0.50400001928E-02 0.  1.
       -1   -1    0    0    0  501  0.00000000000E+00  0.00000000000E+00 -0.29105502809E+03  0.29105502814E+03  0.50400001928E-02 0. -1.
    10030    2    1    2    0    0  0.00000000000E+00  0.00000000000E+00  0.74783841631E+03  0.13299484726E+04  0.10997729960E+04 0.  0.
        2    1    3    3  502    0 -0.18945928369E+03  0.18656058702E+03 -0.20814622177E+03  0.33767517298E+03  0.25500000920E-02 0. -1.
       -2    1    3    3    0  502  0.18945928369E+03 -0.18656058702E+03  0.95598463808E+03  0.99227329958E+03  0.25500000920E-02 0.  1.
</event>
<event>
 5   0  0.1540772E-04  0.1099811E+04  0.7818609E-02  0.9205376E-01
        2   -1    0    0  501    0  0.00000000000E+00  0.00000000000E+00  0.10333502919E+04  0.10333502919E+04  0.25500000920E-02 0. -1.
       -2   -1    0    0    0  501  0.00000000000E+00  0.00000000000E+00 -0.29263675073E+03  0.29263675074E+03  0.25500000920E-02 0.  1.
    10030    2    1    2    0    0  0.00000000000E+00  0.00000000000E+00  0.74071354113E+03  0.13259870426E+04  0.10998113871E+04 0.  0.
        2    1    3    3  502    0  0.49566985136E+03  0.11141628840E+03  0.62409968022E+03  0.80473759806E+03  0.25500000920E-02 0. -1.
       -2    1    3    3    0  502 -0.49566985136E+03 -0.11141628840E+03  0.11661386091E+03  0.52124944454E+03  0.25500000920E-02 0.  1.
</event>
<event>
 5   0  0.8621738E-05  0.1099753E+04  0.7818609E-02  0.9205432E-01
       -1   -1    0    0    0  501  0.00000000000E+00  0.00000000000E+00  0.31730906764E+03  0.31730906768E+03  0.50400001928E-02 0.  1.
        1   -1    0    0  501    0  0.00000000000E+00  0.00000000000E+00 -0.95290152152E+03  0.95290152153E+03  0.50400001928E-02 0. -1.
    10030    2    1    2    0    0  0.00000000000E+00  0.00000000000E+00 -0.63559245387E+03  0.12702105892E+04  0.10997532330E+04 0.  0.
        2    1    3    3  502    0 -0.24074976466E+03  0.34614779836E+03  0.89878990294E+02  0.43111133179E+03  0.25500000920E-02 0.  1.
       -2    1    3    3    0  502  0.24074976466E+03 -0.34614779836E+03 -0.72547144417E+03  0.83909925742E+03  0.25500000920E-02 0. -1.
</event>
<event>
 5   0  0.6010125E-05  0.1099991E+04  0.7818609E-02  0.9205201E-01
       -3   -1    0    0    0  501  0.00000000000E+00  0.00000000000E+00  0.36296083261E+03  0.36296084666E+03  0.10100000352E+00 0. -1.
        3   -1    0    0  501    0  0.00000000000E+00  0.00000000000E+00 -0.83340910450E+03  0.83340911062E+03  0.10100000352E+00 0.  1.
    10030    2    1    2    0    0  0.00000000000E+00  0.00000000000E+00 -0.47044827189E+03  0.11963699573E+04  0.10999906809E+04 0.  0.
        2    1    3    3  502    0 -0.45181125295E+03 -0.21830079476E+03 -0.48013449253E+03  0.69449101953E+03  0.25500000920E-02 0. -1.
       -2    1    3    3    0  502  0.45181125295E+03  0.21830079476E+03  0.96862206419E+01  0.50187893775E+03  0.25500000920E-02 0.  1.
</event>
<event>
 5   0  0.1553937E-04  0.1099971E+04  0.7818609E-02  0.9205220E-01
        2   -1    0    0  501    0  0.00000000000E+00  0.00000000000E+00  0.23640711558E+04  0.23640711558E+04  0.25500000920E-02 0. -1.
       -2   -1    0    0    0  501  0.00000000000E+00  0.00000000000E+00 -0.12795044277E+03  0.12795044280E+03  0.25500000920E-02 0.  1.
    10030    2    1    2    0    0  0.00000000000E+00  0.00000000000E+00  0.22361207130E+04  0.24920215986E+04  0.10999708199E+04 0.  0.
        1    1    3    3  502    0  0.29577221941E+03 -0.21542808089E+03  0.18782887141E+03  0.41130298902E+03  0.50400001928E-02 0.  1.
       -1    1    3    3    0  502 -0.29577221941E+03  0.21542808089E+03  0.20482918416E+04  0.20807186096E+04  0.50400001928E-02 0. -1.
</event>
<event>
 5   0  0.8621738E-05  0.1100422E+04  0.7818609E-02  0.9204780E-01
       -1   -1    0    0    0  501  0.00000000000E+00  0.00000000000E+00  0.22980271023E+03  0.22980271029E+03  0.50400001928E-02 0.  1.
        1   -1    0    0  501    0  0.00000000000E+00  0.00000000000E+00 -0.13173578537E+04  0.13173578537E+04  0.50400001928E-02 0. -1.
    10030    2    1    2    0    0  0.00000000000E+00  0.00000000000E+00 -0.10875551435E+04  0.15471605640E+04  0.11004224737E+04 0.  0.
        2    1    3    3  502    0 -0.20281811534E+03  0.40794247031E+03 -0.97753721876E+03  0.10784856332E+04  0.25500000920E-02 0. -1.
       -2    1    3    3    0  502  0.20281811534E+03 -0.40794247031E+03 -0.11001792473E+03  0.46867493080E+03  0.25500000920E-02 0.  1.
</event>
<event>
 5   0  0.8657442E-05  0.1099685E+04  0.7818609E-02  0.9205499E-01
        1   -1    0    0  501    0  0.00000000000E+00  0.00000000000E+00  0.78101104291E+03  0.78101104292E+03  0.50400001928E-02 0.  1.
       -1   -1    0    0    0  501  0.00000000000E+00  0.00000000000E+00 -0.38709675390E+03  0.38709675393E+03  0.50400001928E-02 0. -1.
    10030    2    1    2    0    0  0.00000000000E+00  0.00000000000E+00  0.39391428901E+03  0.11681077969E+04  0.10996851177E+04 0.  0.
        1    1    3    3  502    0 -0.39220023003E+03  0.24391948314E+03  0.51386411491E+03  0.69092261745E+03  0.50400001928E-02 0.  1.
       -1    1    3    3    0  502  0.39220023003E+03 -0.24391948314E+03 -0.11994982590E+03  0.47718517941E+03  0.50400001928E-02 0. -1.
</event>
<event>
 5   0  0.8621738E-05  0.1099252E+04  0.7818609E-02  0.9205921E-01
       -1   -1    0    0    0  501  0.00000000000E+00  0.00000000000E+00  0.92100522608E+03  0.92100522609E+03  0.50400001928E-02 0.  1.
        1   -1    0    0  501    0  0.00000000000E+00  0.00000000000E+00 -0.32799903017E+03  0.32799903021E+03  0.50400001928E-02 0. -1.
    10030    2    1    2    0    0  0.00000000000E+00  0.00000000000E+00  0.59300619591E+03  0.12490042563E+04  0.10992521475E+04 0.  0.
        2    1    3    3  502    0 -0.33017628702E+03  0.36871269987E+03  0.56806795310E+03  0.75343655001E+03  0.25500000920E-02 0.  1.
       -2    1    3    3    0  502  0.33017628702E+03 -0.36871269987E+03  0.24938242810E+02  0.49556770628E+03  0.25500000920E-02 0. -1.
</event>
<event>
 5   0  0.1553937E-04  0.1099714E+04  0.7818609E-02  0.9205471E-01
        2   -1    0    0  501    0  0.00000000000E+00  0.00000000000E+00  0.61833400509E+03  0.61833400510E+03  0.25500000920E-02 0.  1.
       -2   -1    0    0    0  501  0.00000000000E+00  0.00000000000E+00 -0.48896340794E+03  0.48896340795E+03  0.25500000920E-02 0. -1.
    10030    2    1    2    0    0  0.00000000000E+00  0.00000000000E+00  0.12937059715E+03  0.11072974130E+04  0.10997139671E+04 0.  0.
        1    1    3    3  502    0 -0.76012508833E+00  0.13456787781E+03  0.60149735408E+03  0.61636690252E+03  0.50400001928E-02 0.  1.
       -1    1    3    3    0  502  0.76012508833E+00 -0.13456787781E+03 -0.47212675694E+03  0.49093051053E+03  0.50400001928E-02 0. -1.
</event>
<event>
 5   0  0.1503277E-04  0.1094224E+04  0.7818609E-02  0.9210840E-01
        2   -1    0    0  501    0  0.00000000000E+00  0.00000000000E+00  0.18145254284E+04  0.18145254284E+04  0.25500000920E-02 0. -1.
       -2   -1    0    0    0  501  0.00000000000E+00  0.00000000000E+00 -0.16496398475E+03  0.16496398477E+03  0.25500000920E-02 0.  1.
    10030    2    1    2    0    0  0.00000000000E+00  0.00000000000E+00  0.16495614436E+04  0.19794894131E+04  0.10942236428E+04 0.  0.
        5    1    3    3  502    0  0.29558368717E+03  0.32090785225E+03  0.14219205398E+04  0.14873572796E+04  0.46999998093E+01 0.  1.
       -5    1    3    3    0  502 -0.29558368717E+03 -0.32090785225E+03  0.22764090385E+03  0.49213213354E+03  0.46999998093E+01 0. -1.
</event>
<event>
 5   0  0.8921459E-05  0.1100673E+04  0.7818609E-02  0.9204536E-01
        1   -1    0    0  501    0  0.00000000000E+00  0.00000000000E+00  0.17651316126E+04  0.17651316126E+04  0.50400001928E-02 0. -1.
       -1   -1    0    0    0  501  0.00000000000E+00  0.00000000000E+00 -0.17158515980E+03  0.17158515988E+03  0.50400001928E-02 0.  1.
    10030    2    1    2    0    0  0.00000000000E+00  0.00000000000E+00  0.15935464527E+04  0.19367167724E+04  0.11006732302E+04 0.  0.
        3    1    3    3  502    0  0.22381938294E+02 -0.12082181076E+03  0.17406854582E+04  0.17450171161E+04  0.10100000352E+00 0. -1.
       -3    1    3    3    0  502 -0.22381938294E+02  0.12082181076E+03 -0.14713900541E+03  0.19169965631E+03  0.10100000352E+00 0.  1.
</event>
<event>
 5   0  0.1574101E-04  0.1100365E+04  0.7818609E-02  0.9204836E-01
        2   -1    0    0  501    0  0.00000000000E+00  0.00000000000E+00  0.10154912509E+04  0.10154912509E+04  0.25500000920E-02 0.  1.
       -2   -1    0    0    0  501  0.00000000000E+00  0.00000000000E+00 -0.29808308316E+03  0.29808308317E+03  0.25500000920E-02 0. -1.
    10030    2    1    2    0    0  0.00000000000E+00  0.00000000000E+00  0.71740816778E+03  0.13135743341E+04  0.11003649631E+04 0.  0.
        4    1    3    3  502    0  0.50375226378E+03 -0.21962932164E+03  0.39019244838E+03  0.67398452642E+03  0.12699999809E+01 0.  1.
       -4    1    3    3    0  502 -0.50375226378E+03  0.21962932164E+03  0.32721571940E+03  0.63958980770E+03  0.12699999809E+01 0. -1.
</event>
<event>
 5   0  0.9016738E-05  0.1099630E+04  0.7818609E-02  0.9205552E-01
        1   -1    0    0  501    0  0.00000000000E+00  0.00000000000E+00  0.21033282456E+04  0.21033282456E+04  0.50400001928E-02 0.  1.
       -1   -1    0    0    0  501  0.00000000000E+00  0.00000000000E+00 -0.14372307174E+03  0.14372307183E+03  0.50400001928E-02 0. -1.
    10030    2    1    2    0    0  0.00000000000E+00  0.00000000000E+00  0.19596051739E+04  0.22470513175E+04  0.10996304769E+04 0.  0.
        4    1    3    3  502    0  0.53664101771E+03 -0.86612140033E+02  0.11484337476E+04  0.12705852707E+04  0.12699999809E+01 0. -1.
       -4    1    3    3    0  502 -0.53664101771E+03  0.86612140033E+02  0.81117142628E+03  0.97646604672E+03  0.12699999809E+01 0.  1.
</event>
<event>
 5   0  0.9346836E-05  0.1099949E+04  0.7818609E-02  0.9205241E-01
       -1   -1    0    0    0  501  0.00000000000E+00  0.00000000000E+00  0.10013915898E+03  0.10013915911E+03  0.50400001928E-02 0. -1.
        1   -1    0    0  501    0  0.00000000000E+00  0.00000000000E+00 -0.30205173152E+04  0.30205173153E+04  0.50400001928E-02 0.  1.
    10030    2    1    2    0    0  0.00000000000E+00  0.00000000000E+00 -0.29203781563E+04  0.31206564744E+04  0.10999492058E+04 0.  0.
        5    1    3    3  502    0 -0.11984583859E+03  0.45749823291E+03 -0.66386892996E+03  0.81511453447E+03  0.46999998093E+01 0. -1.
       -5    1    3    3    0  502  0.11984583859E+03 -0.45749823291E+03 -0.22565092263E+04  0.23055419399E+04  0.46999998093E+01 0.  1.
</event>
<event>
 5   0  0.8621738E-05  0.1099482E+04  0.7818609E-02  0.9205697E-01
        1   -1    0    0  501    0  0.00000000000E+00  0.00000000000E+00  0.20869379328E+04  0.20869379328E+04  0.50400001928E-02 0.  1.
       -1   -1    0    0    0  501  0.00000000000E+00  0.00000000000E+00 -0.14481272017E+03  0.14481272025E+03  0.50400001928E-02 0. -1.
    10030    2    1    2    0    0  0.00000000000E+00  0.00000000000E+00  0.19421252126E+04  0.22317506530E+04  0.10994819852E+04 0.  0.
        2    1    3    3  502    0  0.51114597982E+03  0.16828997008E+02  0.13803708435E+04  0.14720655873E+04  0.25500000920E-02 0.  1.
       -2    1    3    3    0  502 -0.51114597982E+03 -0.16828997008E+02  0.56175436913E+03  0.75968506572E+03  0.25500000920E-02 0. -1.
</event>
<event>
 5   0  0.8621738E-05  0.1099258E+04  0.7818609E-02  0.9205916E-01
        1   -1    0    0  501    0  0.00000000000E+00  0.00000000000E+00  0.56116058297E+03  0.56116058299E+03  0.50400001928E-02 0.  1.
       -1   -1    0    0    0  501  0.00000000000E+00  0.00000000000E+00 -0.53833415077E+03  0.53833415079E+03  0.50400001928E-02 0. -1.
    10030    2    1    2    0    0  0.00000000000E+00  0.00000000000E+00  0.22826432204E+02  0.10994947338E+04  0.10992577603E+04 0.  0.
        2    1    3    3  502    0  0.42412644027E+03 -0.72881889303E+02 -0.33056237441E+03  0.54264766701E+03  0.25500000920E-02 0. -1.
       -2    1    3    3    0  502 -0.42412644027E+03  0.72881889303E+02  0.35338880662E+03  0.55684706677E+03  0.25500000920E-02 0.  1.
</event>
<event>
 5   0  0.9346836E-05  0.1099824E+04  0.7818609E-02  0.9205364E-01
       -1   -1    0    0    0  501  0.00000000000E+00  0.00000000000E+00  0.16268084307E+03  0.16268084315E+03  0.50400001928E-02 0.  1.
        1   -1    0    0  501    0  0.00000000000E+00  0.00000000000E+00 -0.18588725361E+04  0.18588725361E+04  0.50400001928E-02 0. -1.
    10030    2    1    2    0    0  0.00000000000E+00  0.00000000000E+00 -0.16961916930E+04  0.20215533792E+04  0.10998235339E+04 0.  0.
        5    1    3    3  502    0  0.10569211843E+03  0.36253078064E+03 -0.11336984083E+03  0.39430217044E+03  0.46999998093E+01 0.  1.
       -5    1    3    3    0  502 -0.10569211843E+03 -0.36253078064E+03 -0.15828218522E+04  0.16272512088E+04  0.46999998093E+01 0. -1.
</event>
<event>
 5   0  0.9346836E-05  0.1099980E+04  0.7818609E-02  0.9205212E-01
       -1   -1    0    0    0  501  0.00000000000E+00  0.00000000000E+00  0.54016489212E+03  0.54016489214E+03  0.50400001928E-02 0. -1.
        1   -1    0    0  501    0  0.00000000000E+00  0.00000000000E+00 -0.55999359704E+03  0.55999359706E+03  0.50400001928E-02 0.  1.
    10030    2    1    2    0    0  0.00000000000E+00  0.00000000000E+00 -0.19828704921E+02  0.11001584892E+04  0.10999797834E+04 0.  0.
        5    1    3    3  502    0  0.18503686627E+03 -0.33599769404E+03 -0.40410234655E+03  0.55718389133E+03  0.46999998093E+01 0.  1.
       -5    1    3    3    0  502 -0.18503686627E+03  0.33599769404E+03  0.38427364162E+03  0.54297459786E+03  0.46999998093E+01 0. -1.
</event>
<event>
 5   0  0.8621738E-05  0.1100644E+04  0.7818609E-02  0.9204564E-01
        1   -1    0    0  501    0  0.00000000000E+00  0.00000000000E+00  0.80215580418E+03  0.80215580419E+03  0.50400001928E-02 0.  1.
       -1   -1    0    0    0  501  0.00000000000E+00  0.00000000000E+00 -0.37755057494E+03  0.37755057498E+03  0.50400001928E-02 0. -1.
    10030    2    1    2    0    0  0.00000000000E+00  0.00000000000E+00  0.42460522924E+03  0.11797063792E+04  0.11006441479E+04 0.  0.
        2    1    3    3  502    0 -0.43583010185E+03  0.29018390156E+03  0.39388198881E+03  0.65520805514E+03  0.25500000920E-02 0.  1.
       -2    1    3    3    0  502  0.43583010185E+03 -0.29018390156E+03  0.30723240426E+02  0.52449832403E+03  0.25500000920E-02 0. -1.
</event>
<event>
 5   0  0.6010125E-05  0.1100132E+04  0.7818609E-02  0.9205063E-01
       -4   -1    0    0    0  501  0.00000000000E+00  0.00000000000E+00  0.13091925431E+04  0.13091931591E+04  0.12699999809E+01 0. -1.
        4   -1    0    0  501    0  0.00000000000E+00  0.00000000000E+00 -0.23111152996E+03  0.23111501937E+03  0.12699999809E+01 0.  1.
    10030    2    1    2    0    0  0.00000000000E+00  0.00000000000E+00  0.10780810131E+04  0.15403081785E+04  0.11001320892E+04 0.  0.
        5    1    3    3  502    0  0.44350593370E+03 -0.30551766661E+03  0.38242806729E+03  0.66053907869E+03  0.46999998093E+01 0. -1.
       -5    1    3    3    0  502 -0.44350593370E+03  0.30551766661E+03  0.69565294586E+03  0.87976909977E+03  0.46999998093E+01 0.  1.
</event>
<event>
 5   0  0.1503277E-04  0.1101382E+04  0.7818609E-02  0.9203846E-01
        2   -1    0    0  501    0  0.00000000000E+00  0.00000000000E+00  0.50993430084E+03  0.50993430084E+03  0.25500000920E-02 0. -1.
       -2   -1    0    0    0  501  0.00000000000E+00  0.00000000000E+00 -0.59470560545E+03  0.59470560545E+03  0.25500000920E-02 0.  1.
    10030    2    1    2    0    0  0.00000000000E+00  0.00000000000E+00 -0.84771304611E+02  0.11046399063E+04  0.11013823807E+04 0.  0.
        5    1    3    3  502    0 -0.13273818265E+03  0.77669666134E+02 -0.57270913008E+03  0.59301757128E+03  0.46999998093E+01 0.  1.
       -5    1    3    3    0  502  0.13273818265E+03 -0.77669666134E+02  0.48793782547E+03  0.51162233502E+03  0.46999998093E+01 0. -1.
</event>
<event>
 5   0  0.1553937E-04  0.1100371E+04  0.7818609E-02  0.9204830E-01
       -2   -1    0    0    0  501  0.00000000000E+00  0.00000000000E+00  0.29643403827E+03  0.29643403829E+03  0.25500000920E-02 0.  1.
        2   -1    0    0  501    0  0.00000000000E+00  0.00000000000E+00 -0.10211522112E+04  0.10211522112E+04  0.25500000920E-02 0. -1.
    10030    2    1    2    0    0  0.00000000000E+00  0.00000000000E+00 -0.72471817289E+03  0.13175862495E+04  0.11003713440E+04 0.  0.
        1    1    3    3  502    0 -0.44698725233E+03  0.29823271614E+03 -0.22086333176E+03  0.58096554809E+03  0.50400001928E-02 0.  1.
       -1    1    3    3    0  502  0.44698725233E+03 -0.29823271614E+03 -0.50385484113E+03  0.73662070137E+03  0.50400001928E-02 0. -1.
</event>
<event>
 5   0  0.9346836E-05  0.1100038E+04  0.7818609E-02  0.9205155E-01
        1   -1    0    0  501    0  0.00000000000E+00  0.00000000000E+00  0.25285577512E+04  0.25285577512E+04  0.50400001928E-02 0.  1.
       -1   -1    0    0    0  501  0.00000000000E+00  0.00000000000E+00 -0.11964174914E+03  0.11964174925E+03  0.50400001928E-02 0. -1.
    10030    2    1    2    0    0  0.00000000000E+00  0.00000000000E+00  0.24089160020E+04  0.26481995004E+04  0.11000383126E+04 0.  0.
        5    1    3    3  502    0  0.44550495537E+02  0.33385964117E+03  0.22511851731E+04  0.22762477414E+04  0.46999998093E+01 0.  1.
       -5    1    3    3    0  502 -0.44550495537E+02 -0.33385964117E+03  0.15773082895E+03  0.37195175904E+03  0.46999998093E+01 0. -1.
</event>
<event>
 5   0  0.8621738E-05  0.1099765E+04  0.7818609E-02  0.9205421E-01
       -1   -1    0    0    0  501  0.00000000000E+00  0.00000000000E+00  0.36988596354E+03  0.36988596358E+03  0.50400001928E-02 0.  1.
        1   -1    0    0  501    0  0.00000000000E+00  0.00000000000E+00 -0.81747020843E+03  0.81747020844E+03  0.50400001928E-02 0. -1.
    10030    2    1    2    0    0  0.00000000000E+00  0.00000000000E+00 -0.44758424488E+03  0.11873561720E+04  0.10997649853E+04 0.  0.
        2    1    3    3  502    0 -0.19205683429E+03 -0.40532136508E+03  0.11966327852E+03  0.46420958286E+03  0.25500000920E-02 0.  1.
       -2    1    3    3    0  502  0.19205683429E+03  0.40532136508E+03 -0.56724752341E+03  0.72314658915E+03  0.25500000920E-02 0. -1.
</event>
<event>
 5   0  0.8657442E-05  0.1099816E+04  0.7818609E-02  0.9205371E-01
       -1   -1    0    0    0  501  0.00000000000E+00  0.00000000000E+00  0.83304560263E+03  0.83304560264E+03  0.50400001928E-02 0.  1.
        1   -1    0    0  501    0  0.00000000000E+00  0.00000000000E+00 -0.36300372337E+03  0.36300372341E+03  0.50400001928E-02 0. -1.
    10030    2    1    2    0    0  0.00000000000E+00  0.00000000000E+00  0.47004187926E+03  0.11960493261E+04  0.10998157219E+04 0.  0.
        1    1    3    3  502    0  0.46783453775E+03  0.12228480997E+03 -0.49762681238E+02  0.48610601100E+03  0.50400001928E-02 0. -1.
       -1    1    3    3    0  502 -0.46783453775E+03 -0.12228480997E+03  0.51980456050E+03  0.70994331506E+03  0.50400001928E-02 0.  1.
</event>
<event>
 5   0  0.1503277E-04  0.1099868E+04  0.7818609E-02  0.9205321E-01
       -2   -1    0    0    0  501  0.00000000000E+00  0.00000000000E+00  0.50546097869E+03  0.50546097870E+03  0.25500000920E-02 0. -1.
        2   -1    0    0  501    0  0.00000000000E+00  0.00000000000E+00 -0.59831960177E+03  0.59831960178E+03  0.25500000920E-02 0.  1.
    10030    2    1    2    0    0  0.00000000000E+00  0.00000000000E+00 -0.92858623085E+02  0.11037805805E+04  0.10998676493E+04 0.  0.
        5    1    3    3  502    0  0.31432748410E+03 -0.13414846225E+03 -0.47878396052E+03  0.58826333222E+03  0.46999998093E+01 0.  1.
       -5    1    3    3    0  502 -0.31432748410E+03  0.13414846225E+03  0.38592533743E+03  0.51551724826E+03  0.46999998093E+01 0. -1.
</event>
<event>
 5   0  0.1503277E-04  0.1099655E+04  0.7818609E-02  0.9205528E-01
       -2   -1    0    0    0  501  0.00000000000E+00  0.00000000000E+00  0.18515365554E+03  0.18515365556E+03  0.25500000920E-02 0.  1.
        2   -1    0    0  501    0  0.00000000000E+00  0.00000000000E+00 -0.16327546124E+04  0.16327546124E+04  0.25500000920E-02 0. -1.
    10030    2    1    2    0    0  0.00000000000E+00  0.00000000000E+00 -0.14476009569E+04  0.18179082680E+04  0.10996553735E+04 0.  0.
        5    1    3    3  502    0  0.38400468123E+03  0.37175787226E+03 -0.51064589284E+03  0.73921906676E+03  0.46999998093E+01 0.  1.
       -5    1    3    3    0  502 -0.38400468123E+03 -0.37175787226E+03 -0.93695506404E+03  0.10786892012E+04  0.46999998093E+01 0. -1.
</event>
<event>
 5   0  0.1574101E-04  0.1099793E+04  0.7818609E-02  0.9205394E-01
        2   -1    0    0  501    0  0.00000000000E+00  0.00000000000E+00  0.12616098454E+04  0.12616098454E+04  0.25500000920E-02 0.  1.
       -2   -1    0    0    0  501  0.00000000000E+00  0.00000000000E+00 -0.23968260332E+03  0.23968260333E+03  0.25500000920E-02 0. -1.
    10030    2    1    2    0    0  0.00000000000E+00  0.00000000000E+00  0.10219272420E+04  0.15012924487E+04  0.10997925843E+04 0.  0.
        4    1    3    3  502    0 -0.30500279341E+03 -0.34250055530E+01  0.11355416848E+04  0.11757954608E+04  0.12699999809E+01 0.  1.
       -4    1    3    3    0  502  0.30500279341E+03  0.34250055530E+01 -0.11361444278E+03  0.32549698794E+03  0.12699999809E+01 0. -1.
</event>
<event>
 5   0  0.9346836E-05  0.1100085E+04  0.7818609E-02  0.9205109E-01
       -1   -1    0    0    0  501  0.00000000000E+00  0.00000000000E+00  0.62363373630E+03  0.62363373632E+03  0.50400001928E-02 0.  1.
        1   -1    0    0  501    0  0.00000000000E+00  0.00000000000E+00 -0.48513529940E+03  0.48513529943E+03  0.50400001928E-02 0. -1.
    10030    2    1    2    0    0  0.00000000000E+00  0.00000000000E+00  0.13849843690E+03  0.11087690358E+04  0.11000849775E+04 0.  0.
        5    1    3    3  502    0  0.27055082875E+03  0.26258490199E+03 -0.33438189440E+03  0.50396619232E+03  0.46999998093E+01 0. -1.
       -5    1    3    3    0  502 -0.27055082875E+03 -0.26258490199E+03  0.47288033130E+03  0.60480284343E+03  0.46999998093E+01 0.  1.
</event>
<event>
 5   0  0.1540772E-04  0.1099438E+04  0.7818609E-02  0.9205739E-01
        2   -1    0    0  501    0  0.00000000000E+00  0.00000000000E+00  0.73844499087E+03  0.73844499088E+03  0.25500000920E-02 0. -1.
       -2   -1    0    0    0  501  0.00000000000E+00  0.00000000000E+00 -0.40922643946E+03  0.40922643947E+03  0.25500000920E-02 0.  1.
    10030    2    1    2    0    0  0.00000000000E+00  0.00000000000E+00  0.32921855141E+03  0.11476714303E+04  0.10994384282E+04 0.  0.
        2    1    3    3  502    0  0.90610941925E+02  0.53826054479E+03  0.23271299148E+03  0.59337180021E+03  0.25500000920E-02 0. -1.
       -2    1    3    3    0  502 -0.90610941925E+02 -0.53826054479E+03  0.96505559932E+02  0.55429963014E+03  0.25500000920E-02 0.  1.
</event>
<event>
 5   0  0.8621738E-05  0.1100331E+04  0.7818609E-02  0.9204869E-01
       -1   -1    0    0    0  501  0.00000000000E+00  0.00000000000E+00  0.28894831891E+03  0.28894831895E+03  0.50400001928E-02 0.  1.
        1   -1    0    0  501    0  0.00000000000E+00  0.00000000000E+00 -0.10475298705E+04  0.10475298705E+04  0.50400001928E-02 0. -1.
    10030    2    1    2    0    0  0.00000000000E+00  0.00000000000E+00 -0.75858155157E+03  0.13364781894E+04  0.11003308505E+04 0.  0.
        2    1    3    3  502    0 -0.31278867872E+03 -0.68427539607E+02  0.16412268063E+03  0.35979902726E+03  0.25500000920E-02 0.  1.
       -2    1    3    3    0  502  0.31278867872E+03  0.68427539607E+02 -0.92270423220E+03  0.97667916218E+03  0.25500000920E-02 0. -1.
</event>
<event>
 5   0  0.1540772E-04  0.1101417E+04  0.7818609E-02  0.9203812E-01
       -2   -1    0    0    0  501  0.00000000000E+00  0.00000000000E+00  0.53396768438E+03  0.53396768439E+03  0.25500000920E-02 0.  1.
        2   -1    0    0  501    0  0.00000000000E+00  0.00000000000E+00 -0.56797448937E+03  0.56797448938E+03  0.25500000920E-02 0. -1.
    10030    2    1    2    0    0  0.00000000000E+00  0.00000000000E+00 -0.34006804992E+02  0.11019421738E+04  0.11014173104E+04 0.  0.
        2    1    3    3  502    0 -0.22600367946E+03  0.34473414963E+03 -0.38236330466E+03  0.56224638176E+03  0.25500000920E-02 0. -1.
       -2    1    3    3    0  502  0.22600367946E+03 -0.34473414963E+03  0.34835649966E+03  0.53969579201E+03  0.25500000920E-02 0.  1.
</event>
<event>
 5   0  0.9346836E-05  0.1100275E+04  0.7818609E-02  0.9204924E-01
       -1   -1    0    0    0  501  0.00000000000E+00  0.00000000000E+00  0.84886139203E+03  0.84886139205E+03  0.50400001928E-02 0.  1.
        1   -1    0    0  501    0  0.00000000000E+00  0.00000000000E+00 -0.35653801429E+03  0.35653801432E+03  0.50400001928E-02 0. -1.
    10030    2    1    2    0    0  0.00000000000E+00  0.00000000000E+00  0.49232337775E+03  0.12053994064E+04  0.11002751568E+04 0.  0.
        5    1    3    3  502    0  0.27583101965E+02 -0.19773858338E+03  0.80774709496E+03  0.83206900813E+03  0.46999998093E+01 0.  1.
       -5    1    3    3    0  502 -0.27583101965E+02  0.19773858338E+03 -0.31542371722E+03  0.37333039824E+03  0.46999998093E+01 0. -1.
</event>
<event>
 5   0  0.1574101E-04  0.1097618E+04  0.7818609E-02  0.9207517E-01
        2   -1    0    0  501    0  0.00000000000E+00  0.00000000000E+00  0.15090889127E+04  0.15090889127E+04  0.25500000920E-02 0.  1.
       -2   -1    0    0    0  501  0.00000000000E+00  0.00000000000E+00 -0.19958475773E+03  0.19958475775E+03  0.25500000920E-02 0. -1.
    10030    2    1    2    0    0  0.00000000000E+00  0.00000000000E+00  0.13095041550E+04  0.17086736704E+04  0.10976176840E+04 0.  0.
        4    1    3    3  502    0 -0.51380536242E+03  0.12493306792E+03  0.88346314413E+03  0.10296178718E+04  0.12699999809E+01 0.  1.
       -4    1    3    3    0  502  0.51380536242E+03 -0.12493306792E+03  0.42604101083E+03  0.67905579868E+03  0.12699999809E+01 0. -1.
</event>
<event>
 5   0  0.8657442E-05  0.1099979E+04  0.7818609E-02  0.9205212E-01
        1   -1    0    0  501    0  0.00000000000E+00  0.00000000000E+00  0.23315915560E+03  0.23315915565E+03  0.50400001928E-02 0. -1.
       -1   -1    0    0    0  501  0.00000000000E+00  0.00000000000E+00 -0.12973486838E+04  0.12973486839E+04  0.50400001928E-02 0.  1.
    10030    2    1    2    0    0  0.00000000000E+00  0.00000000000E+00 -0.10641895282E+04  0.15305078395E+04  0.10999794974E+04 0.  0.
        1    1    3    3  502    0 -0.42986392551E+03 -0.14039225105E+03 -0.96528156357E+02  0.46239665181E+03  0.50400001928E-02 0. -1.
       -1    1    3    3    0  502  0.42986392551E+03  0.14039225105E+03 -0.96766137189E+03  0.10681111877E+04  0.50400001928E-02 0.  1.
</event>
<event>
 5   0  0.9346836E-05  0.1100087E+04  0.7818609E-02  0.9205107E-01
       -1   -1    0    0    0  501  0.00000000000E+00  0.00000000000E+00  0.34682559322E+03  0.34682559326E+03  0.50400001928E-02 0. -1.
        1   -1    0    0  501    0  0.00000000000E+00  0.00000000000E+00 -0.87233428442E+03  0.87233428443E+03  0.50400001928E-02 0.  1.
    10030    2    1    2    0    0  0.00000000000E+00  0.00000000000E+00 -0.52550869120E+03  0.12191598777E+04  0.11000870069E+04 0.  0.
        5    1    3    3  502    0 -0.24877699216E+03  0.30503309708E+03 -0.68851247722E+03  0.79309942846E+03  0.46999998093E+01 0.  1.
       -5    1    3    3    0  502  0.24877699216E+03 -0.30503309708E+03  0.16300378602E+03  0.42606044923E+03  0.46999998093E+01 0. -1.
</event>
<event>
 5   0  0.9016738E-05  0.1099221E+04  0.7818609E-02  0.9205951E-01
       -1   -1    0    0    0  501  0.00000000000E+00  0.00000000000E+00  0.29179978167E+03  0.29179978172E+03  0.50400001928E-02 0. -1.
        1   -1    0    0  501    0  0.00000000000E+00  0.00000000000E+00 -0.10352019324E+04  0.10352019324E+04  0.50400001928E-02 0.  1.
    10030    2    1    2    0    0  0.00000000000E+00  0.00000000000E+00 -0.74340215075E+03  0.13270017141E+04  0.10992209931E+04 0.  0.
        4    1    3    3  502    0  0.15611501637E+03  0.30638196321E+03 -0.88929912462E+03  0.95346544335E+03  0.12699999809E+01 0.  1.
       -4    1    3    3    0  502 -0.15611501637E+03 -0.30638196321E+03  0.14589697388E+03  0.37353627080E+03  0.12699999809E+01 0. -1.
</event>
<event>
 5   0  0.1540772E-04  0.1100411E+04  0.7818609E-02  0.9204791E-01
       -2   -1    0    0    0  501  0.00000000000E+00  0.00000000000E+00  0.73809219420E+03  0.73809219421E+03  0.25500000920E-02 0. -1.
        2   -1    0    0  501    0  0.00000000000E+00  0.00000000000E+00 -0.41014666334E+03  0.41014666335E+03  0.25500000920E-02 0.  1.
    10030    2    1    2    0    0  0.00000000000E+00  0.00000000000E+00  0.32794553086E+03  0.11482388576E+04  0.11004109245E+04 0.  0.
        2    1    3    3  502    0 -0.18652968720E+03 -0.77463607163E+02  0.69801022612E+03  0.72664448695E+03  0.25500000920E-02 0. -1.
       -2    1    3    3    0  502  0.18652968720E+03  0.77463607163E+02 -0.37006469526E+03  0.42159437061E+03  0.25500000920E-02 0.  1.
</event>
<event>
 5   0  0.1464205E-04  0.1100037E+04  0.7818609E-02  0.9205156E-01
       -2   -1    0    0    0  501  0.00000000000E+00  0.00000000000E+00  0.35400023145E+03  0.35400023146E+03  0.25500000920E-02 0. -1.
        2   -1    0    0  501    0  0.00000000000E+00  0.00000000000E+00 -0.85457710537E+03  0.85457710538E+03  0.25500000920E-02 0.  1.
    10030    2    1    2    0    0  0.00000000000E+00  0.00000000000E+00 -0.50057687393E+03  0.12085773368E+04  0.11000372595E+04 0.  0.
        3    1    3    3  502    0  0.52726878915E+03  0.15581250323E+03 -0.23360562987E+03  0.59737886863E+03  0.10100000352E+00 0. -1.
       -3    1    3    3    0  502 -0.52726878915E+03 -0.15581250323E+03 -0.26697124406E+03  0.61119846820E+03  0.10100000352E+00 0.  1.
</event>
<event>
 5   0  0.8921459E-05  0.1099801E+04  0.7818609E-02  0.9205386E-01
       -1   -1    0    0    0  501  0.00000000000E+00  0.00000000000E+00  0.21301894670E+03  0.21301894676E+03  0.50400001928E-02 0. -1.
        1   -1    0    0  501    0  0.00000000000E+00  0.00000000000E+00 -0.14195466332E+04  0.14195466332E+04  0.50400001928E-02 0.  1.
    10030    2    1    2    0    0  0.00000000000E+00  0.00000000000E+00 -0.12065276865E+04  0.16325655800E+04  0.10998005795E+04 0.  0.
        3    1    3    3  502    0 -0.31822923435E+03 -0.38387997390E+03 -0.25909405588E+03  0.56192830499E+03  0.10100000352E+00 0.  1.
       -3    1    3    3    0  502  0.31822923435E+03  0.38387997390E+03 -0.94743363062E+03  0.10706372750E+04  0.10100000352E+00 0. -1.
</event>
<event>
 5   0  0.1503277E-04  0.1099645E+04  0.7818609E-02  0.9205537E-01
        2   -1    0    0  501    0  0.00000000000E+00  0.00000000000E+00  0.21003045106E+03  0.21003045108E+03  0.25500000920E-02 0.  1.
       -2   -1    0    0    0  501  0.00000000000E+00  0.00000000000E+00 -0.14393391453E+04  0.14393391453E+04  0.25500000920E-02 0. -1.
    10030    2    1    2    0    0  0.00000000000E+00  0.00000000000E+00 -0.12293086942E+04  0.16493695964E+04  0.10996454882E+04 0.  0.
        5    1    3    3  502    0 -0.26781769258E+03  0.11123396085E+03  0.85955744946E+02  0.30250585216E+03  0.46999998093E+01 0.  1.
       -5    1    3    3    0  502  0.26781769258E+03 -0.11123396085E+03 -0.13152644392E+04  0.13468637442E+04  0.46999998093E+01 0. -1.
</event>
<event>
 5   0  0.1503277E-04  0.1099736E+04  0.7818609E-02  0.9205450E-01
        2   -1    0    0  501    0  0.00000000000E+00  0.00000000000E+00  0.52455066643E+03  0.52455066643E+03  0.25500000920E-02 0. -1.
       -2   -1    0    0    0  501  0.00000000000E+00  0.00000000000E+00 -0.57640690838E+03  0.57640690838E+03  0.25500000920E-02 0.  1.
    10030    2    1    2    0    0  0.00000000000E+00  0.00000000000E+00 -0.51856241949E+02  0.11009575748E+04  0.10997356554E+04 0.  0.
        5    1    3    3  502    0  0.40084521064E+03 -0.18521083125E+03  0.30208299946E+03  0.53502912394E+03  0.46999998093E+01 0. -1.
       -5    1    3    3    0  502 -0.40084521064E+03  0.18521083125E+03 -0.35393924141E+03  0.56592845088E+03  0.46999998093E+01 0.  1.
</event>
<event>
 5   0  0.1503277E-04  0.1100158E+04  0.7818609E-02  0.9205038E-01
       -2   -1    0    0    0  501  0.00000000000E+00  0.00000000000E+00  0.16849343873E+03  0.16849343875E+03  0.25500000920E-02 0.  1.
        2   -1    0    0  501    0  0.00000000000E+00  0.00000000000E+00 -0.17958389848E+04  0.17958389848E+04  0.25500000920E-02 0. -1.
    10030    2    1    2    0    0  0.00000000000E+00  0.00000000000E+00 -0.16273455461E+04  0.19643324235E+04  0.11001583267E+04 0.  0.
        5    1    3    3  502    0 -0.40719599588E+03 -0.35400569915E+03 -0.62272960692E+03  0.82397989503E+03  0.46999998093E+01 0.  1.
       -5    1    3    3    0  502  0.40719599588E+03  0.35400569915E+03 -0.10046159391E+04  0.11403525285E+04  0.46999998093E+01 0. -1.
</event>
<event>
 5   0  0.9016738E-05  0.1100062E+04  0.7818609E-02  0.9205131E-01
        1   -1    0    0  501    0  0.00000000000E+00  0.00000000000E+00  0.10745139143E+04  0.10745139143E+04  0.50400001928E-02 0.  1.
       -1   -1    0    0    0  501  0.00000000000E+00  0.00000000000E+00 -0.28155445373E+03  0.28155445378E+03  0.50400001928E-02 0. -1.
    10030    2    1    2    0    0  0.00000000000E+00  0.00000000000E+00  0.79295946058E+03  0.13560683681E+04  0.11000621404E+04 0.  0.
        4    1    3    3  502    0  0.23527760508E+03 -0.45073490200E+03  0.65510146843E+03  0.82926295599E+03  0.12699999809E+01 0.  1.
       -4    1    3    3    0  502 -0.23527760508E+03  0.45073490200E+03  0.13785799214E+03  0.52680541211E+03  0.12699999809E+01 0. -1.
</event>
<event>
 5   0  0.1574101E-04  0.1100092E+04  0.7818609E-02  0.9205103E-01
       -2   -1    0    0    0  501  0.00000000000E+00  0.00000000000E+00  0.93360485996E+03  0.93360485997E+03  0.25500000920E-02 0. -1.
        2   -1    0    0  501    0  0.00000000000E+00  0.00000000000E+00 -0.32406681854E+03  0.32406681855E+03  0.25500000920E-02 0.  1.
    10030    2    1    2    0    0  0.00000000000E+00  0.00000000000E+00  0.60953804143E+03  0.12576716785E+04  0.11000915539E+04 0.  0.
        4    1    3    3  502    0 -0.43130505211E+03 -0.22877964701E+03  0.15132204177E+02  0.48846163756E+03  0.12699999809E+01 0.  1.
       -4    1    3    3    0  502  0.43130505211E+03  0.22877964701E+03  0.59440583725E+03  0.76921004096E+03  0.12699999809E+01 0. -1.
</event>
<event>
 5   0  0.9016738E-05  0.1098743E+04  0.7818609E-02  0.9206418E-01
       -1   -1    0    0    0  501  0.00000000000E+00  0.00000000000E+00  0.24470789756E+03  0.24470789761E+03  0.50400001928E-02 0.  1.
        1   -1    0    0  501    0  0.00000000000E+00  0.00000000000E+00 -0.12333440216E+04  0.12333440216E+04  0.50400001928E-02 0. -1.
    10030    2    1    2    0    0  0.00000000000E+00  0.00000000000E+00 -0.98863612402E+03  0.14780519192E+04  0.10987429591E+04 0.  0.
        4    1    3    3  502    0  0.65286676634E+02  0.29675955937E+03  0.12137413216E+03  0.32720311595E+03  0.12699999809E+01 0.  1.
       -4    1    3    3    0  502 -0.65286676634E+02 -0.29675955937E+03 -0.11100102562E+04  0.11508488033E+04  0.12699999809E+01 0. -1.
</event>
<event>
 5   0  0.6010125E-05  0.1097855E+04  0.7818609E-02  0.9207285E-01
        3   -1    0    0  501    0  0.00000000000E+00  0.00000000000E+00  0.53699115261E+03  0.53699116211E+03  0.10100000352E+00 0. -1.
       -3   -1    0    0    0  501  0.00000000000E+00  0.00000000000E+00 -0.56112886799E+03  0.56112887708E+03  0.10100000352E+00 0.  1.
    10030    2    1    2    0    0  0.00000000000E+00  0.00000000000E+00 -0.24137715379E+02  0.10981200392E+04  0.10978547223E+04 0.  0.
        1    1    3    3  502    0 -0.48550915025E+03 -0.72271807296E+02 -0.25784942150E+03  0.55446250847E+03  0.50400001928E-02 0.  1.
       -1    1    3    3    0  502  0.48550915025E+03  0.72271807296E+02  0.23371170612E+03  0.54365753072E+03  0.50400001928E-02 0. -1.
</event>
<event>
 5   0  0.8657442E-05  0.1099957E+04  0.7818609E-02  0.9205234E-01
       -1   -1    0    0    0  501  0.00000000000E+00  0.00000000000E+00  0.39813564609E+03  0.39813564612E+03  0.50400001928E-02 0. -1.
        1   -1    0    0  501    0  0.00000000000E+00  0.00000000000E+00 -0.75973209846E+03  0.75973209847E+03  0.50400001928E-02 0.  1.
    10030    2    1    2    0    0  0.00000000000E+00  0.00000000000E+00 -0.36159645237E+03  0.11578677446E+04  0.10999571444E+04 0.  0.
        1    1    3    3  502    0 -0.73733473205E+02 -0.50557390119E+03 -0.39507051021E+03  0.64585006208E+03  0.50400001928E-02 0.  1.
       -1    1    3    3    0  502  0.73733473205E+02  0.50557390119E+03  0.33474057834E+02  0.51201768251E+03  0.50400001928E-02 0. -1.
</event>
<event>
 5   0  0.8621738E-05  0.1099747E+04  0.7818609E-02  0.9205439E-01
       -1   -1    0    0    0  501  0.00000000000E+00  0.00000000000E+00  0.15237961323E+03  0.15237961332E+03  0.50400001928E-02 0. -1.
        1   -1    0    0  501    0  0.00000000000E+00  0.00000000000E+00 -0.19842598975E+04  0.19842598976E+04  0.50400001928E-02 0.  1.
    10030    2    1    2    0    0  0.00000000000E+00  0.00000000000E+00 -0.18318802843E+04  0.21366395109E+04  0.10997467997E+04 0.  0.
        2    1    3    3  502    0 -0.45096503483E+02  0.32346930078E+03 -0.17754048538E+04  0.18051948587E+04  0.25500000920E-02 0.  1.
       -2    1    3    3    0  502  0.45096503483E+02 -0.32346930078E+03 -0.56475430549E+02  0.33144465215E+03  0.25500000920E-02 0. -1.
</event>
<event>
 5   0  0.1574101E-04  0.1099184E+04  0.7818609E-02  0.9205987E-01
        2   -1    0    0  501    0  0.00000000000E+00  0.00000000000E+00  0.49847388730E+03  0.49847388731E+03  0.25500000920E-02 0.  1.
       -2   -1    0    0    0  501  0.00000000000E+00  0.00000000000E+00 -0.60595247462E+03  0.60595247463E+03  0.25500000920E-02 0. -1.
    10030    2    1    2    0    0  0.00000000000E+00  0.00000000000E+00 -0.10747858732E+03  0.11044263619E+04  0.10991842167E+04 0.  0.
        4    1    3    3  502    0  0.18426475648E+03 -0.51629912423E+03 -0.14417162783E+02  0.54838650024E+03  0.12699999809E+01 0. -1.
       -4    1    3    3    0  502 -0.18426475648E+03  0.51629912423E+03 -0.93061424533E+02  0.55603986170E+03  0.12699999809E+01 0.  1.
</event>
<event>
 5   0  0.9016738E-05  0.1099881E+04  0.7818609E-02  0.9205308E-01
       -1   -1    0    0    0  501  0.00000000000E+00  0.00000000000E+00  0.87831065540E+03  0.87831065541E+03  0.50400001928E-02 0. -1.
        1   -1    0    0  501    0  0.00000000000E+00  0.00000000000E+00 -0.34433648019E+03  0.34433648022E+03  0.50400001928E-02 0.  1.
    10030    2    1    2    0    0  0.00000000000E+00  0.00000000000E+00  0.53397417521E+03  0.12226471356E+04  0.10998807201E+04 0.  0.
        4    1    3    3  502    0  0.35808050878E+03 -0.37070513701E+03  0.53774138701E+02  0.51820577020E+03  0.12699999809E+01 0.  1.
       -4    1    3    3    0  502 -0.35808050878E+03  0.37070513701E+03  0.48020003651E+03  0.70444136544E+03  0.12699999809E+01 0. -1.
</event>
<event>
 5   0  0.8657442E-05  0.1099962E+04  0.7818609E-02  0.9205229E-01
        1   -1    0    0  501    0  0.00000000000E+00  0.00000000000E+00  0.16863066944E+04  0.16863066944E+04  0.50400001928E-02 0.  1.
       -1   -1    0    0    0  501  0.00000000000E+00  0.00000000000E+00 -0.17937375754E+03  0.17937375761E+03  0.50400001928E-02 0. -1.
    10030    2    1    2    0    0  0.00000000000E+00  0.00000000000E+00  0.15069329369E+04  0.18656804520E+04  0.10999621234E+04 0.  0.
        1    1    3    3  502    0 -0.91918716908E+02  0.32876413338E+03  0.22073263215E+02  0.34208498197E+03  0.50400001928E-02 0. -1.
       -1    1    3    3    0  502  0.91918716908E+02 -0.32876413338E+03  0.14848596737E+04  0.15235954701E+04  0.50400001928E-02 0.  1.
</event>
<event>
 5   0  0.1553937E-04  0.1099491E+04  0.7818609E-02  0.9205688E-01
        2   -1    0    0  501    0  0.00000000000E+00  0.00000000000E+00  0.59057593130E+03  0.59057593130E+03  0.25500000920E-02 0. -1.
       -2   -1    0    0    0  501  0.00000000000E+00  0.00000000000E+00 -0.51173791485E+03  0.51173791486E+03  0.25500000920E-02 0.  1.
    10030    2    1    2    0    0  0.00000000000E+00  0.00000000000E+00  0.78838016443E+02  0.11023138462E+04  0.10994909652E+04 0.  0.
        1    1    3    3  502    0 -0.15990474515E+03 -0.52305617658E+03 -0.16065688724E+02  0.54718863087E+03  0.50400001928E-02 0.  1.
       -1    1    3    3    0  502  0.15990474515E+03  0.52305617658E+03  0.94903705167E+02  0.55512521529E+03  0.50400001928E-02 0. -1.
</event>
<event>
 5   0  0.1503277E-04  0.1097991E+04  0.7818609E-02  0.9207152E-01
       -2   -1    0    0    0  501  0.00000000000E+00  0.00000000000E+00  0.62219468848E+03  0.62219468848E+03  0.25500000920E-02 0.  1.
        2   -1    0    0  501    0  0.00000000000E+00  0.00000000000E+00 -0.48440820892E+03  0.48440820892E+03  0.25500000920E-02 0. -1.
    10030    2    1    2    0    0  0.00000000000E+00  0.00000000000E+00  0.13778647956E+03  0.11066028974E+04  0.10979912835E+04 0.  0.
        5    1    3    3  502    0 -0.10440400758E+03  0.53598414760E+03  0.11926285818E+02  0.54620832067E+03  0.46999998093E+01 0. -1.
       -5    1    3    3    0  502  0.10440400758E+03 -0.53598414760E+03  0.12586019375E+03  0.56039457674E+03  0.46999998093E+01 0.  1.
</event>
<event>
 5   0  0.9016738E-05  0.1100492E+04  0.7818609E-02  0.9204712E-01
       -1   -1    0    0    0  501  0.00000000000E+00  0.00000000000E+00  0.91858625813E+03  0.91858625815E+03  0.50400001928E-02 0.  1.
        1   -1    0    0  501    0  0.00000000000E+00  0.00000000000E+00 -0.32960514845E+03  0.32960514849E+03  0.50400001928E-02 0. -1.
    10030    2    1    2    0    0  0.00000000000E+00  0.00000000000E+00  0.58898110968E+03  0.12481914066E+04  0.11004921808E+04 0.  0.
        4    1    3    3  502    0 -0.43737623332E+03  0.25250712506E+03  0.54223560492E+03  0.74099857073E+03  0.12699999809E+01 0.  1.
       -4    1    3    3    0  502  0.43737623332E+03 -0.25250712506E+03  0.46745504764E+02  0.50719283591E+03  0.12699999809E+01 0. -1.
</event>
<event>
 5   0  0.1574101E-04  0.1100240E+04  0.7818609E-02  0.9204958E-01
        2   -1    0    0  501    0  0.00000000000E+00  0.00000000000E+00  0.10381963719E+04  0.10381963719E+04  0.25500000920E-02 0.  1.
       -2   -1    0    0    0  501  0.00000000000E+00  0.00000000000E+00 -0.29149788118E+03  0.29149788120E+03  0.25500000920E-02 0. -1.
    10030    2    1    2    0    0  0.00000000000E+00  0.00000000000E+00  0.74669849067E+03  0.13296942531E+04  0.11002400514E+04 0.  0.
        4    1    3    3  502    0 -0.49306700988E+03  0.56401261661E+01  0.66810531292E+03  0.83036932103E+03  0.12699999809E+01 0. -1.
       -4    1    3    3    0  502  0.49306700988E+03 -0.56401261661E+01  0.78593177752E+02  0.49932493203E+03  0.12699999809E+01 0.  1.
</event>
<event>
 5   0  0.1540772E-04  0.1100040E+04  0.7818609E-02  0.9205153E-01
       -2   -1    0    0    0  501  0.00000000000E+00  0.00000000000E+00  0.10131321471E+04  0.10131321472E+04  0.25500000920E-02 0. -1.
        2   -1    0    0  501    0  0.00000000000E+00  0.00000000000E+00 -0.29860055409E+03  0.29860055410E+03  0.25500000920E-02 0.  1.
    10030    2    1    2    0    0  0.00000000000E+00  0.00000000000E+00  0.71453159306E+03  0.13117327013E+04  0.11000396729E+04 0.  0.
        2    1    3    3  502    0  0.40987914856E+03 -0.39435394533E+02  0.79208317885E+03  0.89272158537E+03  0.25500000920E-02 0. -1.
       -2    1    3    3    0  502 -0.40987914856E+03  0.39435394533E+02 -0.77551585789E+02  0.41901111588E+03  0.25500000920E-02 0.  1.
</event>
<event>
 5   0  0.8657442E-05  0.1099546E+04  0.7818609E-02  0.9205634E-01
        1   -1    0    0  501    0  0.00000000000E+00  0.00000000000E+00  0.73818898990E+03  0.73818898992E+03  0.50400001928E-02 0. -1.
       -1   -1    0    0    0  501  0.00000000000E+00  0.00000000000E+00 -0.40944864649E+03  0.40944864652E+03  0.50400001928E-02 0.  1.
    10030    2    1    2    0    0  0.00000000000E+00  0.00000000000E+00  0.32874034341E+03  0.11476376364E+04  0.10995462388E+04 0.  0.
        1    1    3    3  502    0 -0.87314380222E+02 -0.41595965573E+03 -0.19959988451E+03  0.46955974073E+03  0.50400001928E-02 0.  1.
       -1    1    3    3    0  502  0.87314380222E+02  0.41595965573E+03  0.52834022793E+03  0.67807789572E+03  0.50400001928E-02 0. -1.
</event>
<event>
 5   0  0.1540772E-04  0.1099681E+04  0.7818609E-02  0.9205503E-01
       -2   -1    0    0    0  501  0.00000000000E+00  0.00000000000E+00  0.34308693258E+03  0.34308693259E+03  0.25500000920E-02 0. -1.
        2   -1    0    0  501    0  0.00000000000E+00  0.00000000000E+00 -0.88118961313E+03  0.88118961314E+03  0.25500000920E-02 0.  1.
    10030    2    1    2    0    0  0.00000000000E+00  0.00000000000E+00 -0.53810268055E+03  0.12242765457E+04  0.10996811200E+04 0.  0.
        2    1    3    3  502    0 -0.37417964190E+03 -0.15881174216E+03 -0.68126322374E+03  0.79331655339E+03  0.25500000920E-02 0.  1.
       -2    1    3    3    0  502  0.37417964190E+03  0.15881174216E+03  0.14316054319E+03  0.43095999233E+03  0.25500000920E-02 0. -1.
</event>
<event>
 5   0  0.8621738E-05  0.1099913E+04  0.7818609E-02  0.9205276E-01
        1   -1    0    0  501    0  0.00000000000E+00  0.00000000000E+00  0.28665986419E+03  0.28665986423E+03  0.50400001928E-02 0. -1.
       -1   -1    0    0    0  501  0.00000000000E+00  0.00000000000E+00 -0.10550914138E+04  0.10550914138E+04  0.50400001928E-02 0.  1.
    10030    2    1    2    0    0  0.00000000000E+00  0.00000000000E+00 -0.76843154956E+03  0.13417512780E+04  0.10999133810E+04 0.  0.
        2    1    3    3  502    0  0.44390928892E+03  0.30054497363E+03 -0.23446649845E+03  0.58511304623E+03  0.25500000920E-02 0. -1.
       -2    1    3    3    0  502 -0.44390928892E+03 -0.30054497363E+03 -0.53396505112E+03  0.75663823177E+03  0.25500000920E-02 0.  1.
</event>
<event>
 5   0  0.9016738E-05  0.1100372E+04  0.7818609E-02  0.9204829E-01
       -1   -1    0    0    0  501  0.00000000000E+00  0.00000000000E+00  0.28696387096E+03  0.28696387101E+03  0.50400001928E-02 0.  1.
        1   -1    0    0  501    0  0.00000000000E+00  0.00000000000E+00 -0.10548534418E+04  0.10548534418E+04  0.50400001928E-02 0. -1.
    10030    2    1    2    0    0  0.00000000000E+00  0.00000000000E+00 -0.76788957085E+03  0.13418173128E+04  0.11003723497E+04 0.  0.
        4    1    3    3  502    0  0.12050453605E+03 -0.10686973795E+03  0.25756894480E+03  0.30378587578E+03  0.12699999809E+01 0.  1.
       -4    1    3    3    0  502 -0.12050453605E+03  0.10686973795E+03 -0.10254585156E+04  0.10380314371E+04  0.12699999809E+01 0. -1.
</event>
<event>
 5   0  0.1553937E-04  0.1099488E+04  0.7818609E-02  0.9205691E-01
       -2   -1    0    0    0  501  0.00000000000E+00  0.00000000000E+00  0.70646132981E+03  0.70646132982E+03  0.25500000920E-02 0.  1.
        2   -1    0    0  501    0  0.00000000000E+00  0.00000000000E+00 -0.42779189679E+03  0.42779189679E+03  0.25500000920E-02 0. -1.
    10030    2    1    2    0    0  0.00000000000E+00  0.00000000000E+00  0.27866943303E+03  0.11342532266E+04  0.10994879395E+04 0.  0.
        1    1    3    3  502    0 -0.42601389443E+03  0.33628702234E+03  0.49154218150E+02  0.54497058345E+03  0.50400001928E-02 0. -1.
       -1    1    3    3    0  502  0.42601389443E+03 -0.33628702234E+03  0.22951521488E+03  0.58928264316E+03  0.50400001928E-02 0.  1.
</event>
<event>
 5   0  0.1540772E-04  0.1099921E+04  0.7818609E-02  0.9205268E-01
        2   -1    0    0  501    0  0.00000000000E+00  0.00000000000E+00  0.40398681482E+03  0.40398681483E+03  0.25500000920E-02 0.  1.
       -2   -1    0    0    0  501  0.00000000000E+00  0.00000000000E+00 -0.74867978960E+03  0.74867978961E+03  0.25500000920E-02 0. -1.
    10030    2    1    2    0    0  0.00000000000E+00  0.00000000000E+00 -0.34469297478E+03  0.11526666044E+04  0.10999213854E+04 0.  0.
        2    1    3    3  502    0  0.38631430092E+03 -0.16222172348E+03 -0.54566242595E+03  0.68796955584E+03  0.25500000920E-02 0. -1.
       -2    1    3    3    0  502 -0.38631430092E+03  0.16222172348E+03  0.20096945116E+03  0.46469704860E+03  0.25500000920E-02 0.  1.
</event>
<event>
 5   0  0.8657442E-05  0.1100088E+04  0.7818609E-02  0.9205106E-01
        1   -1    0    0  501    0  0.00000000000E+00  0.00000000000E+00  0.52420888644E+03  0.52420888646E+03  0.50400001928E-02 0. -1.
       -1   -1    0    0    0  501  0.00000000000E+00  0.00000000000E+00 -0.57715259191E+03  0.57715259193E+03  0.50400001928E-02 0.  1.
    10030    2    1    2    0    0  0.00000000000E+00  0.00000000000E+00 -0.52943705472E+02  0.11013614784E+04  0.11000882102E+04 0.  0.
        1    1    3    3  502    0  0.41106250241E+03 -0.27485171964E+03  0.21470667730E+03  0.53908701152E+03  0.50400001928E-02 0. -1.
       -1    1    3    3    0  502 -0.41106250241E+03  0.27485171964E+03 -0.26765038277E+03  0.56227446688E+03  0.50400001928E-02 0.  1.
</event>
<event>
 5   0  0.8621738E-05  0.1099521E+04  0.7818609E-02  0.9205659E-01
       -1   -1    0    0    0  501  0.00000000000E+00  0.00000000000E+00  0.24746728502E+03  0.24746728507E+03  0.50400001928E-02 0.  1.
        1   -1    0    0  501    0  0.00000000000E+00  0.00000000000E+00 -0.12213190183E+04  0.12213190183E+04  0.50400001928E-02 0. -1.
    10030    2    1    2    0    0  0.00000000000E+00  0.00000000000E+00 -0.97385173325E+03  0.14687863033E+04  0.10995208077E+04 0.  0.
        2    1    3    3  502    0  0.30562047859E+03 -0.43223180679E+03 -0.68510061274E+03  0.86578927074E+03  0.25500000920E-02 0. -1.
       -2    1    3    3    0  502 -0.30562047859E+03  0.43223180679E+03 -0.28875112051E+03  0.60299703261E+03  0.25500000920E-02 0.  1.
</event>
<event>
 5   0  0.1553937E-04  0.1100004E+04  0.7818609E-02  0.9205188E-01
        2   -1    0    0  501    0  0.00000000000E+00  0.00000000000E+00  0.67612072871E+03  0.67612072872E+03  0.25500000920E-02 0.  1.
       -2   -1    0    0    0  501  0.00000000000E+00  0.00000000000E+00 -0.44740852698E+03  0.44740852699E+03  0.25500000920E-02 0. -1.
    10030    2    1    2    0    0  0.00000000000E+00  0.00000000000E+00  0.22871220173E+03  0.11235292557E+04  0.11000039624E+04 0.  0.
        1    1    3    3  502    0  0.81429483619E+02 -0.25835916144E+03 -0.37454779270E+03  0.46224048519E+03  0.50400001928E-02 0. -1.
       -1    1    3    3    0  502 -0.81429483619E+02  0.25835916144E+03  0.60325999443E+03  0.66128877052E+03  0.50400001928E-02 0.  1.
</event>
<event>
 5   0  0.8621738E-05  0.1100703E+04  0.7818609E-02  0.9204507E-01
        1   -1    0    0  501    0  0.00000000000E+00  0.00000000000E+00  0.42296724973E+03  0.42296724976E+03  0.50400001928E-02 0.  1.
       -1   -1    0    0    0  501  0.00000000000E+00  0.00000000000E+00 -0.71610004223E+03  0.71610004225E+03  0.50400001928E-02 0. -1.
    10030    2    1    2    0    0  0.00000000000E+00  0.00000000000E+00 -0.29313279250E+03  0.11390672920E+04  0.11007031669E+04 0.  0.
        2    1    3    3  502    0  0.49700711783E+03 -0.23459992811E+03 -0.17644598957E+03  0.57722299737E+03  0.25500000920E-02 0.  1.
       -2    1    3    3    0  502 -0.49700711783E+03  0.23459992811E+03 -0.11668680293E+03  0.56184429465E+03  0.25500000920E-02 0. -1.
</event>
<event>
 5   0  0.8657442E-05  0.1099881E+04  0.7818609E-02  0.9205308E-01
       -1   -1    0    0    0  501  0.00000000000E+00  0.00000000000E+00  0.43193723175E+03  0.43193723177E+03  0.50400001928E-02 0. -1.
        1   -1    0    0  501    0  0.00000000000E+00  0.00000000000E+00 -0.70018206064E+03  0.70018206066E+03  0.50400001928E-02 0.  1.
    10030    2    1    2    0    0  0.00000000000E+00  0.00000000000E+00 -0.26824482889E+03  0.11321192924E+04  0.10998812682E+04 0.  0.
        1    1    3    3  502    0  0.47741602622E+03  0.15792164105E+03 -0.36329000104E+03  0.62035871210E+03  0.50400001928E-02 0.  1.
       -1    1    3    3    0  502 -0.47741602622E+03 -0.15792164105E+03  0.95045172143E+02  0.51176058033E+03  0.50400001928E-02 0. -1.
</event>
<event>
 5   0  0.1574101E-04  0.1099006E+04  0.7818609E-02  0.9206161E-01
        2   -1    0    0  501    0  0.00000000000E+00  0.00000000000E+00  0.26654757316E+04  0.26654757316E+04  0.25500000920E-02 0.  1.
       -2   -1    0    0    0  501  0.00000000000E+00  0.00000000000E+00 -0.11328319744E+03  0.11328319747E+03  0.25500000920E-02 0. -1.
    10030    2    1    2    0    0  0.00000000000E+00  0.00000000000E+00  0.25521925341E+04  0.27787589290E+04  0.10990061212E+04 0.  0.
        4    1    3    3  502    0 -0.27596699203E+03  0.28860929652E+03  0.32163896108E+03  0.51274393309E+03  0.12699999809E+01 0. -1.
       -4    1    3    3    0  502  0.27596699203E+03 -0.28860929652E+03  0.22305535731E+04  0.22660149960E+04  0.12699999809E+01 0.  1.
</event>
<event>
 5   0  0.1574101E-04  0.1100097E+04  0.7818609E-02  0.9205098E-01
       -2   -1    0    0    0  501  0.00000000000E+00  0.00000000000E+00  0.32994176657E+03  0.32994176658E+03  0.25500000920E-02 0. -1.
        2   -1    0    0  501    0  0.00000000000E+00  0.00000000000E+00 -0.91698945910E+03  0.91698945910E+03  0.25500000920E-02 0.  1.
    10030    2    1    2    0    0  0.00000000000E+00  0.00000000000E+00 -0.58704769253E+03  0.12469312257E+04  0.11000965813E+04 0.  0.
        4    1    3    3  502    0  0.46508710383E+03  0.17778202057E+03 -0.28574258415E+02  0.49872894656E+03  0.12699999809E+01 0. -1.
       -4    1    3    3    0  502 -0.46508710383E+03 -0.17778202057E+03 -0.55847343411E+03  0.74820227913E+03  0.12699999809E+01 0.  1.
</event>
<event>
 5   0  0.1574101E-04  0.1099277E+04  0.7818609E-02  0.9205896E-01
        2   -1    0    0  501    0  0.00000000000E+00  0.00000000000E+00  0.87480108332E+03  0.87480108333E+03  0.25500000920E-02 0. -1.
       -2   -1    0    0    0  501  0.00000000000E+00  0.00000000000E+00 -0.34533876656E+03  0.34533876657E+03  0.25500000920E-02 0.  1.
    10030    2    1    2    0    0  0.00000000000E+00  0.00000000000E+00  0.52946231676E+03  0.12201398499E+04  0.10992774483E+04 0.  0.
        4    1    3    3  502    0 -0.30170304312E+03  0.35061574602E+03  0.59426581931E+03  0.75306679948E+03  0.12699999809E+01 0. -1.
       -4    1    3    3    0  502  0.30170304312E+03 -0.35061574602E+03 -0.64803502541E+02  0.46707305042E+03  0.12699999809E+01 0.  1.
</event>
<event>
 5   0  0.1464205E-04  0.1100369E+04  0.7818609E-02  0.9204832E-01
        2   -1    0    0  501    0  0.00000000000E+00  0.00000000000E+00  0.10701425206E+04  0.10701425206E+04  0.25500000920E-02 0.  1.
       -2   -1    0    0    0  501  0.00000000000E+00  0.00000000000E+00 -0.28286252502E+03  0.28286252504E+03  0.25500000920E-02 0. -1.
    10030    2    1    2    0    0  0.00000000000E+00  0.00000000000E+00  0.78727999560E+03  0.13530050457E+04  0.11003694208E+04 0.  0.
        3    1    3    3  502    0 -0.21295118449E+03  0.20969534773E+03 -0.17434997484E+03  0.34600327999E+03  0.10100000352E+00 0. -1.
       -3    1    3    3    0  502  0.21295118449E+03 -0.20969534773E+03  0.96162997044E+03  0.10070017657E+04  0.10100000352E+00 0.  1.
</event>
<event>
 5   0  0.8657442E-05  0.1100700E+04  0.7818609E-02  0.9204510E-01
        1   -1    0    0  501    0  0.00000000000E+00  0.00000000000E+00  0.94902793012E+03  0.94902793014E+03  0.50400001928E-02 0.  1.
       -1   -1    0    0    0  501  0.00000000000E+00  0.00000000000E+00 -0.31915278618E+03  0.31915278622E+03  0.50400001928E-02 0. -1.
    10030    2    1    2    0    0  0.00000000000E+00  0.00000000000E+00  0.62987514394E+03  0.12681807164E+04  0.11006996104E+04 0.  0.
        1    1    3    3  502    0 -0.21322280771E+03 -0.49808177679E+03  0.42625952003E+03  0.68938131723E+03  0.50400001928E-02 0.  1.
       -1    1    3    3    0  502  0.21322280771E+03  0.49808177679E+03  0.20361562391E+03  0.57879939912E+03  0.50400001928E-02 0. -1.
</event>
<event>
 5   0  0.1540772E-04  0.1099900E+04  0.7818609E-02  0.9205290E-01
        2   -1    0    0  501    0  0.00000000000E+00  0.00000000000E+00  0.14837023017E+04  0.14837023017E+04  0.25500000920E-02 0. -1.
       -2   -1    0    0    0  501  0.00000000000E+00  0.00000000000E+00 -0.20384466476E+03  0.20384466478E+03  0.25500000920E-02 0.  1.
    10030    2    1    2    0    0  0.00000000000E+00  0.00000000000E+00  0.12798576370E+04  0.16875469665E+04  0.10998996287E+04 0.  0.
        2    1    3    3  502    0  0.18870923936E+03 -0.32464541727E+03  0.12563918080E+04  0.13113070575E+04  0.25500000920E-02 0. -1.
       -2    1    3    3    0  502 -0.18870923936E+03  0.32464541727E+03  0.23465829004E+02  0.37623990899E+03  0.25500000920E-02 0.  1.
</event>
<event>
 5   0  0.1553937E-04  0.1099885E+04  0.7818609E-02  0.9205304E-01
        2   -1    0    0  501    0  0.00000000000E+00  0.00000000000E+00  0.16326717580E+04  0.16326717580E+04  0.25500000920E-02 0. -1.
       -2   -1    0    0    0  501  0.00000000000E+00  0.00000000000E+00 -0.18524046576E+03  0.18524046577E+03  0.25500000920E-02 0.  1.
    10030    2    1    2    0    0  0.00000000000E+00  0.00000000000E+00  0.14474312923E+04  0.18179122238E+04  0.10998852248E+04 0.  0.
        1    1    3    3  502    0  0.27509089506E+03  0.23416773103E+03  0.38388355101E+02  0.36329491138E+03  0.50400001928E-02 0.  1.
       -1    1    3    3    0  502 -0.27509089506E+03 -0.23416773103E+03  0.14090429372E+04  0.14546173124E+04  0.50400001928E-02 0. -1.
</event>
<event>
 5   0  0.8621738E-05  0.1100382E+04  0.7818609E-02  0.9204819E-01
        1   -1    0    0  501    0  0.00000000000E+00  0.00000000000E+00  0.57263323051E+03  0.57263323054E+03  0.50400001928E-02 0. -1.
       -1   -1    0    0    0  501  0.00000000000E+00  0.00000000000E+00 -0.52862844142E+03  0.52862844144E+03  0.50400001928E-02 0.  1.
    10030    2    1    2    0    0  0.00000000000E+00  0.00000000000E+00  0.44004789094E+02  0.11012616720E+04  0.11003821376E+04 0.  0.
        2    1    3    3  502    0 -0.18908235404E+03  0.28457980316E+01 -0.49508260163E+03  0.52996888363E+03  0.25500000920E-02 0.  1.
       -2    1    3    3    0  502  0.18908235404E+03 -0.28457980316E+01  0.53908739072E+03  0.57129278835E+03  0.25500000920E-02 0. -1.
</event>
<event>
 5   0  0.8621738E-05  0.1099931E+04  0.7818609E-02  0.9205259E-01
       -1   -1    0    0    0  501  0.00000000000E+00  0.00000000000E+00  0.53805531478E+03  0.53805531481E+03  0.50400001928E-02 0.  1.
        1   -1    0    0  501    0  0.00000000000E+00  0.00000000000E+00 -0.56213946211E+03  0.56213946214E+03  0.50400001928E-02 0. -1.
    10030    2    1    2    0    0  0.00000000000E+00  0.00000000000E+00 -0.24084147331E+02  0.11001947769E+04  0.10999311347E+04 0.  0.
        2    1    3    3  502    0 -0.49255824100E+02  0.53143734924E+03 -0.14477781087E+03  0.55300308037E+03  0.25500000920E-02 0. -1.
       -2    1    3    3    0  502  0.49255824100E+02 -0.53143734924E+03  0.12069366354E+03  0.54719169657E+03  0.25500000920E-02 0.  1.
</event>
<event>
 5   0  0.1553937E-04  0.1100150E+04  0.7818609E-02  0.9205046E-01
       -2   -1    0    0    0  501  0.00000000000E+00  0.00000000000E+00  0.64006447021E+03  0.64006447022E+03  0.25500000920E-02 0. -1.
        2   -1    0    0  501    0  0.00000000000E+00  0.00000000000E+00 -0.47273735702E+03  0.47273735702E+03  0.25500000920E-02 0.  1.
    10030    2    1    2    0    0  0.00000000000E+00  0.00000000000E+00  0.16732711320E+03  0.11128018272E+04  0.11001497825E+04 0.  0.
        1    1    3    3  502    0 -0.50466919391E+03 -0.20117649896E+03  0.17079012494E+03  0.56950175225E+03  0.50400001928E-02 0. -1.
       -1    1    3    3    0  502  0.50466919391E+03  0.20117649896E+03 -0.34630117450E+01  0.54330007499E+03  0.50400001928E-02 0.  1.
</event>
<event>
 5   0  0.1574101E-04  0.1098900E+04  0.7818609E-02  0.9206265E-01
       -2   -1    0    0    0  501  0.00000000000E+00  0.00000000000E+00  0.29059319405E+03  0.29059319406E+03  0.25500000920E-02 0.  1.
        2   -1    0    0  501    0  0.00000000000E+00  0.00000000000E+00 -0.10388934754E+04  0.10388934754E+04  0.25500000920E-02 0. -1.
    10030    2    1    2    0    0  0.00000000000E+00  0.00000000000E+00 -0.74830028138E+03  0.13294866695E+04  0.10989001289E+04 0.  0.
        4    1    3    3  502    0 -0.17293810654E+03  0.47821870605E+03 -0.62588004380E+03  0.80642926635E+03  0.12699999809E+01 0. -1.
       -4    1    3    3    0  502  0.17293810654E+03 -0.47821870605E+03 -0.12242023759E+03  0.52305740314E+03  0.12699999809E+01 0.  1.
</event>
<event>
 5   0  0.1574101E-04  0.1100000E+04  0.7818609E-02  0.9205192E-01
        2   -1    0    0  501    0  0.00000000000E+00  0.00000000000E+00  0.63269880685E+03  0.63269880685E+03  0.25500000920E-02 0. -1.
       -2   -1    0    0    0  501  0.00000000000E+00  0.00000000000E+00 -0.47811055059E+03  0.47811055059E+03  0.25500000920E-02 0.  1.
    10030    2    1    2    0    0  0.00000000000E+00  0.00000000000E+00  0.15458825626E+03  0.11108093574E+04  0.10999999544E+04 0.  0.
        4    1    3    3  502    0 -0.38930900681E+03 -0.22445110742E+03  0.39751997613E+03  0.59996962150E+03  0.12699999809E+01 0. -1.
       -4    1    3    3    0  502  0.38930900681E+03  0.22445110742E+03 -0.24293171986E+03  0.51083973595E+03  0.12699999809E+01 0.  1.
</event>
<event>
 5   0  0.8921459E-05  0.1099632E+04  0.7818609E-02  0.9205551E-01
        1   -1    0    0  501    0  0.00000000000E+00  0.00000000000E+00  0.34769823703E+03  0.34769823707E+03  0.50400001928E-02 0. -1.
       -1   -1    0    0    0  501  0.00000000000E+00  0.00000000000E+00 -0.86942528379E+03  0.86942528381E+03  0.50400001928E-02 0.  1.
    10030    2    1    2    0    0  0.00000000000E+00  0.00000000000E+00 -0.52172704676E+03  0.12171235209E+04  0.10996320083E+04 0.  0.
        3    1    3    3  502    0 -0.30654739247E+03  0.85722303138E+02  0.23534195456E+03  0.39586040831E+03  0.10100000352E+00 0. -1.
       -3    1    3    3    0  502  0.30654739247E+03 -0.85722303138E+02 -0.75706900133E+03  0.82126311257E+03  0.10100000352E+00 0.  1.
</event>
<event>
 5   0  0.6010125E-05  0.1100173E+04  0.7818609E-02  0.9205023E-01
        3   -1    0    0  501    0  0.00000000000E+00  0.00000000000E+00  0.80806676024E+03  0.80806676655E+03  0.10100000352E+00 0. -1.
       -3   -1    0    0    0  501  0.00000000000E+00  0.00000000000E+00 -0.37446809292E+03  0.37446810654E+03  0.10100000352E+00 0.  1.
    10030    2    1    2    0    0  0.00000000000E+00  0.00000000000E+00  0.43359866732E+03  0.11825348731E+04  0.11001731326E+04 0.  0.
        4    1    3    3  502    0 -0.77889865248E+02 -0.29747528856E+03 -0.27345492553E+03  0.41150648550E+03  0.12699999809E+01 0.  1.
       -4    1    3    3    0  502  0.77889865248E+02  0.29747528856E+03  0.70705359285E+03  0.77102838759E+03  0.12699999809E+01 0. -1.
</event>
<event>
 5   0  0.8921459E-05  0.1104904E+04  0.7818609E-02  0.9200425E-01
       -1   -1    0    0    0  501  0.00000000000E+00  0.00000000000E+00  0.32549850017E+03  0.32549850021E+03  0.50400001928E-02 0.  1.
        1   -1    0    0  501    0  0.00000000000E+00  0.00000000000E+00 -0.93764915421E+03  0.93764915422E+03  0.50400001928E-02 0. -1.
    10030    2    1    2    0    0  0.00000000000E+00  0.00000000000E+00 -0.61215065404E+03  0.12631476544E+04  0.11049043278E+04 0.  0.
        3    1    3    3  502    0 -0.51560866424E+03 -0.11154370265E+03 -0.11854178398E+03  0.54069072212E+03  0.10100000352E+00 0.  1.
       -3    1    3    3    0  502  0.51560866424E+03  0.11154370265E+03 -0.49360887006E+03  0.72245693231E+03  0.10100000352E+00 0. -1.
</event>
<event>
 5   0  0.1540772E-04  0.1100981E+04  0.7818609E-02  0.9204236E-01
        2   -1    0    0  501    0  0.00000000000E+00  0.00000000000E+00  0.10618054763E+04  0.10618054763E+04  0.25500000920E-02 0.  1.
       -2   -1    0    0    0  501  0.00000000000E+00  0.00000000000E+00 -0.28540042946E+03  0.28540042948E+03  0.25500000920E-02 0. -1.
    10030    2    1    2    0    0  0.00000000000E+00  0.00000000000E+00  0.77640504686E+03  0.13472059058E+04  0.11009809062E+04 0.  0.
        2    1    3    3  502    0 -0.24652186402E+02  0.53610818275E+03  0.23823765900E+03  0.58717705684E+03  0.25500000920E-02 0.  1.
       -2    1    3    3    0  502  0.24652186402E+02 -0.53610818275E+03  0.53816738786E+03  0.76002884896E+03  0.25500000920E-02 0. -1.
</event>
<event>
 5   0  0.8621738E-05  0.1099727E+04  0.7818609E-02  0.9205458E-01
        1   -1    0    0  501    0  0.00000000000E+00  0.00000000000E+00  0.35235893024E+03  0.35235893027E+03  0.50400001928E-02 0.  1.
       -1   -1    0    0    0  501  0.00000000000E+00  0.00000000000E+00 -0.85807283576E+03  0.85807283577E+03  0.50400001928E-02 0. -1.
    10030    2    1    2    0    0  0.00000000000E+00  0.00000000000E+00 -0.50571390552E+03  0.12104317660E+04  0.10997265597E+04 0.  0.
        2    1    3    3  502    0 -0.15816813224E+03 -0.19206370567E+03 -0.79256957137E+03  0.83070581469E+03  0.25500000920E-02 0. -1.
       -2    1    3    3    0  502  0.15816813224E+03  0.19206370567E+03  0.28685566585E+03  0.37972595135E+03  0.25500000920E-02 0.  1.
</event>
<event>
 5   0  0.8621738E-05  0.1099628E+04  0.7818609E-02  0.9205555E-01
        1   -1    0    0  501    0  0.00000000000E+00  0.00000000000E+00  0.64576245036E+03  0.64576245038E+03  0.50400001928E-02 0.  1.
       -1   -1    0    0    0  501  0.00000000000E+00  0.00000000000E+00 -0.46812147917E+03  0.46812147920E+03  0.50400001928E-02 0. -1.
    10030    2    1    2    0    0  0.00000000000E+00  0.00000000000E+00  0.17764097119E+03  0.11138839296E+04  0.10996277070E+04 0.  0.
        2    1    3    3  502    0 -0.19800980225E+03  0.88326187836E+02 -0.42298820755E+03  0.47531928320E+03  0.25500000920E-02 0. -1.
       -2    1    3    3    0  502  0.19800980225E+03 -0.88326187836E+02  0.60062917875E+03  0.63856464638E+03  0.25500000920E-02 0.  1.
</event>
<event>
 5   0  0.8657442E-05  0.1100031E+04  0.7818609E-02  0.9205162E-01
       -1   -1    0    0    0  501  0.00000000000E+00  0.00000000000E+00  0.41542694519E+03  0.41542694522E+03  0.50400001928E-02 0.  1.
        1   -1    0    0  501    0  0.00000000000E+00  0.00000000000E+00 -0.72820758779E+03  0.72820758781E+03  0.50400001928E-02 0. -1.
    10030    2    1    2    0    0  0.00000000000E+00  0.00000000000E+00 -0.31278064260E+03  0.11436345330E+04  0.11000310063E+04 0.  0.
        1    1    3    3  502    0 -0.20321832596E+03 -0.47073334156E+03  0.50572129358E+02  0.51521365195E+03  0.50400001928E-02 0. -1.
       -1    1    3    3    0  502  0.20321832596E+03  0.47073334156E+03 -0.36335277196E+03  0.62842088108E+03  0.50400001928E-02 0.  1.
</event>
<event>
 5   0  0.1540772E-04  0.1097892E+04  0.7818609E-02  0.9207249E-01
       -2   -1    0    0    0  501  0.00000000000E+00  0.00000000000E+00  0.79035883209E+03  0.79035883210E+03  0.25500000920E-02 0. -1.
        2   -1    0    0  501    0  0.00000000000E+00  0.00000000000E+00 -0.38127223231E+03  0.38127223232E+03  0.25500000920E-02 0.  1.
    10030    2    1    2    0    0  0.00000000000E+00  0.00000000000E+00  0.40908659978E+03  0.11716310644E+04  0.10978923012E+04 0.  0.
        2    1    3    3  502    0  0.37779520060E+03 -0.54943497226E+02 -0.21640366876E+03  0.43883772553E+03  0.25500000920E-02 0.  1.
       -2    1    3    3    0  502 -0.37779520060E+03  0.54943497226E+02  0.62549026854E+03  0.73279333890E+03  0.25500000920E-02 0. -1.
</event>
<event>
 5   0  0.1574101E-04  0.1100235E+04  0.7818609E-02  0.9204963E-01
        2   -1    0    0  501    0  0.00000000000E+00  0.00000000000E+00  0.10783316400E+04  0.10783316400E+04  0.25500000920E-02 0.  1.
       -2   -1    0    0    0  501  0.00000000000E+00  0.00000000000E+00 -0.28064591995E+03  0.28064591996E+03  0.25500000920E-02 0. -1.
    10030    2    1    2    0    0  0.00000000000E+00  0.00000000000E+00  0.79768572009E+03  0.13589775600E+04  0.11002352024E+04 0.  0.
        4    1    3    3  502    0  0.51406258097E+03 -0.17707417759E+03  0.50227432606E+03  0.74020045463E+03  0.12699999809E+01 0.  1.
       -4    1    3    3    0  502 -0.51406258097E+03  0.17707417759E+03  0.29541139404E+03  0.61877710538E+03  0.12699999809E+01 0. -1.
</event>
<event>
 5   0  0.8657442E-05  0.1100879E+04  0.7818609E-02  0.9204335E-01
        1   -1    0    0  501    0  0.00000000000E+00  0.00000000000E+00  0.11643466094E+04  0.11643466094E+04  0.50400001928E-02 0. -1.
       -1   -1    0    0    0  501  0.00000000000E+00  0.00000000000E+00 -0.26021793249E+03  0.26021793254E+03  0.50400001928E-02 0.  1.
    10030    2    1    2    0    0  0.00000000000E+00  0.00000000000E+00  0.90412867690E+03  0.14245645419E+04  0.11008794074E+04 0.  0.
        1    1    3    3  502    0 -0.29028682893E+03 -0.43941073173E+03  0.65925224714E+03  0.84377826447E+03  0.50400001928E-02 0. -1.
       -1    1    3    3    0  502  0.29028682893E+03  0.43941073173E+03  0.24487642975E+03  0.58078627746E+03  0.50400001928E-02 0.  1.
</event>
<event>
 5   0  0.1553937E-04  0.1100437E+04  0.7818609E-02  0.9204766E-01
       -2   -1    0    0    0  501  0.00000000000E+00  0.00000000000E+00  0.47109564907E+03  0.47109564908E+03  0.25500000920E-02 0.  1.
        2   -1    0    0  501    0  0.00000000000E+00  0.00000000000E+00 -0.64263074281E+03  0.64263074281E+03  0.25500000920E-02 0. -1.
    10030    2    1    2    0    0  0.00000000000E+00  0.00000000000E+00 -0.17153509374E+03  0.11137263919E+04  0.11004372711E+04 0.  0.
        1    1    3    3  502    0  0.44600825199E+03  0.21677703490E+03  0.15549092472E+03  0.51970479255E+03  0.50400001928E-02 0.  1.
       -1    1    3    3    0  502 -0.44600825199E+03 -0.21677703490E+03 -0.32702601846E+03  0.59402159934E+03  0.50400001928E-02 0. -1.
</event>
<event>
 5   0  0.8621738E-05  0.1098112E+04  0.7818609E-02  0.9207034E-01
       -1   -1    0    0    0  501  0.00000000000E+00  0.00000000000E+00  0.72280942184E+03  0.72280942185E+03  0.50400001928E-02 0. -1.
        1   -1    0    0  501    0  0.00000000000E+00  0.00000000000E+00 -0.41707049526E+03  0.41707049529E+03  0.50400001928E-02 0.  1.
    10030    2    1    2    0    0  0.00000000000E+00  0.00000000000E+00  0.30573892658E+03  0.11398799171E+04  0.10981119862E+04 0.  0.
        2    1    3    3  502    0 -0.51277534751E+03 -0.17259595560E+03  0.24988315972E+03  0.59596100076E+03  0.25500000920E-02 0. -1.
       -2    1    3    3    0  502  0.51277534751E+03  0.17259595560E+03  0.55855766858E+02  0.54391891638E+03  0.25500000920E-02 0.  1.
</event>
<event>
 5   0  0.9016738E-05  0.1099864E+04  0.7818609E-02  0.9205325E-01
        1   -1    0    0  501    0  0.00000000000E+00  0.00000000000E+00  0.46749377676E+03  0.46749377679E+03  0.50400001928E-02 0. -1.
       -1   -1    0    0    0  501  0.00000000000E+00  0.00000000000E+00 -0.64690722831E+03  0.64690722833E+03  0.50400001928E-02 0.  1.
    10030    2    1    2    0    0  0.00000000000E+00  0.00000000000E+00 -0.17941345155E+03  0.11144010051E+04  0.10998638159E+04 0.  0.
        4    1    3    3  502    0 -0.20608794287E+03  0.47223027884E+03  0.10505728489E+03  0.52584438997E+03  0.12699999809E+01 0. -1.
       -4    1    3    3    0  502  0.20608794287E+03 -0.47223027884E+03 -0.28447073644E+03  0.58855661515E+03  0.12699999809E+01 0.  1.
</event>
<event>
 5   0  0.8657442E-05  0.1099624E+04  0.7818609E-02  0.9205558E-01
        1   -1    0    0  501    0  0.00000000000E+00  0.00000000000E+00  0.29050403982E+03  0.29050403986E+03  0.50400001928E-02 0.  1.
       -1   -1    0    0    0  501  0.00000000000E+00  0.00000000000E+00 -0.10405821023E+04  0.10405821023E+04  0.50400001928E-02 0. -1.
    10030    2    1    2    0    0  0.00000000000E+00  0.00000000000E+00 -0.75007806248E+03  0.13310861422E+04  0.10996241258E+04 0.  0.
        1    1    3    3  502    0  0.14882809148E+03  0.50412219848E+03 -0.57024117908E+03  0.77554109766E+03  0.50400001928E-02 0. -1.
       -1    1    3    3    0  502 -0.14882809148E+03 -0.50412219848E+03 -0.17983688339E+03  0.55554504450E+03  0.50400001928E-02 0.  1.
</event>
<event>
 5   0  0.8657442E-05  0.1100731E+04  0.7818609E-02  0.9204480E-01
        1   -1    0    0  501    0  0.00000000000E+00  0.00000000000E+00  0.56022734223E+03  0.56022734225E+03  0.50400001928E-02 0.  1.
       -1   -1    0    0    0  501  0.00000000000E+00  0.00000000000E+00 -0.54067721653E+03  0.54067721656E+03  0.50400001928E-02 0. -1.
    10030    2    1    2    0    0  0.00000000000E+00  0.00000000000E+00  0.19550125694E+02  0.11009045588E+04  0.11007309572E+04 0.  0.
        1    1    3    3  502    0  0.94626907021E+02 -0.34495397603E+03  0.42811685272E+03  0.55788129267E+03  0.50400001928E-02 0.  1.
       -1    1    3    3    0  502 -0.94626907021E+02  0.34495397603E+03 -0.40856672702E+03  0.54302326614E+03  0.50400001928E-02 0. -1.
</event>
<event>
 5   0  0.8657442E-05  0.1100194E+04  0.7818609E-02  0.9205003E-01
        1   -1    0    0  501    0  0.00000000000E+00  0.00000000000E+00  0.16004363299E+04  0.16004363299E+04  0.50400001928E-02 0.  1.
       -1   -1    0    0    0  501  0.00000000000E+00  0.00000000000E+00 -0.18907767081E+03  0.18907767088E+03  0.50400001928E-02 0. -1.
    10030    2    1    2    0    0  0.00000000000E+00  0.00000000000E+00  0.14113586591E+04  0.17895140008E+04  0.11001941167E+04 0.  0.
        1    1    3    3  502    0 -0.52846790682E+03 -0.15263641638E+02  0.95286833478E+03  0.10897106821E+04  0.50400001928E-02 0.  1.
       -1    1    3    3    0  502  0.52846790682E+03  0.15263641638E+02  0.45849032432E+03  0.69980331867E+03  0.50400001928E-02 0. -1.
</event>
<event>
 5   0  0.8621738E-05  0.1099943E+04  0.7818609E-02  0.9205248E-01
       -1   -1    0    0    0  501  0.00000000000E+00  0.00000000000E+00  0.59939543814E+03  0.59939543816E+03  0.50400001928E-02 0. -1.
        1   -1    0    0  501    0  0.00000000000E+00  0.00000000000E+00 -0.50462250552E+03  0.50462250555E+03  0.50400001928E-02 0.  1.
    10030    2    1    2    0    0  0.00000000000E+00  0.00000000000E+00  0.94772932618E+02  0.11040179437E+04  0.10999425945E+04 0.  0.
        2    1    3    3  502    0  0.20661825653E+03  0.31702106007E+03 -0.35318487969E+03  0.51762246446E+03  0.25500000920E-02 0.  1.
       -2    1    3    3    0  502 -0.20661825653E+03 -0.31702106007E+03  0.44795781231E+03  0.58639547925E+03  0.25500000920E-02 0. -1.
</event>
<event>
 5   0  0.9016738E-05  0.1099889E+04  0.7818609E-02  0.9205300E-01
       -1   -1    0    0    0  501  0.00000000000E+00  0.00000000000E+00  0.33410109233E+03  0.33410109237E+03  0.50400001928E-02 0.  1.
        1   -1    0    0  501    0  0.00000000000E+00  0.00000000000E+00 -0.90523142810E+03  0.90523142811E+03  0.50400001928E-02 0. -1.
    10030    2    1    2    0    0  0.00000000000E+00  0.00000000000E+00 -0.57113033576E+03  0.12393325205E+04  0.10998887380E+04 0.  0.
        4    1    3    3  502    0  0.18392074280E+03  0.28492593449E+03  0.20225059087E+03  0.39486268776E+03  0.12699999809E+01 0.  1.
       -4    1    3    3    0  502 -0.18392074280E+03 -0.28492593449E+03 -0.77338092664E+03  0.84446983271E+03  0.12699999809E+01 0. -1.
</event>
<event>
 5   0  0.1540772E-04  0.1101238E+04  0.7818609E-02  0.9203986E-01
        2   -1    0    0  501    0  0.00000000000E+00  0.00000000000E+00  0.92514851386E+03  0.92514851386E+03  0.25500000920E-02 0.  1.
       -2   -1    0    0    0  501  0.00000000000E+00  0.00000000000E+00 -0.32771112875E+03  0.32771112876E+03  0.25500000920E-02 0. -1.
    10030    2    1    2    0    0  0.00000000000E+00  0.00000000000E+00  0.59743738511E+03  0.12528596426E+04  0.11012383280E+04 0.  0.
        2    1    3    3  502    0 -0.19707919573E+03  0.43546483122E+03  0.60968635010E+03  0.77471754474E+03  0.25500000920E-02 0.  1.
       -2    1    3    3    0  502  0.19707919573E+03 -0.43546483122E+03 -0.12248964990E+02  0.47814209789E+03  0.25500000920E-02 0. -1.
</event>
<event>
 5   0  0.8621738E-05  0.1098441E+04  0.7818609E-02  0.9206713E-01
        1   -1    0    0  501    0  0.00000000000E+00  0.00000000000E+00  0.14748775463E+04  0.14748775464E+04  0.50400001928E-02 0. -1.
       -1   -1    0    0    0  501  0.00000000000E+00  0.00000000000E+00 -0.20452077899E+03  0.20452077905E+03  0.50400001928E-02 0.  1.
    10030    2    1    2    0    0  0.00000000000E+00  0.00000000000E+00  0.12703567674E+04  0.16793983254E+04  0.10984409037E+04 0.  0.
        2    1    3    3  502    0 -0.40786724692E+03  0.65981037593E+02  0.81951726921E+02  0.42121879586E+03  0.25500000920E-02 0.  1.
       -2    1    3    3    0  502  0.40786724692E+03 -0.65981037593E+02  0.11884050404E+04  0.12581795295E+04  0.25500000920E-02 0. -1.
</event>
<event>
 5   0  0.8921459E-05  0.1100082E+04  0.7818609E-02  0.9205112E-01
       -1   -1    0    0    0  501  0.00000000000E+00  0.00000000000E+00  0.30962243611E+03  0.30962243615E+03  0.50400001928E-02 0.  1.
        1   -1    0    0  501    0  0.00000000000E+00  0.00000000000E+00 -0.97714259857E+03  0.97714259859E+03  0.50400001928E-02 0. -1.
    10030    2    1    2    0    0  0.00000000000E+00  0.00000000000E+00 -0.66752016246E+03  0.12867650347E+04  0.11000823093E+04 0.  0.
        3    1    3    3  502    0  0.10915554322E+03 -0.18938217676E+03  0.25663633673E+03  0.33710941995E+03  0.10100000352E+00 0.  1.
       -3    1    3    3    0  502 -0.10915554322E+03  0.18938217676E+03 -0.92415649919E+03  0.94965561479E+03  0.10100000352E+00 0. -1.
</event>
<event>
 5   0  0.1553937E-04  0.1100398E+04  0.7818609E-02  0.9204805E-01
        2   -1    0    0  501    0  0.00000000000E+00  0.00000000000E+00  0.44530721817E+03  0.44530721818E+03  0.25500000920E-02 0.  1.
       -2   -1    0    0    0  501  0.00000000000E+00  0.00000000000E+00 -0.67979736208E+03  0.67979736209E+03  0.25500000920E-02 0. -1.
    10030    2    1    2    0    0  0.00000000000E+00  0.00000000000E+00 -0.23449014392E+03  0.11251045803E+04  0.11003975141E+04 0.  0.
        1    1    3    3  502    0  0.38030253664E+03  0.10143772953E+03 -0.51032339854E+03  0.64447622413E+03  0.50400001928E-02 0. -1.
       -1    1    3    3    0  502 -0.38030253664E+03 -0.10143772953E+03  0.27583325462E+03  0.48062835614E+03  0.50400001928E-02 0.  1.
</event>
<event>
 5   0  0.1553937E-04  0.1100106E+04  0.7818609E-02  0.9205089E-01
       -2   -1    0    0    0  501  0.00000000000E+00  0.00000000000E+00  0.59602901700E+03  0.59602901701E+03  0.25500000920E-02 0.  1.
        2   -1    0    0  501    0  0.00000000000E+00  0.00000000000E+00 -0.50762313543E+03  0.50762313544E+03  0.25500000920E-02 0. -1.
    10030    2    1    2    0    0  0.00000000000E+00  0.00000000000E+00  0.88405881572E+02  0.11036521524E+04  0.11001056648E+04 0.  0.
        1    1    3    3  502    0  0.49922767614E+03  0.15687868859E+03  0.21421584534E+03  0.56544462503E+03  0.50400001928E-02 0.  1.
       -1    1    3    3    0  502 -0.49922767614E+03 -0.15687868859E+03 -0.12580996377E+03  0.53820752741E+03  0.50400001928E-02 0. -1.
</event>
<event>
 5   0  0.1540772E-04  0.1100154E+04  0.7818609E-02  0.9205042E-01
       -2   -1    0    0    0  501  0.00000000000E+00  0.00000000000E+00  0.28596864263E+03  0.28596864264E+03  0.25500000920E-02 0.  1.
        2   -1    0    0  501    0  0.00000000000E+00  0.00000000000E+00 -0.10581045297E+04  0.10581045297E+04  0.25500000920E-02 0. -1.
    10030    2    1    2    0    0  0.00000000000E+00  0.00000000000E+00 -0.77213588708E+03  0.13440731724E+04  0.11001540185E+04 0.  0.
        2    1    3    3  502    0  0.43964680518E+03  0.14647510213E+03 -0.23977808805E+02  0.46402500382E+03  0.25500000920E-02 0.  1.
       -2    1    3    3    0  502 -0.43964680518E+03 -0.14647510213E+03 -0.74815807827E+03  0.88004816853E+03  0.25500000920E-02 0. -1.
</event>
<event>
 5   0  0.1503277E-04  0.1099935E+04  0.7818609E-02  0.9205255E-01
        2   -1    0    0  501    0  0.00000000000E+00  0.00000000000E+00  0.11308860681E+04  0.11308860681E+04  0.25500000920E-02 0.  1.
       -2   -1    0    0    0  501  0.00000000000E+00  0.00000000000E+00 -0.26745795843E+03  0.26745795844E+03  0.25500000920E-02 0. -1.
    10030    2    1    2    0    0  0.00000000000E+00  0.00000000000E+00  0.86342810967E+03  0.13983440266E+04  0.10999354145E+04 0.  0.
        5    1    3    3  502    0 -0.23128858765E+03  0.12377070770E+03  0.10461972726E+04  0.10785937243E+04  0.46999998093E+01 0.  1.
       -5    1    3    3    0  502  0.23128858765E+03 -0.12377070770E+03 -0.18276916296E+03  0.31975030224E+03  0.46999998093E+01 0. -1.
</event>
<event>
 5   0  0.8621738E-05  0.1103928E+04  0.7818609E-02  0.9201371E-01
        1   -1    0    0  501    0  0.00000000000E+00  0.00000000000E+00  0.15234712043E+04  0.15234712043E+04  0.50400001928E-02 0.  1.
       -1   -1    0    0    0  501  0.00000000000E+00  0.00000000000E+00 -0.19998045477E+03  0.19998045484E+03  0.50400001928E-02 0. -1.
    10030    2    1    2    0    0  0.00000000000E+00  0.00000000000E+00  0.13234907495E+04  0.17234516591E+04  0.11039283751E+04 0.  0.
        2    1    3    3  502    0 -0.41892777170E+02  0.27976913255E+03 -0.78201415828E+02  0.29349826874E+03  0.25500000920E-02 0. -1.
       -2    1    3    3    0  502  0.41892777170E+02 -0.27976913255E+03  0.14016921653E+04  0.14299533904E+04  0.25500000920E-02 0.  1.
</event>
<event>
 5   0  0.1553937E-04  0.1100425E+04  0.7818609E-02  0.9204778E-01
        2   -1    0    0  501    0  0.00000000000E+00  0.00000000000E+00  0.60433787453E+03  0.60433787453E+03  0.25500000920E-02 0.  1.
       -2   -1    0    0    0  501  0.00000000000E+00  0.00000000000E+00 -0.50093445964E+03  0.50093445965E+03  0.25500000920E-02 0. -1.
    10030    2    1    2    0    0  0.00000000000E+00  0.00000000000E+00  0.10340341488E+03  0.11052723342E+04  0.11004247664E+04 0.  0.
        1    1    3    3  502    0 -0.10550831434E+03 -0.21783124800E+03  0.54799497451E+03  0.59906673177E+03  0.50400001928E-02 0.  1.
       -1    1    3    3    0  502  0.10550831434E+03  0.21783124800E+03 -0.44459155962E+03  0.50620560241E+03  0.50400001928E-02 0. -1.
</event>
<event>
 5   0  0.8657442E-05  0.1100117E+04  0.7818609E-02  0.9205078E-01
       -1   -1    0    0    0  501  0.00000000000E+00  0.00000000000E+00  0.26946517118E+03  0.26946517122E+03  0.50400001928E-02 0. -1.
        1   -1    0    0  501    0  0.00000000000E+00  0.00000000000E+00 -0.11228329210E+04  0.11228329210E+04  0.50400001928E-02 0.  1.
    10030    2    1    2    0    0  0.00000000000E+00  0.00000000000E+00 -0.85336774980E+03  0.13922980922E+04  0.11001170216E+04 0.  0.
        1    1    3    3  502    0  0.15519164218E+03  0.29237916432E+03 -0.98267215134E+03  0.10369255415E+04  0.50400001928E-02 0.  1.
       -1    1    3    3    0  502 -0.15519164218E+03 -0.29237916432E+03  0.12930440154E+03  0.35537255073E+03  0.50400001928E-02 0. -1.
</event>
<event>
 5   0  0.6010125E-05  0.1100288E+04  0.7818609E-02  0.9204911E-01
       -4   -1    0    0    0  501  0.00000000000E+00  0.00000000000E+00  0.17617661367E+03  0.17618119112E+03  0.12699999809E+01 0.  1.
        4   -1    0    0  501    0  0.00000000000E+00  0.00000000000E+00 -0.17178984856E+04  0.17178989551E+04  0.12699999809E+01 0. -1.
    10030    2    1    2    0    0  0.00000000000E+00  0.00000000000E+00 -0.15417218720E+04  0.18940801462E+04  0.11002878122E+04 0.  0.
        4    1    3    3  502    0  0.50804716615E+03 -0.16315514007E+03 -0.10013359412E+04  0.11346395035E+04  0.12699999809E+01 0.  1.
       -4    1    3    3    0  502 -0.50804716615E+03  0.16315514007E+03 -0.54038593076E+03  0.75944064273E+03  0.12699999809E+01 0. -1.
</event>
<event>
 5   0  0.8657442E-05  0.1100979E+04  0.7818609E-02  0.9204238E-01
        1   -1    0    0  501    0  0.00000000000E+00  0.00000000000E+00  0.55941905905E+03  0.55941905907E+03  0.50400001928E-02 0. -1.
       -1   -1    0    0    0  501  0.00000000000E+00  0.00000000000E+00 -0.54170254332E+03  0.54170254334E+03  0.50400001928E-02 0.  1.
    10030    2    1    2    0    0  0.00000000000E+00  0.00000000000E+00  0.17716515729E+02  0.11011216024E+04  0.11009790681E+04 0.  0.
        1    1    3    3  502    0  0.25661700558E+03  0.35696150509E+03 -0.32249253191E+03  0.54522952675E+03  0.50400001928E-02 0.  1.
       -1    1    3    3    0  502 -0.25661700558E+03 -0.35696150509E+03  0.34020904764E+03  0.55589207567E+03  0.50400001928E-02 0. -1.
</event>
<event>
 5   0  0.9346836E-05  0.1100229E+04  0.7818609E-02  0.9204969E-01
       -1   -1    0    0    0  501  0.00000000000E+00  0.00000000000E+00  0.15781147643E+04  0.15781147643E+04  0.50400001928E-02 0. -1.
        1   -1    0    0  501    0  0.00000000000E+00  0.00000000000E+00 -0.19176424930E+03  0.19176424936E+03  0.50400001928E-02 0.  1.
    10030    2    1    2    0    0  0.00000000000E+00  0.00000000000E+00  0.13863505150E+04  0.17698790137E+04  0.11002290546E+04 0.  0.
        5    1    3    3  502    0 -0.37755996494E+03  0.31010441778E+03  0.10997766351E+04  0.12034313500E+04  0.46999998093E+01 0. -1.
       -5    1    3    3    0  502  0.37755996494E+03 -0.31010441778E+03  0.28657387994E+03  0.56644766370E+03  0.46999998093E+01 0.  1.
</event>
<event>
 5   0  0.6010125E-05  0.1100026E+04  0.7818609E-02  0.9205166E-01
        4   -1    0    0  501    0  0.00000000000E+00  0.00000000000E+00  0.32677008912E+03  0.32677255705E+03  0.12699999809E+01 0.  1.
       -4   -1    0    0    0  501  0.00000000000E+00  0.00000000000E+00 -0.92576552336E+03  0.92576639447E+03  0.12699999809E+01 0. -1.
    10030    2    1    2    0    0  0.00000000000E+00  0.00000000000E+00 -0.59899543423E+03  0.12525389515E+04  0.11000264973E+04 0.  0.
        3    1    3    3  502    0 -0.14149953595E+03  0.42367723060E+03  0.65916740789E+02  0.45151914834E+03  0.10100000352E+00 0.  1.
       -3    1    3    3    0  502  0.14149953595E+03 -0.42367723060E+03 -0.66491217502E+03  0.80101980319E+03  0.10100000352E+00 0. -1.
</event>
<event>
 5   0  0.1553937E-04  0.1099810E+04  0.7818609E-02  0.9205377E-01
       -2   -1    0    0    0  501  0.00000000000E+00  0.00000000000E+00  0.38489247287E+03  0.38489247288E+03  0.25500000920E-02 0. -1.
        2   -1    0    0  501    0  0.00000000000E+00  0.00000000000E+00 -0.78566284307E+03  0.78566284308E+03  0.25500000920E-02 0.  1.
    10030    2    1    2    0    0  0.00000000000E+00  0.00000000000E+00 -0.40077037020E+03  0.11705553160E+04  0.10998103737E+04 0.  0.
        1    1    3    3  502    0 -0.26132757860E+03 -0.37013523048E+01 -0.71533567810E+03  0.76158449022E+03  0.50400001928E-02 0.  1.
       -1    1    3    3    0  502  0.26132757860E+03  0.37013523048E+01  0.31456530790E+03  0.40897082574E+03  0.50400001928E-02 0. -1.
</event>
<event>
 5   0  0.1464205E-04  0.1099819E+04  0.7818609E-02  0.9205368E-01
       -2   -1    0    0    0  501  0.00000000000E+00  0.00000000000E+00  0.20595102259E+03  0.20595102261E+03  0.25500000920E-02 0. -1.
        2   -1    0    0  501    0  0.00000000000E+00  0.00000000000E+00 -0.14683127044E+04  0.14683127044E+04  0.25500000920E-02 0.  1.
    10030    2    1    2    0    0  0.00000000000E+00  0.00000000000E+00 -0.12623616818E+04  0.16742637270E+04  0.10998190814E+04 0.  0.
        3    1    3    3  502    0 -0.11244984064E+03  0.53826215942E+03 -0.63943139437E+03  0.84335261737E+03  0.10100000352E+00 0.  1.
       -3    1    3    3    0  502  0.11244984064E+03 -0.53826215942E+03 -0.62293028746E+03  0.83091110966E+03  0.10100000352E+00 0. -1.
</event>
<event>
 5   0  0.8657442E-05  0.1099898E+04  0.7818609E-02  0.9205291E-01
        1   -1    0    0  501    0  0.00000000000E+00  0.00000000000E+00  0.11440655413E+04  0.11440655413E+04  0.50400001928E-02 0.  1.
       -1   -1    0    0    0  501  0.00000000000E+00  0.00000000000E+00 -0.26435902199E+03  0.26435902204E+03  0.50400001928E-02 0. -1.
    10030    2    1    2    0    0  0.00000000000E+00  0.00000000000E+00  0.87970651931E+03  0.14084245633E+04  0.10998982637E+04 0.  0.
        1    1    3    3  502    0  0.32563370783E+03  0.37434828967E+03  0.13610073635E+03  0.51448747713E+03  0.50400001928E-02 0. -1.
       -1    1    3    3    0  502 -0.32563370783E+03 -0.37434828967E+03  0.74360578295E+03  0.89393708622E+03  0.50400001928E-02 0.  1.
</event>
<event>
 5   0  0.8621738E-05  0.1099576E+04  0.7818609E-02  0.9205605E-01
        1   -1    0    0  501    0  0.00000000000E+00  0.00000000000E+00  0.61016739658E+03  0.61016739660E+03  0.50400001928E-02 0. -1.
       -1   -1    0    0    0  501  0.00000000000E+00  0.00000000000E+00 -0.49538341001E+03  0.49538341004E+03  0.50400001928E-02 0.  1.
    10030    2    1    2    0    0  0.00000000000E+00  0.00000000000E+00  0.11478398657E+03  0.11055508066E+04  0.10995759285E+04 0.  0.
        2    1    3    3  502    0  0.98894772178E+02  0.17977156069E+03 -0.45544707427E+03  0.49952980639E+03  0.25500000920E-02 0.  1.
       -2    1    3    3    0  502 -0.98894772178E+02 -0.17977156069E+03  0.57023106084E+03  0.60602100026E+03  0.25500000920E-02 0. -1.
</event>
<event>
 5   0  0.6010125E-05  0.1100012E+04  0.7818609E-02  0.9205180E-01
        3   -1    0    0  501    0  0.00000000000E+00  0.00000000000E+00  0.16429395755E+04  0.16429395786E+04  0.10100000352E+00 0. -1.
       -3   -1    0    0    0  501  0.00000000000E+00  0.00000000000E+00 -0.18412519232E+03  0.18412522002E+03  0.10100000352E+00 0.  1.
    10030    2    1    2    0    0  0.00000000000E+00  0.00000000000E+00  0.14588143832E+04  0.18270647986E+04  0.11000119880E+04 0.  0.
        2    1    3    3  502    0 -0.16414081299E+03 -0.36891270825E+03  0.10911900758E+03  0.41826516783E+03  0.25500000920E-02 0.  1.
       -2    1    3    3    0  502  0.16414081299E+03  0.36891270825E+03  0.13496953756E+04  0.14087996308E+04  0.25500000920E-02 0. -1.
</event>
<event>
 5   0  0.9016738E-05  0.1101281E+04  0.7818609E-02  0.9203944E-01
        1   -1    0    0  501    0  0.00000000000E+00  0.00000000000E+00  0.16029363557E+04  0.16029363557E+04  0.50400001928E-02 0.  1.
       -1   -1    0    0    0  501  0.00000000000E+00  0.00000000000E+00 -0.18915588242E+03  0.18915588249E+03  0.50400001928E-02 0. -1.
    10030    2    1    2    0    0  0.00000000000E+00  0.00000000000E+00  0.14137804733E+04  0.17920922382E+04  0.11012807833E+04 0.  0.
        4    1    3    3  502    0  0.24112054002E+03 -0.28434720635E+03  0.47468697082E+02  0.37582886888E+03  0.12699999809E+01 0. -1.
       -4    1    3    3    0  502 -0.24112054002E+03  0.28434720635E+03  0.13663117762E+04  0.14162633693E+04  0.12699999809E+01 0.  1.
</event>
<event>
 5   0  0.8621738E-05  0.1102539E+04  0.7818609E-02  0.9202721E-01
        1   -1    0    0  501    0  0.00000000000E+00  0.00000000000E+00  0.50654185329E+03  0.50654185332E+03  0.50400001928E-02 0.  1.
       -1   -1    0    0    0  501  0.00000000000E+00  0.00000000000E+00 -0.59994669793E+03  0.59994669795E+03  0.50400001928E-02 0. -1.
    10030    2    1    2    0    0  0.00000000000E+00  0.00000000000E+00 -0.93404844637E+02  0.11064885513E+04  0.11025390919E+04 0.  0.
        2    1    3    3  502    0  0.19104318793E+03 -0.26198731587E+02 -0.56499624037E+03  0.59699633569E+03  0.25500000920E-02 0. -1.
       -2    1    3    3    0  502 -0.19104318793E+03  0.26198731587E+02  0.47159139573E+03  0.50949221557E+03  0.25500000920E-02 0.  1.
</event>
<event>
 5   0  0.8921459E-05  0.1099935E+04  0.7818609E-02  0.9205255E-01
       -1   -1    0    0    0  501  0.00000000000E+00  0.00000000000E+00  0.37864756278E+03  0.37864756282E+03  0.50400001928E-02 0. -1.
        1   -1    0    0  501    0  0.00000000000E+00  0.00000000000E+00 -0.79880179899E+03  0.79880179900E+03  0.50400001928E-02 0.  1.
    10030    2    1    2    0    0  0.00000000000E+00  0.00000000000E+00 -0.42015423620E+03  0.11774493618E+04  0.10999351878E+04 0.  0.
        3    1    3    3  502    0  0.50891844706E+03  0.17481630335E+03 -0.88468443801E+02  0.54533054327E+03  0.10100000352E+00 0.  1.
       -3    1    3    3    0  502 -0.50891844706E+03 -0.17481630335E+03 -0.33168579240E+03  0.63211881855E+03  0.10100000352E+00 0. -1.
</event>
<event>
 5   0  0.1553937E-04  0.1099387E+04  0.7818609E-02  0.9205789E-01
       -2   -1    0    0    0  501  0.00000000000E+00  0.00000000000E+00  0.34400518051E+03  0.34400518052E+03  0.25500000920E-02 0.  1.
        2   -1    0    0  501    0  0.00000000000E+00  0.00000000000E+00 -0.87836800585E+03  0.87836800586E+03  0.25500000920E-02 0. -1.
    10030    2    1    2    0    0  0.00000000000E+00  0.00000000000E+00 -0.53436282535E+03  0.12223731864E+04  0.10993873647E+04 0.  0.
        1    1    3    3  502    0  0.16227194327E+03  0.36577550451E+03  0.15186028941E+03  0.42800169486E+03  0.50400001928E-02 0.  1.
       -1    1    3    3    0  502 -0.16227194327E+03 -0.36577550451E+03 -0.68622311476E+03  0.79437149151E+03  0.50400001928E-02 0. -1.
</event>
<event>
 5   0  0.9346836E-05  0.1100289E+04  0.7818609E-02  0.9204911E-01
       -1   -1    0    0    0  501  0.00000000000E+00  0.00000000000E+00  0.57509790755E+03  0.57509790757E+03  0.50400001928E-02 0. -1.
        1   -1    0    0  501    0  0.00000000000E+00  0.00000000000E+00 -0.52627346295E+03  0.52627346297E+03  0.50400001928E-02 0.  1.
    10030    2    1    2    0    0  0.00000000000E+00  0.00000000000E+00  0.48824444600E+02  0.11013713705E+04  0.11002886301E+04 0.  0.
        5    1    3    3  502    0 -0.20842084847E+02 -0.49196685730E+03 -0.22112672970E+03  0.53980079823E+03  0.46999998093E+01 0.  1.
       -5    1    3    3    0  502  0.20842084847E+02  0.49196685730E+03  0.26995117430E+03  0.56157057231E+03  0.46999998093E+01 0. -1.
</event>
<event>
 5   0  0.1540772E-04  0.1101053E+04  0.7818609E-02  0.9204166E-01
       -2   -1    0    0    0  501  0.00000000000E+00  0.00000000000E+00  0.26471877637E+03  0.26471877638E+03  0.25500000920E-02 0.  1.
        2   -1    0    0  501    0  0.00000000000E+00  0.00000000000E+00 -0.11449114961E+04  0.11449114961E+04  0.25500000920E-02 0. -1.
    10030    2    1    2    0    0  0.00000000000E+00  0.00000000000E+00 -0.88019271972E+03  0.14096302725E+04  0.11010532599E+04 0.  0.
        2    1    3    3  502    0 -0.47494628336E+03  0.16027070994E+03 -0.73153086920E+03  0.88679089144E+03  0.25500000920E-02 0. -1.
       -2    1    3    3    0  502  0.47494628336E+03 -0.16027070994E+03 -0.14866185052E+03  0.52283938103E+03  0.25500000920E-02 0.  1.
</event>
<event>
 5   0  0.8621738E-05  0.1099516E+04  0.7818609E-02  0.9205663E-01
        1   -1    0    0  501    0  0.00000000000E+00  0.00000000000E+00  0.17208006534E+04  0.17208006534E+04  0.50400001928E-02 0.  1.
       -1   -1    0    0    0  501  0.00000000000E+00  0.00000000000E+00 -0.17563572175E+03  0.17563572182E+03  0.50400001928E-02 0. -1.
    10030    2    1    2    0    0  0.00000000000E+00  0.00000000000E+00  0.15451649316E+04  0.18964363752E+04  0.10995163752E+04 0.  0.
        2    1    3    3  502    0  0.49167734250E+03  0.17593847154E+03  0.10689913156E+04  0.11897240805E+04  0.25500000920E-02 0.  1.
       -2    1    3    3    0  502 -0.49167734250E+03 -0.17593847154E+03  0.47617361608E+03  0.70671229475E+03  0.25500000920E-02 0. -1.
</event>
<event>
 5   0  0.1464205E-04  0.1100651E+04  0.7818609E-02  0.9204558E-01
        2   -1    0    0  501    0  0.00000000000E+00  0.00000000000E+00  0.60989055603E+03  0.60989055603E+03  0.25500000920E-02 0.  1.
       -2   -1    0    0    0  501  0.00000000000E+00  0.00000000000E+00 -0.49657793268E+03  0.49657793268E+03  0.25500000920E-02 0. -1.
    10030    2    1    2    0    0  0.00000000000E+00  0.00000000000E+00  0.11331262335E+03  0.11064684887E+04  0.11006510646E+04 0.  0.
        3    1    3    3  502    0 -0.17582469378E+03 -0.46036279209E+03  0.30292038210E+03  0.57845396651E+03  0.10100000352E+00 0.  1.
       -3    1    3    3    0  502  0.17582469378E+03  0.46036279209E+03 -0.18960775875E+03  0.52801452220E+03  0.10100000352E+00 0. -1.
</event>
<event>
 5   0  0.8657442E-05  0.1098677E+04  0.7818609E-02  0.9206482E-01
        1   -1    0    0  501    0  0.00000000000E+00  0.00000000000E+00  0.96873819658E+03  0.96873819660E+03  0.50400001928E-02 0.  1.
       -1   -1    0    0    0  501  0.00000000000E+00  0.00000000000E+00 -0.31151135106E+03  0.31151135110E+03  0.50400001928E-02 0. -1.
    10030    2    1    2    0    0  0.00000000000E+00  0.00000000000E+00  0.65722684553E+03  0.12802495477E+04  0.10986772856E+04 0.  0.
        1    1    3    3  502    0  0.14147524859E+03 -0.32708766613E+02 -0.28874344049E+03  0.32319944899E+03  0.50400001928E-02 0. -1.
       -1    1    3    3    0  502 -0.14147524859E+03  0.32708766613E+02  0.94597028601E+03  0.95705009870E+03  0.50400001928E-02 0.  1.
</event>
<event>
 5   0  0.1464205E-04  0.1100150E+04  0.7818609E-02  0.9205046E-01
        2   -1    0    0  501    0  0.00000000000E+00  0.00000000000E+00  0.13147803425E+04  0.13147803426E+04  0.25500000920E-02 0.  1.
       -2   -1    0    0    0  501  0.00000000000E+00  0.00000000000E+00 -0.23013915897E+03  0.23013915899E+03  0.25500000920E-02 0. -1.
    10030    2    1    2    0    0  0.00000000000E+00  0.00000000000E+00  0.10846411836E+04  0.15449195015E+04  0.11001498848E+04 0.  0.
        3    1    3    3  502    0  0.46797710973E+03 -0.77629740415E+01  0.13648682170E+03  0.48753615424E+03  0.10100000352E+00 0. -1.
       -3    1    3    3    0  502 -0.46797710973E+03  0.77629740415E+01  0.94815436188E+03  0.10573833473E+04  0.10100000352E+00 0.  1.
</event>
<event>
 5   0  0.8921459E-05  0.1099956E+04  0.7818609E-02  0.9205235E-01
       -1   -1    0    0    0  501  0.00000000000E+00  0.00000000000E+00  0.24857104970E+03  0.24857104975E+03  0.50400001928E-02 0. -1.
        1   -1    0    0  501    0  0.00000000000E+00  0.00000000000E+00 -0.12168581063E+04  0.12168581064E+04  0.50400001928E-02 0.  1.
    10030    2    1    2    0    0  0.00000000000E+00  0.00000000000E+00 -0.96828705665E+03  0.14654291561E+04  0.10999558116E+04 0.  0.
        3    1    3    3  502    0 -0.30051892123E+02  0.30887416993E+03  0.12078157323E+03  0.33300835981E+03  0.10100000352E+00 0. -1.
       -3    1    3    3    0  502  0.30051892123E+02 -0.30887416993E+03 -0.10890686299E+04  0.11324207963E+04  0.10100000352E+00 0.  1.
</event>
<event>
 5   0  0.9346836E-05  0.1099768E+04  0.7818609E-02  0.9205418E-01
        1   -1    0    0  501    0  0.00000000000E+00  0.00000000000E+00  0.61809633041E+03  0.61809633043E+03  0.50400001928E-02 0.  1.
       -1   -1    0    0    0  501  0.00000000000E+00  0.00000000000E+00 -0.48919910882E+03  0.48919910885E+03  0.50400001928E-02 0. -1.
    10030    2    1    2    0    0  0.00000000000E+00  0.00000000000E+00  0.12889722159E+03  0.11072954393E+04  0.10997675646E+04 0.  0.
        5    1    3    3  502    0 -0.21774951702E+03  0.43858951898E+03  0.31630975922E+03  0.58296618435E+03  0.46999998093E+01 0.  1.
       -5    1    3    3    0  502  0.21774951702E+03 -0.43858951898E+03 -0.18741253762E+03  0.52432925493E+03  0.46999998093E+01 0. -1.
</event>
<event>
 5   0  0.8921459E-05  0.1100373E+04  0.7818609E-02  0.9204829E-01
        1   -1    0    0  501    0  0.00000000000E+00  0.00000000000E+00  0.44067025738E+03  0.44067025741E+03  0.50400001928E-02 0. -1.
       -1   -1    0    0    0  501  0.00000000000E+00  0.00000000000E+00 -0.68691966354E+03  0.68691966356E+03  0.50400001928E-02 0.  1.
    10030    2    1    2    0    0  0.00000000000E+00  0.00000000000E+00 -0.24624940616E+03  0.11275899210E+04  0.11003727822E+04 0.  0.
        3    1    3    3  502    0  0.25197110267E+03  0.66033121823E+02 -0.61973014866E+03  0.67224644076E+03  0.10100000352E+00 0.  1.
       -3    1    3    3    0  502 -0.25197110267E+03 -0.66033121823E+02  0.37348074249E+03  0.45534348021E+03  0.10100000352E+00 0. -1.
</event>
<event>
 5   0  0.1503277E-04  0.1102533E+04  0.7818609E-02  0.9202726E-01
       -2   -1    0    0    0  501  0.00000000000E+00  0.00000000000E+00  0.18410026126E+03  0.18410026127E+03  0.25500000920E-02 0.  1.
        2   -1    0    0  501    0  0.00000000000E+00  0.00000000000E+00 -0.16507029294E+04  0.16507029294E+04  0.25500000920E-02 0. -1.
    10030    2    1    2    0    0  0.00000000000E+00  0.00000000000E+00 -0.14666026682E+04  0.18348031907E+04  0.11025331570E+04 0.  0.
        5    1    3    3  502    0  0.13221276510E+03 -0.51643324078E+02 -0.16197365771E+04  0.16259507733E+04  0.46999998093E+01 0. -1.
       -5    1    3    3    0  502 -0.13221276510E+03  0.51643324078E+02  0.15313390892E+03  0.20885241736E+03  0.46999998093E+01 0.  1.
</event>
<event>
 5   0  0.1553937E-04  0.1101106E+04  0.7818609E-02  0.9204114E-01
        2   -1    0    0  501    0  0.00000000000E+00  0.00000000000E+00  0.73267148405E+03  0.73267148406E+03  0.25500000920E-02 0. -1.
       -2   -1    0    0    0  501  0.00000000000E+00  0.00000000000E+00 -0.41370338749E+03  0.41370338750E+03  0.25500000920E-02 0.  1.
    10030    2    1    2    0    0  0.00000000000E+00  0.00000000000E+00  0.31896809656E+03  0.11463748716E+04  0.11011061255E+04 0.  0.
        1    1    3    3  502    0  0.27763316601E+03  0.42454748628E+03 -0.63294306924E+02  0.51120144003E+03  0.50400001928E-02 0.  1.
       -1    1    3    3    0  502 -0.27763316601E+03 -0.42454748628E+03  0.38226240349E+03  0.63517343153E+03  0.50400001928E-02 0. -1.
</event>
<event>
 5   0  0.1553937E-04  0.1100761E+04  0.7818609E-02  0.9204451E-01
        2   -1    0    0  501    0  0.00000000000E+00  0.00000000000E+00  0.13205882144E+04  0.13205882144E+04  0.25500000920E-02 0.  1.
       -2   -1    0    0    0  501  0.00000000000E+00  0.00000000000E+00 -0.22938144256E+03  0.22938144257E+03  0.25500000920E-02 0. -1.
    10030    2    1    2    0    0  0.00000000000E+00  0.00000000000E+00  0.10912067719E+04  0.15499696570E+04  0.11007605183E+04 0.  0.
        1    1    3    3  502    0  0.24445044313E+03 -0.41263240025E+03  0.92577958136E+03  0.10426357706E+04  0.50400001928E-02 0.  1.
       -1    1    3    3    0  502 -0.24445044313E+03  0.41263240025E+03  0.16542719051E+03  0.50733388638E+03  0.50400001928E-02 0. -1.
</event>
<event>
 5   0  0.8621738E-05  0.1099983E+04  0.7818609E-02  0.9205208E-01
        1   -1    0    0  501    0  0.00000000000E+00  0.00000000000E+00  0.28868653051E+03  0.28868653055E+03  0.50400001928E-02 0.  1.
       -1   -1    0    0    0  501  0.00000000000E+00  0.00000000000E+00 -0.10478174741E+04  0.10478174741E+04  0.50400001928E-02 0. -1.
    10030    2    1    2    0    0  0.00000000000E+00  0.00000000000E+00 -0.75913094360E+03  0.13365040047E+04  0.10999832567E+04 0.  0.
        2    1    3    3  502    0  0.53027343320E+03 -0.92072878121E+02 -0.51715546241E+03  0.74640277408E+03  0.25500000920E-02 0. -1.
       -2    1    3    3    0  502 -0.53027343320E+03  0.92072878121E+02 -0.24197548119E+03  0.59010123059E+03  0.25500000920E-02 0.  1.
</event>
<event>
 5   0  0.1503277E-04  0.1100129E+04  0.7818609E-02  0.9205066E-01
        2   -1    0    0  501    0  0.00000000000E+00  0.00000000000E+00  0.13955927748E+04  0.13955927748E+04  0.25500000920E-02 0.  1.
       -2   -1    0    0    0  501  0.00000000000E+00  0.00000000000E+00 -0.21680479836E+03  0.21680479838E+03  0.25500000920E-02 0. -1.
    10030    2    1    2    0    0  0.00000000000E+00  0.00000000000E+00  0.11787879764E+04  0.16123975732E+04  0.11001294654E+04 0.  0.
        5    1    3    3  502    0  0.41308268690E+03  0.34647074589E+03  0.42971392289E+03  0.68946024505E+03  0.46999998093E+01 0. -1.
       -5    1    3    3    0  502 -0.41308268690E+03 -0.34647074589E+03  0.74907405355E+03  0.92293732814E+03  0.46999998093E+01 0.  1.
</event>
<event>
 5   0  0.1540772E-04  0.1098917E+04  0.7818609E-02  0.9206248E-01
        2   -1    0    0  501    0  0.00000000000E+00  0.00000000000E+00  0.78772514237E+03  0.78772514237E+03  0.25500000920E-02 0.  1.
       -2   -1    0    0    0  501  0.00000000000E+00  0.00000000000E+00 -0.38326153047E+03  0.38326153048E+03  0.25500000920E-02 0. -1.
    10030    2    1    2    0    0  0.00000000000E+00  0.00000000000E+00  0.40446361190E+03  0.11709866729E+04  0.10989171828E+04 0.  0.
        2    1    3    3  502    0  0.44663274502E+02 -0.54087505125E+03  0.29367412983E+03  0.61707789110E+03  0.25500000920E-02 0.  1.
       -2    1    3    3    0  502 -0.44663274502E+02  0.54087505125E+03  0.11078948207E+03  0.55390878175E+03  0.25500000920E-02 0. -1.
</event>
<event>
 5   0  0.9346836E-05  0.1099785E+04  0.7818609E-02  0.9205401E-01
        1   -1    0    0  501    0  0.00000000000E+00  0.00000000000E+00  0.11883434245E+04  0.11883434245E+04  0.50400001928E-02 0. -1.
       -1   -1    0    0    0  501  0.00000000000E+00  0.00000000000E+00 -0.25445675776E+03  0.25445675781E+03  0.50400001928E-02 0.  1.
    10030    2    1    2    0    0  0.00000000000E+00  0.00000000000E+00  0.93388666671E+03  0.14428001823E+04  0.10997854608E+04 0.  0.
        5    1    3    3  502    0 -0.13308064502E+03 -0.51338581545E+03  0.65743657523E+03  0.84470136382E+03  0.46999998093E+01 0. -1.
       -5    1    3    3    0  502  0.13308064502E+03  0.51338581545E+03  0.27645009148E+03  0.59809881847E+03  0.46999998093E+01 0.  1.
</event>
<event>
 5   0  0.9016738E-05  0.1101114E+04  0.7818609E-02  0.9204106E-01
       -1   -1    0    0    0  501  0.00000000000E+00  0.00000000000E+00  0.45565158162E+03  0.45565158164E+03  0.50400001928E-02 0. -1.
        1   -1    0    0  501    0  0.00000000000E+00  0.00000000000E+00 -0.66523037841E+03  0.66523037843E+03  0.50400001928E-02 0.  1.
    10030    2    1    2    0    0  0.00000000000E+00  0.00000000000E+00 -0.20957879680E+03  0.11208819601E+04  0.11011144792E+04 0.  0.
        4    1    3    3  502    0  0.91841389418E+02  0.76280511998E+02 -0.65189313898E+03  0.66273662557E+03  0.12699999809E+01 0.  1.
       -4    1    3    3    0  502 -0.91841389418E+02 -0.76280511998E+02  0.44231434219E+03  0.45814533450E+03  0.12699999809E+01 0. -1.
</event>
<event>
 5   0  0.8921459E-05  0.1100751E+04  0.7818609E-02  0.9204461E-01
       -1   -1    0    0    0  501  0.00000000000E+00  0.00000000000E+00  0.12582550320E+03  0.12582550331E+03  0.50400001928E-02 0. -1.
        1   -1    0    0  501    0  0.00000000000E+00  0.00000000000E+00 -0.24074049952E+04  0.24074049952E+04  0.50400001928E-02 0.  1.
    10030    2    1    2    0    0  0.00000000000E+00  0.00000000000E+00 -0.22815794920E+04  0.25332304985E+04  0.11007505532E+04 0.  0.
        3    1    3    3  502    0  0.90474503752E+02 -0.54204183521E+03 -0.12105157566E+04  0.13294146810E+04  0.10100000352E+00 0. -1.
       -3    1    3    3    0  502 -0.90474503752E+02  0.54204183521E+03 -0.10710637354E+04  0.12038158175E+04  0.10100000352E+00 0.  1.
</event>
<event>
 5   0  0.8921459E-05  0.1097694E+04  0.7818609E-02  0.9207443E-01
        1   -1    0    0  501    0  0.00000000000E+00  0.00000000000E+00  0.94808219850E+03  0.94808219851E+03  0.50400001928E-02 0. -1.
       -1   -1    0    0    0  501  0.00000000000E+00  0.00000000000E+00 -0.31772869832E+03  0.31772869836E+03  0.50400001928E-02 0.  1.
    10030    2    1    2    0    0  0.00000000000E+00  0.00000000000E+00  0.63035350018E+03  0.12658108969E+04  0.10976938059E+04 0.  0.
        3    1    3    3  502    0  0.54702624571E+03 -0.16027673432E+02  0.26709817507E+03  0.60896309012E+03  0.10100000352E+00 0.  1.
       -3    1    3    3    0  502 -0.54702624571E+03  0.16027673432E+02  0.36325532511E+03  0.65684780675E+03  0.10100000352E+00 0. -1.
</event>
<event>
 5   0  0.1540772E-04  0.1100191E+04  0.7818609E-02  0.9205006E-01
       -2   -1    0    0    0  501  0.00000000000E+00  0.00000000000E+00  0.33901168772E+03  0.33901168773E+03  0.25500000920E-02 0.  1.
        2   -1    0    0  501    0  0.00000000000E+00  0.00000000000E+00 -0.89260882516E+03  0.89260882517E+03  0.25500000920E-02 0. -1.
    10030    2    1    2    0    0  0.00000000000E+00  0.00000000000E+00 -0.55359713744E+03  0.12316205129E+04  0.11001905731E+04 0.  0.
        2    1    3    3  502    0  0.51672351053E+03  0.18814689307E+03 -0.26087289866E+03  0.60865187831E+03  0.25500000920E-02 0. -1.
       -2    1    3    3    0  502 -0.51672351053E+03 -0.18814689307E+03 -0.29272423878E+03  0.62296863459E+03  0.25500000920E-02 0.  1.
</event>
<event>
 5   0  0.1540772E-04  0.1099832E+04  0.7818609E-02  0.9205355E-01
       -2   -1    0    0    0  501  0.00000000000E+00  0.00000000000E+00  0.34790710816E+03  0.34790710817E+03  0.25500000920E-02 0.  1.
        2   -1    0    0  501    0  0.00000000000E+00  0.00000000000E+00 -0.86922015123E+03  0.86922015124E+03  0.25500000920E-02 0. -1.
    10030    2    1    2    0    0  0.00000000000E+00  0.00000000000E+00 -0.52131304307E+03  0.12171272594E+04  0.10998324767E+04 0.  0.
        2    1    3    3  502    0 -0.43559002712E+03 -0.10603138181E+03  0.91783535037E+02  0.45760850404E+03  0.25500000920E-02 0. -1.
       -2    1    3    3    0  502  0.43559002712E+03  0.10603138181E+03 -0.61309657811E+03  0.75951875537E+03  0.25500000920E-02 0.  1.
</event>
<event>
 5   0  0.9016738E-05  0.1100551E+04  0.7818609E-02  0.9204655E-01
        1   -1    0    0  501    0  0.00000000000E+00  0.00000000000E+00  0.10270048412E+04  0.10270048412E+04  0.50400001928E-02 0. -1.
       -1   -1    0    0    0  501  0.00000000000E+00  0.00000000000E+00 -0.29484075194E+03  0.29484075198E+03  0.50400001928E-02 0.  1.
    10030    2    1    2    0    0  0.00000000000E+00  0.00000000000E+00  0.73216408929E+03  0.13218455932E+04  0.11005505525E+04 0.  0.
        4    1    3    3  502    0  0.16584014644E+03  0.52363354397E+03  0.32613429544E+03  0.63879592524E+03  0.12699999809E+01 0. -1.
       -4    1    3    3    0  502 -0.16584014644E+03 -0.52363354397E+03  0.40602979385E+03  0.68304966798E+03  0.12699999809E+01 0.  1.
</event>
<event>
 5   0  0.8657442E-05  0.1100626E+04  0.7818609E-02  0.9204582E-01
        1   -1    0    0  501    0  0.00000000000E+00  0.00000000000E+00  0.50917115511E+03  0.50917115513E+03  0.50400001928E-02 0.  1.
       -1   -1    0    0    0  501  0.00000000000E+00  0.00000000000E+00 -0.59477874198E+03  0.59477874200E+03  0.50400001928E-02 0. -1.
    10030    2    1    2    0    0  0.00000000000E+00  0.00000000000E+00 -0.85607586868E+02  0.11039498971E+04  0.11006256023E+04 0.  0.
        1    1    3    3  502    0 -0.33640968019E+03  0.12316148927E+01  0.39402417423E+03  0.51810041469E+03  0.50400001928E-02 0.  1.
       -1    1    3    3    0  502  0.33640968019E+03 -0.12316148927E+01 -0.47963176110E+03  0.58584948244E+03  0.50400001928E-02 0. -1.
</event>
<event>
 5   0  0.9016738E-05  0.1099512E+04  0.7818609E-02  0.9205668E-01
       -1   -1    0    0    0  501  0.00000000000E+00  0.00000000000E+00  0.71001479365E+03  0.71001479367E+03  0.50400001928E-02 0. -1.
        1   -1    0    0  501    0  0.00000000000E+00  0.00000000000E+00 -0.42566932672E+03  0.42566932675E+03  0.50400001928E-02 0.  1.
    10030    2    1    2    0    0  0.00000000000E+00  0.00000000000E+00  0.28434546694E+03  0.11356841204E+04  0.10995117447E+04 0.  0.
        4    1    3    3  502    0 -0.11790118885E+01  0.18466153786E+03 -0.39267391331E+03  0.43393051140E+03  0.12699999809E+01 0.  1.
       -4    1    3    3    0  502  0.11790118885E+01 -0.18466153786E+03  0.67701938025E+03  0.70175360901E+03  0.12699999809E+01 0. -1.
</event>
<event>
 5   0  0.6010125E-05  0.1100093E+04  0.7818609E-02  0.9205101E-01
        3   -1    0    0  501    0  0.00000000000E+00  0.00000000000E+00  0.57092108660E+03  0.57092109553E+03  0.10100000352E+00 0. -1.
       -3   -1    0    0    0  501  0.00000000000E+00  0.00000000000E+00 -0.52993540583E+03  0.52993541545E+03  0.10100000352E+00 0.  1.
    10030    2    1    2    0    0  0.00000000000E+00  0.00000000000E+00  0.40985680770E+02  0.11008565110E+04  0.11000932832E+04 0.  0.
        5    1    3    3  502    0  0.15399228658E+03 -0.18522789108E+02 -0.50757820957E+03  0.53076778997E+03  0.46999998093E+01 0.  1.
       -5    1    3    3    0  502 -0.15399228658E+03  0.18522789108E+02  0.54856389034E+03  0.57008872101E+03  0.46999998093E+01 0. -1.
</event>
<event>
 5   0  0.6010125E-05  0.1100184E+04  0.7818609E-02  0.9205012E-01
        3   -1    0    0  501    0  0.00000000000E+00  0.00000000000E+00  0.88953145438E+03  0.88953146011E+03  0.10100000352E+00 0.  1.
       -3   -1    0    0    0  501  0.00000000000E+00  0.00000000000E+00 -0.34018058857E+03  0.34018060356E+03  0.10100000352E+00 0. -1.
    10030    2    1    2    0    0  0.00000000000E+00  0.00000000000E+00  0.54935086581E+03  0.12297120637E+04  0.11001842508E+04 0.  0.
        4    1    3    3  502    0  0.49096466573E+03  0.24429560436E+03  0.32305000412E+03  0.63646646680E+03  0.12699999809E+01 0.  1.
       -4    1    3    3    0  502 -0.49096466573E+03 -0.24429560436E+03  0.22630086169E+03  0.59324559687E+03  0.12699999809E+01 0. -1.
</event>
<event>
 5   0  0.8921459E-05  0.1100032E+04  0.7818609E-02  0.9205161E-01
       -1   -1    0    0    0  501  0.00000000000E+00  0.00000000000E+00  0.56012206375E+03  0.56012206377E+03  0.50400001928E-02 0.  1.
        1   -1    0    0  501    0  0.00000000000E+00  0.00000000000E+00 -0.54009199087E+03  0.54009199090E+03  0.50400001928E-02 0. -1.
    10030    2    1    2    0    0  0.00000000000E+00  0.00000000000E+00  0.20030072879E+02  0.11002140547E+04  0.11000317097E+04 0.  0.
        3    1    3    3  502    0 -0.23518626397E+03 -0.47844865797E+03 -0.12525431706E+03  0.54764436564E+03  0.10100000352E+00 0. -1.
       -3    1    3    3    0  502  0.23518626397E+03  0.47844865797E+03  0.14528438994E+03  0.55256968903E+03  0.10100000352E+00 0.  1.
</event>
<event>
 5   0  0.1553937E-04  0.1100316E+04  0.7818609E-02  0.9204884E-01
        2   -1    0    0  501    0  0.00000000000E+00  0.00000000000E+00  0.10036839647E+04  0.10036839647E+04  0.25500000920E-02 0.  1.
       -2   -1    0    0    0  501  0.00000000000E+00  0.00000000000E+00 -0.30156263855E+03  0.30156263856E+03  0.25500000920E-02 0. -1.
    10030    2    1    2    0    0  0.00000000000E+00  0.00000000000E+00  0.70212132614E+03  0.13052466032E+04  0.11003155632E+04 0.  0.
        1    1    3    3  502    0  0.44692983861E+03 -0.28150138760E+03  0.16850078249E+03  0.55442026081E+03  0.50400001928E-02 0.  1.
       -1    1    3    3    0  502 -0.44692983861E+03  0.28150138760E+03  0.53362054365E+03  0.75082634244E+03  0.50400001928E-02 0. -1.
</event>
<event>
 5   0  0.1464205E-04  0.1100112E+04  0.7818609E-02  0.9205083E-01
       -2   -1    0    0    0  501  0.00000000000E+00  0.00000000000E+00  0.28390340345E+03  0.28390340346E+03  0.25500000920E-02 0.  1.
        2   -1    0    0  501    0  0.00000000000E+00  0.00000000000E+00 -0.10657202968E+04  0.10657202968E+04  0.25500000920E-02 0. -1.
    10030    2    1    2    0    0  0.00000000000E+00  0.00000000000E+00 -0.78181689331E+03  0.13496237002E+04  0.11001120295E+04 0.  0.
        3    1    3    3  502    0 -0.76917427442E+02 -0.46216821052E+03 -0.37371517191E+02  0.47001317637E+03  0.10100000352E+00 0. -1.
       -3    1    3    3    0  502  0.76917427442E+02  0.46216821052E+03 -0.74444537612E+03  0.87961052386E+03  0.10100000352E+00 0.  1.
</event>
<event>
 5   0  0.1553937E-04  0.1099578E+04  0.7818609E-02  0.9205604E-01
       -2   -1    0    0    0  501  0.00000000000E+00  0.00000000000E+00  0.22782407568E+03  0.22782407569E+03  0.25500000920E-02 0.  1.
        2   -1    0    0  501    0  0.00000000000E+00  0.00000000000E+00 -0.13267595880E+04  0.13267595880E+04  0.25500000920E-02 0. -1.
    10030    2    1    2    0    0  0.00000000000E+00  0.00000000000E+00 -0.10989355123E+04  0.15545836637E+04  0.10995776949E+04 0.  0.
        1    1    3    3  502    0 -0.12551595714E+02  0.51767836053E+03 -0.81061686477E+03  0.96189819055E+03  0.50400001928E-02 0. -1.
       -1    1    3    3    0  502  0.12551595714E+02 -0.51767836053E+03 -0.28831864757E+03  0.59268547315E+03  0.50400001928E-02 0.  1.
</event>
<event>
 5   0  0.6010125E-05  0.1099408E+04  0.7818609E-02  0.9205769E-01
       -3   -1    0    0    0  501  0.00000000000E+00  0.00000000000E+00  0.48619654916E+03  0.48619655965E+03  0.10100000352E+00 0.  1.
        3   -1    0    0  501    0  0.00000000000E+00  0.00000000000E+00 -0.62150671302E+03  0.62150672123E+03  0.10100000352E+00 0. -1.
    10030    2    1    2    0    0  0.00000000000E+00  0.00000000000E+00 -0.13531016386E+03  0.11077032809E+04  0.10994078943E+04 0.  0.
        3    1    3    3  502    0  0.51477049280E+02 -0.29199942319E+03 -0.53403089857E+03  0.61082121818E+03  0.10100000352E+00 0. -1.
       -3    1    3    3    0  502 -0.51477049280E+02  0.29199942319E+03  0.39872073471E+03  0.49688206270E+03  0.10100000352E+00 0.  1.
</event>
<event>
 5   0  0.1464205E-04  0.1099574E+04  0.7818609E-02  0.9205607E-01
        2   -1    0    0  501    0  0.00000000000E+00  0.00000000000E+00  0.62418939517E+03  0.62418939517E+03  0.25500000920E-02 0. -1.
       -2   -1    0    0    0  501  0.00000000000E+00  0.00000000000E+00 -0.48425367920E+03  0.48425367921E+03  0.25500000920E-02 0.  1.
    10030    2    1    2    0    0  0.00000000000E+00  0.00000000000E+00  0.13993571597E+03  0.11084430744E+04  0.10995744834E+04 0.  0.
        3    1    3    3  502    0  0.33956361217E+03  0.21409249977E+03 -0.30873076669E+03  0.50641261998E+03  0.10100000352E+00 0.  1.
       -3    1    3    3    0  502 -0.33956361217E+03 -0.21409249977E+03  0.44866648266E+03  0.60203045440E+03  0.10100000352E+00 0. -1.
</event>
<event>
 5   0  0.1503277E-04  0.1099394E+04  0.7818609E-02  0.9205783E-01
       -2   -1    0    0    0  501  0.00000000000E+00  0.00000000000E+00  0.17995849721E+03  0.17995849722E+03  0.25500000920E-02 0. -1.
        2   -1    0    0  501    0  0.00000000000E+00  0.00000000000E+00 -0.16790902550E+04  0.16790902550E+04  0.25500000920E-02 0.  1.
    10030    2    1    2    0    0  0.00000000000E+00  0.00000000000E+00 -0.14991317578E+04  0.18590487523E+04  0.10993935765E+04 0.  0.
        5    1    3    3  502    0 -0.40991475344E+03  0.15366876298E+03 -0.18745852947E+03  0.47624256852E+03  0.46999998093E+01 0. -1.
       -5    1    3    3    0  502  0.40991475344E+03 -0.15366876298E+03 -0.13116732283E+04  0.13828061837E+04  0.46999998093E+01 0.  1.
</event>
<event>
 5   0  0.1503277E-04  0.1100264E+04  0.7818609E-02  0.9204934E-01
       -2   -1    0    0    0  501  0.00000000000E+00  0.00000000000E+00  0.53694269373E+03  0.53694269374E+03  0.25500000920E-02 0.  1.
        2   -1    0    0  501    0  0.00000000000E+00  0.00000000000E+00 -0.56364558025E+03  0.56364558025E+03  0.25500000920E-02 0. -1.
    10030    2    1    2    0    0  0.00000000000E+00  0.00000000000E+00 -0.26702886517E+02  0.11005882740E+04  0.11002642886E+04 0.  0.
        5    1    3    3  502    0 -0.17362852866E+03 -0.81174148102E+02 -0.52914577048E+03  0.56280853290E+03  0.46999998093E+01 0. -1.
       -5    1    3    3    0  502  0.17362852866E+03  0.81174148102E+02  0.50244288397E+03  0.53777974109E+03  0.46999998093E+01 0.  1.
</event>
<event>
 5   0  0.8657442E-05  0.1100018E+04  0.7818609E-02  0.9205175E-01
       -1   -1    0    0    0  501  0.00000000000E+00  0.00000000000E+00  0.13771828902E+03  0.13771828911E+03  0.50400001928E-02 0.  1.
        1   -1    0    0  501    0  0.00000000000E+00  0.00000000000E+00 -0.21965835431E+04  0.21965835431E+04  0.50400001928E-02 0. -1.
    10030    2    1    2    0    0  0.00000000000E+00  0.00000000000E+00 -0.20588652541E+04  0.23343018322E+04  0.11000176860E+04 0.  0.
        1    1    3    3  502    0 -0.23862790086E+03 -0.32367248053E+03 -0.23315842449E+03  0.46483330416E+03  0.50400001928E-02 0.  1.
       -1    1    3    3    0  502  0.23862790086E+03  0.32367248053E+03 -0.18257068296E+04  0.18694685281E+04  0.50400001928E-02 0. -1.
</event>
<event>
 5   0  0.1553937E-04  0.1100231E+04  0.7818609E-02  0.9204967E-01
        2   -1    0    0  501    0  0.00000000000E+00  0.00000000000E+00  0.46889097170E+03  0.46889097171E+03  0.25500000920E-02 0.  1.
       -2   -1    0    0    0  501  0.00000000000E+00  0.00000000000E+00 -0.64540974699E+03  0.64540974699E+03  0.25500000920E-02 0. -1.
    10030    2    1    2    0    0  0.00000000000E+00  0.00000000000E+00 -0.17651877529E+03  0.11143007187E+04  0.11002305275E+04 0.  0.
        1    1    3    3  502    0 -0.13298349838E+03  0.23474644195E+03 -0.57380276069E+03  0.63406633017E+03  0.50400001928E-02 0. -1.
       -1    1    3    3    0  502  0.13298349838E+03 -0.23474644195E+03  0.39728398540E+03  0.48023438854E+03  0.50400001928E-02 0.  1.
</event>
<event>
 5   0  0.8921459E-05  0.1099976E+04  0.7818609E-02  0.9205216E-01
        1   -1    0    0  501    0  0.00000000000E+00  0.00000000000E+00  0.59960123491E+03  0.59960123493E+03  0.50400001928E-02 0.  1.
       -1   -1    0    0    0  501  0.00000000000E+00  0.00000000000E+00 -0.50447950062E+03  0.50447950064E+03  0.50400001928E-02 0. -1.
    10030    2    1    2    0    0  0.00000000000E+00  0.00000000000E+00  0.95121734290E+02  0.11040807356E+04  0.10999755117E+04 0.  0.
        3    1    3    3  502    0  0.50755831549E+03 -0.27276053553E+02  0.25840935107E+03  0.57020595371E+03  0.10100000352E+00 0.  1.
       -3    1    3    3    0  502 -0.50755831549E+03  0.27276053553E+02 -0.16328761678E+03  0.53387478187E+03  0.10100000352E+00 0. -1.
</event>
<event>
 5   0  0.8621738E-05  0.1101385E+04  0.7818609E-02  0.9203843E-01
        1   -1    0    0  501    0  0.00000000000E+00  0.00000000000E+00  0.55735229245E+03  0.55735229247E+03  0.50400001928E-02 0.  1.
       -1   -1    0    0    0  501  0.00000000000E+00  0.00000000000E+00 -0.54411222376E+03  0.54411222378E+03  0.50400001928E-02 0. -1.
    10030    2    1    2    0    0  0.00000000000E+00  0.00000000000E+00  0.13240068687E+02  0.11014645163E+04  0.11013849378E+04 0.  0.
        2    1    3    3  502    0  0.30806300171E+03  0.16329064132E+03 -0.41966837249E+03  0.54560809143E+03  0.25500000920E-02 0. -1.
       -2    1    3    3    0  502 -0.30806300171E+03 -0.16329064132E+03  0.43290844117E+03  0.55585642482E+03  0.25500000920E-02 0.  1.
</event>
<event>
 5   0  0.9016738E-05  0.1099876E+04  0.7818609E-02  0.9205313E-01
       -1   -1    0    0    0  501  0.00000000000E+00  0.00000000000E+00  0.31031296817E+03  0.31031296821E+03  0.50400001928E-02 0.  1.
        1   -1    0    0  501    0  0.00000000000E+00  0.00000000000E+00 -0.97460249271E+03  0.97460249272E+03  0.50400001928E-02 0. -1.
    10030    2    1    2    0    0  0.00000000000E+00  0.00000000000E+00 -0.66428952453E+03  0.12849154609E+04  0.10998759791E+04 0.  0.
        4    1    3    3  502    0  0.99115787152E+02  0.53014411919E+03 -0.45771500672E+03  0.70737639673E+03  0.12699999809E+01 0. -1.
       -4    1    3    3    0  502 -0.99115787152E+02 -0.53014411919E+03 -0.20657451782E+03  0.57753906421E+03  0.12699999809E+01 0.  1.
</event>
<event>
 5   0  0.1574101E-04  0.1100176E+04  0.7818609E-02  0.9205020E-01
       -2   -1    0    0    0  501  0.00000000000E+00  0.00000000000E+00  0.41245806159E+03  0.41245806160E+03  0.25500000920E-02 0.  1.
        2   -1    0    0  501    0  0.00000000000E+00  0.00000000000E+00 -0.73364306898E+03  0.73364306898E+03  0.25500000920E-02 0. -1.
    10030    2    1    2    0    0  0.00000000000E+00  0.00000000000E+00 -0.32118500738E+03  0.11461011306E+04  0.11001763461E+04 0.  0.
        4    1    3    3  502    0 -0.14839688442E+03  0.12608705461E+03 -0.69653446172E+03  0.72324370022E+03  0.12699999809E+01 0. -1.
       -4    1    3    3    0  502  0.14839688442E+03 -0.12608705461E+03  0.37534945433E+03  0.42285743037E+03  0.12699999809E+01 0.  1.
</event>
<event>
 5   0  0.9346836E-05  0.1100295E+04  0.7818609E-02  0.9204905E-01
       -1   -1    0    0    0  501  0.00000000000E+00  0.00000000000E+00  0.18524021849E+03  0.18524021855E+03  0.50400001928E-02 0.  1.
        1   -1    0    0  501    0  0.00000000000E+00  0.00000000000E+00 -0.16338895886E+04  0.16338895886E+04  0.50400001928E-02 0. -1.
    10030    2    1    2    0    0  0.00000000000E+00  0.00000000000E+00 -0.14486493702E+04  0.18191298072E+04  0.11002946232E+04 0.  0.
        5    1    3    3  502    0 -0.53745438215E+03 -0.75902721037E+02 -0.87240029678E+03  0.10274837243E+04  0.46999998093E+01 0. -1.
       -5    1    3    3    0  502  0.53745438215E+03  0.75902721037E+02 -0.57624907337E+03  0.79164608287E+03  0.46999998093E+01 0.  1.
</event>
<event>
 5   0  0.8921459E-05  0.1100430E+04  0.7818609E-02  0.9204773E-01
       -1   -1    0    0    0  501  0.00000000000E+00  0.00000000000E+00  0.45666250580E+03  0.45666250583E+03  0.50400001928E-02 0. -1.
        1   -1    0    0  501    0  0.00000000000E+00  0.00000000000E+00 -0.66293318655E+03  0.66293318657E+03  0.50400001928E-02 0.  1.
    10030    2    1    2    0    0  0.00000000000E+00  0.00000000000E+00 -0.20627068075E+03  0.11195956924E+04  0.11004303343E+04 0.  0.
        3    1    3    3  502    0 -0.20025172938E+03  0.31742011438E+03 -0.51248633294E+03  0.63521534599E+03  0.10100000352E+00 0.  1.
       -3    1    3    3    0  502  0.20025172938E+03 -0.31742011438E+03  0.30621565219E+03  0.48438034640E+03  0.10100000352E+00 0. -1.
</event>
<event>
 5   0  0.9346836E-05  0.1099765E+04  0.7818609E-02  0.9205421E-01
       -1   -1    0    0    0  501  0.00000000000E+00  0.00000000000E+00  0.83251181549E+03  0.83251181550E+03  0.50400001928E-02 0. -1.
        1   -1    0    0  501    0  0.00000000000E+00  0.00000000000E+00 -0.36320295894E+03  0.36320295897E+03  0.50400001928E-02 0.  1.
    10030    2    1    2    0    0  0.00000000000E+00  0.00000000000E+00  0.46930885655E+03  0.11957147745E+04  0.10997649836E+04 0.  0.
        5    1    3    3  502    0 -0.12400722828E+03 -0.16038813349E+03 -0.32106165204E+03  0.37974309795E+03  0.46999998093E+01 0.  1.
       -5    1    3    3    0  502  0.12400722828E+03  0.16038813349E+03  0.79037050860E+03  0.81597167652E+03  0.46999998093E+01 0. -1.
</event>
<event>
 5   0  0.1503277E-04  0.1099766E+04  0.7818609E-02  0.9205420E-01
        2   -1    0    0  501    0  0.00000000000E+00  0.00000000000E+00  0.85210480389E+03  0.85210480389E+03  0.25500000920E-02 0.  1.
       -2   -1    0    0    0  501  0.00000000000E+00  0.00000000000E+00 -0.35485242286E+03  0.35485242286E+03  0.25500000920E-02 0. -1.
    10030    2    1    2    0    0  0.00000000000E+00  0.00000000000E+00  0.49725238103E+03  0.12069572268E+04  0.10997662555E+04 0.  0.
        5    1    3    3  502    0  0.43408804228E+03 -0.74960522016E+02 -0.11253528504E+03  0.45468427363E+03  0.46999998093E+01 0. -1.
       -5    1    3    3    0  502 -0.43408804228E+03  0.74960522016E+02  0.60978766607E+03  0.75227295312E+03  0.46999998093E+01 0.  1.
</event>
<event>
 5   0  0.1553937E-04  0.1099575E+04  0.7818609E-02  0.9205607E-01
        2   -1    0    0  501    0  0.00000000000E+00  0.00000000000E+00  0.62294656684E+03  0.62294656684E+03  0.25500000920E-02 0. -1.
       -2   -1    0    0    0  501  0.00000000000E+00  0.00000000000E+00 -0.48521995392E+03  0.48521995392E+03  0.25500000920E-02 0.  1.
    10030    2    1    2    0    0  0.00000000000E+00  0.00000000000E+00  0.13772661292E+03  0.11081665208E+04  0.10995746531E+04 0.  0.
        1    1    3    3  502    0  0.22762294363E+03 -0.16183409918E+03 -0.40840184379E+03  0.49476716359E+03  0.50400001928E-02 0.  1.
       -1    1    3    3    0  502 -0.22762294363E+03  0.16183409918E+03  0.54612845671E+03  0.61339935718E+03  0.50400001928E-02 0. -1.
</event>
<event>
 5   0  0.8621738E-05  0.1100930E+04  0.7818609E-02  0.9204286E-01
        1   -1    0    0  501    0  0.00000000000E+00  0.00000000000E+00  0.88258028720E+03  0.88258028721E+03  0.50400001928E-02 0.  1.
       -1   -1    0    0    0  501  0.00000000000E+00  0.00000000000E+00 -0.34332506771E+03  0.34332506775E+03  0.50400001928E-02 0. -1.
    10030    2    1    2    0    0  0.00000000000E+00  0.00000000000E+00  0.53925521948E+03  0.12259053550E+04  0.11009304009E+04 0.  0.
        2    1    3    3  502    0  0.26216711761E+03 -0.19964795733E+03 -0.22135792838E+03  0.39697636817E+03  0.25500000920E-02 0. -1.
       -2    1    3    3    0  502 -0.26216711761E+03  0.19964795733E+03  0.76061314787E+03  0.82892898679E+03  0.25500000920E-02 0.  1.
</event>
<event>
 5   0  0.1503277E-04  0.1100187E+04  0.7818609E-02  0.9205009E-01
       -2   -1    0    0    0  501  0.00000000000E+00  0.00000000000E+00  0.17979058974E+03  0.17979058976E+03  0.25500000920E-02 0.  1.
        2   -1    0    0  501    0  0.00000000000E+00  0.00000000000E+00 -0.16830861626E+04  0.16830861626E+04  0.25500000920E-02 0. -1.
    10030    2    1    2    0    0  0.00000000000E+00  0.00000000000E+00 -0.15032955728E+04  0.18628767523E+04  0.11001873545E+04 0.  0.
        5    1    3    3  502    0  0.51459194903E+03 -0.82498071388E+02 -0.45366636705E+03  0.69097472340E+03  0.46999998093E+01 0.  1.
       -5    1    3    3    0  502 -0.51459194903E+03  0.82498071388E+02 -0.10496292058E+04  0.11719020289E+04  0.46999998093E+01 0. -1.
</event>
<event>
 5   0  0.1553937E-04  0.1100143E+04  0.7818609E-02  0.9205053E-01
       -2   -1    0    0    0  501  0.00000000000E+00  0.00000000000E+00  0.21415120940E+03  0.21415120941E+03  0.25500000920E-02 0. -1.
        2   -1    0    0  501    0  0.00000000000E+00  0.00000000000E+00 -0.14129203617E+04  0.14129203617E+04  0.25500000920E-02 0.  1.
    10030    2    1    2    0    0  0.00000000000E+00  0.00000000000E+00 -0.11987691523E+04  0.16270715711E+04  0.11001429075E+04 0.  0.
        1    1    3    3  502    0  0.42448022877E+03  0.23785640604E+03 -0.21995188753E+03  0.53398311524E+03  0.50400001928E-02 0. -1.
       -1    1    3    3    0  502 -0.42448022877E+03 -0.23785640604E+03 -0.97881726477E+03  0.10930884559E+04  0.50400001928E-02 0.  1.
</event>
<event>
 5   0  0.9346836E-05  0.1099879E+04  0.7818609E-02  0.9205309E-01
        1   -1    0    0  501    0  0.00000000000E+00  0.00000000000E+00  0.54637011232E+03  0.54637011234E+03  0.50400001928E-02 0.  1.
       -1   -1    0    0    0  501  0.00000000000E+00  0.00000000000E+00 -0.55353264343E+03  0.55353264345E+03  0.50400001928E-02 0. -1.
    10030    2    1    2    0    0  0.00000000000E+00  0.00000000000E+00 -0.71625311058E+01  0.10999027558E+04  0.10998794345E+04 0.  0.
        5    1    3    3  502    0  0.45343779267E+03  0.22355576554E+03  0.21282246906E+03  0.54854216379E+03  0.46999998093E+01 0.  1.
       -5    1    3    3    0  502 -0.45343779267E+03 -0.22355576554E+03 -0.21998500016E+03  0.55136059201E+03  0.46999998093E+01 0. -1.
</event>
<event>
 5   0  0.1553937E-04  0.1099955E+04  0.7818609E-02  0.9205236E-01
       -2   -1    0    0    0  501  0.00000000000E+00  0.00000000000E+00  0.82853260972E+03  0.82853260973E+03  0.25500000920E-02 0. -1.
        2   -1    0    0  501    0  0.00000000000E+00  0.00000000000E+00 -0.36507330686E+03  0.36507330687E+03  0.25500000920E-02 0.  1.
    10030    2    1    2    0    0  0.00000000000E+00  0.00000000000E+00  0.46345930286E+03  0.11936059166E+04  0.10999547985E+04 0.  0.
        1    1    3    3  502    0 -0.17961346993E+03  0.14750819818E+03  0.77262146421E+03  0.80682314921E+03  0.50400001928E-02 0. -1.
       -1    1    3    3    0  502  0.17961346993E+03 -0.14750819818E+03 -0.30916216135E+03  0.38678276738E+03  0.50400001928E-02 0.  1.
</event>
<event>
 5   0  0.1464205E-04  0.1099235E+04  0.7818609E-02  0.9205938E-01
        2   -1    0    0  501    0  0.00000000000E+00  0.00000000000E+00  0.65928782477E+03  0.65928782477E+03  0.25500000920E-02 0.  1.
       -2   -1    0    0    0  501  0.00000000000E+00  0.00000000000E+00 -0.45819029158E+03  0.45819029158E+03  0.25500000920E-02 0. -1.
    10030    2    1    2    0    0  0.00000000000E+00  0.00000000000E+00  0.20109753319E+03  0.11174781164E+04  0.10992347896E+04 0.  0.
        3    1    3    3  502    0  0.41337612687E+03 -0.97940247820E+02  0.45505847107E+03  0.62253541000E+03  0.10100000352E+00 0.  1.
       -3    1    3    3    0  502 -0.41337612687E+03  0.97940247820E+02 -0.25396093788E+03  0.49494270636E+03  0.10100000352E+00 0. -1.
</event>
<event>
 5   0  0.9016738E-05  0.1099683E+04  0.7818609E-02  0.9205501E-01
        1   -1    0    0  501    0  0.00000000000E+00  0.00000000000E+00  0.14241075980E+04  0.14241075980E+04  0.50400001928E-02 0.  1.
       -1   -1    0    0    0  501  0.00000000000E+00  0.00000000000E+00 -0.21229132860E+03  0.21229132866E+03  0.50400001928E-02 0. -1.
    10030    2    1    2    0    0  0.00000000000E+00  0.00000000000E+00  0.12118162694E+04  0.16363989267E+04  0.10996830345E+04 0.  0.
        4    1    3    3  502    0 -0.31264820170E+03  0.44694936430E+03  0.50268914566E+03  0.74176183667E+03  0.12699999809E+01 0.  1.
       -4    1    3    3    0  502  0.31264820170E+03 -0.44694936430E+03  0.70912712372E+03  0.89463708998E+03  0.12699999809E+01 0. -1.
</event>
<event>
 5   0  0.9016738E-05  0.1100324E+04  0.7818609E-02  0.9204876E-01
        1   -1    0    0  501    0  0.00000000000E+00  0.00000000000E+00  0.92878474628E+03  0.92878474629E+03  0.50400001928E-02 0. -1.
       -1   -1    0    0    0  501  0.00000000000E+00  0.00000000000E+00 -0.32588626860E+03  0.32588626864E+03  0.50400001928E-02 0.  1.
    10030    2    1    2    0    0  0.00000000000E+00  0.00000000000E+00  0.60289847768E+03  0.12546710149E+04  0.11003239438E+04 0.  0.
        4    1    3    3  502    0  0.44212954996E+03 -0.20242995262E+03  0.80193108373E+01  0.48633563196E+03  0.12699999809E+01 0.  1.
       -4    1    3    3    0  502 -0.44212954996E+03  0.20242995262E+03  0.59487916684E+03  0.76833538296E+03  0.12699999809E+01 0. -1.
</event>
<event>
 5   0  0.8657442E-05  0.1099388E+04  0.7818609E-02  0.9205788E-01
       -1   -1    0    0    0  501  0.00000000000E+00  0.00000000000E+00  0.64304541673E+03  0.64304541675E+03  0.50400001928E-02 0.  1.
        1   -1    0    0  501    0  0.00000000000E+00  0.00000000000E+00 -0.46989480212E+03  0.46989480214E+03  0.50400001928E-02 0. -1.
    10030    2    1    2    0    0  0.00000000000E+00  0.00000000000E+00  0.17315061461E+03  0.11129402189E+04  0.10993883734E+04 0.  0.
        1    1    3    3  502    0 -0.20577557697E+03 -0.50959675207E+03  0.98173455095E+02  0.55827454277E+03  0.50400001928E-02 0.  1.
       -1    1    3    3    0  502  0.20577557697E+03  0.50959675207E+03  0.74977159519E+02  0.55466567612E+03  0.50400001928E-02 0. -1.
</event>
<event>
 5   0  0.1503277E-04  0.1099887E+04  0.7818609E-02  0.9205302E-01
       -2   -1    0    0    0  501  0.00000000000E+00  0.00000000000E+00  0.63376282814E+03  0.63376282814E+03  0.25500000920E-02 0. -1.
        2   -1    0    0  501    0  0.00000000000E+00  0.00000000000E+00 -0.47721019810E+03  0.47721019811E+03  0.25500000920E-02 0.  1.
    10030    2    1    2    0    0  0.00000000000E+00  0.00000000000E+00  0.15655263003E+03  0.11109730263E+04  0.10998874211E+04 0.  0.
        5    1    3    3  502    0  0.10225932896E+03 -0.18006041763E+03  0.59285897289E+03  0.62799886631E+03  0.46999998093E+01 0. -1.
       -5    1    3    3    0  502 -0.10225932896E+03  0.18006041763E+03 -0.43630634285E+03  0.48297415994E+03  0.46999998093E+01 0.  1.
</event>
<event>
 5   0  0.8657442E-05  0.1100037E+04  0.7818609E-02  0.9205156E-01
        1   -1    0    0  501    0  0.00000000000E+00  0.00000000000E+00  0.11378319470E+04  0.11378319471E+04  0.50400001928E-02 0.  1.
       -1   -1    0    0    0  501  0.00000000000E+00  0.00000000000E+00 -0.26587446377E+03  0.26587446381E+03  0.50400001928E-02 0. -1.
    10030    2    1    2    0    0  0.00000000000E+00  0.00000000000E+00  0.87195748328E+03  0.14037064109E+04  0.11000371972E+04 0.  0.
        1    1    3    3  502    0 -0.93814387428E+02 -0.27994209506E+03 -0.15618676730E+03  0.33401051208E+03  0.50400001928E-02 0. -1.
       -1    1    3    3    0  502  0.93814387428E+02  0.27994209506E+03  0.10281442506E+04  0.10696958988E+04  0.50400001928E-02 0.  1.
</event>
<event>
 5   0  0.6010125E-05  0.1100954E+04  0.7818609E-02  0.9204262E-01
       -3   -1    0    0    0  501  0.00000000000E+00  0.00000000000E+00  0.26231541077E+03  0.26231543021E+03  0.10100000352E+00 0.  1.
        3   -1    0    0  501    0  0.00000000000E+00  0.00000000000E+00 -0.11551930854E+04  0.11551930898E+04  0.10100000352E+00 0. -1.
    10030    2    1    2    0    0  0.00000000000E+00  0.00000000000E+00 -0.89287767462E+03  0.14175085200E+04  0.11009540692E+04 0.  0.
        2    1    3    3  502    0  0.45781802047E+03  0.28086706396E+03 -0.60169840224E+03  0.80655106147E+03  0.25500000920E-02 0.  1.
       -2    1    3    3    0  502 -0.45781802047E+03 -0.28086706396E+03 -0.29117927238E+03  0.61095745855E+03  0.25500000920E-02 0. -1.
</event>
<event>
 5   0  0.1503277E-04  0.1100567E+04  0.7818609E-02  0.9204639E-01
       -2   -1    0    0    0  501  0.00000000000E+00  0.00000000000E+00  0.28170875948E+03  0.28170875949E+03  0.25500000920E-02 0.  1.
        2   -1    0    0  501    0  0.00000000000E+00  0.00000000000E+00 -0.10749111318E+04  0.10749111318E+04  0.25500000920E-02 0. -1.
    10030    2    1    2    0    0  0.00000000000E+00  0.00000000000E+00 -0.79320237228E+03  0.13566198913E+04  0.11005669112E+04 0.  0.
        5    1    3    3  502    0  0.80489679894E+02  0.26208108027E+03  0.19149915603E+03  0.33445343168E+03  0.46999998093E+01 0.  1.
       -5    1    3    3    0  502 -0.80489679894E+02 -0.26208108027E+03 -0.98470152831E+03  0.10221664596E+04  0.46999998093E+01 0. -1.
</event>
<event>
 5   0  0.1553937E-04  0.1099742E+04  0.7818609E-02  0.9205443E-01
        2   -1    0    0  501    0  0.00000000000E+00  0.00000000000E+00  0.16222053046E+04  0.16222053046E+04  0.25500000920E-02 0.  1.
       -2   -1    0    0    0  501  0.00000000000E+00  0.00000000000E+00 -0.18638710614E+03  0.18638710616E+03  0.25500000920E-02 0. -1.
    10030    2    1    2    0    0  0.00000000000E+00  0.00000000000E+00  0.14358181985E+04  0.18085924108E+04  0.10997420649E+04 0.  0.
        1    1    3    3  502    0  0.23433343468E+03  0.38072915469E+03  0.12444030400E+04  0.13222729574E+04  0.50400001928E-02 0.  1.
       -1    1    3    3    0  502 -0.23433343468E+03 -0.38072915469E+03  0.19141515850E+03  0.48631945342E+03  0.50400001928E-02 0. -1.
</event>
<event>
 5   0  0.1574101E-04  0.1099982E+04  0.7818609E-02  0.9205210E-01
        2   -1    0    0  501    0  0.00000000000E+00  0.00000000000E+00  0.13594924595E+04  0.13594924595E+04  0.25500000920E-02 0.  1.
       -2   -1    0    0    0  501  0.00000000000E+00  0.00000000000E+00 -0.22250217438E+03  0.22250217439E+03  0.25500000920E-02 0. -1.
    10030    2    1    2    0    0  0.00000000000E+00  0.00000000000E+00  0.11369902852E+04  0.15819946339E+04  0.10999818695E+04 0.  0.
        4    1    3    3  502    0 -0.27148899915E+03 -0.47807246431E+03  0.54673798440E+03  0.77536029965E+03  0.12699999809E+01 0.  1.
       -4    1    3    3    0  502  0.27148899915E+03  0.47807246431E+03  0.59025230075E+03  0.80663433428E+03  0.12699999809E+01 0. -1.
</event>
<event>
 5   0  0.1503277E-04  0.1099810E+04  0.7818609E-02  0.9205377E-01
       -2   -1    0    0    0  501  0.00000000000E+00  0.00000000000E+00  0.34522116483E+03  0.34522116484E+03  0.25500000920E-02 0.  1.
        2   -1    0    0  501    0  0.00000000000E+00  0.00000000000E+00 -0.87594735258E+03  0.87594735259E+03  0.25500000920E-02 0. -1.
    10030    2    1    2    0    0  0.00000000000E+00  0.00000000000E+00 -0.53072618775E+03  0.12211685174E+04  0.10998101025E+04 0.  0.
        5    1    3    3  502    0 -0.86241300684E+01  0.30348631724E+03 -0.77442341296E+03  0.83182452050E+03  0.46999998093E+01 0. -1.
       -5    1    3    3    0  502  0.86241300684E+01 -0.30348631724E+03  0.24369722520E+03  0.38934399692E+03  0.46999998093E+01 0.  1.
</event>
<event>
 5   0  0.9016738E-05  0.1099240E+04  0.7818609E-02  0.9205933E-01
       -1   -1    0    0    0  501  0.00000000000E+00  0.00000000000E+00  0.41246466825E+03  0.41246466828E+03  0.50400001928E-02 0.  1.
        1   -1    0    0  501    0  0.00000000000E+00  0.00000000000E+00 -0.73238289050E+03  0.73238289052E+03  0.50400001928E-02 0. -1.
    10030    2    1    2    0    0  0.00000000000E+00  0.00000000000E+00 -0.31991822226E+03  0.11448475588E+04  0.10992398573E+04 0.  0.
        4    1    3    3  502    0 -0.46447737483E+03 -0.70774044005E+02 -0.45697973432E+03  0.65542374652E+03  0.12699999809E+01 0.  1.
       -4    1    3    3    0  502  0.46447737483E+03  0.70774044005E+02  0.13706151206E+03  0.48942381227E+03  0.12699999809E+01 0. -1.
</event>
<event>
 5   0  0.1553937E-04  0.1099394E+04  0.7818609E-02  0.9205783E-01
        2   -1    0    0  501    0  0.00000000000E+00  0.00000000000E+00  0.11303317485E+04  0.11303317485E+04  0.25500000920E-02 0. -1.
       -2   -1    0    0    0  501  0.00000000000E+00  0.00000000000E+00 -0.26732570537E+03  0.26732570538E+03  0.25500000920E-02 0.  1.
    10030    2    1    2    0    0  0.00000000000E+00  0.00000000000E+00  0.86300604311E+03  0.13976574539E+04  0.10993938911E+04 0.  0.
        1    1    3    3  502    0 -0.49026528997E+03 -0.17708252011E+03  0.65333802801E+03  0.83580431463E+03  0.50400001928E-02 0. -1.
       -1    1    3    3    0  502  0.49026528997E+03  0.17708252011E+03  0.20966801511E+03  0.56185313923E+03  0.50400001928E-02 0.  1.
</event>
<event>
 5   0  0.9016738E-05  0.1101301E+04  0.7818609E-02  0.9203925E-01
       -1   -1    0    0    0  501  0.00000000000E+00  0.00000000000E+00  0.32606276281E+03  0.32606276285E+03  0.50400001928E-02 0.  1.
        1   -1    0    0  501    0  0.00000000000E+00  0.00000000000E+00 -0.92993053435E+03  0.92993053436E+03  0.50400001928E-02 0. -1.
    10030    2    1    2    0    0  0.00000000000E+00  0.00000000000E+00 -0.60386777153E+03  0.12559932972E+04  0.11013005390E+04 0.  0.
        4    1    3    3  502    0 -0.22289871697E+03  0.45459532810E+03 -0.55020579700E+02  0.50928344510E+03  0.12699999809E+01 0.  1.
       -4    1    3    3    0  502  0.22289871697E+03 -0.45459532810E+03 -0.54884719183E+03  0.74670985211E+03  0.12699999809E+01 0. -1.
</event>
<event>
 5   0  0.8621738E-05  0.1100168E+04  0.7818609E-02  0.9205028E-01
       -1   -1    0    0    0  501  0.00000000000E+00  0.00000000000E+00  0.32647965987E+03  0.32647965991E+03  0.50400001928E-02 0. -1.
        1   -1    0    0  501    0  0.00000000000E+00  0.00000000000E+00 -0.92683423290E+03  0.92683423291E+03  0.50400001928E-02 0.  1.
    10030    2    1    2    0    0  0.00000000000E+00  0.00000000000E+00 -0.60035457303E+03  0.12533138928E+04  0.11001682147E+04 0.  0.
        2    1    3    3  502    0  0.26935117738E+03 -0.30109049069E+03 -0.72549343473E+03  0.83038922451E+03  0.25500000920E-02 0.  1.
       -2    1    3    3    0  502 -0.26935117738E+03  0.30109049069E+03  0.12513886170E+03  0.42292466830E+03  0.25500000920E-02 0. -1.
</event>
<event>
 5   0  0.6010125E-05  0.1099742E+04  0.7818609E-02  0.9205444E-01
       -4   -1    0    0    0  501  0.00000000000E+00  0.00000000000E+00  0.37370497213E+03  0.37370713011E+03  0.12699999809E+01 0. -1.
        4   -1    0    0  501    0  0.00000000000E+00  0.00000000000E+00 -0.80907707729E+03  0.80907807405E+03  0.12699999809E+01 0.  1.
    10030    2    1    2    0    0  0.00000000000E+00  0.00000000000E+00 -0.43537210516E+03  0.11827852042E+04  0.10997417739E+04 0.  0.
        4    1    3    3  502    0  0.54413521944E+03 -0.32149523142E+02 -0.13983467135E+03  0.56273624113E+03  0.12699999809E+01 0.  1.
       -4    1    3    3    0  502 -0.54413521944E+03  0.32149523142E+02 -0.29553743381E+03  0.62004896303E+03  0.12699999809E+01 0. -1.
</event>
<event>
 5   0  0.9016738E-05  0.1100164E+04  0.7818609E-02  0.9205032E-01
       -1   -1    0    0    0  501  0.00000000000E+00  0.00000000000E+00  0.56513783566E+03  0.56513783568E+03  0.50400001928E-02 0.  1.
        1   -1    0    0  501    0  0.00000000000E+00  0.00000000000E+00 -0.53542690190E+03  0.53542690192E+03  0.50400001928E-02 0. -1.
    10030    2    1    2    0    0  0.00000000000E+00  0.00000000000E+00  0.29710933761E+02  0.11005647376E+04  0.11001636251E+04 0.  0.
        4    1    3    3  502    0  0.27748609148E+03 -0.40528801550E+03 -0.23288676087E+03  0.54359429979E+03  0.12699999809E+01 0. -1.
       -4    1    3    3    0  502 -0.27748609148E+03  0.40528801550E+03  0.26259769463E+03  0.55697043781E+03  0.12699999809E+01 0.  1.
</event>
<event>
 5   0  0.9016738E-05  0.1099528E+04  0.7818609E-02  0.9205652E-01
        1   -1    0    0  501    0  0.00000000000E+00  0.00000000000E+00  0.13456150462E+04  0.13456150462E+04  0.50400001928E-02 0. -1.
       -1   -1    0    0    0  501  0.00000000000E+00  0.00000000000E+00 -0.22461148495E+03  0.22461148500E+03  0.50400001928E-02 0.  1.
    10030    2    1    2    0    0  0.00000000000E+00  0.00000000000E+00  0.11210035612E+04  0.15702265312E+04  0.10995282511E+04 0.  0.
        4    1    3    3  502    0  0.45344495063E+03  0.21396522791E+03  0.23848215138E+03  0.55521958848E+03  0.12699999809E+01 0. -1.
       -4    1    3    3    0  502 -0.45344495063E+03 -0.21396522791E+03  0.88252140985E+03  0.10150069427E+04  0.12699999809E+01 0.  1.
</event>
<event>
 5   0  0.1574101E-04  0.1100552E+04  0.7818609E-02  0.9204654E-01
        2   -1    0    0  501    0  0.00000000000E+00  0.00000000000E+00  0.84556252951E+03  0.84556252952E+03  0.25500000920E-02 0.  1.
       -2   -1    0    0    0  501  0.00000000000E+00  0.00000000000E+00 -0.35810898914E+03  0.35810898915E+03  0.25500000920E-02 0. -1.
    10030    2    1    2    0    0  0.00000000000E+00  0.00000000000E+00  0.48745354037E+03  0.12036715187E+04  0.11005517575E+04 0.  0.
        4    1    3    3  502    0 -0.25785424842E+02  0.54305646962E+03  0.33670213710E+03  0.63948820111E+03  0.12699999809E+01 0. -1.
       -4    1    3    3    0  502  0.25785424842E+02 -0.54305646962E+03  0.15075140327E+03  0.56418331756E+03  0.12699999809E+01 0.  1.
</event>
<event>
 5   0  0.1574101E-04  0.1100125E+04  0.7818609E-02  0.9205070E-01
        2   -1    0    0  501    0  0.00000000000E+00  0.00000000000E+00  0.92122445077E+03  0.92122445077E+03  0.25500000920E-02 0.  1.
       -2   -1    0    0    0  501  0.00000000000E+00  0.00000000000E+00 -0.32844182770E+03  0.32844182771E+03  0.25500000920E-02 0. -1.
    10030    2    1    2    0    0  0.00000000000E+00  0.00000000000E+00  0.59278262307E+03  0.12496662785E+04  0.11001247972E+04 0.  0.
        4    1    3    3  502    0 -0.13837146881E+03  0.53129146152E+03  0.33490841422E+03  0.64310383243E+03  0.12699999809E+01 0.  1.
       -4    1    3    3    0  502  0.13837146881E+03 -0.53129146152E+03  0.25787420885E+03  0.60656244605E+03  0.12699999809E+01 0. -1.
</event>
<event>
 5   0  0.8921459E-05  0.1102816E+04  0.7818609E-02  0.9202452E-01
       -1   -1    0    0    0  501  0.00000000000E+00  0.00000000000E+00  0.29950348343E+03  0.29950348347E+03  0.50400001928E-02 0. -1.
        1   -1    0    0  501    0  0.00000000000E+00  0.00000000000E+00 -0.10151821726E+04  0.10151821727E+04  0.50400001928E-02 0.  1.
    10030    2    1    2    0    0  0.00000000000E+00  0.00000000000E+00 -0.71567868922E+03  0.13146856561E+04  0.11028156638E+04 0.  0.
        3    1    3    3  502    0 -0.42350202390E+03  0.17808426191E+03  0.56736030641E+01  0.45945638374E+03  0.10100000352E+00 0. -1.
       -3    1    3    3    0  502  0.42350202390E+03 -0.17808426191E+03 -0.72135229228E+03  0.85522927240E+03  0.10100000352E+00 0.  1.
</event>
<event>
 5   0  0.1540772E-04  0.1099180E+04  0.7818609E-02  0.9205992E-01
        2   -1    0    0  501    0  0.00000000000E+00  0.00000000000E+00  0.13331189945E+04  0.13331189945E+04  0.25500000920E-02 0. -1.
       -2   -1    0    0    0  501  0.00000000000E+00  0.00000000000E+00 -0.22657316874E+03  0.22657316876E+03  0.25500000920E-02 0.  1.
    10030    2    1    2    0    0  0.00000000000E+00  0.00000000000E+00  0.11065458257E+04  0.15596921632E+04  0.10991796848E+04 0.  0.
        2    1    3    3  502    0 -0.28949601735E+03  0.41422191643E+03  0.85978556334E+03  0.99730584829E+03  0.25500000920E-02 0. -1.
       -2    1    3    3    0  502  0.28949601735E+03 -0.41422191643E+03  0.24676026237E+03  0.56238631492E+03  0.25500000920E-02 0.  1.
</event>
<event>
 5   0  0.9346836E-05  0.1100859E+04  0.7818609E-02  0.9204355E-01
        1   -1    0    0  501    0  0.00000000000E+00  0.00000000000E+00  0.15136039583E+04  0.15136039583E+04  0.50400001928E-02 0. -1.
       -1   -1    0    0    0  501  0.00000000000E+00  0.00000000000E+00 -0.20016631479E+03  0.20016631485E+03  0.50400001928E-02 0.  1.
    10030    2    1    2    0    0  0.00000000000E+00  0.00000000000E+00  0.13134376435E+04  0.17137702732E+04  0.11008588037E+04 0.  0.
        5    1    3    3  502    0  0.48432578464E+03 -0.18976711566E+03  0.37664341368E+03  0.64223467278E+03  0.46999998093E+01 0. -1.
       -5    1    3    3    0  502 -0.48432578464E+03  0.18976711566E+03  0.93679422983E+03  0.10715356004E+04  0.46999998093E+01 0.  1.
</event>
<event>
 5   0  0.1553937E-04  0.1100986E+04  0.7818609E-02  0.9204232E-01
        2   -1    0    0  501    0  0.00000000000E+00  0.00000000000E+00  0.82210042428E+03  0.82210042428E+03  0.25500000920E-02 0.  1.
       -2   -1    0    0    0  501  0.00000000000E+00  0.00000000000E+00 -0.36861958475E+03  0.36861958476E+03  0.25500000920E-02 0. -1.
    10030    2    1    2    0    0  0.00000000000E+00  0.00000000000E+00  0.45348083953E+03  0.11907200090E+04  0.11009855894E+04 0.  0.
        1    1    3    3  502    0  0.48601447949E+02  0.30328826414E+03  0.72080707337E+03  0.78352326638E+03  0.50400001928E-02 0.  1.
       -1    1    3    3    0  502 -0.48601447949E+02 -0.30328826414E+03 -0.26732623384E+03  0.40719674266E+03  0.50400001928E-02 0. -1.
</event>
<event>
 5   0  0.1574101E-04  0.1100309E+04  0.7818609E-02  0.9204891E-01
       -2   -1    0    0    0  501  0.00000000000E+00  0.00000000000E+00  0.26757552489E+03  0.26757552491E+03  0.25500000920E-02 0. -1.
        2   -1    0    0  501    0  0.00000000000E+00  0.00000000000E+00 -0.11311568104E+04  0.11311568104E+04  0.25500000920E-02 0.  1.
    10030    2    1    2    0    0  0.00000000000E+00  0.00000000000E+00 -0.86358128549E+03  0.13987323353E+04  0.11003088244E+04 0.  0.
        4    1    3    3  502    0 -0.16042438620E+03 -0.81072537705E+02  0.22919321835E+03  0.29127286913E+03  0.12699999809E+01 0. -1.
       -4    1    3    3    0  502  0.16042438620E+03  0.81072537705E+02 -0.10927745038E+04  0.11074594662E+04  0.12699999809E+01 0.  1.
</event>
<event>
 5   0  0.8921459E-05  0.1099861E+04  0.7818609E-02  0.9205328E-01
        1   -1    0    0  501    0  0.00000000000E+00  0.00000000000E+00  0.11349623940E+04  0.11349623940E+04  0.50400001928E-02 0.  1.
       -1   -1    0    0    0  501  0.00000000000E+00  0.00000000000E+00 -0.26646113745E+03  0.26646113750E+03  0.50400001928E-02 0. -1.
    10030    2    1    2    0    0  0.00000000000E+00  0.00000000000E+00  0.86850125653E+03  0.14014235315E+04  0.10998606648E+04 0.  0.
        3    1    3    3  502    0  0.54448786522E+03  0.58890273826E+02  0.37069124637E+03  0.66132224374E+03  0.10100000352E+00 0.  1.
       -3    1    3    3    0  502 -0.54448786522E+03 -0.58890273826E+02  0.49781001016E+03  0.74010128776E+03  0.10100000352E+00 0. -1.
</event>
<event>
 5   0  0.1574101E-04  0.1099612E+04  0.7818609E-02  0.9205570E-01
        2   -1    0    0  501    0  0.00000000000E+00  0.00000000000E+00  0.94973117039E+03  0.94973117039E+03  0.25500000920E-02 0. -1.
       -2   -1    0    0    0  501  0.00000000000E+00  0.00000000000E+00 -0.31828646800E+03  0.31828646801E+03  0.25500000920E-02 0.  1.
    10030    2    1    2    0    0  0.00000000000E+00  0.00000000000E+00  0.63144470239E+03  0.12680176384E+04  0.10996118948E+04 0.  0.
        4    1    3    3  502    0 -0.28567881745E+03 -0.36814368280E+03 -0.20758111552E+02  0.46644900045E+03  0.12699999809E+01 0.  1.
       -4    1    3    3    0  502  0.28567881745E+03  0.36814368280E+03  0.65220281394E+03  0.80156863795E+03  0.12699999809E+01 0. -1.
</event>
<event>
 5   0  0.1503277E-04  0.1100018E+04  0.7818609E-02  0.9205174E-01
       -2   -1    0    0    0  501  0.00000000000E+00  0.00000000000E+00  0.63058214637E+03  0.63058214638E+03  0.25500000920E-02 0.  1.
        2   -1    0    0  501    0  0.00000000000E+00  0.00000000000E+00 -0.47973099652E+03  0.47973099652E+03  0.25500000920E-02 0. -1.
    10030    2    1    2    0    0  0.00000000000E+00  0.00000000000E+00  0.15085114986E+03  0.11103131429E+04  0.11000178207E+04 0.  0.
        5    1    3    3  502    0  0.21598571735E+03 -0.31640607186E+03 -0.32288793750E+03  0.50104026045E+03  0.46999998093E+01 0. -1.
       -5    1    3    3    0  502 -0.21598571735E+03  0.31640607186E+03  0.47373908735E+03  0.60927288245E+03  0.46999998093E+01 0.  1.
</event>
<event>
 5   0  0.1553937E-04  0.1100043E+04  0.7818609E-02  0.9205150E-01
       -2   -1    0    0    0  501  0.00000000000E+00  0.00000000000E+00  0.52791060733E+03  0.52791060733E+03  0.25500000920E-02 0.  1.
        2   -1    0    0  501    0  0.00000000000E+00  0.00000000000E+00 -0.57305822632E+03  0.57305822632E+03  0.25500000920E-02 0. -1.
    10030    2    1    2    0    0  0.00000000000E+00  0.00000000000E+00 -0.45147618991E+02  0.11009688337E+04  0.11000427561E+04 0.  0.
        1    1    3    3  502    0  0.36854234134E+03 -0.36575647233E+03 -0.20417148789E+03  0.55793122417E+03  0.50400001928E-02 0. -1.
       -1    1    3    3    0  502 -0.36854234134E+03  0.36575647233E+03  0.15902386890E+03  0.54303760949E+03  0.50400001928E-02 0.  1.
</event>
<event>
 5   0  0.9016738E-05  0.1100411E+04  0.7818609E-02  0.9204791E-01
        1   -1    0    0  501    0  0.00000000000E+00  0.00000000000E+00  0.66509028668E+03  0.66509028670E+03  0.50400001928E-02 0. -1.
       -1   -1    0    0    0  501  0.00000000000E+00  0.00000000000E+00 -0.45516547114E+03  0.45516547117E+03  0.50400001928E-02 0.  1.
    10030    2    1    2    0    0  0.00000000000E+00  0.00000000000E+00  0.20992481554E+03  0.11202557579E+04  0.11004110754E+04 0.  0.
        4    1    3    3  502    0  0.25317911974E+03 -0.37671157528E+03  0.42155824888E+03  0.61945479877E+03  0.12699999809E+01 0. -1.
       -4    1    3    3    0  502 -0.25317911974E+03  0.37671157528E+03 -0.21163343334E+03  0.50080095910E+03  0.12699999809E+01 0.  1.
</event>
<event>
 5   0  0.1553937E-04  0.1095621E+04  0.7818609E-02  0.9209470E-01
        2   -1    0    0  501    0  0.00000000000E+00  0.00000000000E+00  0.10972422137E+04  0.10972422137E+04  0.25500000920E-02 0. -1.
       -2   -1    0    0    0  501  0.00000000000E+00  0.00000000000E+00 -0.27350061351E+03  0.27350061352E+03  0.25500000920E-02 0.  1.
    10030    2    1    2    0    0  0.00000000000E+00  0.00000000000E+00  0.82374160017E+03  0.13707428272E+04  0.10956211364E+04 0.  0.
        1    1    3    3  502    0 -0.50327668884E+03 -0.83434483988E+02  0.66161597151E+03  0.83545462619E+03  0.50400001928E-02 0. -1.
       -1    1    3    3    0  502  0.50327668884E+03  0.83434483988E+02  0.16212562866E+03  0.53528820101E+03  0.50400001928E-02 0.  1.
</event>
<event>
 5   0  0.8621738E-05  0.1100497E+04  0.7818609E-02  0.9204708E-01
       -1   -1    0    0    0  501  0.00000000000E+00  0.00000000000E+00  0.19564129686E+03  0.19564129692E+03  0.50400001928E-02 0. -1.
        1   -1    0    0  501    0  0.00000000000E+00  0.00000000000E+00 -0.15475941416E+04  0.15475941416E+04  0.50400001928E-02 0.  1.
    10030    2    1    2    0    0  0.00000000000E+00  0.00000000000E+00 -0.13519528447E+04  0.17432354385E+04  0.11004968422E+04 0.  0.
        2    1    3    3  502    0  0.20985411527E+03  0.43967005281E+03 -0.27080527305E+03  0.55739034881E+03  0.25500000920E-02 0. -1.
       -2    1    3    3    0  502 -0.20985411527E+03 -0.43967005281E+03 -0.10811475717E+04  0.11858450897E+04  0.25500000920E-02 0.  1.
</event>
<event>
 5   0  0.1464205E-04  0.1100327E+04  0.7818609E-02  0.9204873E-01
        2   -1    0    0  501    0  0.00000000000E+00  0.00000000000E+00  0.37393598948E+03  0.37393598949E+03  0.25500000920E-02 0. -1.
       -2   -1    0    0    0  501  0.00000000000E+00  0.00000000000E+00 -0.80944318455E+03  0.80944318455E+03  0.25500000920E-02 0.  1.
    10030    2    1    2    0    0  0.00000000000E+00  0.00000000000E+00 -0.43550719507E+03  0.11833791740E+04  0.11003271116E+04 0.  0.
        3    1    3    3  502    0  0.19341510429E+03  0.18758781600E+03  0.29811940932E+03  0.40183800678E+03  0.10100000352E+00 0. -1.
       -3    1    3    3    0  502 -0.19341510429E+03 -0.18758781600E+03 -0.73362660439E+03  0.78154116727E+03  0.10100000352E+00 0.  1.
</event>
<event>
 5   0  0.9016738E-05  0.1099863E+04  0.7818609E-02  0.9205325E-01
       -1   -1    0    0    0  501  0.00000000000E+00  0.00000000000E+00  0.30696859047E+03  0.30696859051E+03  0.50400001928E-02 0.  1.
        1   -1    0    0  501    0  0.00000000000E+00  0.00000000000E+00 -0.98519747496E+03  0.98519747497E+03  0.50400001928E-02 0. -1.
    10030    2    1    2    0    0  0.00000000000E+00  0.00000000000E+00 -0.67822888449E+03  0.12921660655E+04  0.10998630465E+04 0.  0.
        4    1    3    3  502    0 -0.29571492181E+03  0.42581719792E+03 -0.55464434206E+03  0.75920982614E+03  0.12699999809E+01 0. -1.
       -4    1    3    3    0  502  0.29571492181E+03 -0.42581719792E+03 -0.12358454244E+03  0.53295623934E+03  0.12699999809E+01 0.  1.
</event>
<event>
 5   0  0.9016738E-05  0.1099779E+04  0.7818609E-02  0.9205407E-01
        1   -1    0    0  501    0  0.00000000000E+00  0.00000000000E+00  0.12016899181E+04  0.12016899181E+04  0.50400001928E-02 0. -1.
       -1   -1    0    0    0  501  0.00000000000E+00  0.00000000000E+00 -0.25162782382E+03  0.25162782387E+03  0.50400001928E-02 0.  1.
    10030    2    1    2    0    0  0.00000000000E+00  0.00000000000E+00  0.95006209424E+03  0.14533177419E+04  0.10997792852E+04 0.  0.
        4    1    3    3  502    0  0.15685513955E+03  0.13783763706E+03  0.11472574643E+04  0.11661063636E+04  0.12699999809E+01 0. -1.
       -4    1    3    3    0  502 -0.15685513955E+03 -0.13783763706E+03 -0.19719537003E+03  0.28721137835E+03  0.12699999809E+01 0.  1.
</event>
<event>
 5   0  0.1553937E-04  0.1100053E+04  0.7818609E-02  0.9205140E-01
       -2   -1    0    0    0  501  0.00000000000E+00  0.00000000000E+00  0.99952575720E+03  0.99952575720E+03  0.25500000920E-02 0.  1.
        2   -1    0    0  501    0  0.00000000000E+00  0.00000000000E+00 -0.30267284239E+03  0.30267284240E+03  0.25500000920E-02 0. -1.
    10030    2    1    2    0    0  0.00000000000E+00  0.00000000000E+00  0.69685291481E+03  0.13021985996E+04  0.11000532750E+04 0.  0.
        1    1    3    3  502    0  0.35128821675E+03  0.41637793789E+03  0.43823085899E+03  0.69915683805E+03  0.50400001928E-02 0.  1.
       -1    1    3    3    0  502 -0.35128821675E+03 -0.41637793789E+03  0.25862205582E+03  0.60304176155E+03  0.50400001928E-02 0. -1.
</event>
<event>
 5   0  0.1574101E-04  0.1099502E+04  0.7818609E-02  0.9205677E-01
        2   -1    0    0  501    0  0.00000000000E+00  0.00000000000E+00  0.14209111062E+04  0.14209111062E+04  0.25500000920E-02 0. -1.
       -2   -1    0    0    0  501  0.00000000000E+00  0.00000000000E+00 -0.21269903025E+03  0.21269903027E+03  0.25500000920E-02 0.  1.
    10030    2    1    2    0    0  0.00000000000E+00  0.00000000000E+00  0.12082120760E+04  0.16336101365E+04  0.10995024591E+04 0.  0.
        4    1    3    3  502    0  0.51438484274E+03  0.18586380616E+03  0.68666579378E+03  0.87786596137E+03  0.12699999809E+01 0.  1.
       -4    1    3    3    0  502 -0.51438484274E+03 -0.18586380616E+03  0.52154628218E+03  0.75574417512E+03  0.12699999809E+01 0. -1.
</event>
<event>
 5   0  0.9346836E-05  0.1099856E+04  0.7818609E-02  0.9205333E-01
       -1   -1    0    0    0  501  0.00000000000E+00  0.00000000000E+00  0.28817925014E+03  0.28817925018E+03  0.50400001928E-02 0. -1.
        1   -1    0    0  501    0  0.00000000000E+00  0.00000000000E+00 -0.10494184718E+04  0.10494184718E+04  0.50400001928E-02 0.  1.
    10030    2    1    2    0    0  0.00000000000E+00  0.00000000000E+00 -0.76123922164E+03  0.13375977220E+04  0.10998556784E+04 0.  0.
        5    1    3    3  502    0  0.31380425314E+03  0.29970430700E+03 -0.79142666165E+03  0.90259294906E+03  0.46999998093E+01 0.  1.
       -5    1    3    3    0  502 -0.31380425314E+03 -0.29970430700E+03  0.30187440009E+02  0.43500477291E+03  0.46999998093E+01 0. -1.
</event>
<event>
 5   0  0.1553937E-04  0.1100297E+04  0.7818609E-02  0.9204903E-01
        2   -1    0    0  501    0  0.00000000000E+00  0.00000000000E+00  0.24984217392E+04  0.24984217392E+04  0.25500000920E-02 0. -1.
       -2   -1    0    0    0  501  0.00000000000E+00  0.00000000000E+00 -0.12114180634E+03  0.12114180637E+03  0.25500000920E-02 0.  1.
    10030    2    1    2    0    0  0.00000000000E+00  0.00000000000E+00  0.23772799329E+04  0.26195635456E+04  0.11002969100E+04 0.  0.
        1    1    3    3  502    0 -0.29065357137E+03  0.44595620767E+03  0.85783261879E+03  0.10095708195E+04  0.50400001928E-02 0.  1.
       -1    1    3    3    0  502  0.29065357137E+03 -0.44595620767E+03  0.15194473141E+04  0.16099927261E+04  0.50400001928E-02 0. -1.
</event>
<event>
 5   0  0.1464205E-04  0.1098858E+04  0.7818609E-02  0.9206305E-01
        2   -1    0    0  501    0  0.00000000000E+00  0.00000000000E+00  0.42854992406E+03  0.42854992407E+03  0.25500000920E-02 0.  1.
       -2   -1    0    0    0  501  0.00000000000E+00  0.00000000000E+00 -0.70440406848E+03  0.70440406849E+03  0.25500000920E-02 0. -1.
    10030    2    1    2    0    0  0.00000000000E+00  0.00000000000E+00 -0.27585414442E+03  0.11329539926E+04  0.10988581529E+04 0.  0.
        3    1    3    3  502    0  0.12784488161E+02 -0.52193737606E+03 -0.31438129121E+03  0.60944045987E+03  0.10100000352E+00 0. -1.
       -3    1    3    3    0  502 -0.12784488161E+02  0.52193737606E+03  0.38527146790E+02  0.52351353269E+03  0.10100000352E+00 0.  1.
</event>
<event>
 5   0  0.8657442E-05  0.1101059E+04  0.7818609E-02  0.9204160E-01
        1   -1    0    0  501    0  0.00000000000E+00  0.00000000000E+00  0.21190162408E+04  0.21190162408E+04  0.50400001928E-02 0. -1.
       -1   -1    0    0    0  501  0.00000000000E+00  0.00000000000E+00 -0.14302998582E+03  0.14302998591E+03  0.50400001928E-02 0.  1.
    10030    2    1    2    0    0  0.00000000000E+00  0.00000000000E+00  0.19759862550E+04  0.22620462267E+04  0.11010592409E+04 0.  0.
        1    1    3    3  502    0 -0.86114911898E+02  0.54432708648E+02  0.20994823114E+04  0.21019525860E+04  0.50400001928E-02 0. -1.
       -1    1    3    3    0  502  0.86114911898E+02 -0.54432708648E+02 -0.12349605642E+03  0.16009364072E+03  0.50400001928E-02 0.  1.
</event>
<event>
 5   0  0.9016738E-05  0.1099697E+04  0.7818609E-02  0.9205487E-01
       -1   -1    0    0    0  501  0.00000000000E+00  0.00000000000E+00  0.54741008341E+03  0.54741008343E+03  0.50400001928E-02 0.  1.
        1   -1    0    0  501    0  0.00000000000E+00  0.00000000000E+00 -0.55229824265E+03  0.55229824267E+03  0.50400001928E-02 0. -1.
    10030    2    1    2    0    0  0.00000000000E+00  0.00000000000E+00 -0.48881592437E+01  0.10997083261E+04  0.10996974622E+04 0.  0.
        4    1    3    3  502    0  0.52979681576E+03 -0.96874049299E+02 -0.11318255112E+03  0.55034639110E+03  0.12699999809E+01 0.  1.
       -4    1    3    3    0  502 -0.52979681576E+03  0.96874049299E+02  0.10829439187E+03  0.54936193500E+03  0.12699999809E+01 0. -1.
</event>
<event>
 5   0  0.8657442E-05  0.1099599E+04  0.7818609E-02  0.9205583E-01
        1   -1    0    0  501    0  0.00000000000E+00  0.00000000000E+00  0.60423729273E+03  0.60423729275E+03  0.50400001928E-02 0.  1.
       -1   -1    0    0    0  501  0.00000000000E+00  0.00000000000E+00 -0.50026584761E+03  0.50026584763E+03  0.50400001928E-02 0. -1.
    10030    2    1    2    0    0  0.00000000000E+00  0.00000000000E+00  0.10397144512E+03  0.11045031404E+04  0.10995986203E+04 0.  0.
        1    1    3    3  502    0  0.37627942475E+03  0.30200661237E+03 -0.21279024025E+03  0.52732711459E+03  0.50400001928E-02 0. -1.
       -1    1    3    3    0  502 -0.37627942475E+03 -0.30200661237E+03  0.31676168537E+03  0.57717602579E+03  0.50400001928E-02 0.  1.
</event>
<event>
 5   0  0.8921459E-05  0.1100515E+04  0.7818609E-02  0.9204690E-01
       -1   -1    0    0    0  501  0.00000000000E+00  0.00000000000E+00  0.16849767343E+03  0.16849767351E+03  0.50400001928E-02 0. -1.
        1   -1    0    0  501    0  0.00000000000E+00  0.00000000000E+00 -0.17969592466E+04  0.17969592466E+04  0.50400001928E-02 0.  1.
    10030    2    1    2    0    0  0.00000000000E+00  0.00000000000E+00 -0.16284615731E+04  0.19654569201E+04  0.11005152473E+04 0.  0.
        3    1    3    3  502    0 -0.26842639473E+03 -0.27382376898E+03 -0.15190589423E+04  0.15667074603E+04  0.10100000352E+00 0.  1.
       -3    1    3    3    0  502  0.26842639473E+03  0.27382376898E+03 -0.10940263088E+03  0.39874945980E+03  0.10100000352E+00 0. -1.
</event>
<event>
 5   0  0.6010125E-05  0.1099963E+04  0.7818609E-02  0.9205228E-01
        3   -1    0    0  501    0  0.00000000000E+00  0.00000000000E+00  0.15135448363E+04  0.15135448396E+04  0.10100000352E+00 0. -1.
       -3   -1    0    0    0  501  0.00000000000E+00  0.00000000000E+00 -0.19984862121E+03  0.19984864674E+03  0.10100000352E+00 0.  1.
    10030    2    1    2    0    0  0.00000000000E+00  0.00000000000E+00  0.13136962151E+04  0.17133934864E+04  0.10999634056E+04 0.  0.
        4    1    3    3  502    0 -0.39908351816E+02  0.31973310026E+03 -0.37424574325E+02  0.32438271164E+03  0.12699999809E+01 0.  1.
       -4    1    3    3    0  502  0.39908351816E+02 -0.31973310026E+03  0.13511207894E+04  0.13890107747E+04  0.12699999809E+01 0. -1.
</event>
<event>
 5   0  0.8921459E-05  0.1100176E+04  0.7818609E-02  0.9205020E-01
       -1   -1    0    0    0  501  0.00000000000E+00  0.00000000000E+00  0.29856646730E+03  0.29856646734E+03  0.50400001928E-02 0. -1.
        1   -1    0    0  501    0  0.00000000000E+00  0.00000000000E+00 -0.10134993654E+04  0.10134993655E+04  0.50400001928E-02 0.  1.
    10030    2    1    2    0    0  0.00000000000E+00  0.00000000000E+00 -0.71493289815E+03  0.13120658328E+04  0.11001762135E+04 0.  0.
        3    1    3    3  502    0  0.25003736835E+03  0.48824884877E+03 -0.40651233178E+03  0.68275757776E+03  0.10100000352E+00 0.  1.
       -3    1    3    3    0  502 -0.25003736835E+03 -0.48824884877E+03 -0.30842056637E+03  0.62930825504E+03  0.10100000352E+00 0. -1.
</event>
<event>
 5   0  0.1574101E-04  0.1100286E+04  0.7818609E-02  0.9204913E-01
        2   -1    0    0  501    0  0.00000000000E+00  0.00000000000E+00  0.88447238932E+03  0.88447238933E+03  0.25500000920E-02 0.  1.
       -2   -1    0    0    0  501  0.00000000000E+00  0.00000000000E+00 -0.34218971742E+03  0.34218971743E+03  0.25500000920E-02 0. -1.
    10030    2    1    2    0    0  0.00000000000E+00  0.00000000000E+00  0.54228267191E+03  0.12266621068E+04  0.11002860664E+04 0.  0.
        4    1    3    3  502    0 -0.34727063619E+03  0.16591065999E+03  0.70939873271E+03  0.80707584323E+03  0.12699999809E+01 0.  1.
       -4    1    3    3    0  502  0.34727063619E+03 -0.16591065999E+03 -0.16711606081E+03  0.41958626352E+03  0.12699999809E+01 0. -1.
</event>
<event>
 5   0  0.1553937E-04  0.1103174E+04  0.7818609E-02  0.9202104E-01
       -2   -1    0    0    0  501  0.00000000000E+00  0.00000000000E+00  0.19625035389E+03  0.19625035390E+03  0.25500000920E-02 0. -1.
        2   -1    0    0  501    0  0.00000000000E+00  0.00000000000E+00 -0.15503055190E+04  0.15503055190E+04  0.25500000920E-02 0.  1.
    10030    2    1    2    0    0  0.00000000000E+00  0.00000000000E+00 -0.13540551651E+04  0.17465558729E+04  0.11031736160E+04 0.  0.
        1    1    3    3  502    0 -0.56232493692E+02  0.20152190939E+03  0.13099128418E+03  0.24684385726E+03  0.50400001928E-02 0. -1.
       -1    1    3    3    0  502  0.56232493692E+02 -0.20152190939E+03 -0.14850464493E+04  0.14997120156E+04  0.50400001928E-02 0.  1.
</event>
<event>
 5   0  0.8621738E-05  0.1099934E+04  0.7818609E-02  0.9205256E-01
       -1   -1    0    0    0  501  0.00000000000E+00  0.00000000000E+00  0.65191267203E+03  0.65191267205E+03  0.50400001928E-02 0.  1.
        1   -1    0    0  501    0  0.00000000000E+00  0.00000000000E+00 -0.46396330451E+03  0.46396330453E+03  0.50400001928E-02 0. -1.
    10030    2    1    2    0    0  0.00000000000E+00  0.00000000000E+00  0.18794936752E+03  0.11158759766E+04  0.10999337391E+04 0.  0.
        2    1    3    3  502    0 -0.51828381109E+03 -0.59321565049E+02 -0.82694107794E+02  0.52818128743E+03  0.25500000920E-02 0. -1.
       -2    1    3    3    0  502  0.51828381109E+03  0.59321565049E+02  0.27064347531E+03  0.58769468915E+03  0.25500000920E-02 0.  1.
</event>
<event>
 5   0  0.1503277E-04  0.1099867E+04  0.7818609E-02  0.9205322E-01
        2   -1    0    0  501    0  0.00000000000E+00  0.00000000000E+00  0.93389516230E+03  0.93389516230E+03  0.25500000920E-02 0. -1.
       -2   -1    0    0    0  501  0.00000000000E+00  0.00000000000E+00 -0.32383378340E+03  0.32383378341E+03  0.25500000920E-02 0.  1.
    10030    2    1    2    0    0  0.00000000000E+00  0.00000000000E+00  0.61006137889E+03  0.12577289457E+04  0.10998669078E+04 0.  0.
        5    1    3    3  502    0  0.12235124604E+03 -0.52646780130E+03  0.42089748149E+03  0.68506565608E+03  0.46999998093E+01 0. -1.
       -5    1    3    3    0  502 -0.12235124604E+03  0.52646780130E+03  0.18916389740E+03  0.57266328963E+03  0.46999998093E+01 0.  1.
</event>
<event>
 5   0  0.8621738E-05  0.1099931E+04  0.7818609E-02  0.9205259E-01
        1   -1    0    0  501    0  0.00000000000E+00  0.00000000000E+00  0.11497026540E+04  0.11497026541E+04  0.50400001928E-02 0. -1.
       -1   -1    0    0    0  501  0.00000000000E+00  0.00000000000E+00 -0.26307837882E+03  0.26307837887E+03  0.50400001928E-02 0.  1.
    10030    2    1    2    0    0  0.00000000000E+00  0.00000000000E+00  0.88662427522E+03  0.14127810329E+04  0.10999307440E+04 0.  0.
        2    1    3    3  502    0 -0.93247388391E+02 -0.47038102190E+03  0.78917510434E+03  0.92344503167E+03  0.25500000920E-02 0. -1.
       -2    1    3    3    0  502  0.93247388391E+02  0.47038102190E+03  0.97449170885E+02  0.48933600125E+03  0.25500000920E-02 0.  1.
</event>
<event>
 5   0  0.1540772E-04  0.1100195E+04  0.7818609E-02  0.9205002E-01
       -2   -1    0    0    0  501  0.00000000000E+00  0.00000000000E+00  0.10219177683E+04  0.10219177683E+04  0.25500000920E-02 0. -1.
        2   -1    0    0  501    0  0.00000000000E+00  0.00000000000E+00 -0.29611715121E+03  0.29611715122E+03  0.25500000920E-02 0.  1.
    10030    2    1    2    0    0  0.00000000000E+00  0.00000000000E+00  0.72580061713E+03  0.13180349196E+04  0.11001952160E+04 0.  0.
        2    1    3    3  502    0 -0.27985566140E+03 -0.47186761245E+03  0.31454581642E+03  0.63239015293E+03  0.25500000920E-02 0. -1.
       -2    1    3    3    0  502  0.27985566140E+03  0.47186761245E+03  0.41125480071E+03  0.68564476663E+03  0.25500000920E-02 0.  1.
</event>
<event>
 5   0  0.1464205E-04  0.1099977E+04  0.7818609E-02  0.9205215E-01
        2   -1    0    0  501    0  0.00000000000E+00  0.00000000000E+00  0.17262224714E+04  0.17262224714E+04  0.25500000920E-02 0.  1.
       -2   -1    0    0    0  501  0.00000000000E+00  0.00000000000E+00 -0.17523071047E+03  0.17523071049E+03  0.25500000920E-02 0. -1.
    10030    2    1    2    0    0  0.00000000000E+00  0.00000000000E+00  0.15509917610E+04  0.19014531819E+04  0.10999767091E+04 0.  0.
        3    1    3    3  502    0  0.27784338526E+03 -0.35275454208E+03  0.13244672745E+04  0.13985157436E+04  0.10100000352E+00 0.  1.
       -3    1    3    3    0  502 -0.27784338526E+03  0.35275454208E+03  0.22652448644E+03  0.50293743830E+03  0.10100000352E+00 0. -1.
</event>
<event>
 5   0  0.9346836E-05  0.1100722E+04  0.7818609E-02  0.9204489E-01
        1   -1    0    0  501    0  0.00000000000E+00  0.00000000000E+00  0.16192697502E+04  0.16192697502E+04  0.50400001928E-02 0.  1.
       -1   -1    0    0    0  501  0.00000000000E+00  0.00000000000E+00 -0.18705780704E+03  0.18705780711E+03  0.50400001928E-02 0. -1.
    10030    2    1    2    0    0  0.00000000000E+00  0.00000000000E+00  0.14322119432E+04  0.18063275573E+04  0.11007216697E+04 0.  0.
        5    1    3    3  502    0 -0.28081246347E+03 -0.20346449083E+03  0.14173916463E+04  0.14592034155E+04  0.46999998093E+01 0.  1.
       -5    1    3    3    0  502  0.28081246347E+03  0.20346449083E+03  0.14820296858E+02  0.34712414187E+03  0.46999998093E+01 0. -1.
</event>
<event>
 5   0  0.1553937E-04  0.1100274E+04  0.7818609E-02  0.9204925E-01
        2   -1    0    0  501    0  0.00000000000E+00  0.00000000000E+00  0.38145870888E+03  0.38145870889E+03  0.25500000920E-02 0.  1.
       -2   -1    0    0    0  501  0.00000000000E+00  0.00000000000E+00 -0.79340295324E+03  0.79340295325E+03  0.25500000920E-02 0. -1.
    10030    2    1    2    0    0  0.00000000000E+00  0.00000000000E+00 -0.41194424436E+03  0.11748616621E+04  0.11002735409E+04 0.  0.
        1    1    3    3  502    0  0.35970343399E+02 -0.54816473892E+03 -0.23750395202E+03  0.59848690366E+03  0.50400001928E-02 0.  1.
       -1    1    3    3    0  502 -0.35970343399E+02  0.54816473892E+03 -0.17444029234E+03  0.57637475848E+03  0.50400001928E-02 0. -1.
</event>
<event>
 5   0  0.1574101E-04  0.1100122E+04  0.7818609E-02  0.9205073E-01
        2   -1    0    0  501    0  0.00000000000E+00  0.00000000000E+00  0.96782994304E+03  0.96782994304E+03  0.25500000920E-02 0. -1.
       -2   -1    0    0    0  501  0.00000000000E+00  0.00000000000E+00 -0.31262409133E+03  0.31262409134E+03  0.25500000920E-02 0.  1.
    10030    2    1    2    0    0  0.00000000000E+00  0.00000000000E+00  0.65520585170E+03  0.12804540344E+04  0.11001217324E+04 0.  0.
        4    1    3    3  502    0  0.16093293410E+02 -0.52307558803E+03  0.52477761890E+03  0.74112092609E+03  0.12699999809E+01 0. -1.
       -4    1    3    3    0  502 -0.16093293410E+02  0.52307558803E+03  0.13042823280E+03  0.53933310829E+03  0.12699999809E+01 0.  1.
</event>
<event>
 5   0  0.9346836E-05  0.1099753E+04  0.7818609E-02  0.9205433E-01
        1   -1    0    0  501    0  0.00000000000E+00  0.00000000000E+00  0.11614595423E+04  0.11614595423E+04  0.50400001928E-02 0. -1.
       -1   -1    0    0    0  501  0.00000000000E+00  0.00000000000E+00 -0.26033122509E+03  0.26033122514E+03  0.50400001928E-02 0.  1.
    10030    2    1    2    0    0  0.00000000000E+00  0.00000000000E+00  0.90112831722E+03  0.14217907675E+04  0.10997530370E+04 0.  0.
        5    1    3    3  502    0 -0.36514425770E+03 -0.30583057244E+03  0.80574932406E+03  0.93601107428E+03  0.46999998093E+01 0. -1.
       -5    1    3    3    0  502  0.36514425770E+03  0.30583057244E+03  0.95378993162E+02  0.48577969318E+03  0.46999998093E+01 0.  1.
</event>
<event>
 5   0  0.8621738E-05  0.1099995E+04  0.7818609E-02  0.9205197E-01
       -1   -1    0    0    0  501  0.00000000000E+00  0.00000000000E+00  0.46036514628E+03  0.46036514630E+03  0.50400001928E-02 0. -1.
        1   -1    0    0  501    0  0.00000000000E+00  0.00000000000E+00 -0.65708141699E+03  0.65708141701E+03  0.50400001928E-02 0.  1.
    10030    2    1    2    0    0  0.00000000000E+00  0.00000000000E+00 -0.19671627071E+03  0.11174465633E+04  0.10999952412E+04 0.  0.
        2    1    3    3  502    0  0.33898270553E+03 -0.36860791244E+03  0.13266195187E+03  0.51805430337E+03  0.25500000920E-02 0.  1.
       -2    1    3    3    0  502 -0.33898270553E+03  0.36860791244E+03 -0.32937822258E+03  0.59939225994E+03  0.25500000920E-02 0. -1.
</event>
<event>
 5   0  0.9346836E-05  0.1100162E+04  0.7818609E-02  0.9205034E-01
        1   -1    0    0  501    0  0.00000000000E+00  0.00000000000E+00  0.18071636759E+04  0.18071636759E+04  0.50400001928E-02 0.  1.
       -1   -1    0    0    0  501  0.00000000000E+00  0.00000000000E+00 -0.16743858127E+03  0.16743858135E+03  0.50400001928E-02 0. -1.
    10030    2    1    2    0    0  0.00000000000E+00  0.00000000000E+00  0.16397250947E+04  0.19746022573E+04  0.11001616647E+04 0.  0.
        5    1    3    3  502    0 -0.14892759846E+03  0.27428217887E+03  0.69085667073E+01  0.31221781103E+03  0.46999998093E+01 0. -1.
       -5    1    3    3    0  502  0.14892759846E+03 -0.27428217887E+03  0.16328165280E+04  0.16623844463E+04  0.46999998093E+01 0.  1.
</event>
<event>
 5   0  0.1464205E-04  0.1098848E+04  0.7818609E-02  0.9206315E-01
        2   -1    0    0  501    0  0.00000000000E+00  0.00000000000E+00  0.58399062474E+03  0.58399062474E+03  0.25500000920E-02 0. -1.
       -2   -1    0    0    0  501  0.00000000000E+00  0.00000000000E+00 -0.51690382562E+03  0.51690382562E+03  0.25500000920E-02 0.  1.
    10030    2    1    2    0    0  0.00000000000E+00  0.00000000000E+00  0.67086799121E+02  0.11008944504E+04  0.10988484665E+04 0.  0.
        3    1    3    3  502    0 -0.15963575939E+03  0.17803350549E+03 -0.46203656927E+03  0.52024735107E+03  0.10100000352E+00 0.  1.
       -3    1    3    3    0  502  0.15963575939E+03 -0.17803350549E+03  0.52912336839E+03  0.58064709930E+03  0.10100000352E+00 0. -1.
</event>
<event>
 5   0  0.1540772E-04  0.1094819E+04  0.7818609E-02  0.9210257E-01
        2   -1    0    0  501    0  0.00000000000E+00  0.00000000000E+00  0.17503207225E+04  0.17503207225E+04  0.25500000920E-02 0. -1.
       -2   -1    0    0    0  501  0.00000000000E+00  0.00000000000E+00 -0.17120115787E+03  0.17120115789E+03  0.25500000920E-02 0.  1.
    10030    2    1    2    0    0  0.00000000000E+00  0.00000000000E+00  0.15791195646E+04  0.19215218804E+04  0.10948185865E+04 0.  0.
        2    1    3    3  502    0  0.50058263841E+03  0.12859629502E+02  0.11777063300E+04  0.12797423755E+04  0.25500000920E-02 0. -1.
       -2    1    3    3    0  502 -0.50058263841E+03 -0.12859629502E+02  0.40141323464E+03  0.64177950489E+03  0.25500000920E-02 0.  1.
</event>
<event>
 5   0  0.1503277E-04  0.1100071E+04  0.7818609E-02  0.9205122E-01
       -2   -1    0    0    0  501  0.00000000000E+00  0.00000000000E+00  0.28416088679E+03  0.28416088680E+03  0.25500000920E-02 0.  1.
        2   -1    0    0  501    0  0.00000000000E+00  0.00000000000E+00 -0.10646757227E+04  0.10646757227E+04  0.25500000920E-02 0. -1.
    10030    2    1    2    0    0  0.00000000000E+00  0.00000000000E+00 -0.78051483590E+03  0.13488366095E+04  0.11000712659E+04 0.  0.
        5    1    3    3  502    0  0.42737284100E+03  0.78058120683E+02 -0.80384243169E+03  0.91374250225E+03  0.46999998093E+01 0. -1.
       -5    1    3    3    0  502 -0.42737284100E+03 -0.78058120683E+02  0.23327595795E+02  0.43509410724E+03  0.46999998093E+01 0.  1.
</event>
<event>
 5   0  0.9016738E-05  0.1099948E+04  0.7818609E-02  0.9205243E-01
       -1   -1    0    0    0  501  0.00000000000E+00  0.00000000000E+00  0.78613193941E+03  0.78613193943E+03  0.50400001928E-02 0. -1.
        1   -1    0    0  501    0  0.00000000000E+00  0.00000000000E+00 -0.38475907697E+03  0.38475907700E+03  0.50400001928E-02 0.  1.
    10030    2    1    2    0    0  0.00000000000E+00  0.00000000000E+00  0.40137286245E+03  0.11708910164E+04  0.10999479977E+04 0.  0.
        4    1    3    3  502    0 -0.17779232627E+03  0.28052664588E+03  0.66732526029E+03  0.74540588021E+03  0.12699999809E+01 0. -1.
       -4    1    3    3    0  502  0.17779232627E+03 -0.28052664588E+03 -0.26595239784E+03  0.42548513622E+03  0.12699999809E+01 0.  1.
</event>
<event>
 5   0  0.8657442E-05  0.1102478E+04  0.7818609E-02  0.9202780E-01
        1   -1    0    0  501    0  0.00000000000E+00  0.00000000000E+00  0.17754395672E+04  0.17754395672E+04  0.50400001928E-02 0. -1.
       -1   -1    0    0    0  501  0.00000000000E+00  0.00000000000E+00 -0.17114891700E+03  0.17114891707E+03  0.50400001928E-02 0.  1.
    10030    2    1    2    0    0  0.00000000000E+00  0.00000000000E+00  0.16042906502E+04  0.19465884843E+04  0.11024782251E+04 0.  0.
        1    1    3    3  502    0 -0.36516366992E+03 -0.21519783459E+03  0.14244202695E+04  0.14861452546E+04  0.50400001928E-02 0. -1.
       -1    1    3    3    0  502  0.36516366992E+03  0.21519783459E+03  0.17987038079E+03  0.46044322967E+03  0.50400001928E-02 0.  1.
</event>
<event>
 5   0  0.1540772E-04  0.1100041E+04  0.7818609E-02  0.9205152E-01
       -2   -1    0    0    0  501  0.00000000000E+00  0.00000000000E+00  0.19786510218E+03  0.19786510220E+03  0.25500000920E-02 0. -1.
        2   -1    0    0  501    0  0.00000000000E+00  0.00000000000E+00 -0.15289339049E+04  0.15289339049E+04  0.25500000920E-02 0.  1.
    10030    2    1    2    0    0  0.00000000000E+00  0.00000000000E+00 -0.13310688027E+04  0.17267990071E+04  0.11000412053E+04 0.  0.
        2    1    3    3  502    0  0.53819865030E+03  0.45786944522E+02 -0.50263890805E+03  0.73783473987E+03  0.25500000920E-02 0. -1.
       -2    1    3    3    0  502 -0.53819865030E+03 -0.45786944522E+02 -0.82842989465E+03  0.98896426721E+03  0.25500000920E-02 0.  1.
</event>
<event>
 5   0  0.9346836E-05  0.1099708E+04  0.7818609E-02  0.9205476E-01
        1   -1    0    0  501    0  0.00000000000E+00  0.00000000000E+00  0.90267294540E+03  0.90267294541E+03  0.50400001928E-02 0.  1.
       -1   -1    0    0    0  501  0.00000000000E+00  0.00000000000E+00 -0.33493818378E+03  0.33493818382E+03  0.50400001928E-02 0. -1.
    10030    2    1    2    0    0  0.00000000000E+00  0.00000000000E+00  0.56773476162E+03  0.12376111292E+04  0.10997083921E+04 0.  0.
        5    1    3    3  502    0 -0.20437620343E+02  0.93930733555E+02  0.89312004593E+03  0.89829070209E+03  0.46999998093E+01 0.  1.
       -5    1    3    3    0  502  0.20437620343E+02 -0.93930733555E+02 -0.32538528431E+03  0.33932042714E+03  0.46999998093E+01 0. -1.
</event>
<event>
 5   0  0.9016738E-05  0.1099495E+04  0.7818609E-02  0.9205684E-01
       -1   -1    0    0    0  501  0.00000000000E+00  0.00000000000E+00  0.64137102276E+03  0.64137102278E+03  0.50400001928E-02 0.  1.
        1   -1    0    0  501    0  0.00000000000E+00  0.00000000000E+00 -0.47121271102E+03  0.47121271105E+03  0.50400001928E-02 0. -1.
    10030    2    1    2    0    0  0.00000000000E+00  0.00000000000E+00  0.17015831174E+03  0.11125837338E+04  0.10994947538E+04 0.  0.
        4    1    3    3  502    0  0.20325075273E+03  0.31877222653E+03 -0.31878862253E+03  0.49452441764E+03  0.12699999809E+01 0. -1.
       -4    1    3    3    0  502 -0.20325075273E+03 -0.31877222653E+03  0.48894693427E+03  0.61805931618E+03  0.12699999809E+01 0.  1.
</event>
<event>
 5   0  0.1574101E-04  0.1098891E+04  0.7818609E-02  0.9206273E-01
       -2   -1    0    0    0  501  0.00000000000E+00  0.00000000000E+00  0.48687189896E+03  0.48687189897E+03  0.25500000920E-02 0.  1.
        2   -1    0    0  501    0  0.00000000000E+00  0.00000000000E+00 -0.62006134489E+03  0.62006134490E+03  0.25500000920E-02 0. -1.
    10030    2    1    2    0    0  0.00000000000E+00  0.00000000000E+00 -0.13318944594E+03  0.11069332439E+04  0.10988911583E+04 0.  0.
        4    1    3    3  502    0 -0.37884802494E+03 -0.30610406766E+03  0.18955606819E+03  0.52264580944E+03  0.12699999809E+01 0.  1.
       -4    1    3    3    0  502  0.37884802494E+03  0.30610406766E+03 -0.32274551413E+03  0.58428743442E+03  0.12699999809E+01 0. -1.
</event>
<event>
 5   0  0.9346836E-05  0.1099913E+04  0.7818609E-02  0.9205276E-01
       -1   -1    0    0    0  501  0.00000000000E+00  0.00000000000E+00  0.33722409363E+03  0.33722409367E+03  0.50400001928E-02 0. -1.
        1   -1    0    0  501    0  0.00000000000E+00  0.00000000000E+00 -0.89688816253E+03  0.89688816255E+03  0.50400001928E-02 0.  1.
    10030    2    1    2    0    0  0.00000000000E+00  0.00000000000E+00 -0.55966406890E+03  0.12341122562E+04  0.10999132652E+04 0.  0.
        5    1    3    3  502    0  0.46569779908E+03  0.45202024321E+02  0.44412066903E+02  0.47001296233E+03  0.46999998093E+01 0. -1.
       -5    1    3    3    0  502 -0.46569779908E+03 -0.45202024321E+02 -0.60407613580E+03  0.76409929389E+03  0.46999998093E+01 0.  1.
</event>
<event>
 5   0  0.1464205E-04  0.1099917E+04  0.7818609E-02  0.9205272E-01
        2   -1    0    0  501    0  0.00000000000E+00  0.00000000000E+00  0.92604541517E+03  0.92604541517E+03  0.25500000920E-02 0. -1.
       -2   -1    0    0    0  501  0.00000000000E+00  0.00000000000E+00 -0.32660884815E+03  0.32660884816E+03  0.25500000920E-02 0.  1.
    10030    2    1    2    0    0  0.00000000000E+00  0.00000000000E+00  0.59943656702E+03  0.12526542633E+04  0.10999174994E+04 0.  0.
        3    1    3    3  502    0 -0.36536002259E+03  0.30003948888E+03 -0.20265415262E+02  0.47320433034E+03  0.10100000352E+00 0.  1.
       -3    1    3    3    0  502  0.36536002259E+03 -0.30003948888E+03  0.61970198228E+03  0.77944993299E+03  0.10100000352E+00 0. -1.
</event>
<event>
 5   0  0.1553937E-04  0.1099901E+04  0.7818609E-02  0.9205288E-01
        2   -1    0    0  501    0  0.00000000000E+00  0.00000000000E+00  0.64095222264E+03  0.64095222265E+03  0.25500000920E-02 0.  1.
       -2   -1    0    0    0  501  0.00000000000E+00  0.00000000000E+00 -0.47186911813E+03  0.47186911814E+03  0.25500000920E-02 0. -1.
    10030    2    1    2    0    0  0.00000000000E+00  0.00000000000E+00  0.16908310451E+03  0.11128213408E+04  0.10999010139E+04 0.  0.
        1    1    3    3  502    0  0.16042946786E+03 -0.37510861816E+03 -0.28857425217E+03  0.49971910972E+03  0.50400001928E-02 0. -1.
       -1    1    3    3    0  502 -0.16042946786E+03  0.37510861816E+03  0.45765735669E+03  0.61310223106E+03  0.50400001928E-02 0.  1.
</event>
<event>
 5   0  0.8657442E-05  0.1099730E+04  0.7818609E-02  0.9205455E-01
       -1   -1    0    0    0  501  0.00000000000E+00  0.00000000000E+00  0.60503009583E+03  0.60503009585E+03  0.50400001928E-02 0. -1.
        1   -1    0    0  501    0  0.00000000000E+00  0.00000000000E+00 -0.49972983281E+03  0.49972983284E+03  0.50400001928E-02 0.  1.
    10030    2    1    2    0    0  0.00000000000E+00  0.00000000000E+00  0.10530026301E+03  0.11047599287E+04  0.10997301281E+04 0.  0.
        1    1    3    3  502    0 -0.52035282376E+03  0.58347275281E+02 -0.11598700987E+03  0.53630630447E+03  0.50400001928E-02 0.  1.
       -1    1    3    3    0  502  0.52035282376E+03 -0.58347275281E+02  0.22128727288E+03  0.56845362422E+03  0.50400001928E-02 0. -1.
</event>
<event>
 5   0  0.6010125E-05  0.1097657E+04  0.7818609E-02  0.9207479E-01
        3   -1    0    0  501    0  0.00000000000E+00  0.00000000000E+00  0.46944136161E+03  0.46944137248E+03  0.10100000352E+00 0.  1.
       -3   -1    0    0    0  501  0.00000000000E+00  0.00000000000E+00 -0.64164017892E+03  0.64164018687E+03  0.10100000352E+00 0. -1.
    10030    2    1    2    0    0  0.00000000000E+00  0.00000000000E+00 -0.17219881731E+03  0.11110815593E+04  0.10976565031E+04 0.  0.
        1    1    3    3  502    0 -0.20056694864E+03  0.21737296618E+03  0.38186911162E+03  0.48301358754E+03  0.50400001928E-02 0.  1.
       -1    1    3    3    0  502  0.20056694864E+03 -0.21737296618E+03 -0.55406792893E+03  0.62806797181E+03  0.50400001928E-02 0. -1.
</event>
<event>
 5   0  0.8621738E-05  0.1100379E+04  0.7818609E-02  0.9204823E-01
        1   -1    0    0  501    0  0.00000000000E+00  0.00000000000E+00  0.93471032221E+03  0.93471032223E+03  0.50400001928E-02 0. -1.
       -1   -1    0    0    0  501  0.00000000000E+00  0.00000000000E+00 -0.32385251495E+03  0.32385251499E+03  0.50400001928E-02 0.  1.
    10030    2    1    2    0    0  0.00000000000E+00  0.00000000000E+00  0.61085780726E+03  0.12585628372E+04  0.11003786414E+04 0.  0.
        2    1    3    3  502    0  0.13824654287E+03 -0.15679462938E+03  0.88752190946E+03  0.91180688865E+03  0.25500000920E-02 0. -1.
       -2    1    3    3    0  502 -0.13824654287E+03  0.15679462938E+03 -0.27666410219E+03  0.34675594857E+03  0.25500000920E-02 0.  1.
</event>
<event>
 5   0  0.9016738E-05  0.1099440E+04  0.7818609E-02  0.9205738E-01
        1   -1    0    0  501    0  0.00000000000E+00  0.00000000000E+00  0.20037142818E+04  0.20037142818E+04  0.50400001928E-02 0.  1.
       -1   -1    0    0    0  501  0.00000000000E+00  0.00000000000E+00 -0.15081592332E+03  0.15081592340E+03  0.50400001928E-02 0. -1.
    10030    2    1    2    0    0  0.00000000000E+00  0.00000000000E+00  0.18528983584E+04  0.21545302052E+04  0.10994398930E+04 0.  0.
        4    1    3    3  502    0  0.31604048244E+03  0.51050898020E+01  0.18078237763E+04  0.18352482305E+04  0.12699999809E+01 0.  1.
       -4    1    3    3    0  502 -0.31604048244E+03 -0.51050898020E+01  0.45074582118E+02  0.31928197465E+03  0.12699999809E+01 0. -1.
</event>
<event>
 5   0  0.9016738E-05  0.1099816E+04  0.7818609E-02  0.9205371E-01
        1   -1    0    0  501    0  0.00000000000E+00  0.00000000000E+00  0.72154827735E+03  0.72154827736E+03  0.50400001928E-02 0.  1.
       -1   -1    0    0    0  501  0.00000000000E+00  0.00000000000E+00 -0.41909708602E+03  0.41909708605E+03  0.50400001928E-02 0. -1.
    10030    2    1    2    0    0  0.00000000000E+00  0.00000000000E+00  0.30245119132E+03  0.11406453634E+04  0.10998159491E+04 0.  0.
        4    1    3    3  502    0 -0.12559409699E+03 -0.27798714309E+03 -0.32330412110E+03  0.44449735268E+03  0.12699999809E+01 0. -1.
       -4    1    3    3    0  502  0.12559409699E+03  0.27798714309E+03  0.62575531242E+03  0.69614801073E+03  0.12699999809E+01 0.  1.
</event>
<event>
 5   0  0.8657442E-05  0.1099998E+04  0.7818609E-02  0.9205194E-01
       -1   -1    0    0    0  501  0.00000000000E+00  0.00000000000E+00  0.75237164359E+03  0.75237164360E+03  0.50400001928E-02 0. -1.
        1   -1    0    0  501    0  0.00000000000E+00  0.00000000000E+00 -0.40206030230E+03  0.40206030233E+03  0.50400001928E-02 0.  1.
    10030    2    1    2    0    0  0.00000000000E+00  0.00000000000E+00  0.35031134128E+03  0.11544319459E+04  0.10999977645E+04 0.  0.
        1    1    3    3  502    0 -0.50472735769E+03 -0.21850910072E+03  0.17692360030E+03  0.57775244964E+03  0.50400001928E-02 0.  1.
       -1    1    3    3    0  502  0.50472735769E+03  0.21850910072E+03  0.17338774098E+03  0.57667949630E+03  0.50400001928E-02 0. -1.
</event>
<event>
 5   0  0.1503277E-04  0.1100581E+04  0.7818609E-02  0.9204625E-01
        2   -1    0    0  501    0  0.00000000000E+00  0.00000000000E+00  0.66058785848E+03  0.66058785848E+03  0.25500000920E-02 0. -1.
       -2   -1    0    0    0  501  0.00000000000E+00  0.00000000000E+00 -0.45840959772E+03  0.45840959772E+03  0.25500000920E-02 0.  1.
    10030    2    1    2    0    0  0.00000000000E+00  0.00000000000E+00  0.20217826076E+03  0.11189974562E+04  0.11005813272E+04 0.  0.
        5    1    3    3  502    0  0.15139888164E+03 -0.27664751413E+03  0.55956953413E+03  0.64233606621E+03  0.46999998093E+01 0. -1.
       -5    1    3    3    0  502 -0.15139888164E+03  0.27664751413E+03 -0.35739127337E+03  0.47666138999E+03  0.46999998093E+01 0.  1.
</event>
<event>
 5   0  0.1540772E-04  0.1099938E+04  0.7818609E-02  0.9205252E-01
        2   -1    0    0  501    0  0.00000000000E+00  0.00000000000E+00  0.80914516528E+03  0.80914516528E+03  0.25500000920E-02 0.  1.
       -2   -1    0    0    0  501  0.00000000000E+00  0.00000000000E+00 -0.37380947049E+03  0.37380947050E+03  0.25500000920E-02 0. -1.
    10030    2    1    2    0    0  0.00000000000E+00  0.00000000000E+00  0.43533569479E+03  0.11829546358E+04  0.10999384088E+04 0.  0.
        2    1    3    3  502    0  0.40892815069E+03  0.63547464160E+02 -0.17189356401E+03  0.44811595595E+03  0.25500000920E-02 0. -1.
       -2    1    3    3    0  502 -0.40892815069E+03 -0.63547464160E+02  0.60722925880E+03  0.73483867983E+03  0.25500000920E-02 0.  1.
</event>
<event>
 5   0  0.8621738E-05  0.1099876E+04  0.7818609E-02  0.9205313E-01
       -1   -1    0    0    0  501  0.00000000000E+00  0.00000000000E+00  0.32497827807E+03  0.32497827811E+03  0.50400001928E-02 0. -1.
        1   -1    0    0  501    0  0.00000000000E+00  0.00000000000E+00 -0.93062109586E+03  0.93062109588E+03  0.50400001928E-02 0.  1.
    10030    2    1    2    0    0  0.00000000000E+00  0.00000000000E+00 -0.60564281779E+03  0.12555993740E+04  0.10998757044E+04 0.  0.
        2    1    3    3  502    0  0.38607723332E+03  0.37197776960E+03 -0.44267603991E+03  0.69525906501E+03  0.25500000920E-02 0.  1.
       -2    1    3    3    0  502 -0.38607723332E+03 -0.37197776960E+03 -0.16296677788E+03  0.56034030898E+03  0.25500000920E-02 0. -1.
</event>
<event>
 5   0  0.9016738E-05  0.1100443E+04  0.7818609E-02  0.9204760E-01
       -1   -1    0    0    0  501  0.00000000000E+00  0.00000000000E+00  0.44756357617E+03  0.44756357620E+03  0.50400001928E-02 0. -1.
        1   -1    0    0  501    0  0.00000000000E+00  0.00000000000E+00 -0.67642576680E+03  0.67642576682E+03  0.50400001928E-02 0.  1.
    10030    2    1    2    0    0  0.00000000000E+00  0.00000000000E+00 -0.22886219064E+03  0.11239893430E+04  0.11004427022E+04 0.  0.
        4    1    3    3  502    0  0.42299507572E+03  0.24355976665E+03  0.14496308882E+03  0.50917787072E+03  0.12699999809E+01 0.  1.
       -4    1    3    3    0  502 -0.42299507572E+03 -0.24355976665E+03 -0.37382527945E+03  0.61481147230E+03  0.12699999809E+01 0. -1.
</event>
<event>
 5   0  0.8657442E-05  0.1099913E+04  0.7818609E-02  0.9205277E-01
       -1   -1    0    0    0  501  0.00000000000E+00  0.00000000000E+00  0.35228037015E+03  0.35228037019E+03  0.50400001928E-02 0.  1.
        1   -1    0    0  501    0  0.00000000000E+00  0.00000000000E+00 -0.85855512413E+03  0.85855512415E+03  0.50400001928E-02 0. -1.
    10030    2    1    2    0    0  0.00000000000E+00  0.00000000000E+00 -0.50627475398E+03  0.12108354943E+04  0.10999129365E+04 0.  0.
        1    1    3    3  502    0 -0.16596954332E+02 -0.17669696861E+03 -0.82616464585E+03  0.84501201156E+03  0.50400001928E-02 0. -1.
       -1    1    3    3    0  502  0.16596954332E+02  0.17669696861E+03  0.31988989186E+03  0.36582348278E+03  0.50400001928E-02 0.  1.
</event>
<event>
 5   0  0.8657442E-05  0.1100162E+04  0.7818609E-02  0.9205034E-01
        1   -1    0    0  501    0  0.00000000000E+00  0.00000000000E+00  0.18112968703E+04  0.18112968703E+04  0.50400001928E-02 0. -1.
       -1   -1    0    0    0  501  0.00000000000E+00  0.00000000000E+00 -0.16705664464E+03  0.16705664472E+03  0.50400001928E-02 0.  1.
    10030    2    1    2    0    0  0.00000000000E+00  0.00000000000E+00  0.16442402256E+04  0.19783535150E+04  0.11001621293E+04 0.  0.
        1    1    3    3  502    0  0.10262134280E+03  0.43456297551E+03  0.24440393348E+03  0.50902789944E+03  0.50400001928E-02 0.  1.
       -1    1    3    3    0  502 -0.10262134280E+03 -0.43456297551E+03  0.13998362922E+04  0.14693256156E+04  0.50400001928E-02 0. -1.
</event>
<event>
 5   0  0.8621738E-05  0.1101274E+04  0.7818609E-02  0.9203951E-01
       -1   -1    0    0    0  501  0.00000000000E+00  0.00000000000E+00  0.13188016415E+04  0.13188016415E+04  0.50400001928E-02 0.  1.
        1   -1    0    0  501    0  0.00000000000E+00  0.00000000000E+00 -0.22990646019E+03  0.22990646025E+03  0.50400001928E-02 0. -1.
    10030    2    1    2    0    0  0.00000000000E+00  0.00000000000E+00  0.10888951813E+04  0.15487081017E+04  0.11012738390E+04 0.  0.
        2    1    3    3  502    0  0.39034374208E+03 -0.38098606876E+03  0.43843926405E+03  0.69981969809E+03  0.25500000920E-02 0. -1.
       -2    1    3    3    0  502 -0.39034374208E+03  0.38098606876E+03  0.65045591723E+03  0.84888840364E+03  0.25500000920E-02 0.  1.
</event>
<event>
 5   0  0.9016738E-05  0.1099976E+04  0.7818609E-02  0.9205215E-01
        1   -1    0    0  501    0  0.00000000000E+00  0.00000000000E+00  0.21946091410E+04  0.21946091410E+04  0.50400001928E-02 0.  1.
       -1   -1    0    0    0  501  0.00000000000E+00  0.00000000000E+00 -0.13783176378E+03  0.13783176387E+03  0.50400001928E-02 0. -1.
    10030    2    1    2    0    0  0.00000000000E+00  0.00000000000E+00  0.20567773772E+04  0.23324409048E+04  0.10999760885E+04 0.  0.
        4    1    3    3  502    0 -0.19825945007E+03  0.43655309875E+03  0.45704797648E+03  0.66240462202E+03  0.12699999809E+01 0. -1.
       -4    1    3    3    0  502  0.19825945007E+03 -0.43655309875E+03  0.15997294007E+04  0.16700362828E+04  0.12699999809E+01 0.  1.
</event>
<event>
 5   0  0.8921459E-05  0.1100192E+04  0.7818609E-02  0.9205005E-01
        1   -1    0    0  501    0  0.00000000000E+00  0.00000000000E+00  0.38302117213E+03  0.38302117216E+03  0.50400001928E-02 0. -1.
       -1   -1    0    0    0  501  0.00000000000E+00  0.00000000000E+00 -0.79004862149E+03  0.79004862151E+03  0.50400001928E-02 0.  1.
    10030    2    1    2    0    0  0.00000000000E+00  0.00000000000E+00 -0.40702744936E+03  0.11730697937E+04  0.11001915271E+04 0.  0.
        3    1    3    3  502    0  0.28533723010E+03 -0.10923854757E+03 -0.69125939120E+03  0.75577109715E+03  0.10100000352E+00 0.  1.
       -3    1    3    3    0  502 -0.28533723010E+03  0.10923854757E+03  0.28423194184E+03  0.41729869653E+03  0.10100000352E+00 0. -1.
</event>
<event>
 5   0  0.1540772E-04  0.1099638E+04  0.7818609E-02  0.9205544E-01
        2   -1    0    0  501    0  0.00000000000E+00  0.00000000000E+00  0.49944807647E+03  0.49944807648E+03  0.25500000920E-02 0.  1.
       -2   -1    0    0    0  501  0.00000000000E+00  0.00000000000E+00 -0.60527043452E+03  0.60527043452E+03  0.25500000920E-02 0. -1.
    10030    2    1    2    0    0  0.00000000000E+00  0.00000000000E+00 -0.10582235804E+03  0.11047185110E+04  0.10996384029E+04 0.  0.
        2    1    3    3  502    0  0.32698234102E+03 -0.38654383415E+03 -0.26830214934E+03  0.57299182403E+03  0.25500000920E-02 0.  1.
       -2    1    3    3    0  502 -0.32698234102E+03  0.38654383415E+03  0.16247979130E+03  0.53172668698E+03  0.25500000920E-02 0. -1.
</event>
<event>
 5   0  0.9346836E-05  0.1099618E+04  0.7818609E-02  0.9205564E-01
        1   -1    0    0  501    0  0.00000000000E+00  0.00000000000E+00  0.69480995504E+03  0.69480995506E+03  0.50400001928E-02 0.  1.
       -1   -1    0    0    0  501  0.00000000000E+00  0.00000000000E+00 -0.43506859223E+03  0.43506859226E+03  0.50400001928E-02 0. -1.
    10030    2    1    2    0    0  0.00000000000E+00  0.00000000000E+00  0.25974136281E+03  0.11298785473E+04  0.10996180956E+04 0.  0.
        5    1    3    3  502    0 -0.48078255658E+02 -0.11881078138E+03  0.67922390086E+03  0.69122696558E+03  0.46999998093E+01 0.  1.
       -5    1    3    3    0  502  0.48078255658E+02  0.11881078138E+03 -0.41948253805E+03  0.43865158174E+03  0.46999998093E+01 0. -1.
</event>
<event>
 5   0  0.1553937E-04  0.1099009E+04  0.7818609E-02  0.9206158E-01
       -2   -1    0    0    0  501  0.00000000000E+00  0.00000000000E+00  0.63993631565E+03  0.63993631565E+03  0.25500000920E-02 0. -1.
        2   -1    0    0  501    0  0.00000000000E+00  0.00000000000E+00 -0.47185217694E+03  0.47185217695E+03  0.25500000920E-02 0.  1.
    10030    2    1    2    0    0  0.00000000000E+00  0.00000000000E+00  0.16808413871E+03  0.11117884926E+04  0.10990092696E+04 0.  0.
        1    1    3    3  502    0 -0.32261568111E+03 -0.15951321824E+03 -0.33603331376E+03  0.49238575576E+03  0.50400001928E-02 0.  1.
       -1    1    3    3    0  502  0.32261568111E+03  0.15951321824E+03  0.50411745247E+03  0.61940273684E+03  0.50400001928E-02 0. -1.
</event>
<event>
 5   0  0.8921459E-05  0.1100233E+04  0.7818609E-02  0.9204964E-01
       -1   -1    0    0    0  501  0.00000000000E+00  0.00000000000E+00  0.18089085140E+03  0.18089085147E+03  0.50400001928E-02 0.  1.
        1   -1    0    0  501    0  0.00000000000E+00  0.00000000000E+00 -0.16729887841E+04  0.16729887841E+04  0.50400001928E-02 0. -1.
    10030    2    1    2    0    0  0.00000000000E+00  0.00000000000E+00 -0.14920979327E+04  0.18538796355E+04  0.11002333673E+04 0.  0.
        3    1    3    3  502    0 -0.18641325592E+03 -0.51063708988E+03 -0.88831038765E+03  0.10414391459E+04  0.10100000352E+00 0. -1.
       -3    1    3    3    0  502  0.18641325592E+03  0.51063708988E+03 -0.60378754502E+03  0.81244048968E+03  0.10100000352E+00 0.  1.
</event>
<event>
 5   0  0.1553937E-04  0.1100286E+04  0.7818609E-02  0.9204913E-01
        2   -1    0    0  501    0  0.00000000000E+00  0.00000000000E+00  0.81055770895E+03  0.81055770895E+03  0.25500000920E-02 0.  1.
       -2   -1    0    0    0  501  0.00000000000E+00  0.00000000000E+00 -0.37339383435E+03  0.37339383436E+03  0.25500000920E-02 0. -1.
    10030    2    1    2    0    0  0.00000000000E+00  0.00000000000E+00  0.43716387459E+03  0.11839515433E+04  0.11002858736E+04 0.  0.
        1    1    3    3  502    0  0.40947540473E+02  0.10180785871E+03 -0.36149811915E+03  0.37778622439E+03  0.50400001928E-02 0. -1.
       -1    1    3    3    0  502 -0.40947540473E+02 -0.10180785871E+03  0.79866199374E+03  0.80616531892E+03  0.50400001928E-02 0.  1.
</event>
<event>
 5   0  0.8657442E-05  0.1099662E+04  0.7818609E-02  0.9205521E-01
        1   -1    0    0  501    0  0.00000000000E+00  0.00000000000E+00  0.20401128258E+04  0.20401128258E+04  0.50400001928E-02 0. -1.
       -1   -1    0    0    0  501  0.00000000000E+00  0.00000000000E+00 -0.14818506256E+03  0.14818506265E+03  0.50400001928E-02 0.  1.
    10030    2    1    2    0    0  0.00000000000E+00  0.00000000000E+00  0.18919277632E+04  0.21882978884E+04  0.10996622151E+04 0.  0.
        1    1    3    3  502    0 -0.30123421062E+03  0.68766446016E+02  0.40923527167E+02  0.31168190330E+03  0.50400001928E-02 0.  1.
       -1    1    3    3    0  502  0.30123421062E+03 -0.68766446016E+02  0.18510042361E+04  0.18766159851E+04  0.50400001928E-02 0. -1.
</event>
<event>
 5   0  0.1503277E-04  0.1100506E+04  0.7818609E-02  0.9204699E-01
       -2   -1    0    0    0  501  0.00000000000E+00  0.00000000000E+00  0.34706425433E+03  0.34706425434E+03  0.25500000920E-02 0. -1.
        2   -1    0    0  501    0  0.00000000000E+00  0.00000000000E+00 -0.87239900666E+03  0.87239900666E+03  0.25500000920E-02 0.  1.
    10030    2    1    2    0    0  0.00000000000E+00  0.00000000000E+00 -0.52533475232E+03  0.12194632610E+04  0.11005062667E+04 0.  0.
        5    1    3    3  502    0  0.49444619865E+03  0.23834995083E+03 -0.22020155341E+03  0.59143770301E+03  0.46999998093E+01 0. -1.
       -5    1    3    3    0  502 -0.49444619865E+03 -0.23834995083E+03 -0.30513319891E+03  0.62802555800E+03  0.46999998093E+01 0.  1.
</event>
<event>
 5   0  0.8621738E-05  0.1099611E+04  0.7818609E-02  0.9205571E-01
       -1   -1    0    0    0  501  0.00000000000E+00  0.00000000000E+00  0.33081210750E+03  0.33081210753E+03  0.50400001928E-02 0. -1.
        1   -1    0    0  501    0  0.00000000000E+00  0.00000000000E+00 -0.91377020194E+03  0.91377020196E+03  0.50400001928E-02 0.  1.
    10030    2    1    2    0    0  0.00000000000E+00  0.00000000000E+00 -0.58295809445E+03  0.12445823095E+04  0.10996112882E+04 0.  0.
        2    1    3    3  502    0  0.31103446480E+03  0.15075506874E+02  0.22137808493E+03  0.38207062919E+03  0.25500000920E-02 0. -1.
       -2    1    3    3    0  502 -0.31103446480E+03 -0.15075506874E+02 -0.80433617937E+03  0.86251168030E+03  0.25500000920E-02 0.  1.
</event>
<event>
 5   0  0.1464205E-04  0.1101706E+04  0.7818609E-02  0.9203531E-01
        2   -1    0    0  501    0  0.00000000000E+00  0.00000000000E+00  0.89341194165E+03  0.89341194165E+03  0.25500000920E-02 0.  1.
       -2   -1    0    0    0  501  0.00000000000E+00  0.00000000000E+00 -0.33964057770E+03  0.33964057771E+03  0.25500000920E-02 0. -1.
    10030    2    1    2    0    0  0.00000000000E+00  0.00000000000E+00  0.55377136395E+03  0.12330525194E+04  0.11017058555E+04 0.  0.
        3    1    3    3  502    0 -0.32557327786E+03  0.96026583437E+02  0.76245211458E+03  0.83459708915E+03  0.10100000352E+00 0.  1.
       -3    1    3    3    0  502  0.32557327786E+03 -0.96026583437E+02 -0.20868075063E+03  0.39845543022E+03  0.10100000352E+00 0. -1.
</event>
<event>
 5   0  0.1540772E-04  0.1100157E+04  0.7818609E-02  0.9205039E-01
       -2   -1    0    0    0  501  0.00000000000E+00  0.00000000000E+00  0.25059723154E+03  0.25059723155E+03  0.25500000920E-02 0.  1.
        2   -1    0    0  501    0  0.00000000000E+00  0.00000000000E+00 -0.12074605358E+04  0.12074605358E+04  0.25500000920E-02 0. -1.
    10030    2    1    2    0    0  0.00000000000E+00  0.00000000000E+00 -0.95686330421E+03  0.14580577673E+04  0.11001568387E+04 0.  0.
        2    1    3    3  502    0 -0.41539506772E+03 -0.33468180741E+03 -0.30051643234E+03  0.61227044728E+03  0.25500000920E-02 0. -1.
       -2    1    3    3    0  502  0.41539506772E+03  0.33468180741E+03 -0.65634687187E+03  0.84578732003E+03  0.25500000920E-02 0.  1.
</event>
<event>
 5   0  0.6010125E-05  0.1099597E+04  0.7818609E-02  0.9205585E-01
        4   -1    0    0  501    0  0.00000000000E+00  0.00000000000E+00  0.22532908346E+03  0.22533266241E+03  0.12699999809E+01 0. -1.
       -4   -1    0    0    0  501  0.00000000000E+00  0.00000000000E+00 -0.13414830942E+04  0.13414836953E+04  0.12699999809E+01 0.  1.
    10030    2    1    2    0    0  0.00000000000E+00  0.00000000000E+00 -0.11161540107E+04  0.15668163578E+04  0.10995970731E+04 0.  0.
        4    1    3    3  502    0  0.17437393981E+03 -0.47930034907E+03 -0.85058696833E+03  0.99178369572E+03  0.12699999809E+01 0.  1.
       -4    1    3    3    0  502 -0.17437393981E+03  0.47930034907E+03 -0.26556704239E+03  0.57503266203E+03  0.12699999809E+01 0. -1.
</event>
<event>
 5   0  0.1503277E-04  0.1098060E+04  0.7818609E-02  0.9207085E-01
        2   -1    0    0  501    0  0.00000000000E+00  0.00000000000E+00  0.18393334758E+04  0.18393334758E+04  0.25500000920E-02 0.  1.
       -2   -1    0    0    0  501  0.00000000000E+00  0.00000000000E+00 -0.16388204793E+03  0.16388204795E+03  0.25500000920E-02 0. -1.
    10030    2    1    2    0    0  0.00000000000E+00  0.00000000000E+00  0.16754514279E+04  0.20032155237E+04  0.10980596284E+04 0.  0.
        5    1    3    3  502    0 -0.37254274248E+03 -0.25183222163E+03  0.14123269137E+04  0.14821932951E+04  0.46999998093E+01 0.  1.
       -5    1    3    3    0  502  0.37254274248E+03  0.25183222163E+03  0.26312451419E+03  0.52102222869E+03  0.46999998093E+01 0. -1.
</event>
<event>
 5   0  0.1503277E-04  0.1099883E+04  0.7818609E-02  0.9205306E-01
       -2   -1    0    0    0  501  0.00000000000E+00  0.00000000000E+00  0.35743773713E+03  0.35743773714E+03  0.25500000920E-02 0.  1.
        2   -1    0    0  501    0  0.00000000000E+00  0.00000000000E+00 -0.84612072034E+03  0.84612072034E+03  0.25500000920E-02 0. -1.
    10030    2    1    2    0    0  0.00000000000E+00  0.00000000000E+00 -0.48868298320E+03  0.12035584575E+04  0.10998826767E+04 0.  0.
        5    1    3    3  502    0  0.29174350642E+03  0.25791717843E+03 -0.66924428626E+03  0.77430326692E+03  0.46999998093E+01 0. -1.
       -5    1    3    3    0  502 -0.29174350642E+03 -0.25791717843E+03  0.18056130306E+03  0.42925519056E+03  0.46999998093E+01 0.  1.
</event>
<event>
 5   0  0.1464205E-04  0.1099871E+04  0.7818609E-02  0.9205318E-01
       -2   -1    0    0    0  501  0.00000000000E+00  0.00000000000E+00  0.34005276305E+03  0.34005276306E+03  0.25500000920E-02 0.  1.
        2   -1    0    0  501    0  0.00000000000E+00  0.00000000000E+00 -0.88935913430E+03  0.88935913431E+03  0.25500000920E-02 0. -1.
    10030    2    1    2    0    0  0.00000000000E+00  0.00000000000E+00 -0.54930637125E+03  0.12294118974E+04  0.10998709578E+04 0.  0.
        3    1    3    3  502    0 -0.16970592083E+03  0.34594023264E+03 -0.71323594512E+03  0.81066655768E+03  0.10100000352E+00 0. -1.
       -3    1    3    3    0  502  0.16970592083E+03 -0.34594023264E+03  0.16392957388E+03  0.41874533969E+03  0.10100000352E+00 0.  1.
</event>
<event>
 5   0  0.1553937E-04  0.1099461E+04  0.7818609E-02  0.9205717E-01
        2   -1    0    0  501    0  0.00000000000E+00  0.00000000000E+00  0.12684694633E+04  0.12684694633E+04  0.25500000920E-02 0.  1.
       -2   -1    0    0    0  501  0.00000000000E+00  0.00000000000E+00 -0.23824274491E+03  0.23824274492E+03  0.25500000920E-02 0. -1.
    10030    2    1    2    0    0  0.00000000000E+00  0.00000000000E+00  0.10302267184E+04  0.15067122082E+04  0.10994610439E+04 0.  0.
        1    1    3    3  502    0 -0.54423034644E+03  0.67049535718E+02  0.56856525446E+03  0.78990427194E+03  0.50400001928E-02 0.  1.
       -1    1    3    3    0  502  0.54423034644E+03 -0.67049535718E+02  0.46166146393E+03  0.71680793629E+03  0.50400001928E-02 0. -1.
</event>
<event>
 5   0  0.9346836E-05  0.1099964E+04  0.7818609E-02  0.9205227E-01
        1   -1    0    0  501    0  0.00000000000E+00  0.00000000000E+00  0.87301253876E+03  0.87301253877E+03  0.50400001928E-02 0.  1.
       -1   -1    0    0    0  501  0.00000000000E+00  0.00000000000E+00 -0.34647886232E+03  0.34647886235E+03  0.50400001928E-02 0. -1.
    10030    2    1    2    0    0  0.00000000000E+00  0.00000000000E+00  0.52653367644E+03  0.12194914011E+04  0.10999643471E+04 0.  0.
        5    1    3    3  502    0 -0.26663121508E+03 -0.77863117261E+02  0.78950705699E+03  0.83695779638E+03  0.46999998093E+01 0.  1.
       -5    1    3    3    0  502  0.26663121508E+03  0.77863117261E+02 -0.26297338055E+03  0.38253360474E+03  0.46999998093E+01 0. -1.
</event>
<event>
 5   0  0.8657442E-05  0.1100050E+04  0.7818609E-02  0.9205143E-01
       -1   -1    0    0    0  501  0.00000000000E+00  0.00000000000E+00  0.65409460865E+03  0.65409460867E+03  0.50400001928E-02 0. -1.
        1   -1    0    0  501    0  0.00000000000E+00  0.00000000000E+00 -0.46251342479E+03  0.46251342482E+03  0.50400001928E-02 0.  1.
    10030    2    1    2    0    0  0.00000000000E+00  0.00000000000E+00  0.19158118386E+03  0.11166080335E+04  0.11000500672E+04 0.  0.
        1    1    3    3  502    0 -0.43266033475E+03 -0.34827114604E+02 -0.24711021020E+03  0.49947106942E+03  0.50400001928E-02 0.  1.
       -1    1    3    3    0  502  0.43266033475E+03  0.34827114604E+02  0.43869139407E+03  0.61713696407E+03  0.50400001928E-02 0. -1.
</event>
<event>
 5   0  0.6010125E-05  0.1099733E+04  0.7818609E-02  0.9205452E-01
       -3   -1    0    0    0  501  0.00000000000E+00  0.00000000000E+00  0.20390702589E+03  0.20390705090E+03  0.10100000352E+00 0.  1.
        3   -1    0    0  501    0  0.00000000000E+00  0.00000000000E+00 -0.14827995068E+04  0.14827995103E+04  0.10100000352E+00 0. -1.
    10030    2    1    2    0    0  0.00000000000E+00  0.00000000000E+00 -0.12788924809E+04  0.16867065612E+04  0.10997331702E+04 0.  0.
        4    1    3    3  502    0 -0.22186032082E+03  0.49450801825E+03 -0.49728347626E+03  0.73556281222E+03  0.12699999809E+01 0.  1.
       -4    1    3    3    0  502  0.22186032082E+03 -0.49450801825E+03 -0.78160900468E+03  0.95114374895E+03  0.12699999809E+01 0. -1.
</event>
<event>
 5   0  0.1540772E-04  0.1099813E+04  0.7818609E-02  0.9205374E-01
       -2   -1    0    0    0  501  0.00000000000E+00  0.00000000000E+00  0.26403452046E+03  0.26403452047E+03  0.25500000920E-02 0. -1.
        2   -1    0    0  501    0  0.00000000000E+00  0.00000000000E+00 -0.11452950417E+04  0.11452950417E+04  0.25500000920E-02 0.  1.
    10030    2    1    2    0    0  0.00000000000E+00  0.00000000000E+00 -0.88126052127E+03  0.14093295622E+04  0.10998134881E+04 0.  0.
        2    1    3    3  502    0 -0.46282050870E+03 -0.18109301575E+03 -0.74224190388E+03  0.89326398534E+03  0.25500000920E-02 0.  1.
       -2    1    3    3    0  502  0.46282050870E+03  0.18109301575E+03 -0.13901861739E+03  0.51606557686E+03  0.25500000920E-02 0. -1.
</event>
<event>
 5   0  0.8621738E-05  0.1099506E+04  0.7818609E-02  0.9205674E-01
        1   -1    0    0  501    0  0.00000000000E+00  0.00000000000E+00  0.77717051217E+03  0.77717051218E+03  0.50400001928E-02 0.  1.
       -1   -1    0    0    0  501  0.00000000000E+00  0.00000000000E+00 -0.38888260969E+03  0.38888260973E+03  0.50400001928E-02 0. -1.
    10030    2    1    2    0    0  0.00000000000E+00  0.00000000000E+00  0.38828790247E+03  0.11660531219E+04  0.10995055197E+04 0.  0.
        2    1    3    3  502    0  0.14146898756E+02 -0.36457115970E+03 -0.24198313008E+03  0.43779915542E+03  0.25500000920E-02 0. -1.
       -2    1    3    3    0  502 -0.14146898756E+02  0.36457115970E+03  0.63027103255E+03  0.72825396649E+03  0.25500000920E-02 0.  1.
</event>
<event>
 5   0  0.1553937E-04  0.1100295E+04  0.7818609E-02  0.9204905E-01
       -2   -1    0    0    0  501  0.00000000000E+00  0.00000000000E+00  0.21280894613E+03  0.21280894614E+03  0.25500000920E-02 0.  1.
        2   -1    0    0  501    0  0.00000000000E+00  0.00000000000E+00 -0.14222246828E+04  0.14222246828E+04  0.25500000920E-02 0. -1.
    10030    2    1    2    0    0  0.00000000000E+00  0.00000000000E+00 -0.12094157367E+04  0.16350336290E+04  0.11002947531E+04 0.  0.
        1    1    3    3  502    0  0.18502075776E+03  0.35625013252E+03 -0.45698169527E+02  0.40402371273E+03  0.50400001928E-02 0.  1.
       -1    1    3    3    0  502 -0.18502075776E+03 -0.35625013252E+03 -0.11637175672E+04  0.12310099163E+04  0.50400001928E-02 0. -1.
</event>
<event>
 5   0  0.1503277E-04  0.1102091E+04  0.7818609E-02  0.9203156E-01
       -2   -1    0    0    0  501  0.00000000000E+00  0.00000000000E+00  0.43860696510E+03  0.43860696510E+03  0.25500000920E-02 0.  1.
        2   -1    0    0  501    0  0.00000000000E+00  0.00000000000E+00 -0.69230853632E+03  0.69230853632E+03  0.25500000920E-02 0. -1.
    10030    2    1    2    0    0  0.00000000000E+00  0.00000000000E+00 -0.25370157122E+03  0.11309155014E+04  0.11020913683E+04 0.  0.
        5    1    3    3  502    0  0.15851632314E+02 -0.46816930137E+03  0.17090277444E+03  0.49866182659E+03  0.46999998093E+01 0. -1.
       -5    1    3    3    0  502 -0.15851632314E+02  0.46816930137E+03 -0.42460434567E+03  0.63225367484E+03  0.46999998093E+01 0.  1.
</event>
<event>
 5   0  0.6010125E-05  0.1099509E+04  0.7818609E-02  0.9205671E-01
       -3   -1    0    0    0  501  0.00000000000E+00  0.00000000000E+00  0.40414009927E+03  0.40414011189E+03  0.10100000352E+00 0. -1.
        3   -1    0    0  501    0  0.00000000000E+00  0.00000000000E+00 -0.74783463631E+03  0.74783464313E+03  0.10100000352E+00 0.  1.
    10030    2    1    2    0    0  0.00000000000E+00  0.00000000000E+00 -0.34369453704E+03  0.11519747550E+04  0.10995089365E+04 0.  0.
        4    1    3    3  502    0  0.21670015178E+03 -0.26302954632E+03 -0.62380698081E+03  0.71083068323E+03  0.12699999809E+01 0.  1.
       -4    1    3    3    0  502 -0.21670015178E+03  0.26302954632E+03  0.28011244377E+03  0.44114407179E+03  0.12699999809E+01 0. -1.
</event>
<event>
 5   0  0.8921459E-05  0.1100435E+04  0.7818609E-02  0.9204768E-01
        1   -1    0    0  501    0  0.00000000000E+00  0.00000000000E+00  0.62606934216E+03  0.62606934218E+03  0.50400001928E-02 0.  1.
       -1   -1    0    0    0  501  0.00000000000E+00  0.00000000000E+00 -0.48355597241E+03  0.48355597243E+03  0.50400001928E-02 0. -1.
    10030    2    1    2    0    0  0.00000000000E+00  0.00000000000E+00  0.14251336976E+03  0.11096253146E+04  0.11004354948E+04 0.  0.
        3    1    3    3  502    0  0.45485176206E+03  0.22134483024E+03 -0.14701324457E+03  0.52677942595E+03  0.10100000352E+00 0. -1.
       -3    1    3    3    0  502 -0.45485176206E+03 -0.22134483024E+03  0.28952661433E+03  0.58284588866E+03  0.10100000352E+00 0.  1.
</event>
<event>
 5   0  0.9346836E-05  0.1100059E+04  0.7818609E-02  0.9205134E-01
       -1   -1    0    0    0  501  0.00000000000E+00  0.00000000000E+00  0.50376646527E+03  0.50376646529E+03  0.50400001928E-02 0.  1.
        1   -1    0    0  501    0  0.00000000000E+00  0.00000000000E+00 -0.60054100728E+03  0.60054100730E+03  0.50400001928E-02 0. -1.
    10030    2    1    2    0    0  0.00000000000E+00  0.00000000000E+00 -0.96774542014E+02  0.11043074726E+04  0.11000589448E+04 0.  0.
        5    1    3    3  502    0 -0.21639095040E+02  0.54894713391E+03 -0.21844195750E+02  0.54982766859E+03  0.46999998093E+01 0.  1.
       -5    1    3    3    0  502  0.21639095040E+02 -0.54894713391E+03 -0.74930346264E+02  0.55447980400E+03  0.46999998093E+01 0. -1.
</event>
<event>
 5   0  0.1553937E-04  0.1100370E+04  0.7818609E-02  0.9204831E-01
        2   -1    0    0  501    0  0.00000000000E+00  0.00000000000E+00  0.12643823604E+04  0.12643823604E+04  0.25500000920E-02 0.  1.
       -2   -1    0    0    0  501  0.00000000000E+00  0.00000000000E+00 -0.23940842934E+03  0.23940842935E+03  0.25500000920E-02 0. -1.
    10030    2    1    2    0    0  0.00000000000E+00  0.00000000000E+00  0.10249739311E+04  0.15037907898E+04  0.11003704740E+04 0.  0.
        1    1    3    3  502    0 -0.23221475402E+03  0.49022937708E+03  0.63815128888E+03  0.83754737279E+03  0.50400001928E-02 0.  1.
       -1    1    3    3    0  502  0.23221475402E+03 -0.49022937708E+03  0.38682264219E+03  0.66624341698E+03  0.50400001928E-02 0. -1.
</event>
<event>
 5   0  0.1574101E-04  0.1099922E+04  0.7818609E-02  0.9205268E-01
       -2   -1    0    0    0  501  0.00000000000E+00  0.00000000000E+00  0.24983147464E+03  0.24983147465E+03  0.25500000920E-02 0. -1.
        2   -1    0    0  501    0  0.00000000000E+00  0.00000000000E+00 -0.12106438680E+04  0.12106438680E+04  0.25500000920E-02 0.  1.
    10030    2    1    2    0    0  0.00000000000E+00  0.00000000000E+00 -0.96081239339E+03  0.14604753427E+04  0.10999217114E+04 0.  0.
        4    1    3    3  502    0  0.42658545743E+01 -0.36402866316E+03 -0.10277434930E+04  0.10903180111E+04  0.12699999809E+01 0.  1.
       -4    1    3    3    0  502 -0.42658545743E+01  0.36402866316E+03  0.66931099586E+02  0.37015733156E+03  0.12699999809E+01 0. -1.
</event>
<event>
 5   0  0.6010125E-05  0.1100525E+04  0.7818609E-02  0.9204680E-01
        4   -1    0    0  501    0  0.00000000000E+00  0.00000000000E+00  0.36730629934E+03  0.36730849491E+03  0.12699999809E+01 0.  1.
       -4   -1    0    0    0  501  0.00000000000E+00  0.00000000000E+00 -0.82434501622E+03  0.82434599451E+03  0.12699999809E+01 0. -1.
    10030    2    1    2    0    0  0.00000000000E+00  0.00000000000E+00 -0.45703871688E+03  0.11916544894E+04  0.11005253443E+04 0.  0.
        2    1    3    3  502    0  0.19767621866E+03 -0.21843488970E+02  0.32703036065E+03  0.38275564297E+03  0.25500000920E-02 0.  1.
       -2    1    3    3    0  502 -0.19767621866E+03  0.21843488970E+02 -0.78406907753E+03  0.80889884644E+03  0.25500000920E-02 0. -1.
</event>
<event>
 5   0  0.8621738E-05  0.1100058E+04  0.7818609E-02  0.9205135E-01
        1   -1    0    0  501    0  0.00000000000E+00  0.00000000000E+00  0.59400088429E+03  0.59400088431E+03  0.50400001928E-02 0.  1.
       -1   -1    0    0    0  501  0.00000000000E+00  0.00000000000E+00 -0.50931226850E+03  0.50931226853E+03  0.50400001928E-02 0. -1.
    10030    2    1    2    0    0  0.00000000000E+00  0.00000000000E+00  0.84688615791E+02  0.11033131528E+04  0.11000580674E+04 0.  0.
        2    1    3    3  502    0 -0.22674170829E+03 -0.33872171880E+03 -0.32805557465E+03  0.52322525276E+03  0.25500000920E-02 0. -1.
       -2    1    3    3    0  502  0.22674170829E+03  0.33872171880E+03  0.41274419044E+03  0.58008790008E+03  0.25500000920E-02 0.  1.
</event>
<event>
 5   0  0.1464205E-04  0.1100134E+04  0.7818609E-02  0.9205061E-01
       -2   -1    0    0    0  501  0.00000000000E+00  0.00000000000E+00  0.34514772151E+03  0.34514772152E+03  0.25500000920E-02 0. -1.
        2   -1    0    0  501    0  0.00000000000E+00  0.00000000000E+00 -0.87665042846E+03  0.87665042846E+03  0.25500000920E-02 0.  1.
    10030    2    1    2    0    0  0.00000000000E+00  0.00000000000E+00 -0.53150270695E+03  0.12217981500E+04  0.11001343517E+04 0.  0.
        3    1    3    3  502    0  0.48747343101E+03 -0.33962014238E+02  0.14747091904E+02  0.48887754220E+03  0.10100000352E+00 0. -1.
       -3    1    3    3    0  502 -0.48747343101E+03  0.33962014238E+02 -0.54624979885E+03  0.73292060777E+03  0.10100000352E+00 0.  1.
</event>
<event>
 5   0  0.9016738E-05  0.1100031E+04  0.7818609E-02  0.9205162E-01
       -1   -1    0    0    0  501  0.00000000000E+00  0.00000000000E+00  0.46890879033E+03  0.46890879036E+03  0.50400001928E-02 0.  1.
        1   -1    0    0  501    0  0.00000000000E+00  0.00000000000E+00 -0.64515085686E+03  0.64515085688E+03  0.50400001928E-02 0. -1.
    10030    2    1    2    0    0  0.00000000000E+00  0.00000000000E+00 -0.17624206653E+03  0.11140596472E+04  0.11000307412E+04 0.  0.
        4    1    3    3  502    0  0.37959775383E+03 -0.35873373271E+03  0.86504606385E+02  0.52940438752E+03  0.12699999809E+01 0.  1.
       -4    1    3    3    0  502 -0.37959775383E+03  0.35873373271E+03 -0.26274667291E+03  0.58465525972E+03  0.12699999809E+01 0. -1.
</event>
<event>
 5   0  0.1464205E-04  0.1100435E+04  0.7818609E-02  0.9204768E-01
        2   -1    0    0  501    0  0.00000000000E+00  0.00000000000E+00  0.28087593217E+03  0.28087593218E+03  0.25500000920E-02 0.  1.
       -2   -1    0    0    0  501  0.00000000000E+00  0.00000000000E+00 -0.10778392679E+04  0.10778392679E+04  0.25500000920E-02 0. -1.
    10030    2    1    2    0    0  0.00000000000E+00  0.00000000000E+00 -0.79696333572E+03  0.13587152001E+04  0.11004346580E+04 0.  0.
        3    1    3    3  502    0 -0.51115028122E+01  0.41338048890E+03 -0.84678353431E+03  0.94231200791E+03  0.10100000352E+00 0. -1.
       -3    1    3    3    0  502  0.51115028122E+01 -0.41338048890E+03  0.49820198589E+02  0.41640319217E+03  0.10100000352E+00 0.  1.
</event>
<event>
 5   0  0.8621738E-05  0.1100806E+04  0.7818609E-02  0.9204407E-01
        1   -1    0    0  501    0  0.00000000000E+00  0.00000000000E+00  0.92685139343E+03  0.92685139344E+03  0.50400001928E-02 0. -1.
       -1   -1    0    0    0  501  0.00000000000E+00  0.00000000000E+00 -0.32685216640E+03  0.32685216644E+03  0.50400001928E-02 0.  1.
    10030    2    1    2    0    0  0.00000000000E+00  0.00000000000E+00  0.59999922703E+03  0.12537035599E+04  0.11008058610E+04 0.  0.
        2    1    3    3  502    0  0.24985720771E+03 -0.70084010324E+02  0.85280787861E+03  0.89141554315E+03  0.25500000920E-02 0. -1.
       -2    1    3    3    0  502 -0.24985720771E+03  0.70084010324E+02 -0.25280865158E+03  0.36228801673E+03  0.25500000920E-02 0.  1.
</event>
<event>
 5   0  0.1553937E-04  0.1099965E+04  0.7818609E-02  0.9205226E-01
        2   -1    0    0  501    0  0.00000000000E+00  0.00000000000E+00  0.34888410795E+03  0.34888410795E+03  0.25500000920E-02 0.  1.
       -2   -1    0    0    0  501  0.00000000000E+00  0.00000000000E+00 -0.86699446741E+03  0.86699446741E+03  0.25500000920E-02 0. -1.
    10030    2    1    2    0    0  0.00000000000E+00  0.00000000000E+00 -0.51811035946E+03  0.12158785754E+04  0.10999647110E+04 0.  0.
        1    1    3    3  502    0  0.28229977572E+03  0.31908744642E+03 -0.64351541191E+03  0.77176553903E+03  0.50400001928E-02 0.  1.
       -1    1    3    3    0  502 -0.28229977572E+03 -0.31908744642E+03  0.12540505245E+03  0.44411303634E+03  0.50400001928E-02 0. -1.
</event>
<event>
 5   0  0.1540772E-04  0.1099021E+04  0.7818609E-02  0.9206147E-01
       -2   -1    0    0    0  501  0.00000000000E+00  0.00000000000E+00  0.66779624566E+03  0.66779624566E+03  0.25500000920E-02 0. -1.
        2   -1    0    0  501    0  0.00000000000E+00  0.00000000000E+00 -0.45217622380E+03  0.45217622381E+03  0.25500000920E-02 0.  1.
    10030    2    1    2    0    0  0.00000000000E+00  0.00000000000E+00  0.21562002185E+03  0.11199724695E+04  0.10990206270E+04 0.  0.
        2    1    3    3  502    0  0.54394630391E+03 -0.48134419852E+02  0.17035664842E+03  0.57202787657E+03  0.25500000920E-02 0. -1.
       -2    1    3    3    0  502 -0.54394630391E+03  0.48134419852E+02  0.45263373434E+02  0.54794459290E+03  0.25500000920E-02 0.  1.
</event>
<event>
 5   0  0.9346836E-05  0.1100581E+04  0.7818609E-02  0.9204626E-01
        1   -1    0    0  501    0  0.00000000000E+00  0.00000000000E+00  0.28168423062E+03  0.28168423066E+03  0.50400001928E-02 0.  1.
       -1   -1    0    0    0  501  0.00000000000E+00  0.00000000000E+00 -0.10750324700E+04  0.10750324700E+04  0.50400001928E-02 0. -1.
    10030    2    1    2    0    0  0.00000000000E+00  0.00000000000E+00 -0.79334823933E+03  0.13567167006E+04  0.11005811087E+04 0.  0.
        5    1    3    3  502    0  0.16449729301E+03 -0.47029718374E+03 -0.68461248644E+03  0.84673203969E+03  0.46999998093E+01 0. -1.
       -5    1    3    3    0  502 -0.16449729301E+03  0.47029718374E+03 -0.10873575289E+03  0.50998466094E+03  0.46999998093E+01 0.  1.
</event>
<event>
 5   0  0.9016738E-05  0.1099319E+04  0.7818609E-02  0.9205856E-01
       -1   -1    0    0    0  501  0.00000000000E+00  0.00000000000E+00  0.45591344425E+03  0.45591344428E+03  0.50400001928E-02 0. -1.
        1   -1    0    0  501    0  0.00000000000E+00  0.00000000000E+00 -0.66268157761E+03  0.66268157763E+03  0.50400001928E-02 0.  1.
    10030    2    1    2    0    0  0.00000000000E+00  0.00000000000E+00 -0.20676813336E+03  0.11185950219E+04  0.10993187718E+04 0.  0.
        4    1    3    3  502    0  0.41421201926E+03  0.19215249305E+03  0.20797100082E+03  0.50174468365E+03  0.12699999809E+01 0.  1.
       -4    1    3    3    0  502 -0.41421201926E+03 -0.19215249305E+03 -0.41473913418E+03  0.61685033826E+03  0.12699999809E+01 0. -1.
</event>
<event>
 5   0  0.6010125E-05  0.1098155E+04  0.7818609E-02  0.9206992E-01
       -3   -1    0    0    0  501  0.00000000000E+00  0.00000000000E+00  0.49973565740E+03  0.49973566761E+03  0.10100000352E+00 0. -1.
        3   -1    0    0  501    0  0.00000000000E+00  0.00000000000E+00 -0.60329080826E+03  0.60329081672E+03  0.10100000352E+00 0.  1.
    10030    2    1    2    0    0  0.00000000000E+00  0.00000000000E+00 -0.10355515087E+03  0.11030264843E+04  0.10981547049E+04 0.  0.
        2    1    3    3  502    0  0.54499910297E+03  0.65701707225E+01  0.14990999683E+02  0.54524482525E+03  0.25500000920E-02 0. -1.
       -2    1    3    3    0  502 -0.54499910297E+03 -0.65701707225E+01 -0.11854615055E+03  0.55778165907E+03  0.25500000920E-02 0.  1.
</event>
<event>
 5   0  0.1574101E-04  0.1102047E+04  0.7818609E-02  0.9203199E-01
       -2   -1    0    0    0  501  0.00000000000E+00  0.00000000000E+00  0.12322778650E+03  0.12322778653E+03  0.25500000920E-02 0. -1.
        2   -1    0    0  501    0  0.00000000000E+00  0.00000000000E+00 -0.24639473701E+04  0.24639473701E+04  0.25500000920E-02 0.  1.
    10030    2    1    2    0    0  0.00000000000E+00  0.00000000000E+00 -0.23407195836E+04  0.25871751567E+04  0.11020467876E+04 0.  0.
        4    1    3    3  502    0 -0.38487458162E+03 -0.19901803242E+03 -0.19695424619E+04  0.20166397157E+04  0.12699999809E+01 0.  1.
       -4    1    3    3    0  502  0.38487458162E+03  0.19901803242E+03 -0.37117712176E+03  0.57053544099E+03  0.12699999809E+01 0. -1.
</event>
<event>
 5   0  0.1503277E-04  0.1099794E+04  0.7818609E-02  0.9205393E-01
        2   -1    0    0  501    0  0.00000000000E+00  0.00000000000E+00  0.13409240307E+04  0.13409240307E+04  0.25500000920E-02 0. -1.
       -2   -1    0    0    0  501  0.00000000000E+00  0.00000000000E+00 -0.22550625588E+03  0.22550625589E+03  0.25500000920E-02 0.  1.
    10030    2    1    2    0    0  0.00000000000E+00  0.00000000000E+00  0.11154177748E+04  0.15664302866E+04  0.10997940854E+04 0.  0.
        5    1    3    3  502    0 -0.13217099178E+03  0.44817591976E+03  0.97059169601E+03  0.10772191775E+04  0.46999998093E+01 0. -1.
       -5    1    3    3    0  502  0.13217099178E+03 -0.44817591976E+03  0.14482607882E+03  0.48921110906E+03  0.46999998093E+01 0.  1.
</event>
<event>
 5   0  0.9016738E-05  0.1094245E+04  0.7818609E-02  0.9210819E-01
        1   -1    0    0  501    0  0.00000000000E+00  0.00000000000E+00  0.45300042124E+03  0.45300042126E+03  0.50400001928E-02 0.  1.
       -1   -1    0    0    0  501  0.00000000000E+00  0.00000000000E+00 -0.66080118067E+03  0.66080118069E+03  0.50400001928E-02 0. -1.
    10030    2    1    2    0    0  0.00000000000E+00  0.00000000000E+00 -0.20780075944E+03  0.11138016020E+04  0.10942453349E+04 0.  0.
        4    1    3    3  502    0  0.42420604472E+02  0.33339993220E+03  0.33554049624E+03  0.47491479235E+03  0.12699999809E+01 0.  1.
       -4    1    3    3    0  502 -0.42420604472E+02 -0.33339993220E+03 -0.54334125568E+03  0.63888680961E+03  0.12699999809E+01 0. -1.
</event>
<event>
 5   0  0.1574101E-04  0.1099186E+04  0.7818609E-02  0.9205986E-01
       -2   -1    0    0    0  501  0.00000000000E+00  0.00000000000E+00  0.80473621712E+03  0.80473621713E+03  0.25500000920E-02 0. -1.
        2   -1    0    0  501    0  0.00000000000E+00  0.00000000000E+00 -0.37534310742E+03  0.37534310743E+03  0.25500000920E-02 0.  1.
    10030    2    1    2    0    0  0.00000000000E+00  0.00000000000E+00  0.42939310970E+03  0.11800793246E+04  0.10991855028E+04 0.  0.
        4    1    3    3  502    0 -0.43995846532E+03  0.25674285031E+03 -0.68133977491E+01  0.50943927771E+03  0.12699999809E+01 0.  1.
       -4    1    3    3    0  502  0.43995846532E+03 -0.25674285031E+03  0.43620650745E+03  0.67064004684E+03  0.12699999809E+01 0. -1.
</event>
<event>
 5   0  0.6010125E-05  0.1099709E+04  0.7818609E-02  0.9205476E-01
       -3   -1    0    0    0  501  0.00000000000E+00  0.00000000000E+00  0.10045109376E+04  0.10045109427E+04  0.10100000352E+00 0. -1.
        3   -1    0    0  501    0  0.00000000000E+00  0.00000000000E+00 -0.30098221569E+03  0.30098223263E+03  0.10100000352E+00 0.  1.
    10030    2    1    2    0    0  0.00000000000E+00  0.00000000000E+00  0.70352872195E+03  0.13054931753E+04  0.10997089471E+04 0.  0.
        2    1    3    3  502    0 -0.14896456786E+03  0.30709925972E+02 -0.27551288186E+03  0.31470762639E+03  0.25500000920E-02 0.  1.
       -2    1    3    3    0  502  0.14896456786E+03 -0.30709925972E+02  0.97904160381E+03  0.99078554896E+03  0.25500000920E-02 0. -1.
</event>
<event>
 5   0  0.8921459E-05  0.1097208E+04  0.7818609E-02  0.9207918E-01
        1   -1    0    0  501    0  0.00000000000E+00  0.00000000000E+00  0.23123488283E+03  0.23123488289E+03  0.50400001928E-02 0. -1.
       -1   -1    0    0    0  501  0.00000000000E+00  0.00000000000E+00 -0.13015608655E+04  0.13015608656E+04  0.50400001928E-02 0.  1.
    10030    2    1    2    0    0  0.00000000000E+00  0.00000000000E+00 -0.10703259827E+04  0.15327957484E+04  0.10972078642E+04 0.  0.
        3    1    3    3  502    0  0.35086404453E+03  0.41704245938E+03 -0.62281018293E+03  0.82760046208E+03  0.10100000352E+00 0.  1.
       -3    1    3    3    0  502 -0.35086404453E+03 -0.41704245938E+03 -0.44751579978E+03  0.70519528637E+03  0.10100000352E+00 0. -1.
</event>
<event>
 5   0  0.8621738E-05  0.1100423E+04  0.7818609E-02  0.9204780E-01
        1   -1    0    0  501    0  0.00000000000E+00  0.00000000000E+00  0.76376622001E+03  0.76376622003E+03  0.50400001928E-02 0. -1.
       -1   -1    0    0    0  501  0.00000000000E+00  0.00000000000E+00 -0.39636839677E+03  0.39636839680E+03  0.50400001928E-02 0.  1.
    10030    2    1    2    0    0  0.00000000000E+00  0.00000000000E+00  0.36739782325E+03  0.11601346168E+04  0.11004231771E+04 0.  0.
        2    1    3    3  502    0 -0.41173654772E+02  0.45124855077E+03 -0.14534623068E+03  0.47586347958E+03  0.25500000920E-02 0.  1.
       -2    1    3    3    0  502  0.41173654772E+02 -0.45124855077E+03  0.51274405393E+03  0.68427113724E+03  0.25500000920E-02 0. -1.
</event>
<event>
 5   0  0.8621738E-05  0.1100613E+04  0.7818609E-02  0.9204595E-01
       -1   -1    0    0    0  501  0.00000000000E+00  0.00000000000E+00  0.49531165360E+03  0.49531165363E+03  0.50400001928E-02 0. -1.
        1   -1    0    0  501    0  0.00000000000E+00  0.00000000000E+00 -0.61140697108E+03  0.61140697110E+03  0.50400001928E-02 0.  1.
    10030    2    1    2    0    0  0.00000000000E+00  0.00000000000E+00 -0.11609531748E+03  0.11067186247E+04  0.11006125529E+04 0.  0.
        2    1    3    3  502    0 -0.30738837719E+03  0.48422167840E+02  0.39834778191E+03  0.50548321053E+03  0.25500000920E-02 0. -1.
       -2    1    3    3    0  502  0.30738837719E+03 -0.48422167840E+02 -0.51444309939E+03  0.60123541420E+03  0.25500000920E-02 0.  1.
</event>
<event>
 5   0  0.8657442E-05  0.1099802E+04  0.7818609E-02  0.9205385E-01
        1   -1    0    0  501    0  0.00000000000E+00  0.00000000000E+00  0.65134316491E+03  0.65134316493E+03  0.50400001928E-02 0.  1.
       -1   -1    0    0    0  501  0.00000000000E+00  0.00000000000E+00 -0.46425783024E+03  0.46425783027E+03  0.50400001928E-02 0. -1.
    10030    2    1    2    0    0  0.00000000000E+00  0.00000000000E+00  0.18708533466E+03  0.11156009952E+04  0.10998020995E+04 0.  0.
        1    1    3    3  502    0  0.32947168440E+03  0.43726756968E+03  0.14562857961E+03  0.56653526063E+03  0.50400001928E-02 0.  1.
       -1    1    3    3    0  502 -0.32947168440E+03 -0.43726756968E+03  0.41456755055E+02  0.54906573457E+03  0.50400001928E-02 0. -1.
</event>
<event>
 5   0  0.9346836E-05  0.1099615E+04  0.7818609E-02  0.9205567E-01
        1   -1    0    0  501    0  0.00000000000E+00  0.00000000000E+00  0.84405503544E+03  0.84405503545E+03  0.50400001928E-02 0. -1.
       -1   -1    0    0    0  501  0.00000000000E+00  0.00000000000E+00 -0.35813844922E+03  0.35813844925E+03  0.50400001928E-02 0.  1.
    10030    2    1    2    0    0  0.00000000000E+00  0.00000000000E+00  0.48591658622E+03  0.12021934847E+04  0.10996154991E+04 0.  0.
        5    1    3    3  502    0 -0.19535222118E+03 -0.48816035301E+03  0.67338923781E+02  0.53011285706E+03  0.46999998093E+01 0. -1.
       -5    1    3    3    0  502  0.19535222118E+03  0.48816035301E+03  0.41857766244E+03  0.67208062765E+03  0.46999998093E+01 0.  1.
</event>
<event>
 5   0  0.8621738E-05  0.1095680E+04  0.7818609E-02  0.9209412E-01
        1   -1    0    0  501    0  0.00000000000E+00  0.00000000000E+00  0.62639861127E+03  0.62639861129E+03  0.50400001928E-02 0.  1.
       -1   -1    0    0    0  501  0.00000000000E+00  0.00000000000E+00 -0.47913387533E+03  0.47913387536E+03  0.50400001928E-02 0. -1.
    10030    2    1    2    0    0  0.00000000000E+00  0.00000000000E+00  0.14726473594E+03  0.11055324866E+04  0.10956802346E+04 0.  0.
        2    1    3    3  502    0  0.38937649839E+03 -0.13854651848E+03  0.43647629291E+03  0.60109961701E+03  0.25500000920E-02 0.  1.
       -2    1    3    3    0  502 -0.38937649839E+03  0.13854651848E+03 -0.28921155698E+03  0.50443286964E+03  0.25500000920E-02 0. -1.
</event>
<event>
 5   0  0.1574101E-04  0.1098028E+04  0.7818609E-02  0.9207116E-01
        2   -1    0    0  501    0  0.00000000000E+00  0.00000000000E+00  0.47585895282E+03  0.47585895282E+03  0.25500000920E-02 0. -1.
       -2   -1    0    0    0  501  0.00000000000E+00  0.00000000000E+00 -0.63341517440E+03  0.63341517440E+03  0.25500000920E-02 0.  1.
    10030    2    1    2    0    0  0.00000000000E+00  0.00000000000E+00 -0.15755622158E+03  0.11092741272E+04  0.10980278350E+04 0.  0.
        4    1    3    3  502    0 -0.67153728544E+02 -0.12545365091E+03  0.45690415006E+03  0.47855120628E+03  0.12699999809E+01 0. -1.
       -4    1    3    3    0  502  0.67153728544E+02  0.12545365091E+03 -0.61446037165E+03  0.63072292095E+03  0.12699999809E+01 0.  1.
</event>
<event>
 5   0  0.1574101E-04  0.1100281E+04  0.7818609E-02  0.9204918E-01
        2   -1    0    0  501    0  0.00000000000E+00  0.00000000000E+00  0.54088411584E+03  0.54088411584E+03  0.25500000920E-02 0.  1.
       -2   -1    0    0    0  501  0.00000000000E+00  0.00000000000E+00 -0.55955534697E+03  0.55955534698E+03  0.25500000920E-02 0. -1.
    10030    2    1    2    0    0  0.00000000000E+00  0.00000000000E+00 -0.18671231138E+02  0.11004394628E+04  0.11002810534E+04 0.  0.
        4    1    3    3  502    0  0.25625766122E+03 -0.19828719538E+02 -0.49581269536E+03  0.55847382108E+03  0.12699999809E+01 0. -1.
       -4    1    3    3    0  502 -0.25625766122E+03  0.19828719538E+02  0.47714146422E+03  0.54196564174E+03  0.12699999809E+01 0.  1.
</event>
<event>
 5   0  0.1553937E-04  0.1100702E+04  0.7818609E-02  0.9204508E-01
       -2   -1    0    0    0  501  0.00000000000E+00  0.00000000000E+00  0.29367964006E+03  0.29367964007E+03  0.25500000920E-02 0.  1.
        2   -1    0    0  501    0  0.00000000000E+00  0.00000000000E+00 -0.10313494929E+04  0.10313494929E+04  0.25500000920E-02 0. -1.
    10030    2    1    2    0    0  0.00000000000E+00  0.00000000000E+00 -0.73766985282E+03  0.13250291330E+04  0.11007022265E+04 0.  0.
        1    1    3    3  502    0  0.43067776104E+03 -0.28829811975E+03 -0.59174086751E+03  0.78661070042E+03  0.50400001928E-02 0. -1.
       -1    1    3    3    0  502 -0.43067776104E+03  0.28829811975E+03 -0.14592898531E+03  0.53841843253E+03  0.50400001928E-02 0.  1.
</event>
<event>
 5   0  0.9016738E-05  0.1099907E+04  0.7818609E-02  0.9205283E-01
        1   -1    0    0  501    0  0.00000000000E+00  0.00000000000E+00  0.14596188568E+04  0.14596188568E+04  0.50400001928E-02 0.  1.
       -1   -1    0    0    0  501  0.00000000000E+00  0.00000000000E+00 -0.20721066303E+03  0.20721066309E+03  0.50400001928E-02 0. -1.
    10030    2    1    2    0    0  0.00000000000E+00  0.00000000000E+00  0.12524081938E+04  0.16668295199E+04  0.10999065254E+04 0.  0.
        4    1    3    3  502    0  0.39360606156E+03  0.29102305529E+03  0.10060504586E+04  0.11188204899E+04  0.12699999809E+01 0.  1.
       -4    1    3    3    0  502 -0.39360606156E+03 -0.29102305529E+03  0.24635773517E+03  0.54800903003E+03  0.12699999809E+01 0. -1.
</event>
<event>
 5   0  0.9016738E-05  0.1100141E+04  0.7818609E-02  0.9205055E-01
       -1   -1    0    0    0  501  0.00000000000E+00  0.00000000000E+00  0.36800746660E+03  0.36800746664E+03  0.50400001928E-02 0.  1.
        1   -1    0    0  501    0  0.00000000000E+00  0.00000000000E+00 -0.82220471192E+03  0.82220471194E+03  0.50400001928E-02 0. -1.
    10030    2    1    2    0    0  0.00000000000E+00  0.00000000000E+00 -0.45419724532E+03  0.11902121786E+04  0.11001408511E+04 0.  0.
        4    1    3    3  502    0 -0.50282488229E+03  0.18416063623E+03 -0.36320772541E+03  0.64704672697E+03  0.12699999809E+01 0.  1.
       -4    1    3    3    0  502  0.50282488229E+03 -0.18416063623E+03 -0.90989519916E+02  0.54316545161E+03  0.12699999809E+01 0. -1.
</event>
<event>
 5   0  0.1503277E-04  0.1100424E+04  0.7818609E-02  0.9204779E-01
       -2   -1    0    0    0  501  0.00000000000E+00  0.00000000000E+00  0.40657720908E+03  0.40657720909E+03  0.25500000920E-02 0.  1.
        2   -1    0    0  501    0  0.00000000000E+00  0.00000000000E+00 -0.74459007151E+03  0.74459007151E+03  0.25500000920E-02 0. -1.
    10030    2    1    2    0    0  0.00000000000E+00  0.00000000000E+00 -0.33801286242E+03  0.11511672806E+04  0.11004241967E+04 0.  0.
        5    1    3    3  502    0 -0.35942962753E+03  0.37014572913E+03 -0.36890353254E+03  0.63427866452E+03  0.46999998093E+01 0. -1.
       -5    1    3    3    0  502  0.35942962753E+03 -0.37014572913E+03  0.30890670117E+02  0.51688861609E+03  0.46999998093E+01 0.  1.
</event>
<event>
 5   0  0.9346836E-05  0.1100972E+04  0.7818609E-02  0.9204245E-01
       -1   -1    0    0    0  501  0.00000000000E+00  0.00000000000E+00  0.73930153545E+03  0.73930153546E+03  0.50400001928E-02 0.  1.
        1   -1    0    0  501    0  0.00000000000E+00  0.00000000000E+00 -0.40989376201E+03  0.40989376204E+03  0.50400001928E-02 0. -1.
    10030    2    1    2    0    0  0.00000000000E+00  0.00000000000E+00  0.32940777344E+03  0.11491952975E+04  0.11009724568E+04 0.  0.
        5    1    3    3  502    0  0.23836730179E+03  0.39722178569E+03  0.47506359177E+03  0.66355981178E+03  0.46999998093E+01 0.  1.
       -5    1    3    3    0  502 -0.23836730179E+03 -0.39722178569E+03 -0.14565581833E+03  0.48563548572E+03  0.46999998093E+01 0. -1.
</event>
<event>
 5   0  0.9346836E-05  0.1099365E+04  0.7818609E-02  0.9205811E-01
       -1   -1    0    0    0  501  0.00000000000E+00  0.00000000000E+00  0.16690443782E+03  0.16690443789E+03  0.50400001928E-02 0.  1.
        1   -1    0    0  501    0  0.00000000000E+00  0.00000000000E+00 -0.18103224627E+04  0.18103224627E+04  0.50400001928E-02 0. -1.
    10030    2    1    2    0    0  0.00000000000E+00  0.00000000000E+00 -0.16434180249E+04  0.19772269006E+04  0.10993650040E+04 0.  0.
        5    1    3    3  502    0 -0.12056344042E+03  0.38780180446E+03 -0.15552167272E+03  0.43489638237E+03  0.46999998093E+01 0.  1.
       -5    1    3    3    0  502  0.12056344042E+03 -0.38780180446E+03 -0.14878963521E+04  0.15423305182E+04  0.46999998093E+01 0. -1.
</event>
<event>
 5   0  0.1540772E-04  0.1099481E+04  0.7818609E-02  0.9205698E-01
       -2   -1    0    0    0  501  0.00000000000E+00  0.00000000000E+00  0.40483953719E+03  0.40483953720E+03  0.25500000920E-02 0. -1.
        2   -1    0    0  501    0  0.00000000000E+00  0.00000000000E+00 -0.74650487238E+03  0.74650487239E+03  0.25500000920E-02 0.  1.
    10030    2    1    2    0    0  0.00000000000E+00  0.00000000000E+00 -0.34166533519E+03  0.11513444096E+04  0.10994811268E+04 0.  0.
        2    1    3    3  502    0  0.28673340024E+03 -0.31362297390E+03 -0.53605252977E+03  0.68405243020E+03  0.25500000920E-02 0.  1.
       -2    1    3    3    0  502 -0.28673340024E+03  0.31362297390E+03  0.19438719458E+03  0.46729197939E+03  0.25500000920E-02 0. -1.
</event>
<event>
 5   0  0.8921459E-05  0.1099946E+04  0.7818609E-02  0.9205244E-01
       -1   -1    0    0    0  501  0.00000000000E+00  0.00000000000E+00  0.49175698936E+03  0.49175698939E+03  0.50400001928E-02 0. -1.
        1   -1    0    0  501    0  0.00000000000E+00  0.00000000000E+00 -0.61508102548E+03  0.61508102550E+03  0.50400001928E-02 0.  1.
    10030    2    1    2    0    0  0.00000000000E+00  0.00000000000E+00 -0.12332403612E+03  0.11068380149E+04  0.10999461684E+04 0.  0.
        3    1    3    3  502    0  0.46301910668E+03  0.21124457782E+03  0.14811339754E+03  0.53004580325E+03  0.10100000352E+00 0. -1.
       -3    1    3    3    0  502 -0.46301910668E+03 -0.21124457782E+03 -0.27143743366E+03  0.57679221164E+03  0.10100000352E+00 0.  1.
</event>
<event>
 5   0  0.1464205E-04  0.1100009E+04  0.7818609E-02  0.9205183E-01
        2   -1    0    0  501    0  0.00000000000E+00  0.00000000000E+00  0.20418186879E+04  0.20418186879E+04  0.25500000920E-02 0.  1.
       -2   -1    0    0    0  501  0.00000000000E+00  0.00000000000E+00 -0.14815476101E+03  0.14815476103E+03  0.25500000920E-02 0. -1.
    10030    2    1    2    0    0  0.00000000000E+00  0.00000000000E+00  0.18936639269E+04  0.21899734490E+04  0.11000093814E+04 0.  0.
        3    1    3    3  502    0  0.99621597116E+02 -0.54039234338E+03  0.99380979004E+03  0.11356083200E+04  0.10100000352E+00 0.  1.
       -3    1    3    3    0  502 -0.99621597116E+02  0.54039234338E+03  0.89985413689E+03  0.10543651290E+04  0.10100000352E+00 0. -1.
</event>
<event>
 5   0  0.6010125E-05  0.1099923E+04  0.7818609E-02  0.9205266E-01
       -3   -1    0    0    0  501  0.00000000000E+00  0.00000000000E+00  0.28016018630E+03  0.28016020450E+03  0.10100000352E+00 0. -1.
        3   -1    0    0  501    0  0.00000000000E+00  0.00000000000E+00 -0.10795890851E+04  0.10795890898E+04  0.10100000352E+00 0.  1.
    10030    2    1    2    0    0  0.00000000000E+00  0.00000000000E+00 -0.79942889877E+03  0.13597492943E+04  0.10999234424E+04 0.  0.
        2    1    3    3  502    0  0.54762175039E+03  0.40324207604E+02 -0.36176683956E+03  0.65756434623E+03  0.25500000920E-02 0. -1.
       -2    1    3    3    0  502 -0.54762175039E+03 -0.40324207604E+02 -0.43766205921E+03  0.70218494807E+03  0.25500000920E-02 0.  1.
</event>
<event>
 5   0  0.1574101E-04  0.1100742E+04  0.7818609E-02  0.9204469E-01
       -2   -1    0    0    0  501  0.00000000000E+00  0.00000000000E+00  0.20324704456E+03  0.20324704458E+03  0.25500000920E-02 0.  1.
        2   -1    0    0  501    0  0.00000000000E+00  0.00000000000E+00 -0.14903452373E+04  0.14903452373E+04  0.25500000920E-02 0. -1.
    10030    2    1    2    0    0  0.00000000000E+00  0.00000000000E+00 -0.12870981927E+04  0.16935922818E+04  0.11007420495E+04 0.  0.
        4    1    3    3  502    0 -0.35612363693E+03 -0.17124564803E+03 -0.54130935282E+02  0.39884945506E+03  0.12699999809E+01 0.  1.
       -4    1    3    3    0  502  0.35612363693E+03  0.17124564803E+03 -0.12329672574E+04  0.12947428268E+04  0.12699999809E+01 0. -1.
</event>
<event>
 5   0  0.1574101E-04  0.1100272E+04  0.7818609E-02  0.9204927E-01
       -2   -1    0    0    0  501  0.00000000000E+00  0.00000000000E+00  0.16875044878E+03  0.16875044880E+03  0.25500000920E-02 0.  1.
        2   -1    0    0  501    0  0.00000000000E+00  0.00000000000E+00 -0.17934734800E+04  0.17934734800E+04  0.25500000920E-02 0. -1.
    10030    2    1    2    0    0  0.00000000000E+00  0.00000000000E+00 -0.16247230312E+04  0.19622239288E+04  0.11002717022E+04 0.  0.
        4    1    3    3  502    0  0.91086964910E+02 -0.50347524469E+03 -0.45185145778E+03  0.68260933922E+03  0.12699999809E+01 0.  1.
       -4    1    3    3    0  502 -0.91086964910E+02  0.50347524469E+03 -0.11728715734E+04  0.12796145896E+04  0.12699999809E+01 0. -1.
</event>
<event>
 5   0  0.8621738E-05  0.1100074E+04  0.7818609E-02  0.9205119E-01
       -1   -1    0    0    0  501  0.00000000000E+00  0.00000000000E+00  0.66998413740E+03  0.66998413742E+03  0.50400001928E-02 0. -1.
        1   -1    0    0  501    0  0.00000000000E+00  0.00000000000E+00 -0.45156434828E+03  0.45156434831E+03  0.50400001928E-02 0.  1.
    10030    2    1    2    0    0  0.00000000000E+00  0.00000000000E+00  0.21841978912E+03  0.11215484857E+04  0.11000744527E+04 0.  0.
        2    1    3    3  502    0 -0.94466776415E+02 -0.32953478996E+03 -0.32933067188E+03  0.47536916295E+03  0.25500000920E-02 0.  1.
       -2    1    3    3    0  502  0.94466776415E+02  0.32953478996E+03  0.54775046100E+03  0.64617932277E+03  0.25500000920E-02 0. -1.
</event>
<event>
 5   0  0.1553937E-04  0.1099878E+04  0.7818609E-02  0.9205310E-01
       -2   -1    0    0    0  501  0.00000000000E+00  0.00000000000E+00  0.64564691035E+03  0.64564691035E+03  0.25500000920E-02 0. -1.
        2   -1    0    0  501    0  0.00000000000E+00  0.00000000000E+00 -0.46841878632E+03  0.46841878633E+03  0.25500000920E-02 0.  1.
    10030    2    1    2    0    0  0.00000000000E+00  0.00000000000E+00  0.17722812403E+03  0.11140656967E+04  0.10998784335E+04 0.  0.
        1    1    3    3  502    0 -0.33601374917E+03  0.32095404388E+02  0.52837762645E+03  0.62699144394E+03  0.50400001928E-02 0. -1.
       -1    1    3    3    0  502  0.33601374917E+03 -0.32095404388E+02 -0.35114950242E+03  0.48707425275E+03  0.50400001928E-02 0.  1.
</event>
<event>
 5   0  0.8657442E-05  0.1101039E+04  0.7818609E-02  0.9204180E-01
       -1   -1    0    0    0  501  0.00000000000E+00  0.00000000000E+00  0.54892982757E+03  0.54892982759E+03  0.50400001928E-02 0.  1.
        1   -1    0    0  501    0  0.00000000000E+00  0.00000000000E+00 -0.55211364462E+03  0.55211364464E+03  0.50400001928E-02 0. -1.
    10030    2    1    2    0    0  0.00000000000E+00  0.00000000000E+00 -0.31838170516E+01  0.11010434722E+04  0.11010388690E+04 0.  0.
        1    1    3    3  502    0 -0.24142667018E+03  0.43634343575E+03  0.23162402473E+03  0.54984736051E+03  0.50400001928E-02 0.  1.
       -1    1    3    3    0  502  0.24142667018E+03 -0.43634343575E+03 -0.23480784178E+03  0.55119611173E+03  0.50400001928E-02 0. -1.
</event>
<event>
 5   0  0.9346836E-05  0.1099431E+04  0.7818609E-02  0.9205747E-01
       -1   -1    0    0    0  501  0.00000000000E+00  0.00000000000E+00  0.54294640619E+03  0.54294640621E+03  0.50400001928E-02 0.  1.
        1   -1    0    0  501    0  0.00000000000E+00  0.00000000000E+00 -0.55656891117E+03  0.55656891120E+03  0.50400001928E-02 0. -1.
    10030    2    1    2    0    0  0.00000000000E+00  0.00000000000E+00 -0.13622504988E+02  0.10995153174E+04  0.10994309258E+04 0.  0.
        5    1    3    3  502    0 -0.38115440984E+03 -0.19656825710E+03 -0.35070860661E+03  0.55401839373E+03  0.46999998093E+01 0. -1.
       -5    1    3    3    0  502  0.38115440984E+03  0.19656825710E+03  0.33708610162E+03  0.54549692368E+03  0.46999998093E+01 0.  1.
</event>
<event>
 5   0  0.1553937E-04  0.1100156E+04  0.7818609E-02  0.9205040E-01
       -2   -1    0    0    0  501  0.00000000000E+00  0.00000000000E+00  0.21851482927E+03  0.21851482928E+03  0.25500000920E-02 0.  1.
        2   -1    0    0  501    0  0.00000000000E+00  0.00000000000E+00 -0.13847370295E+04  0.13847370295E+04  0.25500000920E-02 0. -1.
    10030    2    1    2    0    0  0.00000000000E+00  0.00000000000E+00 -0.11662222003E+04  0.16032518588E+04  0.11001555810E+04 0.  0.
        1    1    3    3  502    0  0.16153394472E+03  0.18845313179E+03 -0.12984900274E+04  0.13220000565E+04  0.50400001928E-02 0. -1.
       -1    1    3    3    0  502 -0.16153394472E+03 -0.18845313179E+03  0.13226782712E+03  0.28125180230E+03  0.50400001928E-02 0.  1.
</event>
<event>
 5   0  0.9346836E-05  0.1100216E+04  0.7818609E-02  0.9204981E-01
        1   -1    0    0  501    0  0.00000000000E+00  0.00000000000E+00  0.34587738940E+03  0.34587738943E+03  0.50400001928E-02 0. -1.
       -1   -1    0    0    0  501  0.00000000000E+00  0.00000000000E+00 -0.87493105559E+03  0.87493105561E+03  0.50400001928E-02 0.  1.
    10030    2    1    2    0    0  0.00000000000E+00  0.00000000000E+00 -0.52905366620E+03  0.12208084450E+04  0.11002161050E+04 0.  0.
        5    1    3    3  502    0 -0.19944437341E+03  0.19872312871E+03 -0.78890060282E+03  0.83764860837E+03  0.46999998093E+01 0.  1.
       -5    1    3    3    0  502  0.19944437341E+03 -0.19872312871E+03  0.25984693662E+03  0.38315983668E+03  0.46999998093E+01 0. -1.
</event>
<event>
 5   0  0.8921459E-05  0.1097130E+04  0.7818609E-02  0.9207993E-01
        1   -1    0    0  501    0  0.00000000000E+00  0.00000000000E+00  0.85404898527E+03  0.85404898529E+03  0.50400001928E-02 0.  1.
       -1   -1    0    0    0  501  0.00000000000E+00  0.00000000000E+00 -0.35234954341E+03  0.35234954344E+03  0.50400001928E-02 0. -1.
    10030    2    1    2    0    0  0.00000000000E+00  0.00000000000E+00  0.50169944186E+03  0.12063985287E+04  0.10971303843E+04 0.  0.
        3    1    3    3  502    0 -0.23251225977E+03 -0.16590826167E+03  0.76582664715E+03  0.81736036478E+03  0.10100000352E+00 0.  1.
       -3    1    3    3    0  502  0.23251225977E+03  0.16590826167E+03 -0.26412720528E+03  0.38903816395E+03  0.10100000352E+00 0. -1.
</event>
<event>
 5   0  0.9016738E-05  0.1100269E+04  0.7818609E-02  0.9204929E-01
        1   -1    0    0  501    0  0.00000000000E+00  0.00000000000E+00  0.66361334552E+03  0.66361334554E+03  0.50400001928E-02 0.  1.
       -1   -1    0    0    0  501  0.00000000000E+00  0.00000000000E+00 -0.45606102500E+03  0.45606102503E+03  0.50400001928E-02 0. -1.
    10030    2    1    2    0    0  0.00000000000E+00  0.00000000000E+00  0.20755232052E+03  0.11196743706E+04  0.11002693899E+04 0.  0.
        4    1    3    3  502    0 -0.24283365286E+03 -0.32882151983E+03  0.47844721978E+03  0.62928938485E+03  0.12699999809E+01 0.  1.
       -4    1    3    3    0  502  0.24283365286E+03  0.32882151983E+03 -0.27089489927E+03  0.49038498572E+03  0.12699999809E+01 0. -1.
</event>
<event>
 5   0  0.1503277E-04  0.1100014E+04  0.7818609E-02  0.9205178E-01
       -2   -1    0    0    0  501  0.00000000000E+00  0.00000000000E+00  0.10277231359E+04  0.10277231359E+04  0.25500000920E-02 0.  1.
        2   -1    0    0  501    0  0.00000000000E+00  0.00000000000E+00 -0.29434736163E+03  0.29434736164E+03  0.25500000920E-02 0. -1.
    10030    2    1    2    0    0  0.00000000000E+00  0.00000000000E+00  0.73337577422E+03  0.13220704975E+04  0.11000138063E+04 0.  0.
        5    1    3    3  502    0  0.37269672108E+03  0.14115368788E+03 -0.88847196402E+02  0.40834192023E+03  0.46999998093E+01 0. -1.
       -5    1    3    3    0  502 -0.37269672108E+03 -0.14115368788E+03  0.82222297062E+03  0.91372857727E+03  0.46999998093E+01 0.  1.
</event>
<event>
 5   0  0.1553937E-04  0.1100727E+04  0.7818609E-02  0.9204483E-01
        2   -1    0    0  501    0  0.00000000000E+00  0.00000000000E+00  0.93047812558E+03  0.93047812559E+03  0.25500000920E-02 0. -1.
       -2   -1    0    0    0  501  0.00000000000E+00  0.00000000000E+00 -0.32553179226E+03  0.32553179227E+03  0.25500000920E-02 0.  1.
    10030    2    1    2    0    0  0.00000000000E+00  0.00000000000E+00  0.60494633332E+03  0.12560099179E+04  0.11007274175E+04 0.  0.
        1    1    3    3  502    0 -0.47479753772E+03  0.31857570377E+02  0.61798047903E+03  0.77996633203E+03  0.50400001928E-02 0. -1.
       -1    1    3    3    0  502  0.47479753772E+03 -0.31857570377E+02 -0.13034145708E+02  0.47604358582E+03  0.50400001928E-02 0.  1.
</event>
<event>
 5   0  0.8621738E-05  0.1100096E+04  0.7818609E-02  0.9205098E-01
       -1   -1    0    0    0  501  0.00000000000E+00  0.00000000000E+00  0.40146550655E+03  0.40146550659E+03  0.50400001928E-02 0. -1.
        1   -1    0    0  501    0  0.00000000000E+00  0.00000000000E+00 -0.75362137260E+03  0.75362137262E+03  0.50400001928E-02 0.  1.
    10030    2    1    2    0    0  0.00000000000E+00  0.00000000000E+00 -0.35215586605E+03  0.11550868792E+04  0.11000963342E+04 0.  0.
        2    1    3    3  502    0 -0.23672961669E+03  0.38689876939E+03 -0.50279336645E+03  0.67715045487E+03  0.25500000920E-02 0.  1.
       -2    1    3    3    0  502  0.23672961669E+03 -0.38689876939E+03  0.15063750040E+03  0.47793642434E+03  0.25500000920E-02 0. -1.
</event>
<event>
 5   0  0.9346836E-05  0.1100211E+04  0.7818609E-02  0.9204987E-01
       -1   -1    0    0    0  501  0.00000000000E+00  0.00000000000E+00  0.84749188003E+03  0.84749188004E+03  0.50400001928E-02 0. -1.
        1   -1    0    0  501    0  0.00000000000E+00  0.00000000000E+00 -0.35707229267E+03  0.35707229270E+03  0.50400001928E-02 0.  1.
    10030    2    1    2    0    0  0.00000000000E+00  0.00000000000E+00  0.49041958736E+03  0.12045641727E+04  0.11002106501E+04 0.  0.
        5    1    3    3  502    0 -0.19212321423E+03 -0.20221197449E+03  0.76430290238E+03  0.81362278032E+03  0.46999998093E+01 0. -1.
       -5    1    3    3    0  502  0.19212321423E+03  0.20221197449E+03 -0.27388331502E+03  0.39094139243E+03  0.46999998093E+01 0.  1.
</event>
<event>
 5   0  0.1464205E-04  0.1100922E+04  0.7818609E-02  0.9204293E-01
       -2   -1    0    0    0  501  0.00000000000E+00  0.00000000000E+00  0.22515852136E+03  0.22515852138E+03  0.25500000920E-02 0.  1.
        2   -1    0    0  501    0  0.00000000000E+00  0.00000000000E+00 -0.13457515800E+04  0.13457515800E+04  0.25500000920E-02 0. -1.
    10030    2    1    2    0    0  0.00000000000E+00  0.00000000000E+00 -0.11205930586E+04  0.15709101013E+04  0.11009222241E+04 0.  0.
        3    1    3    3  502    0 -0.31910200838E+03 -0.13380630709E+03 -0.11711667038E+04  0.12212131992E+04  0.10100000352E+00 0. -1.
       -3    1    3    3    0  502  0.31910200838E+03  0.13380630709E+03  0.50573645231E+02  0.34969690213E+03  0.10100000352E+00 0.  1.
</event>
<event>
 5   0  0.1553937E-04  0.1100330E+04  0.7818609E-02  0.9204871E-01
        2   -1    0    0  501    0  0.00000000000E+00  0.00000000000E+00  0.11594077841E+04  0.11594077841E+04  0.25500000920E-02 0. -1.
       -2   -1    0    0    0  501  0.00000000000E+00  0.00000000000E+00 -0.26106542038E+03  0.26106542040E+03  0.25500000920E-02 0.  1.
    10030    2    1    2    0    0  0.00000000000E+00  0.00000000000E+00  0.89834236376E+03  0.14204732045E+04  0.11003295517E+04 0.  0.
        1    1    3    3  502    0  0.16605967871E+03  0.11615782712E+03 -0.21112651457E+03  0.29264801875E+03  0.50400001928E-02 0.  1.
       -1    1    3    3    0  502 -0.16605967871E+03 -0.11615782712E+03  0.11094688783E+04  0.11278251858E+04  0.50400001928E-02 0. -1.
</event>
<event>
 5   0  0.6010125E-05  0.1100367E+04  0.7818609E-02  0.9204834E-01
       -3   -1    0    0    0  501  0.00000000000E+00  0.00000000000E+00  0.72877145788E+03  0.72877146488E+03  0.10100000352E+00 0.  1.
        3   -1    0    0  501    0  0.00000000000E+00  0.00000000000E+00 -0.41535905723E+03  0.41535906951E+03  0.10100000352E+00 0. -1.
    10030    2    1    2    0    0  0.00000000000E+00  0.00000000000E+00  0.31341240065E+03  0.11441305344E+04  0.11003669146E+04 0.  0.
        1    1    3    3  502    0  0.23819111761E+03 -0.23717589136E+03  0.60959150523E+03  0.69612442510E+03  0.50400001928E-02 0.  1.
       -1    1    3    3    0  502 -0.23819111761E+03  0.23717589136E+03 -0.29617910458E+03  0.44800610929E+03  0.50400001928E-02 0. -1.
</event>
<event>
 5   0  0.9346836E-05  0.1099821E+04  0.7818609E-02  0.9205367E-01
       -1   -1    0    0    0  501  0.00000000000E+00  0.00000000000E+00  0.96195764240E+03  0.96195764241E+03  0.50400001928E-02 0.  1.
        1   -1    0    0  501    0  0.00000000000E+00  0.00000000000E+00 -0.31436029561E+03  0.31436029565E+03  0.50400001928E-02 0. -1.
    10030    2    1    2    0    0  0.00000000000E+00  0.00000000000E+00  0.64759734679E+03  0.12763179381E+04  0.10998205106E+04 0.  0.
        5    1    3    3  502    0  0.12952181399E+02 -0.23752592707E+03 -0.25153752877E+03  0.34623625375E+03  0.46999998093E+01 0. -1.
       -5    1    3    3    0  502 -0.12952181399E+02  0.23752592707E+03  0.89913487556E+03  0.93008168431E+03  0.46999998093E+01 0.  1.
</event>
<event>
 5   0  0.8621738E-05  0.1099830E+04  0.7818609E-02  0.9205357E-01
        1   -1    0    0  501    0  0.00000000000E+00  0.00000000000E+00  0.51745748490E+03  0.51745748492E+03  0.50400001928E-02 0.  1.
       -1   -1    0    0    0  501  0.00000000000E+00  0.00000000000E+00 -0.58440855246E+03  0.58440855248E+03  0.50400001928E-02 0. -1.
    10030    2    1    2    0    0  0.00000000000E+00  0.00000000000E+00 -0.66951067560E+02  0.11018660374E+04  0.10998301319E+04 0.  0.
        2    1    3    3  502    0  0.51540981808E+03  0.44079918574E+02  0.15346102396E+03  0.53957446722E+03  0.25500000920E-02 0.  1.
       -2    1    3    3    0  502 -0.51540981808E+03 -0.44079918574E+02 -0.22041209152E+03  0.56229157018E+03  0.25500000920E-02 0. -1.
</event>
<event>
 5   0  0.9346836E-05  0.1100574E+04  0.7818609E-02  0.9204633E-01
        1   -1    0    0  501    0  0.00000000000E+00  0.00000000000E+00  0.12687578421E+04  0.12687578421E+04  0.50400001928E-02 0.  1.
       -1   -1    0    0    0  501  0.00000000000E+00  0.00000000000E+00 -0.23867109521E+03  0.23867109527E+03  0.50400001928E-02 0. -1.
    10030    2    1    2    0    0  0.00000000000E+00  0.00000000000E+00  0.10300867469E+04  0.15074289374E+04  0.11005740753E+04 0.  0.
        5    1    3    3  502    0 -0.40049182226E+03  0.36285292639E+03  0.37311311942E+03  0.65672782472E+03  0.46999998093E+01 0. -1.
       -5    1    3    3    0  502  0.40049182226E+03 -0.36285292639E+03  0.65697362744E+03  0.85070111263E+03  0.46999998093E+01 0.  1.
</event>
<event>
 5   0  0.8621738E-05  0.1100690E+04  0.7818609E-02  0.9204519E-01
        1   -1    0    0  501    0  0.00000000000E+00  0.00000000000E+00  0.64971760048E+03  0.64971760050E+03  0.50400001928E-02 0. -1.
       -1   -1    0    0    0  501  0.00000000000E+00  0.00000000000E+00 -0.46617147480E+03  0.46617147483E+03  0.50400001928E-02 0.  1.
    10030    2    1    2    0    0  0.00000000000E+00  0.00000000000E+00  0.18354612568E+03  0.11158890753E+04  0.11006903507E+04 0.  0.
        2    1    3    3  502    0  0.12712794345E+03  0.23275985221E+02  0.63411460370E+03  0.64715115400E+03  0.25500000920E-02 0. -1.
       -2    1    3    3    0  502 -0.12712794345E+03 -0.23275985221E+02 -0.45056847802E+03  0.46873792132E+03  0.25500000920E-02 0.  1.
</event>
<event>
 5   0  0.9346836E-05  0.1100112E+04  0.7818609E-02  0.9205082E-01
        1   -1    0    0  501    0  0.00000000000E+00  0.00000000000E+00  0.69338307606E+03  0.69338307608E+03  0.50400001928E-02 0.  1.
       -1   -1    0    0    0  501  0.00000000000E+00  0.00000000000E+00 -0.43635585612E+03  0.43635585615E+03  0.50400001928E-02 0. -1.
    10030    2    1    2    0    0  0.00000000000E+00  0.00000000000E+00  0.25702721994E+03  0.11297389322E+04  0.11001122957E+04 0.  0.
        5    1    3    3  502    0  0.36296427891E+03  0.20430751396E+03  0.49743053033E+03  0.64880185768E+03  0.46999998093E+01 0.  1.
       -5    1    3    3    0  502 -0.36296427891E+03 -0.20430751396E+03 -0.24040331039E+03  0.48093707454E+03  0.46999998093E+01 0. -1.
</event>
<event>
 5   0  0.6010125E-05  0.1100153E+04  0.7818609E-02  0.9205043E-01
        4   -1    0    0  501    0  0.00000000000E+00  0.00000000000E+00  0.25961693817E+03  0.25962004446E+03  0.12699999809E+01 0.  1.
       -4   -1    0    0    0  501  0.00000000000E+00  0.00000000000E+00 -0.11654919828E+04  0.11654926748E+04  0.12699999809E+01 0. -1.
    10030    2    1    2    0    0  0.00000000000E+00  0.00000000000E+00 -0.90587504464E+03  0.14251127192E+04  0.11001530193E+04 0.  0.
        4    1    3    3  502    0  0.28908929514E+02  0.52382132374E+03 -0.66719632628E+03  0.84875029079E+03  0.12699999809E+01 0. -1.
       -4    1    3    3    0  502 -0.28908929514E+02 -0.52382132374E+03 -0.23867871836E+03  0.57636242843E+03  0.12699999809E+01 0.  1.
</event>
<event>
 5   0  0.1464205E-04  0.1100275E+04  0.7818609E-02  0.9204924E-01
       -2   -1    0    0    0  501  0.00000000000E+00  0.00000000000E+00  0.17955485527E+03  0.17955485529E+03  0.25500000920E-02 0.  1.
        2   -1    0    0  501    0  0.00000000000E+00  0.00000000000E+00 -0.16855630504E+04  0.16855630504E+04  0.25500000920E-02 0. -1.
    10030    2    1    2    0    0  0.00000000000E+00  0.00000000000E+00 -0.15060081952E+04  0.18651179057E+04  0.11002745650E+04 0.  0.
        3    1    3    3  502    0 -0.57903764230E+02  0.23302830422E+03  0.86039832109E+02  0.25506450045E+03  0.10100000352E+00 0.  1.
       -3    1    3    3    0  502  0.57903764230E+02 -0.23302830422E+03 -0.15920480273E+04  0.16100534053E+04  0.10100000352E+00 0. -1.
</event>
<event>
 5   0  0.1540772E-04  0.1098877E+04  0.7818609E-02  0.9206287E-01
        2   -1    0    0  501    0  0.00000000000E+00  0.00000000000E+00  0.12280572601E+04  0.12280572601E+04  0.25500000920E-02 0. -1.
       -2   -1    0    0    0  501  0.00000000000E+00  0.00000000000E+00 -0.24582129324E+03  0.24582129325E+03  0.25500000920E-02 0.  1.
    10030    2    1    2    0    0  0.00000000000E+00  0.00000000000E+00  0.98223596688E+03  0.14738785534E+04  0.10988769246E+04 0.  0.
        2    1    3    3  502    0  0.12405777322E+03  0.16914796037E+03  0.11722362659E+04  0.11908565097E+04  0.25500000920E-02 0. -1.
       -2    1    3    3    0  502 -0.12405777322E+03 -0.16914796037E+03 -0.19000029899E+03  0.28302204370E+03  0.25500000920E-02 0.  1.
</event>
<event>
 5   0  0.1553937E-04  0.1099910E+04  0.7818609E-02  0.9205280E-01
       -2   -1    0    0    0  501  0.00000000000E+00  0.00000000000E+00  0.26916476721E+03  0.26916476723E+03  0.25500000920E-02 0.  1.
        2   -1    0    0  501    0  0.00000000000E+00  0.00000000000E+00 -0.11236626399E+04  0.11236626399E+04  0.25500000920E-02 0. -1.
    10030    2    1    2    0    0  0.00000000000E+00  0.00000000000E+00 -0.85449787268E+03  0.13928274071E+04  0.10999098016E+04 0.  0.
        1    1    3    3  502    0  0.17177496276E+03  0.24753811645E+03  0.15534839013E+03  0.33899097225E+03  0.50400001928E-02 0.  1.
       -1    1    3    3    0  502 -0.17177496276E+03 -0.24753811645E+03 -0.10098462628E+04  0.10538364349E+04  0.50400001928E-02 0. -1.
</event>
<event>
 5   0  0.8621738E-05  0.1099817E+04  0.7818609E-02  0.9205370E-01
       -1   -1    0    0    0  501  0.00000000000E+00  0.00000000000E+00  0.64386256856E+03  0.64386256858E+03  0.50400001928E-02 0. -1.
        1   -1    0    0  501    0  0.00000000000E+00  0.00000000000E+00 -0.46966476355E+03  0.46966476358E+03  0.50400001928E-02 0.  1.
    10030    2    1    2    0    0  0.00000000000E+00  0.00000000000E+00  0.17419780501E+03  0.11135273322E+04  0.10998173686E+04 0.  0.
        2    1    3    3  502    0  0.54524500656E+02 -0.27727962805E+02 -0.46620946557E+03  0.47020530291E+03  0.25500000920E-02 0.  1.
       -2    1    3    3    0  502 -0.54524500656E+02  0.27727962805E+02  0.64040727058E+03  0.64332202925E+03  0.25500000920E-02 0. -1.
</event>
<event>
 5   0  0.1574101E-04  0.1099806E+04  0.7818609E-02  0.9205381E-01
        2   -1    0    0  501    0  0.00000000000E+00  0.00000000000E+00  0.47976506314E+03  0.47976506314E+03  0.25500000920E-02 0.  1.
       -2   -1    0    0    0  501  0.00000000000E+00  0.00000000000E+00 -0.63029427049E+03  0.63029427050E+03  0.25500000920E-02 0. -1.
    10030    2    1    2    0    0  0.00000000000E+00  0.00000000000E+00 -0.15052920736E+03  0.11100593336E+04  0.10998057474E+04 0.  0.
        4    1    3    3  502    0  0.36094522005E+02  0.15035147639E+03  0.45737038292E+03  0.48280188591E+03  0.12699999809E+01 0.  1.
       -4    1    3    3    0  502 -0.36094522005E+02 -0.15035147639E+03 -0.60789959028E+03  0.62725744773E+03  0.12699999809E+01 0. -1.
</event>
<event>
 5   0  0.9016738E-05  0.1101494E+04  0.7818609E-02  0.9203737E-01
        1   -1    0    0  501    0  0.00000000000E+00  0.00000000000E+00  0.55037790618E+03  0.55037790620E+03  0.50400001928E-02 0. -1.
       -1   -1    0    0    0  501  0.00000000000E+00  0.00000000000E+00 -0.55111627963E+03  0.55111627966E+03  0.50400001928E-02 0.  1.
    10030    2    1    2    0    0  0.00000000000E+00  0.00000000000E+00 -0.73837345465E+00  0.11014941859E+04  0.11014939384E+04 0.  0.
        4    1    3    3  502    0 -0.13029127186E+03 -0.31784977437E+03  0.43011472686E+03  0.55045852319E+03  0.12699999809E+01 0. -1.
       -4    1    3    3    0  502  0.13029127186E+03  0.31784977437E+03 -0.43085310031E+03  0.55103566267E+03  0.12699999809E+01 0.  1.
</event>
<event>
 5   0  0.8621738E-05  0.1100050E+04  0.7818609E-02  0.9205143E-01
        1   -1    0    0  501    0  0.00000000000E+00  0.00000000000E+00  0.54650936631E+03  0.54650936634E+03  0.50400001928E-02 0.  1.
       -1   -1    0    0    0  501  0.00000000000E+00  0.00000000000E+00 -0.55356359502E+03  0.55356359504E+03  0.50400001928E-02 0. -1.
    10030    2    1    2    0    0  0.00000000000E+00  0.00000000000E+00 -0.70542287084E+01  0.11000729614E+04  0.11000503435E+04 0.  0.
        2    1    3    3  502    0  0.45764515385E+02 -0.38005928873E+03  0.39143446640E+03  0.54750378566E+03  0.25500000920E-02 0.  1.
       -2    1    3    3    0  502 -0.45764515385E+02  0.38005928873E+03 -0.39848869511E+03  0.55256917572E+03  0.25500000920E-02 0. -1.
</event>
<event>
 5   0  0.1464205E-04  0.1099942E+04  0.7818609E-02  0.9205248E-01
       -2   -1    0    0    0  501  0.00000000000E+00  0.00000000000E+00  0.18074045077E+03  0.18074045079E+03  0.25500000920E-02 0. -1.
        2   -1    0    0  501    0  0.00000000000E+00  0.00000000000E+00 -0.16734950559E+04  0.16734950559E+04  0.25500000920E-02 0.  1.
    10030    2    1    2    0    0  0.00000000000E+00  0.00000000000E+00 -0.14927546051E+04  0.18542355067E+04  0.10999422726E+04 0.  0.
        3    1    3    3  502    0 -0.63714044235E+02  0.41326157585E+03 -0.14414985071E+03  0.44229379283E+03  0.10100000352E+00 0. -1.
       -3    1    3    3    0  502  0.63714044235E+02 -0.41326157585E+03 -0.13486047544E+04  0.14119417139E+04  0.10100000352E+00 0.  1.
</event>
<event>
 5   0  0.8921459E-05  0.1099811E+04  0.7818609E-02  0.9205376E-01
       -1   -1    0    0    0  501  0.00000000000E+00  0.00000000000E+00  0.44144761863E+03  0.44144761865E+03  0.50400001928E-02 0.  1.
        1   -1    0    0  501    0  0.00000000000E+00  0.00000000000E+00 -0.68500957240E+03  0.68500957242E+03  0.50400001928E-02 0. -1.
    10030    2    1    2    0    0  0.00000000000E+00  0.00000000000E+00 -0.24356195378E+03  0.11264571911E+04  0.10998106101E+04 0.  0.
        3    1    3    3  502    0  0.18330024342E+03  0.27415769190E+03 -0.57248149847E+03  0.66067881422E+03  0.10100000352E+00 0. -1.
       -3    1    3    3    0  502 -0.18330024342E+03 -0.27415769190E+03  0.32891954469E+03  0.46577837686E+03  0.10100000352E+00 0.  1.
</event>
<event>
 5   0  0.1464205E-04  0.1099236E+04  0.7818609E-02  0.9205937E-01
       -2   -1    0    0    0  501  0.00000000000E+00  0.00000000000E+00  0.44500943388E+03  0.44500943389E+03  0.25500000920E-02 0.  1.
        2   -1    0    0  501    0  0.00000000000E+00  0.00000000000E+00 -0.67881709451E+03  0.67881709452E+03  0.25500000920E-02 0. -1.
    10030    2    1    2    0    0  0.00000000000E+00  0.00000000000E+00 -0.23380766063E+03  0.11238265284E+04  0.10992361183E+04 0.  0.
        3    1    3    3  502    0  0.33349221904E+03  0.12628703263E+03 -0.54448761641E+03  0.65087037833E+03  0.10100000352E+00 0. -1.
       -3    1    3    3    0  502 -0.33349221904E+03 -0.12628703263E+03  0.31067995578E+03  0.47295615007E+03  0.10100000352E+00 0.  1.
</event>
<event>
 5   0  0.6010125E-05  0.1100108E+04  0.7818609E-02  0.9205087E-01
       -3   -1    0    0    0  501  0.00000000000E+00  0.00000000000E+00  0.61435370323E+03  0.61435371153E+03  0.10100000352E+00 0.  1.
        3   -1    0    0  501    0  0.00000000000E+00  0.00000000000E+00 -0.49248406106E+03  0.49248407142E+03  0.10100000352E+00 0. -1.
    10030    2    1    2    0    0  0.00000000000E+00  0.00000000000E+00  0.12186964217E+03  0.11068377829E+04  0.11001080256E+04 0.  0.
        3    1    3    3  502    0 -0.43510556302E+03 -0.26573908201E+03  0.26865675029E+03  0.57629035247E+03  0.10100000352E+00 0.  1.
       -3    1    3    3    0  502  0.43510556302E+03  0.26573908201E+03 -0.14678710812E+03  0.53054743048E+03  0.10100000352E+00 0. -1.
</event>
<event>
 5   0  0.9016738E-05  0.1100094E+04  0.7818609E-02  0.9205100E-01
       -1   -1    0    0    0  501  0.00000000000E+00  0.00000000000E+00  0.60332804834E+03  0.60332804836E+03  0.50400001928E-02 0.  1.
        1   -1    0    0  501    0  0.00000000000E+00  0.00000000000E+00 -0.50147155278E+03  0.50147155280E+03  0.50400001928E-02 0. -1.
    10030    2    1    2    0    0  0.00000000000E+00  0.00000000000E+00  0.10185649557E+03  0.11047996012E+04  0.11000942746E+04 0.  0.
        4    1    3    3  502    0  0.31700383036E+02  0.52903713465E+03 -0.96891791814E+02  0.53877159942E+03  0.12699999809E+01 0.  1.
       -4    1    3    3    0  502 -0.31700383036E+02 -0.52903713465E+03  0.19874828738E+03  0.56602800174E+03  0.12699999809E+01 0. -1.
</event>
<event>
 5   0  0.9346836E-05  0.1100133E+04  0.7818609E-02  0.9205063E-01
       -1   -1    0    0    0  501  0.00000000000E+00  0.00000000000E+00  0.28061651346E+03  0.28061651351E+03  0.50400001928E-02 0.  1.
        1   -1    0    0  501    0  0.00000000000E+00  0.00000000000E+00 -0.10782437173E+04  0.10782437173E+04  0.50400001928E-02 0. -1.
    10030    2    1    2    0    0  0.00000000000E+00  0.00000000000E+00 -0.79762720385E+03  0.13588602308E+04  0.11001327059E+04 0.  0.
        5    1    3    3  502    0  0.42778208665E+03 -0.18980228393E+03 -0.75579616793E+03  0.88897264193E+03  0.46999998093E+01 0. -1.
       -5    1    3    3    0  502 -0.42778208665E+03  0.18980228393E+03 -0.41831035918E+02  0.46988758890E+03  0.46999998093E+01 0.  1.
</event>
<event>
 5   0  0.1464205E-04  0.1100290E+04  0.7818609E-02  0.9204909E-01
        2   -1    0    0  501    0  0.00000000000E+00  0.00000000000E+00  0.27011547771E+03  0.27011547772E+03  0.25500000920E-02 0. -1.
       -2   -1    0    0    0  501  0.00000000000E+00  0.00000000000E+00 -0.11204821217E+04  0.11204821217E+04  0.25500000920E-02 0.  1.
    10030    2    1    2    0    0  0.00000000000E+00  0.00000000000E+00 -0.85036664395E+03  0.13905975994E+04  0.11002900773E+04 0.  0.
        3    1    3    3  502    0 -0.18879632087E+03  0.83609054535E+02  0.21928541594E+03  0.30119865308E+03  0.10100000352E+00 0. -1.
       -3    1    3    3    0  502  0.18879632087E+03 -0.83609054535E+02 -0.10696520599E+04  0.10893989463E+04  0.10100000352E+00 0.  1.
</event>
<event>
 5   0  0.8657442E-05  0.1093869E+04  0.7818609E-02  0.9211188E-01
        1   -1    0    0  501    0  0.00000000000E+00  0.00000000000E+00  0.17655988468E+04  0.17655988468E+04  0.50400001928E-02 0.  1.
       -1   -1    0    0    0  501  0.00000000000E+00  0.00000000000E+00 -0.16942541400E+03  0.16942541407E+03  0.50400001928E-02 0. -1.
    10030    2    1    2    0    0  0.00000000000E+00  0.00000000000E+00  0.15961734328E+04  0.19350242609E+04  0.10938689421E+04 0.  0.
        1    1    3    3  502    0 -0.25395763801E+03 -0.72106032326E+02  0.16454293400E+04  0.16664727645E+04  0.50400001928E-02 0.  1.
       -1    1    3    3    0  502  0.25395763801E+03  0.72106032326E+02 -0.49255907187E+02  0.26855149640E+03  0.50400001928E-02 0. -1.
</event>
<event>
 5   0  0.1503277E-04  0.1098960E+04  0.7818609E-02  0.9206206E-01
       -2   -1    0    0    0  501  0.00000000000E+00  0.00000000000E+00  0.29268135376E+03  0.29268135377E+03  0.25500000920E-02 0.  1.
        2   -1    0    0  501    0  0.00000000000E+00  0.00000000000E+00 -0.10315937218E+04  0.10315937218E+04  0.25500000920E-02 0. -1.
    10030    2    1    2    0    0  0.00000000000E+00  0.00000000000E+00 -0.73891236800E+03  0.13242750755E+04  0.10989599575E+04 0.  0.
        5    1    3    3  502    0 -0.45903934177E+03 -0.21860108753E+03 -0.62050271886E+03  0.80221522479E+03  0.46999998093E+01 0. -1.
       -5    1    3    3    0  502  0.45903934177E+03  0.21860108753E+03 -0.11840964914E+03  0.52205985075E+03  0.46999998093E+01 0.  1.
</event>
<event>
 5   0  0.8621738E-05  0.1099897E+04  0.7818609E-02  0.9205292E-01
        1   -1    0    0  501    0  0.00000000000E+00  0.00000000000E+00  0.16553786262E+04  0.16553786262E+04  0.50400001928E-02 0. -1.
       -1   -1    0    0    0  501  0.00000000000E+00  0.00000000000E+00 -0.18270345776E+03  0.18270345783E+03  0.50400001928E-02 0.  1.
    10030    2    1    2    0    0  0.00000000000E+00  0.00000000000E+00  0.14726751685E+04  0.18380820841E+04  0.10998970843E+04 0.  0.
        2    1    3    3  502    0  0.31016507240E+03 -0.42940169008E+03  0.48928443357E+03  0.72110154661E+03  0.25500000920E-02 0.  1.
       -2    1    3    3    0  502 -0.31016507240E+03  0.42940169008E+03  0.98339073489E+03  0.11169805375E+04  0.25500000920E-02 0. -1.
</event>
<event>
 5   0  0.8657442E-05  0.1099577E+04  0.7818609E-02  0.9205604E-01
        1   -1    0    0  501    0  0.00000000000E+00  0.00000000000E+00  0.96722393614E+03  0.96722393615E+03  0.50400001928E-02 0. -1.
       -1   -1    0    0    0  501  0.00000000000E+00  0.00000000000E+00 -0.31251045724E+03  0.31251045728E+03  0.50400001928E-02 0.  1.
    10030    2    1    2    0    0  0.00000000000E+00  0.00000000000E+00  0.65471347890E+03  0.12797343934E+04  0.10995773635E+04 0.  0.
        1    1    3    3  502    0  0.22217987417E+03 -0.48900391885E+03  0.19074098639E+03  0.56997443193E+03  0.50400001928E-02 0.  1.
       -1    1    3    3    0  502 -0.22217987417E+03  0.48900391885E+03  0.46397249250E+03  0.70975996151E+03  0.50400001928E-02 0. -1.
</event>
<event>
 5   0  0.6010125E-05  0.1099647E+04  0.7818609E-02  0.9205536E-01
       -3   -1    0    0    0  501  0.00000000000E+00  0.00000000000E+00  0.84080857578E+03  0.84080858184E+03  0.10100000352E+00 0. -1.
        3   -1    0    0  501    0  0.00000000000E+00  0.00000000000E+00 -0.35954198082E+03  0.35954199501E+03  0.10100000352E+00 0.  1.
    10030    2    1    2    0    0  0.00000000000E+00  0.00000000000E+00  0.48126659495E+03  0.12003505769E+04  0.10996472034E+04 0.  0.
        1    1    3    3  502    0 -0.34265315479E+03 -0.17564151527E+02  0.70961346168E+03  0.78820742760E+03  0.50400001928E-02 0. -1.
       -1    1    3    3    0  502  0.34265315479E+03  0.17564151527E+02 -0.22834686673E+03  0.41214314925E+03  0.50400001928E-02 0.  1.
</event>
<event>
 5   0  0.8921459E-05  0.1100039E+04  0.7818609E-02  0.9205154E-01
        1   -1    0    0  501    0  0.00000000000E+00  0.00000000000E+00  0.69191854778E+03  0.69191854779E+03  0.50400001928E-02 0. -1.
       -1   -1    0    0    0  501  0.00000000000E+00  0.00000000000E+00 -0.43722100783E+03  0.43722100786E+03  0.50400001928E-02 0.  1.
    10030    2    1    2    0    0  0.00000000000E+00  0.00000000000E+00  0.25469753995E+03  0.11291395557E+04  0.11000387717E+04 0.  0.
        3    1    3    3  502    0 -0.38413734599E+03  0.38547154787E+03  0.20928207368E+03  0.58305129394E+03  0.10100000352E+00 0. -1.
       -3    1    3    3    0  502  0.38413734599E+03 -0.38547154787E+03  0.45415466265E+02  0.54608826171E+03  0.10100000352E+00 0.  1.
</event>
<event>
 5   0  0.1540772E-04  0.1099525E+04  0.7818609E-02  0.9205655E-01
       -2   -1    0    0    0  501  0.00000000000E+00  0.00000000000E+00  0.15700614595E+03  0.15700614597E+03  0.25500000920E-02 0. -1.
        2   -1    0    0  501    0  0.00000000000E+00  0.00000000000E+00 -0.19250130588E+04  0.19250130588E+04  0.25500000920E-02 0.  1.
    10030    2    1    2    0    0  0.00000000000E+00  0.00000000000E+00 -0.17680069129E+04  0.20820192048E+04  0.10995251362E+04 0.  0.
        2    1    3    3  502    0  0.15472067923E+03 -0.13882899295E+03  0.79719059717E+02  0.22263671385E+03  0.25500000920E-02 0. -1.
       -2    1    3    3    0  502 -0.15472067923E+03  0.13882899295E+03 -0.18477259726E+04  0.18593824909E+04  0.25500000920E-02 0.  1.
</event>
<event>
 5   0  0.1553937E-04  0.1099678E+04  0.7818609E-02  0.9205506E-01
       -2   -1    0    0    0  501  0.00000000000E+00  0.00000000000E+00  0.13341488357E+03  0.13341488360E+03  0.25500000920E-02 0.  1.
        2   -1    0    0  501    0  0.00000000000E+00  0.00000000000E+00 -0.22660369567E+04  0.22660369567E+04  0.25500000920E-02 0. -1.
    10030    2    1    2    0    0  0.00000000000E+00  0.00000000000E+00 -0.21326220731E+04  0.23994518403E+04  0.10996782380E+04 0.  0.
        1    1    3    3  502    0 -0.37636447107E+03  0.26229473038E+03 -0.17276794759E+04  0.17875472336E+04  0.50400001928E-02 0. -1.
       -1    1    3    3    0  502  0.37636447107E+03 -0.26229473038E+03 -0.40494259717E+03  0.61190460670E+03  0.50400001928E-02 0.  1.
</event>
<event>
 5   0  0.9016738E-05  0.1100224E+04  0.7818609E-02  0.9204973E-01
       -1   -1    0    0    0  501  0.00000000000E+00  0.00000000000E+00  0.93484244295E+03  0.93484244296E+03  0.50400001928E-02 0. -1.
        1   -1    0    0  501    0  0.00000000000E+00  0.00000000000E+00 -0.32371579251E+03  0.32371579255E+03  0.50400001928E-02 0.  1.
    10030    2    1    2    0    0  0.00000000000E+00  0.00000000000E+00  0.61112665044E+03  0.12585582355E+04  0.11002240905E+04 0.  0.
        4    1    3    3  502    0  0.17999130997E+03  0.45290616273E+03  0.13696132950E+02  0.48755518751E+03  0.12699999809E+01 0.  1.
       -4    1    3    3    0  502 -0.17999130997E+03 -0.45290616273E+03  0.59743051749E+03  0.77100304800E+03  0.12699999809E+01 0. -1.
</event>
<event>
 5   0  0.8921459E-05  0.1099144E+04  0.7818609E-02  0.9206027E-01
       -1   -1    0    0    0  501  0.00000000000E+00  0.00000000000E+00  0.72763770254E+03  0.72763770256E+03  0.50400001928E-02 0. -1.
        1   -1    0    0  501    0  0.00000000000E+00  0.00000000000E+00 -0.41508215765E+03  0.41508215769E+03  0.50400001928E-02 0.  1.
    10030    2    1    2    0    0  0.00000000000E+00  0.00000000000E+00  0.31255554489E+03  0.11427198602E+04  0.10991440808E+04 0.  0.
        3    1    3    3  502    0 -0.26113230428E+03  0.16831491015E+03  0.62758166347E+03  0.70027047906E+03  0.10100000352E+00 0. -1.
       -3    1    3    3    0  502  0.26113230428E+03 -0.16831491015E+03 -0.31502611859E+03  0.44244938118E+03  0.10100000352E+00 0.  1.
</event>
<event>
 5   0  0.8657442E-05  0.1100929E+04  0.7818609E-02  0.9204287E-01
        1   -1    0    0  501    0  0.00000000000E+00  0.00000000000E+00  0.39603386656E+03  0.39603386659E+03  0.50400001928E-02 0. -1.
       -1   -1    0    0    0  501  0.00000000000E+00  0.00000000000E+00 -0.76511446152E+03  0.76511446154E+03  0.50400001928E-02 0.  1.
    10030    2    1    2    0    0  0.00000000000E+00  0.00000000000E+00 -0.36908059497E+03  0.11611483281E+04  0.11009291323E+04 0.  0.
        1    1    3    3  502    0 -0.41964664080E+03 -0.24525062905E+03  0.87972379890E+02  0.49395375678E+03  0.50400001928E-02 0. -1.
       -1    1    3    3    0  502  0.41964664080E+03  0.24525062905E+03 -0.45705297486E+03  0.66719457135E+03  0.50400001928E-02 0.  1.
</event>
<event>
 5   0  0.8621738E-05  0.1099892E+04  0.7818609E-02  0.9205297E-01
        1   -1    0    0  501    0  0.00000000000E+00  0.00000000000E+00  0.14827174797E+04  0.14827174797E+04  0.50400001928E-02 0.  1.
       -1   -1    0    0    0  501  0.00000000000E+00  0.00000000000E+00 -0.20397725623E+03  0.20397725629E+03  0.50400001928E-02 0. -1.
    10030    2    1    2    0    0  0.00000000000E+00  0.00000000000E+00  0.12787402234E+04  0.16866947360E+04  0.10998920735E+04 0.  0.
        2    1    3    3  502    0 -0.37586425519E+03  0.35382724244E+02  0.26129789455E+02  0.37842917622E+03  0.25500000920E-02 0. -1.
       -2    1    3    3    0  502  0.37586425519E+03 -0.35382724244E+02  0.12526104340E+04  0.13082655597E+04  0.25500000920E-02 0.  1.
</event>
<event>
 5   0  0.1553937E-04  0.1100601E+04  0.7818609E-02  0.9204606E-01
       -2   -1    0    0    0  501  0.00000000000E+00  0.00000000000E+00  0.26565101101E+03  0.26565101102E+03  0.25500000920E-02 0. -1.
        2   -1    0    0  501    0  0.00000000000E+00  0.00000000000E+00 -0.11399566721E+04  0.11399566721E+04  0.25500000920E-02 0.  1.
    10030    2    1    2    0    0  0.00000000000E+00  0.00000000000E+00 -0.87430566105E+03  0.14056076831E+04  0.11006010039E+04 0.  0.
        1    1    3    3  502    0 -0.46324022183E+03 -0.63895325142E+02 -0.80764422022E+03  0.93325414661E+03  0.50400001928E-02 0.  1.
       -1    1    3    3    0  502  0.46324022183E+03  0.63895325142E+02 -0.66661440828E+02  0.47235353647E+03  0.50400001928E-02 0. -1.
</event>
<event>
 5   0  0.1464205E-04  0.1099803E+04  0.7818609E-02  0.9205384E-01
        2   -1    0    0  501    0  0.00000000000E+00  0.00000000000E+00  0.26255319062E+03  0.26255319063E+03  0.25500000920E-02 0. -1.
       -2   -1    0    0    0  501  0.00000000000E+00  0.00000000000E+00 -0.11517343313E+04  0.11517343313E+04  0.25500000920E-02 0.  1.
    10030    2    1    2    0    0  0.00000000000E+00  0.00000000000E+00 -0.88918114069E+03  0.14142875220E+04  0.10998027522E+04 0.  0.
        3    1    3    3  502    0 -0.34549730902E+03 -0.18920042075E+03  0.48828170954E+02  0.39692491762E+03  0.10100000352E+00 0. -1.
       -3    1    3    3    0  502  0.34549730902E+03  0.18920042075E+03 -0.93800931165E+03  0.10173626043E+04  0.10100000352E+00 0.  1.
</event>
<event>
 5   0  0.8921459E-05  0.1099718E+04  0.7818609E-02  0.9205467E-01
       -1   -1    0    0    0  501  0.00000000000E+00  0.00000000000E+00  0.57744976648E+03  0.57744976650E+03  0.50400001928E-02 0.  1.
        1   -1    0    0  501    0  0.00000000000E+00  0.00000000000E+00 -0.52358659662E+03  0.52358659665E+03  0.50400001928E-02 0. -1.
    10030    2    1    2    0    0  0.00000000000E+00  0.00000000000E+00  0.53863169857E+02  0.11010363631E+04  0.10997180693E+04 0.  0.
        3    1    3    3  502    0 -0.95553798757E+02 -0.30529112352E+03  0.47469443208E+03  0.57242293159E+03  0.10100000352E+00 0.  1.
       -3    1    3    3    0  502  0.95553798757E+02  0.30529112352E+03 -0.42083126223E+03  0.52861343156E+03  0.10100000352E+00 0. -1.
</event>
<event>
 5   0  0.1574101E-04  0.1100237E+04  0.7818609E-02  0.9204961E-01
       -2   -1    0    0    0  501  0.00000000000E+00  0.00000000000E+00  0.30922564824E+03  0.30922564825E+03  0.25500000920E-02 0. -1.
        2   -1    0    0  501    0  0.00000000000E+00  0.00000000000E+00 -0.97867122773E+03  0.97867122774E+03  0.25500000920E-02 0.  1.
    10030    2    1    2    0    0  0.00000000000E+00  0.00000000000E+00 -0.66944557950E+03  0.12878968760E+04  0.11002367833E+04 0.  0.
        4    1    3    3  502    0 -0.15622449117E+03 -0.31685167840E+03 -0.82834473270E+03  0.90053189107E+03  0.12699999809E+01 0.  1.
       -4    1    3    3    0  502  0.15622449117E+03  0.31685167840E+03  0.15889915320E+03  0.38736498491E+03  0.12699999809E+01 0. -1.
</event>
<event>
 5   0  0.8921459E-05  0.1100086E+04  0.7818609E-02  0.9205108E-01
        1   -1    0    0  501    0  0.00000000000E+00  0.00000000000E+00  0.24954332739E+03  0.24954332744E+03  0.50400001928E-02 0. -1.
       -1   -1    0    0    0  501  0.00000000000E+00  0.00000000000E+00 -0.12124049295E+04  0.12124049295E+04  0.50400001928E-02 0.  1.
    10030    2    1    2    0    0  0.00000000000E+00  0.00000000000E+00 -0.96286160206E+03  0.14619482569E+04  0.11000864698E+04 0.  0.
        3    1    3    3  502    0  0.43970077961E+02 -0.61277271624E+02  0.24263909600E+03  0.25409056040E+03  0.10100000352E+00 0. -1.
       -3    1    3    3    0  502 -0.43970077961E+02  0.61277271624E+02 -0.12055006981E+04  0.12078576965E+04  0.10100000352E+00 0.  1.
</event>
<event>
 5   0  0.8921459E-05  0.1107010E+04  0.7818609E-02  0.9198386E-01
        1   -1    0    0  501    0  0.00000000000E+00  0.00000000000E+00  0.34042284637E+03  0.34042284641E+03  0.50400001928E-02 0. -1.
       -1   -1    0    0    0  501  0.00000000000E+00  0.00000000000E+00 -0.89996275470E+03  0.89996275471E+03  0.50400001928E-02 0.  1.
    10030    2    1    2    0    0  0.00000000000E+00  0.00000000000E+00 -0.55953990833E+03  0.12403856011E+04  0.11070101763E+04 0.  0.
        3    1    3    3  502    0  0.15461629102E+03  0.26683425618E+03  0.23523917503E+03  0.38787136706E+03  0.10100000352E+00 0. -1.
       -3    1    3    3    0  502 -0.15461629102E+03 -0.26683425618E+03 -0.79477908336E+03  0.85251423405E+03  0.10100000352E+00 0.  1.
</event>
<event>
 5   0  0.1464205E-04  0.1100151E+04  0.7818609E-02  0.9205045E-01
       -2   -1    0    0    0  501  0.00000000000E+00  0.00000000000E+00  0.44652084960E+03  0.44652084961E+03  0.25500000920E-02 0.  1.
        2   -1    0    0  501    0  0.00000000000E+00  0.00000000000E+00 -0.67764544355E+03  0.67764544356E+03  0.25500000920E-02 0. -1.
    10030    2    1    2    0    0  0.00000000000E+00  0.00000000000E+00 -0.23112459395E+03  0.11241662932E+04  0.11001505700E+04 0.  0.
        3    1    3    3  502    0 -0.22429641148E+02  0.41346184517E+03  0.25445995636E+03  0.48600788657E+03  0.10100000352E+00 0.  1.
       -3    1    3    3    0  502  0.22429641148E+02 -0.41346184517E+03 -0.48558455031E+03  0.63815840660E+03  0.10100000352E+00 0. -1.
</event>
<event>
 5   0  0.9016738E-05  0.1099942E+04  0.7818609E-02  0.9205248E-01
       -1   -1    0    0    0  501  0.00000000000E+00  0.00000000000E+00  0.61377981708E+03  0.61377981710E+03  0.50400001928E-02 0. -1.
        1   -1    0    0  501    0  0.00000000000E+00  0.00000000000E+00 -0.49279598422E+03  0.49279598424E+03  0.50400001928E-02 0.  1.
    10030    2    1    2    0    0  0.00000000000E+00  0.00000000000E+00  0.12098383286E+03  0.11065758013E+04  0.10999422332E+04 0.  0.
        4    1    3    3  502    0 -0.35045818751E+03 -0.67916471098E+02 -0.36040068752E+03  0.50727098941E+03  0.12699999809E+01 0.  1.
       -4    1    3    3    0  502  0.35045818751E+03  0.67916471098E+02  0.48138452038E+03  0.59930481193E+03  0.12699999809E+01 0. -1.
</event>
<event>
 5   0  0.8921459E-05  0.1100419E+04  0.7818609E-02  0.9204784E-01
        1   -1    0    0  501    0  0.00000000000E+00  0.00000000000E+00  0.34732224467E+03  0.34732224471E+03  0.50400001928E-02 0.  1.
       -1   -1    0    0    0  501  0.00000000000E+00  0.00000000000E+00 -0.87161285394E+03  0.87161285396E+03  0.50400001928E-02 0. -1.
    10030    2    1    2    0    0  0.00000000000E+00  0.00000000000E+00 -0.52429060927E+03  0.12189350987E+04  0.11004190710E+04 0.  0.
        3    1    3    3  502    0  0.25116064039E+03  0.31114726620E+03  0.15649560946E+03  0.42940094845E+03  0.10100000352E+00 0.  1.
       -3    1    3    3    0  502 -0.25116064039E+03 -0.31114726620E+03 -0.68078621874E+03  0.78953415022E+03  0.10100000352E+00 0. -1.
</event>
<event>
 5   0  0.1540772E-04  0.1100042E+04  0.7818609E-02  0.9205151E-01
       -2   -1    0    0    0  501  0.00000000000E+00  0.00000000000E+00  0.14893106049E+03  0.14893106051E+03  0.25500000920E-02 0. -1.
        2   -1    0    0  501    0  0.00000000000E+00  0.00000000000E+00 -0.20312969566E+04  0.20312969566E+04  0.25500000920E-02 0.  1.
    10030    2    1    2    0    0  0.00000000000E+00  0.00000000000E+00 -0.18823658961E+04  0.21802280171E+04  0.11000421991E+04 0.  0.
        2    1    3    3  502    0 -0.15939328670E+03 -0.38676582323E+03 -0.16489614513E+04  0.17011960174E+04  0.25500000920E-02 0.  1.
       -2    1    3    3    0  502  0.15939328670E+03  0.38676582323E+03 -0.23340444485E+03  0.47903199971E+03  0.25500000920E-02 0. -1.
</event>
<event>
 5   0  0.9016738E-05  0.1100213E+04  0.7818609E-02  0.9204985E-01
       -1   -1    0    0    0  501  0.00000000000E+00  0.00000000000E+00  0.75649776583E+03  0.75649776585E+03  0.50400001928E-02 0. -1.
        1   -1    0    0  501    0  0.00000000000E+00  0.00000000000E+00 -0.40002368836E+03  0.40002368839E+03  0.50400001928E-02 0.  1.
    10030    2    1    2    0    0  0.00000000000E+00  0.00000000000E+00  0.35647407747E+03  0.11565214542E+04  0.11002127550E+04 0.  0.
        4    1    3    3  502    0  0.28564626336E+03  0.46941275895E+03  0.15096124924E+03  0.56985352303E+03  0.12699999809E+01 0.  1.
       -4    1    3    3    0  502 -0.28564626336E+03 -0.46941275895E+03  0.20551282822E+03  0.58666793121E+03  0.12699999809E+01 0. -1.
</event>
<event>
 5   0  0.1553937E-04  0.1099502E+04  0.7818609E-02  0.9205677E-01
       -2   -1    0    0    0  501  0.00000000000E+00  0.00000000000E+00  0.25942150190E+03  0.25942150191E+03  0.25500000920E-02 0. -1.
        2   -1    0    0  501    0  0.00000000000E+00  0.00000000000E+00 -0.11650004796E+04  0.11650004796E+04  0.25500000920E-02 0.  1.
    10030    2    1    2    0    0  0.00000000000E+00  0.00000000000E+00 -0.90557897772E+03  0.14244219815E+04  0.10995020221E+04 0.  0.
        1    1    3    3  502    0  0.26747332648E+03 -0.42256830148E+03 -0.74855380324E+03  0.90024371487E+03  0.50400001928E-02 0. -1.
       -1    1    3    3    0  502 -0.26747332648E+03  0.42256830148E+03 -0.15702517448E+03  0.52417826666E+03  0.50400001928E-02 0.  1.
</event>
<event>
 5   0  0.6010125E-05  0.1099647E+04  0.7818609E-02  0.9205536E-01
       -4   -1    0    0    0  501  0.00000000000E+00  0.00000000000E+00  0.11880139847E+04  0.11880146635E+04  0.12699999809E+01 0. -1.
        4   -1    0    0  501    0  0.00000000000E+00  0.00000000000E+00 -0.25446107655E+03  0.25446424578E+03  0.12699999809E+01 0.  1.
    10030    2    1    2    0    0  0.00000000000E+00  0.00000000000E+00  0.93355290810E+03  0.14424789093E+04  0.10996473850E+04 0.  0.
        1    1    3    3  502    0 -0.17624717549E+03 -0.33034238839E+03 -0.61389271357E+02  0.37941771585E+03  0.50400001928E-02 0.  1.
       -1    1    3    3    0  502  0.17624717549E+03  0.33034238839E+03  0.99494217946E+03  0.10630611934E+04  0.50400001928E-02 0. -1.
</event>
<event>
 5   0  0.9016738E-05  0.1099413E+04  0.7818609E-02  0.9205764E-01
        1   -1    0    0  501    0  0.00000000000E+00  0.00000000000E+00  0.56015659684E+03  0.56015659686E+03  0.50400001928E-02 0. -1.
       -1   -1    0    0    0  501  0.00000000000E+00  0.00000000000E+00 -0.53945170529E+03  0.53945170532E+03  0.50400001928E-02 0.  1.
    10030    2    1    2    0    0  0.00000000000E+00  0.00000000000E+00  0.20704891550E+02  0.10996083022E+04  0.10994133552E+04 0.  0.
        4    1    3    3  502    0 -0.25019846813E+03  0.48946546036E+03  0.10023468057E+02  0.54979795666E+03  0.12699999809E+01 0. -1.
       -4    1    3    3    0  502  0.25019846813E+03 -0.48946546036E+03  0.10681423493E+02  0.54981034552E+03  0.12699999809E+01 0.  1.
</event>
<event>
 5   0  0.1464205E-04  0.1097432E+04  0.7818609E-02  0.9207698E-01
       -2   -1    0    0    0  501  0.00000000000E+00  0.00000000000E+00  0.11856527725E+03  0.11856527727E+03  0.25500000920E-02 0. -1.
        2   -1    0    0  501    0  0.00000000000E+00  0.00000000000E+00 -0.25394387723E+04  0.25394387723E+04  0.25500000920E-02 0.  1.
    10030    2    1    2    0    0  0.00000000000E+00  0.00000000000E+00 -0.24208734950E+04  0.26580040495E+04  0.10974320245E+04 0.  0.
        3    1    3    3  502    0  0.18390403176E+03 -0.10553605884E+03  0.15332796684E+02  0.21258799935E+03  0.10100000352E+00 0. -1.
       -3    1    3    3    0  502 -0.18390403176E+03  0.10553605884E+03 -0.24362062917E+04  0.24454160502E+04  0.10100000352E+00 0.  1.
</event>
<event>
 5   0  0.8921459E-05  0.1100282E+04  0.7818609E-02  0.9204917E-01
        1   -1    0    0  501    0  0.00000000000E+00  0.00000000000E+00  0.52243497593E+03  0.52243497595E+03  0.50400001928E-02 0.  1.
       -1   -1    0    0    0  501  0.00000000000E+00  0.00000000000E+00 -0.57931649945E+03  0.57931649947E+03  0.50400001928E-02 0. -1.
    10030    2    1    2    0    0  0.00000000000E+00  0.00000000000E+00 -0.56881523524E+02  0.11017514754E+04  0.11002821483E+04 0.  0.
        3    1    3    3  502    0  0.20852710596E+03 -0.27350821771E+02 -0.53747340637E+03  0.57715621293E+03  0.10100000352E+00 0. -1.
       -3    1    3    3    0  502 -0.20852710596E+03  0.27350821771E+02  0.48059188284E+03  0.52459526249E+03  0.10100000352E+00 0.  1.
</event>
<event>
 5   0  0.1540772E-04  0.1098007E+04  0.7818609E-02  0.9207137E-01
       -2   -1    0    0    0  501  0.00000000000E+00  0.00000000000E+00  0.21371986807E+03  0.21371986809E+03  0.25500000920E-02 0.  1.
        2   -1    0    0  501    0  0.00000000000E+00  0.00000000000E+00 -0.14102796477E+04  0.14102796478E+04  0.25500000920E-02 0. -1.
    10030    2    1    2    0    0  0.00000000000E+00  0.00000000000E+00 -0.11965597797E+04  0.16239995158E+04  0.10980068857E+04 0.  0.
        2    1    3    3  502    0  0.12863925135E+03 -0.29914172602E+03 -0.12520285730E+04  0.12936805544E+04  0.25500000920E-02 0. -1.
       -2    1    3    3    0  502 -0.12863925135E+03  0.29914172602E+03  0.55468793335E+02  0.33031896142E+03  0.25500000920E-02 0.  1.
</event>
<event>
 5   0  0.1464205E-04  0.1100014E+04  0.7818609E-02  0.9205179E-01
        2   -1    0    0  501    0  0.00000000000E+00  0.00000000000E+00  0.37032340025E+03  0.37032340026E+03  0.25500000920E-02 0. -1.
       -2   -1    0    0    0  501  0.00000000000E+00  0.00000000000E+00 -0.81687388917E+03  0.81687388918E+03  0.25500000920E-02 0.  1.
    10030    2    1    2    0    0  0.00000000000E+00  0.00000000000E+00 -0.44655048893E+03  0.11871972894E+04  0.11000136658E+04 0.  0.
        3    1    3    3  502    0  0.39979644873E+03  0.33991983823E+03 -0.40102465192E+03  0.66045702244E+03  0.10100000352E+00 0.  1.
       -3    1    3    3    0  502 -0.39979644873E+03 -0.33991983823E+03 -0.45525837006E+02  0.52674026699E+03  0.10100000352E+00 0. -1.
</event>
<event>
 5   0  0.1540772E-04  0.1100329E+04  0.7818609E-02  0.9204871E-01
       -2   -1    0    0    0  501  0.00000000000E+00  0.00000000000E+00  0.41629087234E+03  0.41629087235E+03  0.25500000920E-02 0. -1.
        2   -1    0    0  501    0  0.00000000000E+00  0.00000000000E+00 -0.72709001663E+03  0.72709001664E+03  0.25500000920E-02 0.  1.
    10030    2    1    2    0    0  0.00000000000E+00  0.00000000000E+00 -0.31079914429E+03  0.11433808890E+04  0.11003289277E+04 0.  0.
        2    1    3    3  502    0  0.41123703734E+03 -0.32754534161E+03  0.13051400506E+02  0.52590131275E+03  0.25500000920E-02 0.  1.
       -2    1    3    3    0  502 -0.41123703734E+03  0.32754534161E+03 -0.32385054480E+03  0.61747957623E+03  0.25500000920E-02 0. -1.
</event>
<event>
 5   0  0.1540772E-04  0.1100377E+04  0.7818609E-02  0.9204825E-01
        2   -1    0    0  501    0  0.00000000000E+00  0.00000000000E+00  0.82218238828E+03  0.82218238828E+03  0.25500000920E-02 0.  1.
       -2   -1    0    0    0  501  0.00000000000E+00  0.00000000000E+00 -0.36817538347E+03  0.36817538348E+03  0.25500000920E-02 0. -1.
    10030    2    1    2    0    0  0.00000000000E+00  0.00000000000E+00  0.45400700481E+03  0.11903577718E+04  0.11003768738E+04 0.  0.
        2    1    3    3  502    0  0.18608637090E+02 -0.50977364113E+03  0.44999534544E+03  0.68022882729E+03  0.25500000920E-02 0.  1.
       -2    1    3    3    0  502 -0.18608637090E+02  0.50977364113E+03  0.40116593694E+01  0.51012894446E+03  0.25500000920E-02 0. -1.
</event>
<event>
 5   0  0.9346836E-05  0.1100126E+04  0.7818609E-02  0.9205069E-01
       -1   -1    0    0    0  501  0.00000000000E+00  0.00000000000E+00  0.75048027364E+03  0.75048027366E+03  0.50400001928E-02 0. -1.
        1   -1    0    0  501    0  0.00000000000E+00  0.00000000000E+00 -0.40316730057E+03  0.40316730060E+03  0.50400001928E-02 0.  1.
    10030    2    1    2    0    0  0.00000000000E+00  0.00000000000E+00  0.34731297307E+03  0.11536475743E+04  0.11001256402E+04 0.  0.
        5    1    3    3  502    0 -0.23151632987E+03 -0.23410760359E+03 -0.28839387789E+03  0.43772057280E+03  0.46999998093E+01 0.  1.
       -5    1    3    3    0  502  0.23151632987E+03  0.23410760359E+03  0.63570685096E+03  0.71592700145E+03  0.46999998093E+01 0. -1.
</event>
<event>
 5   0  0.9016738E-05  0.1099328E+04  0.7818609E-02  0.9205847E-01
        1   -1    0    0  501    0  0.00000000000E+00  0.00000000000E+00  0.12919089828E+04  0.12919089828E+04  0.50400001928E-02 0. -1.
       -1   -1    0    0    0  501  0.00000000000E+00  0.00000000000E+00 -0.23386379139E+03  0.23386379145E+03  0.50400001928E-02 0.  1.
    10030    2    1    2    0    0  0.00000000000E+00  0.00000000000E+00  0.10580451914E+04  0.15257727742E+04  0.10993284002E+04 0.  0.
        4    1    3    3  502    0 -0.58223846355E+02 -0.14123264709E+03  0.12618520429E+04  0.12710660360E+04  0.12699999809E+01 0. -1.
       -4    1    3    3    0  502  0.58223846355E+02  0.14123264709E+03 -0.20380685148E+03  0.25470673823E+03  0.12699999809E+01 0.  1.
</event>
<event>
 5   0  0.1540772E-04  0.1099363E+04  0.7818609E-02  0.9205813E-01
       -2   -1    0    0    0  501  0.00000000000E+00  0.00000000000E+00  0.21038372063E+03  0.21038372064E+03  0.25500000920E-02 0.  1.
        2   -1    0    0  501    0  0.00000000000E+00  0.00000000000E+00 -0.14361846058E+04  0.14361846058E+04  0.25500000920E-02 0. -1.
    10030    2    1    2    0    0  0.00000000000E+00  0.00000000000E+00 -0.12258008852E+04  0.16465683264E+04  0.10993631991E+04 0.  0.
        2    1    3    3  502    0 -0.89316850321E+02 -0.19023348716E+03 -0.13736375412E+04  0.13896209461E+04  0.25500000920E-02 0. -1.
       -2    1    3    3    0  502  0.89316850321E+02  0.19023348716E+03  0.14783665600E+03  0.25694738032E+03  0.25500000920E-02 0.  1.
</event>
<event>
 5   0  0.1540772E-04  0.1099655E+04  0.7818609E-02  0.9205529E-01
        2   -1    0    0  501    0  0.00000000000E+00  0.00000000000E+00  0.11393338410E+04  0.11393338410E+04  0.25500000920E-02 0. -1.
       -2   -1    0    0    0  501  0.00000000000E+00  0.00000000000E+00 -0.26533927323E+03  0.26533927325E+03  0.25500000920E-02 0.  1.
    10030    2    1    2    0    0  0.00000000000E+00  0.00000000000E+00  0.87399456777E+03  0.14046731143E+04  0.10996545155E+04 0.  0.
        2    1    3    3  502    0  0.54636353348E+03  0.55919096091E+02  0.47006030825E+03  0.72290853462E+03  0.25500000920E-02 0.  1.
       -2    1    3    3    0  502 -0.54636353348E+03 -0.55919096091E+02  0.40393425951E+03  0.68176457963E+03  0.25500000920E-02 0. -1.
</event>
<event>
 5   0  0.9346836E-05  0.1100828E+04  0.7818609E-02  0.9204386E-01
        1   -1    0    0  501    0  0.00000000000E+00  0.00000000000E+00  0.16837471442E+04  0.16837471442E+04  0.50400001928E-02 0. -1.
       -1   -1    0    0    0  501  0.00000000000E+00  0.00000000000E+00 -0.17992927862E+03  0.17992927869E+03  0.50400001928E-02 0.  1.
    10030    2    1    2    0    0  0.00000000000E+00  0.00000000000E+00  0.15038178656E+04  0.18636764229E+04  0.11008277052E+04 0.  0.
        5    1    3    3  502    0 -0.13424404549E+03  0.17264690657E+03 -0.10317857354E+03  0.24186013755E+03  0.46999998093E+01 0.  1.
       -5    1    3    3    0  502  0.13424404549E+03 -0.17264690657E+03  0.16069964392E+04  0.16218162854E+04  0.46999998093E+01 0. -1.
</event>
<event>
 5   0  0.1464205E-04  0.1100174E+04  0.7818609E-02  0.9205022E-01
       -2   -1    0    0    0  501  0.00000000000E+00  0.00000000000E+00  0.35207267484E+03  0.35207267485E+03  0.25500000920E-02 0.  1.
        2   -1    0    0  501    0  0.00000000000E+00  0.00000000000E+00 -0.85946970998E+03  0.85946970999E+03  0.25500000920E-02 0. -1.
    10030    2    1    2    0    0  0.00000000000E+00  0.00000000000E+00 -0.50739703514E+03  0.12115423848E+04  0.11001741676E+04 0.  0.
        3    1    3    3  502    0  0.35408288109E+03 -0.41984638478E+03 -0.21975432383E+03  0.59155527767E+03  0.10100000352E+00 0. -1.
       -3    1    3    3    0  502 -0.35408288109E+03  0.41984638478E+03 -0.28764271131E+03  0.61998710717E+03  0.10100000352E+00 0.  1.
</event>
<event>
 5   0  0.6010125E-05  0.1099821E+04  0.7818609E-02  0.9205367E-01
        4   -1    0    0  501    0  0.00000000000E+00  0.00000000000E+00  0.46007486127E+03  0.46007661413E+03  0.12699999809E+01 0.  1.
       -4   -1    0    0    0  501  0.00000000000E+00  0.00000000000E+00 -0.65728387224E+03  0.65728509918E+03  0.12699999809E+01 0. -1.
    10030    2    1    2    0    0  0.00000000000E+00  0.00000000000E+00 -0.19720901097E+03  0.11173617133E+04  0.10998208056E+04 0.  0.
        2    1    3    3  502    0 -0.16256250898E+03 -0.52514903703E+03 -0.11273206519E+03  0.56117430354E+03  0.25500000920E-02 0. -1.
       -2    1    3    3    0  502  0.16256250898E+03  0.52514903703E+03 -0.84476945781E+02  0.55618740978E+03  0.25500000920E-02 0.  1.
</event>
<event>
 5   0  0.9016738E-05  0.1099543E+04  0.7818609E-02  0.9205638E-01
       -1   -1    0    0    0  501  0.00000000000E+00  0.00000000000E+00  0.18763166322E+03  0.18763166329E+03  0.50400001928E-02 0.  1.
        1   -1    0    0  501    0  0.00000000000E+00  0.00000000000E+00 -0.16108611702E+04  0.16108611703E+04  0.50400001928E-02 0. -1.
    10030    2    1    2    0    0  0.00000000000E+00  0.00000000000E+00 -0.14232295070E+04  0.17984928335E+04  0.10995427425E+04 0.  0.
        4    1    3    3  502    0  0.16308710568E+03 -0.10625042394E+03 -0.15526124149E+04  0.15647662703E+04  0.12699999809E+01 0. -1.
       -4    1    3    3    0  502 -0.16308710568E+03  0.10625042394E+03  0.12938290791E+03  0.23372656328E+03  0.12699999809E+01 0.  1.
</event>
<event>
 5   0  0.1540772E-04  0.1099962E+04  0.7818609E-02  0.9205229E-01
        2   -1    0    0  501    0  0.00000000000E+00  0.00000000000E+00  0.28812519550E+03  0.28812519551E+03  0.25500000920E-02 0.  1.
       -2   -1    0    0    0  501  0.00000000000E+00  0.00000000000E+00 -0.10498185529E+04  0.10498185529E+04  0.25500000920E-02 0. -1.
    10030    2    1    2    0    0  0.00000000000E+00  0.00000000000E+00 -0.76169335738E+03  0.13379437484E+04  0.10999621372E+04 0.  0.
        2    1    3    3  502    0 -0.83238452723E+02 -0.14145688590E+03 -0.10193348088E+04  0.10324641123E+04  0.25500000920E-02 0. -1.
       -2    1    3    3    0  502  0.83238452723E+02  0.14145688590E+03  0.25764145145E+03  0.30547963614E+03  0.25500000920E-02 0.  1.
</event>
<event>
 5   0  0.1503277E-04  0.1099902E+04  0.7818609E-02  0.9205287E-01
        2   -1    0    0  501    0  0.00000000000E+00  0.00000000000E+00  0.83739986239E+03  0.83739986239E+03  0.25500000920E-02 0. -1.
       -2   -1    0    0    0  501  0.00000000000E+00  0.00000000000E+00 -0.36117310348E+03  0.36117310349E+03  0.25500000920E-02 0.  1.
    10030    2    1    2    0    0  0.00000000000E+00  0.00000000000E+00  0.47622675890E+03  0.11985729659E+04  0.10999023723E+04 0.  0.
        5    1    3    3  502    0 -0.80014802042E+02  0.51152552481E+03  0.36109855026E+02  0.51902479970E+03  0.46999998093E+01 0.  1.
       -5    1    3    3    0  502  0.80014802042E+02 -0.51152552481E+03  0.44011690388E+03  0.67954816618E+03  0.46999998093E+01 0. -1.
</event>
<event>
 5   0  0.6010125E-05  0.1099770E+04  0.7818609E-02  0.9205416E-01
        4   -1    0    0  501    0  0.00000000000E+00  0.00000000000E+00  0.14499571216E+04  0.14499576778E+04  0.12699999809E+01 0.  1.
       -4   -1    0    0    0  501  0.00000000000E+00  0.00000000000E+00 -0.20853706954E+03  0.20854093668E+03  0.12699999809E+01 0. -1.
    10030    2    1    2    0    0  0.00000000000E+00  0.00000000000E+00  0.12414200521E+04  0.16584986145E+04  0.10997699344E+04 0.  0.
        2    1    3    3  502    0  0.15990036604E+03 -0.30723505936E+03 -0.23370154249E+02  0.34714215082E+03  0.25500000920E-02 0. -1.
       -2    1    3    3    0  502 -0.15990036604E+03  0.30723505936E+03  0.12647902064E+04  0.13113564637E+04  0.25500000920E-02 0.  1.
</event>
<event>
 5   0  0.9346836E-05  0.1100437E+04  0.7818609E-02  0.9204766E-01
       -1   -1    0    0    0  501  0.00000000000E+00  0.00000000000E+00  0.17520276076E+03  0.17520276083E+03  0.50400001928E-02 0. -1.
        1   -1    0    0  501    0  0.00000000000E+00  0.00000000000E+00 -0.17279438138E+04  0.17279438138E+04  0.50400001928E-02 0.  1.
    10030    2    1    2    0    0  0.00000000000E+00  0.00000000000E+00 -0.15527410530E+04  0.19031465746E+04  0.11004372343E+04 0.  0.
        5    1    3    3  502    0 -0.21657187617E+03  0.41491965625E+03 -0.27615470508E+03  0.54345672305E+03  0.46999998093E+01 0. -1.
       -5    1    3    3    0  502  0.21657187617E+03 -0.41491965625E+03 -0.12765863479E+04  0.13596898516E+04  0.46999998093E+01 0.  1.
</event>
<event>
 5   0  0.1574101E-04  0.1100237E+04  0.7818609E-02  0.9204961E-01
       -2   -1    0    0    0  501  0.00000000000E+00  0.00000000000E+00  0.64360090750E+03  0.64360090750E+03  0.25500000920E-02 0. -1.
        2   -1    0    0  501    0  0.00000000000E+00  0.00000000000E+00 -0.47021416358E+03  0.47021416359E+03  0.25500000920E-02 0.  1.
    10030    2    1    2    0    0  0.00000000000E+00  0.00000000000E+00  0.17338674392E+03  0.11138150711E+04  0.11002368152E+04 0.  0.
        4    1    3    3  502    0  0.21712226014E+03 -0.11887827278E+03 -0.41064806449E+03  0.47948677287E+03  0.12699999809E+01 0.  1.
       -4    1    3    3    0  502 -0.21712226014E+03  0.11887827278E+03  0.58403480841E+03  0.63432829822E+03  0.12699999809E+01 0. -1.
</event>
<event>
 5   0  0.8921459E-05  0.1102148E+04  0.7818609E-02  0.9203101E-01
       -1   -1    0    0    0  501  0.00000000000E+00  0.00000000000E+00  0.42215039000E+03  0.42215039003E+03  0.50400001928E-02 0. -1.
        1   -1    0    0  501    0  0.00000000000E+00  0.00000000000E+00 -0.71937078272E+03  0.71937078274E+03  0.50400001928E-02 0.  1.
    10030    2    1    2    0    0  0.00000000000E+00  0.00000000000E+00 -0.29722039272E+03  0.11415211728E+04  0.11021481870E+04 0.  0.
        3    1    3    3  502    0  0.22500450796E+03 -0.31514533291E+03  0.25749267346E+03  0.46502268390E+03  0.10100000352E+00 0. -1.
       -3    1    3    3    0  502 -0.22500450796E+03  0.31514533291E+03 -0.55471306618E+03  0.67649848887E+03  0.10100000352E+00 0.  1.
</event>
<event>
 5   0  0.8621738E-05  0.1099975E+04  0.7818609E-02  0.9205217E-01
        1   -1    0    0  501    0  0.00000000000E+00  0.00000000000E+00  0.41369338571E+03  0.41369338575E+03  0.50400001928E-02 0.  1.
       -1   -1    0    0    0  501  0.00000000000E+00  0.00000000000E+00 -0.73118421617E+03  0.73118421619E+03  0.50400001928E-02 0. -1.
    10030    2    1    2    0    0  0.00000000000E+00  0.00000000000E+00 -0.31749083046E+03  0.11448776019E+04  0.10999746797E+04 0.  0.
        2    1    3    3  502    0 -0.17276232024E+03 -0.50643538897E+03 -0.29106678503E+03  0.60913339742E+03  0.25500000920E-02 0. -1.
       -2    1    3    3    0  502  0.17276232024E+03  0.50643538897E+03 -0.26424045430E+02  0.53574420452E+03  0.25500000920E-02 0.  1.
</event>
<event>
 5   0  0.1540772E-04  0.1100063E+04  0.7818609E-02  0.9205131E-01
       -2   -1    0    0    0  501  0.00000000000E+00  0.00000000000E+00  0.12040894834E+03  0.12040894837E+03  0.25500000920E-02 0. -1.
        2   -1    0    0  501    0  0.00000000000E+00  0.00000000000E+00 -0.25125579184E+04  0.25125579184E+04  0.25500000920E-02 0.  1.
    10030    2    1    2    0    0  0.00000000000E+00  0.00000000000E+00 -0.23921489701E+04  0.26329668668E+04  0.11000626467E+04 0.  0.
        2    1    3    3  502    0 -0.17412334917E+03 -0.31340626973E+01 -0.24448275817E+04  0.24510223719E+04  0.25500000920E-02 0.  1.
       -2    1    3    3    0  502  0.17412334917E+03  0.31340626973E+01  0.52678611694E+02  0.18194449487E+03  0.25500000920E-02 0. -1.
</event>
<event>
 5   0  0.1464205E-04  0.1099927E+04  0.7818609E-02  0.9205263E-01
        2   -1    0    0  501    0  0.00000000000E+00  0.00000000000E+00  0.88028366204E+03  0.88028366205E+03  0.25500000920E-02 0. -1.
       -2   -1    0    0    0  501  0.00000000000E+00  0.00000000000E+00 -0.34359382371E+03  0.34359382372E+03  0.25500000920E-02 0.  1.
    10030    2    1    2    0    0  0.00000000000E+00  0.00000000000E+00  0.53668983833E+03  0.12238774858E+04  0.10999273238E+04 0.  0.
        3    1    3    3  502    0  0.24280346719E+03 -0.12894932696E+03  0.79833859794E+03  0.84434944174E+03  0.10100000352E+00 0. -1.
       -3    1    3    3    0  502 -0.24280346719E+03  0.12894932696E+03 -0.26164875961E+03  0.37952804403E+03  0.10100000352E+00 0.  1.
</event>
<event>
 5   0  0.9016738E-05  0.1100239E+04  0.7818609E-02  0.9204959E-01
       -1   -1    0    0    0  501  0.00000000000E+00  0.00000000000E+00  0.40918146421E+03  0.40918146425E+03  0.50400001928E-02 0.  1.
        1   -1    0    0  501    0  0.00000000000E+00  0.00000000000E+00 -0.73960238863E+03  0.73960238864E+03  0.50400001928E-02 0. -1.
    10030    2    1    2    0    0  0.00000000000E+00  0.00000000000E+00 -0.33042092441E+03  0.11487838529E+04  0.11002392255E+04 0.  0.
        4    1    3    3  502    0 -0.19236305952E+02  0.46524810747E+03  0.14063730605E+03  0.48642193796E+03  0.12699999809E+01 0.  1.
       -4    1    3    3    0  502  0.19236305952E+02 -0.46524810747E+03 -0.47105823046E+03  0.66236191493E+03  0.12699999809E+01 0. -1.
</event>
<event>
 5   0  0.1464205E-04  0.1098853E+04  0.7818609E-02  0.9206310E-01
        2   -1    0    0  501    0  0.00000000000E+00  0.00000000000E+00  0.40121148319E+03  0.40121148320E+03  0.25500000920E-02 0.  1.
       -2   -1    0    0    0  501  0.00000000000E+00  0.00000000000E+00 -0.75239532758E+03  0.75239532759E+03  0.25500000920E-02 0. -1.
    10030    2    1    2    0    0  0.00000000000E+00  0.00000000000E+00 -0.35118384440E+03  0.11536068108E+04  0.10988533029E+04 0.  0.
        3    1    3    3  502    0 -0.19853471766E+01  0.39213387181E+03  0.22841686736E+03  0.45381404839E+03  0.10100000352E+00 0.  1.
       -3    1    3    3    0  502  0.19853471766E+01 -0.39213387181E+03 -0.57960071175E+03  0.69979276239E+03  0.10100000352E+00 0. -1.
</event>
<event>
 5   0  0.6010125E-05  0.1099982E+04  0.7818609E-02  0.9205210E-01
       -3   -1    0    0    0  501  0.00000000000E+00  0.00000000000E+00  0.46995942392E+03  0.46995943477E+03  0.10100000352E+00 0.  1.
        3   -1    0    0  501    0  0.00000000000E+00  0.00000000000E+00 -0.64365130567E+03  0.64365131359E+03  0.10100000352E+00 0. -1.
    10030    2    1    2    0    0  0.00000000000E+00  0.00000000000E+00 -0.17369188174E+03  0.11136107484E+04  0.10999818313E+04 0.  0.
        3    1    3    3  502    0  0.33471247079E+03 -0.41050763098E+03  0.63114443581E+02  0.53341578190E+03  0.10100000352E+00 0.  1.
       -3    1    3    3    0  502 -0.33471247079E+03  0.41050763098E+03 -0.23680632532E+03  0.58019496646E+03  0.10100000352E+00 0. -1.
</event>
<event>
 5   0  0.8657442E-05  0.1099756E+04  0.7818609E-02  0.9205430E-01
       -1   -1    0    0    0  501  0.00000000000E+00  0.00000000000E+00  0.49352396949E+03  0.49352396952E+03  0.50400001928E-02 0. -1.
        1   -1    0    0  501    0  0.00000000000E+00  0.00000000000E+00 -0.61266660166E+03  0.61266660168E+03  0.50400001928E-02 0.  1.
    10030    2    1    2    0    0  0.00000000000E+00  0.00000000000E+00 -0.11914263217E+03  0.11061905712E+04  0.10997557061E+04 0.  0.
        1    1    3    3  502    0 -0.16917295330E+03 -0.20768115721E+03 -0.54260478516E+03  0.60512056988E+03  0.50400001928E-02 0.  1.
       -1    1    3    3    0  502  0.16917295330E+03  0.20768115721E+03  0.42346215299E+03  0.50107000132E+03  0.50400001928E-02 0. -1.
</event>
<event>
 5   0  0.1540772E-04  0.1100037E+04  0.7818609E-02  0.9205156E-01
       -2   -1    0    0    0  501  0.00000000000E+00  0.00000000000E+00  0.81521079729E+03  0.81521079730E+03  0.25500000920E-02 0.  1.
        2   -1    0    0  501    0  0.00000000000E+00  0.00000000000E+00 -0.37109434983E+03  0.37109434984E+03  0.25500000920E-02 0. -1.
    10030    2    1    2    0    0  0.00000000000E+00  0.00000000000E+00  0.44411644746E+03  0.11863051471E+04  0.11000365827E+04 0.  0.
        2    1    3    3  502    0 -0.25516651546E+03 -0.26235214145E+03 -0.22072817742E+03  0.42738685643E+03  0.25500000920E-02 0. -1.
       -2    1    3    3    0  502  0.25516651546E+03  0.26235214145E+03  0.66484462488E+03  0.75891829071E+03  0.25500000920E-02 0.  1.
</event>
<event>
 5   0  0.1464205E-04  0.1099758E+04  0.7818609E-02  0.9205428E-01
       -2   -1    0    0    0  501  0.00000000000E+00  0.00000000000E+00  0.76565177165E+03  0.76565177165E+03  0.25500000920E-02 0.  1.
        2   -1    0    0  501    0  0.00000000000E+00  0.00000000000E+00 -0.39491420750E+03  0.39491420751E+03  0.25500000920E-02 0. -1.
    10030    2    1    2    0    0  0.00000000000E+00  0.00000000000E+00  0.37073756415E+03  0.11605659792E+04  0.10997577235E+04 0.  0.
        3    1    3    3  502    0  0.58957384053E+01 -0.43353078949E+03  0.54227461522E+03  0.69429494718E+03  0.10100000352E+00 0.  1.
       -3    1    3    3    0  502 -0.58957384053E+01  0.43353078949E+03 -0.17153705108E+03  0.46627103197E+03  0.10100000352E+00 0. -1.
</event>
<event>
 5   0  0.1553937E-04  0.1099649E+04  0.7818609E-02  0.9205534E-01
       -2   -1    0    0    0  501  0.00000000000E+00  0.00000000000E+00  0.50674865129E+03  0.50674865129E+03  0.25500000920E-02 0.  1.
        2   -1    0    0  501    0  0.00000000000E+00  0.00000000000E+00 -0.59656248056E+03  0.59656248057E+03  0.25500000920E-02 0. -1.
    10030    2    1    2    0    0  0.00000000000E+00  0.00000000000E+00 -0.89813829275E+02  0.11033111319E+04  0.10996494577E+04 0.  0.
        1    1    3    3  502    0 -0.19057215217E+03 -0.10960330520E+03  0.46073211645E+03  0.51049457670E+03  0.50400001928E-02 0.  1.
       -1    1    3    3    0  502  0.19057215217E+03  0.10960330520E+03 -0.55054594572E+03  0.59281655516E+03  0.50400001928E-02 0. -1.
</event>
<event>
 5   0  0.9016738E-05  0.1099867E+04  0.7818609E-02  0.9205322E-01
        1   -1    0    0  501    0  0.00000000000E+00  0.00000000000E+00  0.18455309794E+04  0.18455309794E+04  0.50400001928E-02 0.  1.
       -1   -1    0    0    0  501  0.00000000000E+00  0.00000000000E+00 -0.16386970820E+03  0.16386970827E+03  0.50400001928E-02 0. -1.
    10030    2    1    2    0    0  0.00000000000E+00  0.00000000000E+00  0.16816612712E+04  0.20094006876E+04  0.10998665794E+04 0.  0.
        4    1    3    3  502    0  0.18649521145E+03  0.28605328498E+03  0.53294469916E+02  0.34561374273E+03  0.12699999809E+01 0. -1.
       -4    1    3    3    0  502 -0.18649521145E+03 -0.28605328498E+03  0.16283668012E+04  0.16637869449E+04  0.12699999809E+01 0.  1.
</event>
<event>
 5   0  0.1464205E-04  0.1100090E+04  0.7818609E-02  0.9205104E-01
        2   -1    0    0  501    0  0.00000000000E+00  0.00000000000E+00  0.71430623790E+03  0.71430623791E+03  0.25500000920E-02 0.  1.
       -2   -1    0    0    0  501  0.00000000000E+00  0.00000000000E+00 -0.42355721564E+03  0.42355721565E+03  0.25500000920E-02 0. -1.
    10030    2    1    2    0    0  0.00000000000E+00  0.00000000000E+00  0.29074902226E+03  0.11378634536E+04  0.11000901077E+04 0.  0.
        3    1    3    3  502    0  0.19374945417E+03  0.42925995539E+03  0.43929102428E+03  0.64403383025E+03  0.10100000352E+00 0.  1.
       -3    1    3    3    0  502 -0.19374945417E+03 -0.42925995539E+03 -0.14854200202E+03  0.49382962331E+03  0.10100000352E+00 0. -1.
</event>
<event>
 5   0  0.9016738E-05  0.1100041E+04  0.7818609E-02  0.9205152E-01
       -1   -1    0    0    0  501  0.00000000000E+00  0.00000000000E+00  0.21527952262E+03  0.21527952268E+03  0.50400001928E-02 0.  1.
        1   -1    0    0  501    0  0.00000000000E+00  0.00000000000E+00 -0.14052544930E+04  0.14052544930E+04  0.50400001928E-02 0. -1.
    10030    2    1    2    0    0  0.00000000000E+00  0.00000000000E+00 -0.11899749703E+04  0.16205340156E+04  0.11000409382E+04 0.  0.
        4    1    3    3  502    0 -0.40068955627E+03  0.35368799569E+03 -0.40362668325E+03  0.66974878211E+03  0.12699999809E+01 0. -1.
       -4    1    3    3    0  502  0.40068955627E+03 -0.35368799569E+03 -0.78634828708E+03  0.95078523353E+03  0.12699999809E+01 0.  1.
</event>
<event>
 5   0  0.1503277E-04  0.1100541E+04  0.7818609E-02  0.9204665E-01
        2   -1    0    0  501    0  0.00000000000E+00  0.00000000000E+00  0.10047138677E+04  0.10047138677E+04  0.25500000920E-02 0. -1.
       -2   -1    0    0    0  501  0.00000000000E+00  0.00000000000E+00 -0.30137699375E+03  0.30137699376E+03  0.25500000920E-02 0.  1.
    10030    2    1    2    0    0  0.00000000000E+00  0.00000000000E+00  0.70333687391E+03  0.13060908614E+04  0.11005410397E+04 0.  0.
        5    1    3    3  502    0  0.19295670609E+03  0.18747070012E+03  0.92131633873E+03  0.95980385488E+03  0.46999998093E+01 0. -1.
       -5    1    3    3    0  502 -0.19295670609E+03 -0.18747070012E+03 -0.21797946481E+03  0.34628700655E+03  0.46999998093E+01 0.  1.
</event>
<event>
 5   0  0.9016738E-05  0.1101961E+04  0.7818609E-02  0.9203282E-01
       -1   -1    0    0    0  501  0.00000000000E+00  0.00000000000E+00  0.53040134624E+03  0.53040134626E+03  0.50400001928E-02 0.  1.
        1   -1    0    0  501    0  0.00000000000E+00  0.00000000000E+00 -0.57235849703E+03  0.57235849705E+03  0.50400001928E-02 0. -1.
    10030    2    1    2    0    0  0.00000000000E+00  0.00000000000E+00 -0.41957150790E+02  0.11027598433E+04  0.11019613739E+04 0.  0.
        4    1    3    3  502    0  0.50436249314E+03 -0.19969040437E+03 -0.11759034537E+03  0.55505574883E+03  0.12699999809E+01 0.  1.
       -4    1    3    3    0  502 -0.50436249314E+03  0.19969040437E+03  0.75633194585E+02  0.54770409448E+03  0.12699999809E+01 0. -1.
</event>
<event>
 5   0  0.8921459E-05  0.1098951E+04  0.7818609E-02  0.9206215E-01
        1   -1    0    0  501    0  0.00000000000E+00  0.00000000000E+00  0.19498528611E+04  0.19498528611E+04  0.50400001928E-02 0.  1.
       -1   -1    0    0    0  501  0.00000000000E+00  0.00000000000E+00 -0.15484405311E+03  0.15484405319E+03  0.50400001928E-02 0. -1.
    10030    2    1    2    0    0  0.00000000000E+00  0.00000000000E+00  0.17950088080E+04  0.21046969143E+04  0.10989506269E+04 0.  0.
        3    1    3    3  502    0  0.18320304769E+03  0.55199227268E+02 -0.88980590444E+02  0.21101627200E+03  0.10100000352E+00 0. -1.
       -3    1    3    3    0  502 -0.18320304769E+03 -0.55199227268E+02  0.18839893985E+04  0.18936806423E+04  0.10100000352E+00 0.  1.
</event>
<event>
 5   0  0.1553937E-04  0.1100398E+04  0.7818609E-02  0.9204804E-01
        2   -1    0    0  501    0  0.00000000000E+00  0.00000000000E+00  0.63046116279E+03  0.63046116279E+03  0.25500000920E-02 0.  1.
       -2   -1    0    0    0  501  0.00000000000E+00  0.00000000000E+00 -0.48015471640E+03  0.48015471641E+03  0.25500000920E-02 0. -1.
    10030    2    1    2    0    0  0.00000000000E+00  0.00000000000E+00  0.15030644639E+03  0.11106158792E+04  0.11003979295E+04 0.  0.
        1    1    3    3  502    0  0.29564138571E+03 -0.46379897618E+03  0.89624477697E+02  0.55726642307E+03  0.50400001928E-02 0.  1.
       -1    1    3    3    0  502 -0.29564138571E+03  0.46379897618E+03  0.60681968690E+02  0.55334945613E+03  0.50400001928E-02 0. -1.
</event>
<event>
 5   0  0.1574101E-04  0.1100243E+04  0.7818609E-02  0.9204955E-01
       -2   -1    0    0    0  501  0.00000000000E+00  0.00000000000E+00  0.99965783097E+03  0.99965783097E+03  0.25500000920E-02 0. -1.
        2   -1    0    0  501    0  0.00000000000E+00  0.00000000000E+00 -0.30273729246E+03  0.30273729247E+03  0.25500000920E-02 0.  1.
    10030    2    1    2    0    0  0.00000000000E+00  0.00000000000E+00  0.69692053850E+03  0.13023951234E+04  0.11002430734E+04 0.  0.
        4    1    3    3  502    0  0.28227356740E+03 -0.14999309420E+03 -0.18152454817E+03  0.36759906100E+03  0.12699999809E+01 0.  1.
       -4    1    3    3    0  502 -0.28227356740E+03  0.14999309420E+03  0.87844508667E+03  0.93479606244E+03  0.12699999809E+01 0. -1.
</event>
<event>
 5   0  0.1464205E-04  0.1100252E+04  0.7818609E-02  0.9204947E-01
       -2   -1    0    0    0  501  0.00000000000E+00  0.00000000000E+00  0.83586143751E+03  0.83586143752E+03  0.25500000920E-02 0. -1.
        2   -1    0    0  501    0  0.00000000000E+00  0.00000000000E+00 -0.36206763794E+03  0.36206763795E+03  0.25500000920E-02 0.  1.
    10030    2    1    2    0    0  0.00000000000E+00  0.00000000000E+00  0.47379379958E+03  0.11979290755E+04  0.11002515646E+04 0.  0.
        3    1    3    3  502    0 -0.13028109892E+03  0.51767002712E+03  0.38167951001E+03  0.65622761316E+03  0.10100000352E+00 0. -1.
       -3    1    3    3    0  502  0.13028109892E+03 -0.51767002712E+03  0.92114289568E+02  0.54170146230E+03  0.10100000352E+00 0.  1.
</event>
<event>
 5   0  0.8621738E-05  0.1099084E+04  0.7818609E-02  0.9206085E-01
       -1   -1    0    0    0  501  0.00000000000E+00  0.00000000000E+00  0.19089015589E+03  0.19089015596E+03  0.50400001928E-02 0. -1.
        1   -1    0    0  501    0  0.00000000000E+00  0.00000000000E+00 -0.15820429558E+04  0.15820429558E+04  0.50400001928E-02 0.  1.
    10030    2    1    2    0    0  0.00000000000E+00  0.00000000000E+00 -0.13911527999E+04  0.17729331118E+04  0.10990840305E+04 0.  0.
        2    1    3    3  502    0  0.19219106870E+03  0.42006548969E+03 -0.21541402361E+03  0.50970150490E+03  0.25500000920E-02 0.  1.
       -2    1    3    3    0  502 -0.19219106870E+03 -0.42006548969E+03 -0.11757387763E+04  0.12632316069E+04  0.25500000920E-02 0. -1.
</event>
<event>
 5   0  0.8621738E-05  0.1100464E+04  0.7818609E-02  0.9204740E-01
        1   -1    0    0  501    0  0.00000000000E+00  0.00000000000E+00  0.60787820474E+03  0.60787820477E+03  0.50400001928E-02 0. -1.
       -1   -1    0    0    0  501  0.00000000000E+00  0.00000000000E+00 -0.49805234135E+03  0.49805234138E+03  0.50400001928E-02 0.  1.
    10030    2    1    2    0    0  0.00000000000E+00  0.00000000000E+00  0.10982586339E+03  0.11059305461E+04  0.11004638352E+04 0.  0.
        2    1    3    3  502    0 -0.46345416063E+03 -0.15872277707E+03  0.30670192225E+03  0.57796950446E+03  0.25500000920E-02 0. -1.
       -2    1    3    3    0  502  0.46345416063E+03  0.15872277707E+03 -0.19687605886E+03  0.52796104168E+03  0.25500000920E-02 0.  1.
</event>
<event>
 5   0  0.1503277E-04  0.1100158E+04  0.7818609E-02  0.9205038E-01
        2   -1    0    0  501    0  0.00000000000E+00  0.00000000000E+00  0.66766673848E+03  0.66766673849E+03  0.25500000920E-02 0.  1.
       -2   -1    0    0    0  501  0.00000000000E+00  0.00000000000E+00 -0.45320058637E+03  0.45320058638E+03  0.25500000920E-02 0. -1.
    10030    2    1    2    0    0  0.00000000000E+00  0.00000000000E+00  0.21446615211E+03  0.11208673249E+04  0.11001580930E+04 0.  0.
        5    1    3    3  502    0 -0.52640928450E+03  0.53749833767E+02 -0.45824952647E+02  0.53114762140E+03  0.46999998093E+01 0. -1.
       -5    1    3    3    0  502  0.52640928450E+03 -0.53749833767E+02  0.26029110475E+03  0.58971970346E+03  0.46999998093E+01 0.  1.
</event>
<event>
 5   0  0.8657442E-05  0.1095944E+04  0.7818609E-02  0.9209154E-01
       -1   -1    0    0    0  501  0.00000000000E+00  0.00000000000E+00  0.25789848965E+03  0.25789848970E+03  0.50400001928E-02 0. -1.
        1   -1    0    0  501    0  0.00000000000E+00  0.00000000000E+00 -0.11643085153E+04  0.11643085153E+04  0.50400001928E-02 0.  1.
    10030    2    1    2    0    0  0.00000000000E+00  0.00000000000E+00 -0.90641002565E+03  0.14222070050E+04  0.10959441731E+04 0.  0.
        1    1    3    3  502    0 -0.32708574533E+03 -0.11864768457E+03  0.96154656975E+02  0.36098209919E+03  0.50400001928E-02 0. -1.
       -1    1    3    3    0  502  0.32708574533E+03  0.11864768457E+03 -0.10025646826E+04  0.10612249058E+04  0.50400001928E-02 0.  1.
</event>
<event>
 5   0  0.1464205E-04  0.1099777E+04  0.7818609E-02  0.9205409E-01
       -2   -1    0    0    0  501  0.00000000000E+00  0.00000000000E+00  0.29182218364E+03  0.29182218365E+03  0.25500000920E-02 0. -1.
        2   -1    0    0  501    0  0.00000000000E+00  0.00000000000E+00 -0.10361700516E+04  0.10361700516E+04  0.25500000920E-02 0.  1.
    10030    2    1    2    0    0  0.00000000000E+00  0.00000000000E+00 -0.74434786796E+03  0.13279922353E+04  0.10997770812E+04 0.  0.
        3    1    3    3  502    0  0.45238363926E+03  0.30968292359E+03 -0.42372948934E+03  0.69289332553E+03  0.10100000352E+00 0. -1.
       -3    1    3    3    0  502 -0.45238363926E+03 -0.30968292359E+03 -0.32061837861E+03  0.63509890972E+03  0.10100000352E+00 0.  1.
</event>
<event>
 5   0  0.6010125E-05  0.1100201E+04  0.7818609E-02  0.9204996E-01
       -4   -1    0    0    0  501  0.00000000000E+00  0.00000000000E+00  0.15271863876E+04  0.15271869157E+04  0.12699999809E+01 0.  1.
        4   -1    0    0  501    0  0.00000000000E+00  0.00000000000E+00 -0.19814657897E+03  0.19815064889E+03  0.12699999809E+01 0. -1.
    10030    2    1    2    0    0  0.00000000000E+00  0.00000000000E+00  0.13290398087E+04  0.17253375646E+04  0.11002012992E+04 0.  0.
        1    1    3    3  502    0  0.41276599025E+03 -0.18169724309E+03  0.17054613722E+03  0.48215727289E+03  0.50400001928E-02 0. -1.
       -1    1    3    3    0  502 -0.41276599025E+03  0.18169724309E+03  0.11584936715E+04  0.12431802917E+04  0.50400001928E-02 0.  1.
</event>
<event>
 5   0  0.9016738E-05  0.1099825E+04  0.7818609E-02  0.9205362E-01
       -1   -1    0    0    0  501  0.00000000000E+00  0.00000000000E+00  0.45387475605E+03  0.45387475608E+03  0.50400001928E-02 0.  1.
        1   -1    0    0  501    0  0.00000000000E+00  0.00000000000E+00 -0.66627177179E+03  0.66627177181E+03  0.50400001928E-02 0. -1.
    10030    2    1    2    0    0  0.00000000000E+00  0.00000000000E+00 -0.21239701574E+03  0.11201465279E+04  0.10998253278E+04 0.  0.
        4    1    3    3  502    0 -0.12907349787E+03 -0.52270012222E+03 -0.22019030704E+03  0.58168786289E+03  0.12699999809E+01 0. -1.
       -4    1    3    3    0  502  0.12907349787E+03  0.52270012222E+03  0.77932913008E+01  0.53845866500E+03  0.12699999809E+01 0.  1.
</event>
<event>
 5   0  0.9346836E-05  0.1101893E+04  0.7818609E-02  0.9203348E-01
       -1   -1    0    0    0  501  0.00000000000E+00  0.00000000000E+00  0.54169104446E+03  0.54169104448E+03  0.50400001928E-02 0.  1.
        1   -1    0    0  501    0  0.00000000000E+00  0.00000000000E+00 -0.56036058367E+03  0.56036058369E+03  0.50400001928E-02 0. -1.
    10030    2    1    2    0    0  0.00000000000E+00  0.00000000000E+00 -0.18669539212E+02  0.11020516282E+04  0.11018934792E+04 0.  0.
        5    1    3    3  502    0 -0.23498582518E+03 -0.44116120617E+03 -0.24105460378E+03  0.55495131306E+03  0.46999998093E+01 0. -1.
       -5    1    3    3    0  502  0.23498582518E+03  0.44116120617E+03  0.22238506456E+03  0.54710031512E+03  0.46999998093E+01 0.  1.
</event>
<event>
 5   0  0.1574101E-04  0.1099570E+04  0.7818609E-02  0.9205611E-01
        2   -1    0    0  501    0  0.00000000000E+00  0.00000000000E+00  0.37724045171E+03  0.37724045172E+03  0.25500000920E-02 0. -1.
       -2   -1    0    0    0  501  0.00000000000E+00  0.00000000000E+00 -0.80124847958E+03  0.80124847959E+03  0.25500000920E-02 0.  1.
    10030    2    1    2    0    0  0.00000000000E+00  0.00000000000E+00 -0.42400802787E+03  0.11784889313E+04  0.10995696219E+04 0.  0.
        4    1    3    3  502    0 -0.69557269431E+02  0.10321412906E+03 -0.78594851871E+03  0.79574371322E+03  0.12699999809E+01 0.  1.
       -4    1    3    3    0  502  0.69557269431E+02 -0.10321412906E+03  0.36194049083E+03  0.38274521809E+03  0.12699999809E+01 0. -1.
</event>
<event>
 5   0  0.9346836E-05  0.1100317E+04  0.7818609E-02  0.9204883E-01
        1   -1    0    0  501    0  0.00000000000E+00  0.00000000000E+00  0.33398760380E+03  0.33398760384E+03  0.50400001928E-02 0. -1.
       -1   -1    0    0    0  501  0.00000000000E+00  0.00000000000E+00 -0.90624436909E+03  0.90624436911E+03  0.50400001928E-02 0.  1.
    10030    2    1    2    0    0  0.00000000000E+00  0.00000000000E+00 -0.57225676529E+03  0.12402319729E+04  0.11003170185E+04 0.  0.
        5    1    3    3  502    0 -0.17321088458E+03  0.36956865549E+03 -0.70190987925E+03  0.81196217292E+03  0.46999998093E+01 0.  1.
       -5    1    3    3    0  502  0.17321088458E+03 -0.36956865549E+03  0.12965311396E+03  0.42826980003E+03  0.46999998093E+01 0. -1.
</event>
<event>
 5   0  0.1540772E-04  0.1099986E+04  0.7818609E-02  0.9205205E-01
        2   -1    0    0  501    0  0.00000000000E+00  0.00000000000E+00  0.75254355894E+03  0.75254355895E+03  0.25500000920E-02 0.  1.
       -2   -1    0    0    0  501  0.00000000000E+00  0.00000000000E+00 -0.40196010287E+03  0.40196010288E+03  0.25500000920E-02 0. -1.
    10030    2    1    2    0    0  0.00000000000E+00  0.00000000000E+00  0.35058345607E+03  0.11545036618E+04  0.10999863388E+04 0.  0.
        2    1    3    3  502    0  0.38092055969E+02 -0.20450099725E+03 -0.35907937685E+03  0.41498151946E+03  0.25500000920E-02 0. -1.
       -2    1    3    3    0  502 -0.38092055969E+02  0.20450099725E+03  0.70966283293E+03  0.73952214237E+03  0.25500000920E-02 0.  1.
</event>
<event>
 5   0  0.8621738E-05  0.1100100E+04  0.7818609E-02  0.9205094E-01
        1   -1    0    0  501    0  0.00000000000E+00  0.00000000000E+00  0.40426260332E+03  0.40426260335E+03  0.50400001928E-02 0.  1.
       -1   -1    0    0    0  501  0.00000000000E+00  0.00000000000E+00 -0.74841262169E+03  0.74841262171E+03  0.50400001928E-02 0. -1.
    10030    2    1    2    0    0  0.00000000000E+00  0.00000000000E+00 -0.34415001837E+03  0.11526752251E+04  0.11001004224E+04 0.  0.
        2    1    3    3  502    0 -0.39236145085E+03  0.35368734962E+03 -0.11407332114E+02  0.52836765290E+03  0.25500000920E-02 0.  1.
       -2    1    3    3    0  502  0.39236145085E+03 -0.35368734962E+03 -0.33274268625E+03  0.62430757216E+03  0.25500000920E-02 0. -1.
</event>
<event>
 5   0  0.9016738E-05  0.1099634E+04  0.7818609E-02  0.9205549E-01
        1   -1    0    0  501    0  0.00000000000E+00  0.00000000000E+00  0.39319200592E+03  0.39319200595E+03  0.50400001928E-02 0.  1.
       -1   -1    0    0    0  501  0.00000000000E+00  0.00000000000E+00 -0.76883222743E+03  0.76883222745E+03  0.50400001928E-02 0. -1.
    10030    2    1    2    0    0  0.00000000000E+00  0.00000000000E+00 -0.37564022151E+03  0.11620242334E+04  0.10996339132E+04 0.  0.
        4    1    3    3  502    0 -0.16319371090E+03  0.42814078112E+02  0.36515939051E+03  0.40225393216E+03  0.12699999809E+01 0.  1.
       -4    1    3    3    0  502  0.16319371090E+03 -0.42814078112E+02 -0.74079961202E+03  0.75977030123E+03  0.12699999809E+01 0. -1.
</event>
<event>
 5   0  0.1540772E-04  0.1099803E+04  0.7818609E-02  0.9205383E-01
        2   -1    0    0  501    0  0.00000000000E+00  0.00000000000E+00  0.36436233098E+03  0.36436233099E+03  0.25500000920E-02 0. -1.
       -2   -1    0    0    0  501  0.00000000000E+00  0.00000000000E+00 -0.82992090903E+03  0.82992090904E+03  0.25500000920E-02 0.  1.
    10030    2    1    2    0    0  0.00000000000E+00  0.00000000000E+00 -0.46555857805E+03  0.11942832400E+04  0.10998034678E+04 0.  0.
        2    1    3    3  502    0 -0.27027508122E+03  0.46557362502E+03 -0.11096164791E+03  0.54965435244E+03  0.25500000920E-02 0. -1.
       -2    1    3    3    0  502  0.27027508122E+03 -0.46557362502E+03 -0.35459693015E+03  0.64462888759E+03  0.25500000920E-02 0.  1.
</event>
<event>
 5   0  0.1553937E-04  0.1100504E+04  0.7818609E-02  0.9204701E-01
       -2   -1    0    0    0  501  0.00000000000E+00  0.00000000000E+00  0.52741410714E+03  0.52741410714E+03  0.25500000920E-02 0.  1.
        2   -1    0    0  501    0  0.00000000000E+00  0.00000000000E+00 -0.57407879174E+03  0.57407879175E+03  0.25500000920E-02 0. -1.
    10030    2    1    2    0    0  0.00000000000E+00  0.00000000000E+00 -0.46664684604E+02  0.11014928989E+04  0.11005039816E+04 0.  0.
        1    1    3    3  502    0 -0.51401797439E+03 -0.60934150703E+02 -0.21018111839E+03  0.55866228732E+03  0.50400001928E-02 0. -1.
       -1    1    3    3    0  502  0.51401797439E+03  0.60934150703E+02  0.16351643379E+03  0.54283061157E+03  0.50400001928E-02 0.  1.
</event>
<event>
 5   0  0.8621738E-05  0.1099963E+04  0.7818609E-02  0.9205228E-01
       -1   -1    0    0    0  501  0.00000000000E+00  0.00000000000E+00  0.82212946232E+03  0.82212946234E+03  0.50400001928E-02 0. -1.
        1   -1    0    0  501    0  0.00000000000E+00  0.00000000000E+00 -0.36792229613E+03  0.36792229616E+03  0.50400001928E-02 0.  1.
    10030    2    1    2    0    0  0.00000000000E+00  0.00000000000E+00  0.45420716619E+03  0.11900517585E+04  0.10999631985E+04 0.  0.
        2    1    3    3  502    0 -0.86993042754E+02 -0.28630655462E+03 -0.27214501875E+03  0.40447761860E+03  0.25500000920E-02 0.  1.
       -2    1    3    3    0  502  0.86993042754E+02  0.28630655462E+03  0.72635218494E+03  0.78557413990E+03  0.25500000920E-02 0. -1.
</event>
<event>
 5   0  0.8657442E-05  0.1099978E+04  0.7818609E-02  0.9205213E-01
        1   -1    0    0  501    0  0.00000000000E+00  0.00000000000E+00  0.11385536596E+04  0.11385536596E+04  0.50400001928E-02 0. -1.
       -1   -1    0    0    0  501  0.00000000000E+00  0.00000000000E+00 -0.26567754165E+03  0.26567754169E+03  0.50400001928E-02 0.  1.
    10030    2    1    2    0    0  0.00000000000E+00  0.00000000000E+00  0.87287611796E+03  0.14042312013E+04  0.10999784313E+04 0.  0.
        1    1    3    3  502    0  0.41811328864E+02  0.54697212382E+03  0.48688303460E+03  0.73347241316E+03  0.50400001928E-02 0. -1.
       -1    1    3    3    0  502 -0.41811328864E+02 -0.54697212382E+03  0.38599308336E+03  0.67075878815E+03  0.50400001928E-02 0.  1.
</event>
<event>
 5   0  0.9016738E-05  0.1099279E+04  0.7818609E-02  0.9205895E-01
       -1   -1    0    0    0  501  0.00000000000E+00  0.00000000000E+00  0.40679009348E+03  0.40679009351E+03  0.50400001928E-02 0. -1.
        1   -1    0    0  501    0  0.00000000000E+00  0.00000000000E+00 -0.74265161964E+03  0.74265161966E+03  0.50400001928E-02 0.  1.
    10030    2    1    2    0    0  0.00000000000E+00  0.00000000000E+00 -0.33586152616E+03  0.11494417132E+04  0.10992785303E+04 0.  0.
        4    1    3    3  502    0  0.75053725347E+02  0.32750978583E+03  0.28689666365E+03  0.44182239646E+03  0.12699999809E+01 0. -1.
       -4    1    3    3    0  502 -0.75053725347E+02 -0.32750978583E+03 -0.62275818981E+03  0.70761931670E+03  0.12699999809E+01 0.  1.
</event>
<event>
 5   0  0.1574101E-04  0.1100416E+04  0.7818609E-02  0.9204787E-01
       -2   -1    0    0    0  501  0.00000000000E+00  0.00000000000E+00  0.22113813274E+03  0.22113813276E+03  0.25500000920E-02 0. -1.
        2   -1    0    0  501    0  0.00000000000E+00  0.00000000000E+00 -0.13689571355E+04  0.13689571355E+04  0.25500000920E-02 0.  1.
    10030    2    1    2    0    0  0.00000000000E+00  0.00000000000E+00 -0.11478190027E+04  0.15900952682E+04  0.11004156029E+04 0.  0.
        4    1    3    3  502    0  0.34808911455E+03  0.42311003686E+03 -0.64671886356E+03  0.84760547211E+03  0.12699999809E+01 0.  1.
       -4    1    3    3    0  502 -0.34808911455E+03 -0.42311003686E+03 -0.50110013917E+03  0.74248979612E+03  0.12699999809E+01 0. -1.
</event>
<event>
 5   0  0.8921459E-05  0.1099866E+04  0.7818609E-02  0.9205322E-01
       -1   -1    0    0    0  501  0.00000000000E+00  0.00000000000E+00  0.48070527202E+03  0.48070527205E+03  0.50400001928E-02 0.  1.
        1   -1    0    0  501    0  0.00000000000E+00  0.00000000000E+00 -0.62913085813E+03  0.62913085815E+03  0.50400001928E-02 0. -1.
    10030    2    1    2    0    0  0.00000000000E+00  0.00000000000E+00 -0.14842558611E+03  0.11098361302E+04  0.10998663925E+04 0.  0.
        3    1    3    3  502    0  0.52230554476E+03 -0.17043975622E+03 -0.98382310893E+02  0.55815041153E+03  0.10100000352E+00 0. -1.
       -3    1    3    3    0  502 -0.52230554476E+03  0.17043975622E+03 -0.50043275219E+02  0.55168571867E+03  0.10100000352E+00 0.  1.
</event>
<event>
 5   0  0.8657442E-05  0.1100203E+04  0.7818609E-02  0.9204994E-01
        1   -1    0    0  501    0  0.00000000000E+00  0.00000000000E+00  0.69952747568E+03  0.69952747570E+03  0.50400001928E-02 0.  1.
       -1   -1    0    0    0  501  0.00000000000E+00  0.00000000000E+00 -0.43259477727E+03  0.43259477730E+03  0.50400001928E-02 0. -1.
    10030    2    1    2    0    0  0.00000000000E+00  0.00000000000E+00  0.26693269841E+03  0.11321222530E+04  0.11002034949E+04 0.  0.
        1    1    3    3  502    0  0.44789297850E+02 -0.19948843349E+03 -0.39204561309E+03  0.44215549196E+03  0.50400001928E-02 0. -1.
       -1    1    3    3    0  502 -0.44789297850E+02  0.19948843349E+03  0.65897831149E+03  0.68996676104E+03  0.50400001928E-02 0.  1.
</event>
<event>
 5   0  0.8657442E-05  0.1099839E+04  0.7818609E-02  0.9205349E-01
       -1   -1    0    0    0  501  0.00000000000E+00  0.00000000000E+00  0.33842092009E+03  0.33842092012E+03  0.50400001928E-02 0. -1.
        1   -1    0    0  501    0  0.00000000000E+00  0.00000000000E+00 -0.89359490107E+03  0.89359490108E+03  0.50400001928E-02 0.  1.
    10030    2    1    2    0    0  0.00000000000E+00  0.00000000000E+00 -0.55517398098E+03  0.12320158212E+04  0.10998385493E+04 0.  0.
        1    1    3    3  502    0  0.23714431962E+03  0.10541677061E+03  0.26551039907E+03  0.37127603733E+03  0.50400001928E-02 0. -1.
       -1    1    3    3    0  502 -0.23714431962E+03 -0.10541677061E+03 -0.82068438005E+03  0.86073978388E+03  0.50400001928E-02 0.  1.
</event>
<event>
 5   0  0.1574101E-04  0.1099978E+04  0.7818609E-02  0.9205213E-01
       -2   -1    0    0    0  501  0.00000000000E+00  0.00000000000E+00  0.62389933334E+03  0.62389933335E+03  0.25500000920E-02 0.  1.
        2   -1    0    0  501    0  0.00000000000E+00  0.00000000000E+00 -0.48483483253E+03  0.48483483254E+03  0.25500000920E-02 0. -1.
    10030    2    1    2    0    0  0.00000000000E+00  0.00000000000E+00  0.13906450081E+03  0.11087341659E+04  0.10999784158E+04 0.  0.
        4    1    3    3  502    0 -0.44342983050E+03  0.26944888681E+03 -0.11427553358E+03  0.53131273997E+03  0.12699999809E+01 0.  1.
       -4    1    3    3    0  502  0.44342983050E+03 -0.26944888681E+03  0.25334003440E+03  0.57742142592E+03  0.12699999809E+01 0. -1.
</event>
<event>
 5   0  0.1464205E-04  0.1100087E+04  0.7818609E-02  0.9205107E-01
        2   -1    0    0  501    0  0.00000000000E+00  0.00000000000E+00  0.73831538381E+03  0.73831538382E+03  0.25500000920E-02 0. -1.
       -2   -1    0    0    0  501  0.00000000000E+00  0.00000000000E+00 -0.40978161183E+03  0.40978161183E+03  0.25500000920E-02 0.  1.
    10030    2    1    2    0    0  0.00000000000E+00  0.00000000000E+00  0.32853377199E+03  0.11480969957E+04  0.11000873929E+04 0.  0.
        3    1    3    3  502    0  0.29053704864E+03  0.19335005952E+03  0.60797052582E+03  0.70101654233E+03  0.10100000352E+00 0. -1.
       -3    1    3    3    0  502 -0.29053704864E+03 -0.19335005952E+03 -0.27943675383E+03  0.44708045332E+03  0.10100000352E+00 0.  1.
</event>
<event>
 5   0  0.6010125E-05  0.1100191E+04  0.7818609E-02  0.9205006E-01
       -3   -1    0    0    0  501  0.00000000000E+00  0.00000000000E+00  0.25581344280E+03  0.25581346274E+03  0.10100000352E+00 0.  1.
        3   -1    0    0  501    0  0.00000000000E+00  0.00000000000E+00 -0.11829133982E+04  0.11829134026E+04  0.10100000352E+00 0. -1.
    10030    2    1    2    0    0  0.00000000000E+00  0.00000000000E+00 -0.92709995545E+03  0.14387268653E+04  0.11001911950E+04 0.  0.
        3    1    3    3  502    0  0.22776842146E+03 -0.49273182350E+03 -0.34700956161E+03  0.64426605510E+03  0.10100000352E+00 0.  1.
       -3    1    3    3    0  502 -0.22776842146E+03  0.49273182350E+03 -0.58009039383E+03  0.79446081019E+03  0.10100000352E+00 0. -1.
</event>
<event>
 5   0  0.1503277E-04  0.1099884E+04  0.7818609E-02  0.9205305E-01
        2   -1    0    0  501    0  0.00000000000E+00  0.00000000000E+00  0.29684462457E+03  0.29684462458E+03  0.25500000920E-02 0.  1.
       -2   -1    0    0    0  501  0.00000000000E+00  0.00000000000E+00 -0.10188370130E+04  0.10188370130E+04  0.25500000920E-02 0. -1.
    10030    2    1    2    0    0  0.00000000000E+00  0.00000000000E+00 -0.72199238845E+03  0.13156816376E+04  0.10998841587E+04 0.  0.
        5    1    3    3  502    0  0.41246137293E+03  0.11284677966E+03 -0.77460378689E+03  0.88481178593E+03  0.46999998093E+01 0. -1.
       -5    1    3    3    0  502 -0.41246137293E+03 -0.11284677966E+03  0.52611398444E+02  0.43086985168E+03  0.46999998093E+01 0.  1.
</event>
<event>
 5   0  0.1464205E-04  0.1100273E+04  0.7818609E-02  0.9204926E-01
       -2   -1    0    0    0  501  0.00000000000E+00  0.00000000000E+00  0.52854443187E+03  0.52854443188E+03  0.25500000920E-02 0.  1.
        2   -1    0    0  501    0  0.00000000000E+00  0.00000000000E+00 -0.57261095375E+03  0.57261095375E+03  0.25500000920E-02 0. -1.
    10030    2    1    2    0    0  0.00000000000E+00  0.00000000000E+00 -0.44066521873E+02  0.11011553856E+04  0.11002732956E+04 0.  0.
        3    1    3    3  502    0 -0.12910397546E+03 -0.41351619502E+03  0.31733569024E+03  0.53699667645E+03  0.10100000352E+00 0.  1.
       -3    1    3    3    0  502  0.12910397546E+03  0.41351619502E+03 -0.36140221211E+03  0.56415870918E+03  0.10100000352E+00 0. -1.
</event>
<event>
 5   0  0.8921459E-05  0.1101304E+04  0.7818609E-02  0.9203922E-01
       -1   -1    0    0    0  501  0.00000000000E+00  0.00000000000E+00  0.67962952228E+03  0.67962952230E+03  0.50400001928E-02 0. -1.
        1   -1    0    0  501    0  0.00000000000E+00  0.00000000000E+00 -0.44615154280E+03  0.44615154283E+03  0.50400001928E-02 0.  1.
    10030    2    1    2    0    0  0.00000000000E+00  0.00000000000E+00  0.23347797948E+03  0.11257810651E+04  0.11013042448E+04 0.  0.
        3    1    3    3  502    0  0.40068520979E+02  0.48603854262E+03  0.37811462057E+03  0.61709774573E+03  0.10100000352E+00 0.  1.
       -3    1    3    3    0  502 -0.40068520979E+02 -0.48603854262E+03 -0.14463664109E+03  0.50868331940E+03  0.10100000352E+00 0. -1.
</event>
<event>
 5   0  0.1503277E-04  0.1100295E+04  0.7818609E-02  0.9204905E-01
       -2   -1    0    0    0  501  0.00000000000E+00  0.00000000000E+00  0.48311485058E+03  0.48311485058E+03  0.25500000920E-02 0. -1.
        2   -1    0    0  501    0  0.00000000000E+00  0.00000000000E+00 -0.62648060888E+03  0.62648060888E+03  0.25500000920E-02 0.  1.
    10030    2    1    2    0    0  0.00000000000E+00  0.00000000000E+00 -0.14336575830E+03  0.11095954595E+04  0.11002946619E+04 0.  0.
        5    1    3    3  502    0 -0.36325340625E+03 -0.29961324319E+03  0.21518409407E+03  0.51773295915E+03  0.46999998093E+01 0. -1.
       -5    1    3    3    0  502  0.36325340625E+03  0.29961324319E+03 -0.35854985237E+03  0.59186250032E+03  0.46999998093E+01 0.  1.
</event>
<event>
 5   0  0.1540772E-04  0.1099976E+04  0.7818609E-02  0.9205215E-01
       -2   -1    0    0    0  501  0.00000000000E+00  0.00000000000E+00  0.80050422600E+03  0.80050422600E+03  0.25500000920E-02 0.  1.
        2   -1    0    0  501    0  0.00000000000E+00  0.00000000000E+00 -0.37787056935E+03  0.37787056936E+03  0.25500000920E-02 0. -1.
    10030    2    1    2    0    0  0.00000000000E+00  0.00000000000E+00  0.42263365665E+03  0.11783747954E+04  0.10999763409E+04 0.  0.
        2    1    3    3  502    0  0.88071228283E+02  0.24858957254E+03  0.72834741492E+03  0.77462460176E+03  0.25500000920E-02 0.  1.
       -2    1    3    3    0  502 -0.88071228283E+02 -0.24858957254E+03 -0.30571375828E+03  0.40375019360E+03  0.25500000920E-02 0. -1.
</event>
<event>
 5   0  0.1503277E-04  0.1100013E+04  0.7818609E-02  0.9205179E-01
       -2   -1    0    0    0  501  0.00000000000E+00  0.00000000000E+00  0.29673506566E+03  0.29673506567E+03  0.25500000920E-02 0.  1.
        2   -1    0    0  501    0  0.00000000000E+00  0.00000000000E+00 -0.10194515858E+04  0.10194515858E+04  0.25500000920E-02 0. -1.
    10030    2    1    2    0    0  0.00000000000E+00  0.00000000000E+00 -0.72271652015E+03  0.13161866515E+04  0.11000127877E+04 0.  0.
        5    1    3    3  502    0 -0.12869993436E+03 -0.30302715699E+02 -0.10001282079E+04  0.10088411420E+04  0.46999998093E+01 0. -1.
       -5    1    3    3    0  502  0.12869993436E+03  0.30302715699E+02  0.27741168773E+03  0.30734550944E+03  0.46999998093E+01 0.  1.
</event>
<event>
 5   0  0.8657442E-05  0.1099887E+04  0.7818609E-02  0.9205302E-01
        1   -1    0    0  501    0  0.00000000000E+00  0.00000000000E+00  0.10014893624E+04  0.10014893624E+04  0.50400001928E-02 0.  1.
       -1   -1    0    0    0  501  0.00000000000E+00  0.00000000000E+00 -0.30198834432E+03  0.30198834437E+03  0.50400001928E-02 0. -1.
    10030    2    1    2    0    0  0.00000000000E+00  0.00000000000E+00  0.69950101806E+03  0.13034777068E+04  0.10998874750E+04 0.  0.
        1    1    3    3  502    0 -0.52297425294E+03 -0.93590550177E+02  0.18141254197E+03  0.56140161269E+03  0.50400001928E-02 0. -1.
       -1    1    3    3    0  502  0.52297425294E+03  0.93590550177E+02  0.51808847609E+03  0.74207609407E+03  0.50400001928E-02 0.  1.
</event>
<event>
 5   0  0.1540772E-04  0.1099426E+04  0.7818609E-02  0.9205751E-01
       -2   -1    0    0    0  501  0.00000000000E+00  0.00000000000E+00  0.38849773159E+03  0.38849773160E+03  0.25500000920E-02 0. -1.
        2   -1    0    0  501    0  0.00000000000E+00  0.00000000000E+00 -0.77782857975E+03  0.77782857976E+03  0.25500000920E-02 0.  1.
    10030    2    1    2    0    0  0.00000000000E+00  0.00000000000E+00 -0.38933084816E+03  0.11663263114E+04  0.10994264665E+04 0.  0.
        2    1    3    3  502    0 -0.30854682653E+03  0.31773638805E+03 -0.54009720437E+03  0.69847157897E+03  0.25500000920E-02 0.  1.
       -2    1    3    3    0  502  0.30854682653E+03 -0.31773638805E+03  0.15076635621E+03  0.46785473239E+03  0.25500000920E-02 0. -1.
</event>
<event>
 5   0  0.9346836E-05  0.1099837E+04  0.7818609E-02  0.9205351E-01
        1   -1    0    0  501    0  0.00000000000E+00  0.00000000000E+00  0.44416614037E+03  0.44416614039E+03  0.50400001928E-02 0.  1.
       -1   -1    0    0    0  501  0.00000000000E+00  0.00000000000E+00 -0.68084973480E+03  0.68084973481E+03  0.50400001928E-02 0. -1.
    10030    2    1    2    0    0  0.00000000000E+00  0.00000000000E+00 -0.23668359443E+03  0.11250158752E+04  0.10998370768E+04 0.  0.
        5    1    3    3  502    0 -0.32971087186E+03 -0.96018271908E+02  0.32097808338E+03  0.47008274545E+03  0.46999998093E+01 0.  1.
       -5    1    3    3    0  502  0.32971087186E+03  0.96018271908E+02 -0.55766167781E+03  0.65493312976E+03  0.46999998093E+01 0. -1.
</event>
<event>
 5   0  0.8921459E-05  0.1100103E+04  0.7818609E-02  0.9205092E-01
       -1   -1    0    0    0  501  0.00000000000E+00  0.00000000000E+00  0.45902326584E+03  0.45902326587E+03  0.50400001928E-02 0. -1.
        1   -1    0    0  501    0  0.00000000000E+00  0.00000000000E+00 -0.65913090658E+03  0.65913090660E+03  0.50400001928E-02 0.  1.
    10030    2    1    2    0    0  0.00000000000E+00  0.00000000000E+00 -0.20010764074E+03  0.11181541725E+04  0.11001025795E+04 0.  0.
        3    1    3    3  502    0 -0.23638058940E+03 -0.26855382368E+03  0.32460506492E+03  0.48307908010E+03  0.10100000352E+00 0. -1.
       -3    1    3    3    0  502  0.23638058940E+03  0.26855382368E+03 -0.52471270567E+03  0.63507509237E+03  0.10100000352E+00 0.  1.
</event>
<event>
 5   0  0.1574101E-04  0.1100107E+04  0.7818609E-02  0.9205088E-01
        2   -1    0    0  501    0  0.00000000000E+00  0.00000000000E+00  0.44891213592E+03  0.44891213593E+03  0.25500000920E-02 0. -1.
       -2   -1    0    0    0  501  0.00000000000E+00  0.00000000000E+00 -0.67398228958E+03  0.67398228958E+03  0.25500000920E-02 0.  1.
    10030    2    1    2    0    0  0.00000000000E+00  0.00000000000E+00 -0.22507015366E+03  0.11228944255E+04  0.11001069570E+04 0.  0.
        4    1    3    3  502    0 -0.20877913088E+03 -0.48078794105E+03 -0.28275712186E+03  0.59556609425E+03  0.12699999809E+01 0.  1.
       -4    1    3    3    0  502  0.20877913088E+03  0.48078794105E+03  0.57686968201E+02  0.52732833126E+03  0.12699999809E+01 0. -1.
</event>
<event>
 5   0  0.8921459E-05  0.1100235E+04  0.7818609E-02  0.9204963E-01
        1   -1    0    0  501    0  0.00000000000E+00  0.00000000000E+00  0.31491164655E+03  0.31491164659E+03  0.50400001928E-02 0.  1.
       -1   -1    0    0    0  501  0.00000000000E+00  0.00000000000E+00 -0.96099672201E+03  0.96099672203E+03  0.50400001928E-02 0. -1.
    10030    2    1    2    0    0  0.00000000000E+00  0.00000000000E+00 -0.64608507547E+03  0.12759083686E+04  0.11002346297E+04 0.  0.
        3    1    3    3  502    0 -0.50781247260E+03  0.10346637925E+03 -0.53703295921E+03  0.74631307669E+03  0.10100000352E+00 0. -1.
       -3    1    3    3    0  502  0.50781247260E+03 -0.10346637925E+03 -0.10905211626E+03  0.52959529192E+03  0.10100000352E+00 0.  1.
</event>
<event>
 5   0  0.9016738E-05  0.1100993E+04  0.7818609E-02  0.9204225E-01
        1   -1    0    0  501    0  0.00000000000E+00  0.00000000000E+00  0.63238632203E+03  0.63238632205E+03  0.50400001928E-02 0.  1.
       -1   -1    0    0    0  501  0.00000000000E+00  0.00000000000E+00 -0.47921075020E+03  0.47921075023E+03  0.50400001928E-02 0. -1.
    10030    2    1    2    0    0  0.00000000000E+00  0.00000000000E+00  0.15317557183E+03  0.11115970723E+04  0.11009928680E+04 0.  0.
        4    1    3    3  502    0  0.97625870028E+01 -0.82577959792E+02  0.62600757731E+03  0.63150734540E+03  0.12699999809E+01 0.  1.
       -4    1    3    3    0  502 -0.97625870028E+01  0.82577959792E+02 -0.47283200548E+03  0.48008972688E+03  0.12699999809E+01 0. -1.
</event>
<event>
 5   0  0.8921459E-05  0.1100154E+04  0.7818609E-02  0.9205042E-01
        1   -1    0    0  501    0  0.00000000000E+00  0.00000000000E+00  0.76995235594E+03  0.76995235596E+03  0.50400001928E-02 0. -1.
       -1   -1    0    0    0  501  0.00000000000E+00  0.00000000000E+00 -0.39299131881E+03  0.39299131884E+03  0.50400001928E-02 0.  1.
    10030    2    1    2    0    0  0.00000000000E+00  0.00000000000E+00  0.37696103713E+03  0.11629436748E+04  0.11001537925E+04 0.  0.
        3    1    3    3  502    0  0.51733713764E+03 -0.93519202050E+02  0.17374835759E+02  0.52600898305E+03  0.10100000352E+00 0.  1.
       -3    1    3    3    0  502 -0.51733713764E+03  0.93519202050E+02  0.35958620137E+03  0.63693469175E+03  0.10100000352E+00 0. -1.
</event>
<event>
 5   0  0.1464205E-04  0.1100676E+04  0.7818609E-02  0.9204534E-01
       -2   -1    0    0    0  501  0.00000000000E+00  0.00000000000E+00  0.60740519968E+03  0.60740519968E+03  0.25500000920E-02 0. -1.
        2   -1    0    0  501    0  0.00000000000E+00  0.00000000000E+00 -0.49863214977E+03  0.49863214978E+03  0.25500000920E-02 0.  1.
    10030    2    1    2    0    0  0.00000000000E+00  0.00000000000E+00  0.10877304990E+03  0.11060373495E+04  0.11006757206E+04 0.  0.
        3    1    3    3  502    0 -0.35273632908E+02 -0.45198663279E+03  0.36789282474E+03  0.58385039701E+03  0.10100000352E+00 0. -1.
       -3    1    3    3    0  502  0.35273632908E+02  0.45198663279E+03 -0.25911977484E+03  0.52218695245E+03  0.10100000352E+00 0.  1.
</event>
<event>
 5   0  0.9016738E-05  0.1099824E+04  0.7818609E-02  0.9205363E-01
       -1   -1    0    0    0  501  0.00000000000E+00  0.00000000000E+00  0.35011214049E+03  0.35011214053E+03  0.50400001928E-02 0. -1.
        1   -1    0    0  501    0  0.00000000000E+00  0.00000000000E+00 -0.86373281296E+03  0.86373281298E+03  0.50400001928E-02 0.  1.
    10030    2    1    2    0    0  0.00000000000E+00  0.00000000000E+00 -0.51362067247E+03  0.12138449535E+04  0.10998242478E+04 0.  0.
        4    1    3    3  502    0 -0.42015460747E+03 -0.31876227629E+03 -0.42872274943E+03  0.67966469067E+03  0.12699999809E+01 0.  1.
       -4    1    3    3    0  502  0.42015460747E+03  0.31876227629E+03 -0.84897923038E+02  0.53418026283E+03  0.12699999809E+01 0. -1.
</event>
<event>
 5   0  0.9346836E-05  0.1100488E+04  0.7818609E-02  0.9204716E-01
        1   -1    0    0  501    0  0.00000000000E+00  0.00000000000E+00  0.88412732363E+03  0.88412732364E+03  0.50400001928E-02 0.  1.
       -1   -1    0    0    0  501  0.00000000000E+00  0.00000000000E+00 -0.34244906282E+03  0.34244906285E+03  0.50400001928E-02 0. -1.
    10030    2    1    2    0    0  0.00000000000E+00  0.00000000000E+00  0.54167826081E+03  0.12265763865E+04  0.11004882070E+04 0.  0.
        5    1    3    3  502    0 -0.20464539823E+03 -0.19497212362E+03  0.79699942782E+03  0.84565007299E+03  0.46999998093E+01 0.  1.
       -5    1    3    3    0  502  0.20464539823E+03  0.19497212362E+03 -0.25532116701E+03  0.38092631351E+03  0.46999998093E+01 0. -1.
</event>
<event>
 5   0  0.1503277E-04  0.1099481E+04  0.7818609E-02  0.9205698E-01
        2   -1    0    0  501    0  0.00000000000E+00  0.00000000000E+00  0.11408290375E+04  0.11408290375E+04  0.25500000920E-02 0.  1.
       -2   -1    0    0    0  501  0.00000000000E+00  0.00000000000E+00 -0.26490798846E+03  0.26490798847E+03  0.25500000920E-02 0. -1.
    10030    2    1    2    0    0  0.00000000000E+00  0.00000000000E+00  0.87592104904E+03  0.14057370260E+04  0.10994811968E+04 0.  0.
        5    1    3    3  502    0  0.18037370514E+03 -0.18350840728E+02  0.11014767613E+04  0.11163084576E+04  0.46999998093E+01 0.  1.
       -5    1    3    3    0  502 -0.18037370514E+03  0.18350840728E+02 -0.22555571225E+03  0.28942856837E+03  0.46999998093E+01 0. -1.
</event>
<event>
 5   0  0.9346836E-05  0.1099851E+04  0.7818609E-02  0.9205337E-01
        1   -1    0    0  501    0  0.00000000000E+00  0.00000000000E+00  0.65092594951E+03  0.65092594952E+03  0.50400001928E-02 0.  1.
       -1   -1    0    0    0  501  0.00000000000E+00  0.00000000000E+00 -0.46459689055E+03  0.46459689058E+03  0.50400001928E-02 0. -1.
    10030    2    1    2    0    0  0.00000000000E+00  0.00000000000E+00  0.18632905895E+03  0.11155228401E+04  0.10998512120E+04 0.  0.
        5    1    3    3  502    0  0.32970859343E+03 -0.11544066751E+03  0.52390609569E+03  0.62970944998E+03  0.46999998093E+01 0.  1.
       -5    1    3    3    0  502 -0.32970859343E+03  0.11544066751E+03 -0.33757703674E+03  0.48581339013E+03  0.46999998093E+01 0. -1.
</event>
<event>
 5   0  0.1574101E-04  0.1099644E+04  0.7818609E-02  0.9205539E-01
       -2   -1    0    0    0  501  0.00000000000E+00  0.00000000000E+00  0.63610332481E+03  0.63610332481E+03  0.25500000920E-02 0.  1.
        2   -1    0    0  501    0  0.00000000000E+00  0.00000000000E+00 -0.47524426629E+03  0.47524426630E+03  0.25500000920E-02 0. -1.
    10030    2    1    2    0    0  0.00000000000E+00  0.00000000000E+00  0.16085905852E+03  0.11113475911E+04  0.10996444114E+04 0.  0.
        4    1    3    3  502    0 -0.23416847615E+03 -0.13680041056E+03 -0.40294262288E+03  0.48570937585E+03  0.12699999809E+01 0. -1.
       -4    1    3    3    0  502  0.23416847615E+03  0.13680041056E+03  0.56380168140E+03  0.62563821527E+03  0.12699999809E+01 0.  1.
</event>
<event>
 5   0  0.8621738E-05  0.1099745E+04  0.7818609E-02  0.9205441E-01
       -1   -1    0    0    0  501  0.00000000000E+00  0.00000000000E+00  0.45229180225E+03  0.45229180228E+03  0.50400001928E-02 0. -1.
        1   -1    0    0  501    0  0.00000000000E+00  0.00000000000E+00 -0.66850555942E+03  0.66850555944E+03  0.50400001928E-02 0.  1.
    10030    2    1    2    0    0  0.00000000000E+00  0.00000000000E+00 -0.21621375717E+03  0.11207973617E+04  0.10997446691E+04 0.  0.
        2    1    3    3  502    0  0.56838244102E+02 -0.51210891684E+03 -0.30380747728E+03  0.59815141223E+03  0.25500000920E-02 0.  1.
       -2    1    3    3    0  502 -0.56838244102E+02  0.51210891684E+03  0.87593720113E+02  0.52264594948E+03  0.25500000920E-02 0. -1.
</event>
<event>
 5   0  0.8621738E-05  0.1099220E+04  0.7818609E-02  0.9205952E-01
       -1   -1    0    0    0  501  0.00000000000E+00  0.00000000000E+00  0.17733838824E+03  0.17733838831E+03  0.50400001928E-02 0. -1.
        1   -1    0    0  501    0  0.00000000000E+00  0.00000000000E+00 -0.17033611381E+04  0.17033611381E+04  0.50400001928E-02 0.  1.
    10030    2    1    2    0    0  0.00000000000E+00  0.00000000000E+00 -0.15260227499E+04  0.18806995265E+04  0.10992203035E+04 0.  0.
        2    1    3    3  502    0 -0.77912954488E+02  0.36897258309E+03 -0.14470879917E+04  0.14954179520E+04  0.25500000920E-02 0.  1.
       -2    1    3    3    0  502  0.77912954488E+02 -0.36897258309E+03 -0.78934758221E+02  0.38528157445E+03  0.25500000920E-02 0. -1.
</event>
<event>
 5   0  0.8657442E-05  0.1100175E+04  0.7818609E-02  0.9205021E-01
        1   -1    0    0  501    0  0.00000000000E+00  0.00000000000E+00  0.89627813531E+03  0.89627813533E+03  0.50400001928E-02 0. -1.
       -1   -1    0    0    0  501  0.00000000000E+00  0.00000000000E+00 -0.33761437026E+03  0.33761437030E+03  0.50400001928E-02 0.  1.
    10030    2    1    2    0    0  0.00000000000E+00  0.00000000000E+00  0.55866376505E+03  0.12338925056E+04  0.11001752193E+04 0.  0.
        1    1    3    3  502    0  0.27728441288E+03 -0.45586543847E+03  0.42936900525E+03  0.68487786233E+03  0.50400001928E-02 0.  1.
       -1    1    3    3    0  502 -0.27728441288E+03  0.45586543847E+03  0.12929475980E+03  0.54901464330E+03  0.50400001928E-02 0. -1.
</event>
<event>
 5   0  0.1464205E-04  0.1099990E+04  0.7818609E-02  0.9205201E-01
        2   -1    0    0  501    0  0.00000000000E+00  0.00000000000E+00  0.52437332905E+03  0.52437332906E+03  0.25500000920E-02 0.  1.
       -2   -1    0    0    0  501  0.00000000000E+00  0.00000000000E+00 -0.57686889617E+03  0.57686889618E+03  0.25500000920E-02 0. -1.
    10030    2    1    2    0    0  0.00000000000E+00  0.00000000000E+00 -0.52495567120E+02  0.11012422252E+04  0.10999902973E+04 0.  0.
        3    1    3    3  502    0  0.29130139483E+03 -0.25338017747E+03 -0.41840348691E+03  0.56931494362E+03  0.10100000352E+00 0. -1.
       -3    1    3    3    0  502 -0.29130139483E+03  0.25338017747E+03  0.36590791979E+03  0.53192728162E+03  0.10100000352E+00 0.  1.
</event>
<event>
 5   0  0.8621738E-05  0.1100215E+04  0.7818609E-02  0.9204982E-01
       -1   -1    0    0    0  501  0.00000000000E+00  0.00000000000E+00  0.19415656832E+03  0.19415656838E+03  0.50400001928E-02 0.  1.
        1   -1    0    0  501    0  0.00000000000E+00  0.00000000000E+00 -0.15586314143E+04  0.15586314143E+04  0.50400001928E-02 0. -1.
    10030    2    1    2    0    0  0.00000000000E+00  0.00000000000E+00 -0.13644748460E+04  0.17527879827E+04  0.11002154821E+04 0.  0.
        2    1    3    3  502    0  0.46769138459E+03  0.24674573649E+03 -0.44062791863E+03  0.68831072372E+03  0.25500000920E-02 0.  1.
       -2    1    3    3    0  502 -0.46769138459E+03 -0.24674573649E+03 -0.92384692738E+03  0.10644772590E+04  0.25500000920E-02 0. -1.
</event>
<event>
 5   0  0.6010125E-05  0.1099839E+04  0.7818609E-02  0.9205349E-01
        3   -1    0    0  501    0  0.00000000000E+00  0.00000000000E+00  0.34592343788E+03  0.34592345263E+03  0.10100000352E+00 0. -1.
       -3   -1    0    0    0  501  0.00000000000E+00  0.00000000000E+00 -0.87421535341E+03  0.87421535924E+03  0.10100000352E+00 0.  1.
    10030    2    1    2    0    0  0.00000000000E+00  0.00000000000E+00 -0.52829191553E+03  0.12201388119E+04  0.10998392484E+04 0.  0.
        4    1    3    3  502    0  0.25092652377E+03 -0.46635802414E+03 -0.99762858267E+02  0.53889532175E+03  0.12699999809E+01 0. -1.
       -4    1    3    3    0  502 -0.25092652377E+03  0.46635802414E+03 -0.42852905726E+03  0.68124349012E+03  0.12699999809E+01 0.  1.
</event>
<event>
 5   0  0.8621738E-05  0.1099542E+04  0.7818609E-02  0.9205638E-01
       -1   -1    0    0    0  501  0.00000000000E+00  0.00000000000E+00  0.87633270658E+03  0.87633270660E+03  0.50400001928E-02 0.  1.
        1   -1    0    0  501    0  0.00000000000E+00  0.00000000000E+00 -0.34490127620E+03  0.34490127624E+03  0.50400001928E-02 0. -1.
    10030    2    1    2    0    0  0.00000000000E+00  0.00000000000E+00  0.53143143038E+03  0.12212339828E+04  0.10995422118E+04 0.  0.
        2    1    3    3  502    0  0.46440196083E+03 -0.21798003338E+03  0.48523575736E+03  0.70614319823E+03  0.25500000920E-02 0. -1.
       -2    1    3    3    0  502 -0.46440196083E+03  0.21798003338E+03  0.46195673026E+02  0.51509078461E+03  0.25500000920E-02 0.  1.
</event>
<event>
 5   0  0.1503277E-04  0.1099308E+04  0.7818609E-02  0.9205867E-01
        2   -1    0    0  501    0  0.00000000000E+00  0.00000000000E+00  0.28101939746E+04  0.28101939746E+04  0.25500000920E-02 0.  1.
       -2   -1    0    0    0  501  0.00000000000E+00  0.00000000000E+00 -0.10750837864E+03  0.10750837867E+03  0.25500000920E-02 0. -1.
    10030    2    1    2    0    0  0.00000000000E+00  0.00000000000E+00  0.27026855960E+04  0.29177023533E+04  0.10993077784E+04 0.  0.
        5    1    3    3  502    0  0.53845167560E+02 -0.31121293547E+03  0.15744430903E+03  0.35293567929E+03  0.46999998093E+01 0. -1.
       -5    1    3    3    0  502 -0.53845167560E+02  0.31121293547E+03  0.25452412869E+04  0.25647666740E+04  0.46999998093E+01 0.  1.
</event>
<event>
 5   0  0.1574101E-04  0.1100186E+04  0.7818609E-02  0.9205010E-01
        2   -1    0    0  501    0  0.00000000000E+00  0.00000000000E+00  0.22351477800E+04  0.22351477800E+04  0.25500000920E-02 0. -1.
       -2   -1    0    0    0  501  0.00000000000E+00  0.00000000000E+00 -0.13538366360E+03  0.13538366363E+03  0.25500000920E-02 0.  1.
    10030    2    1    2    0    0  0.00000000000E+00  0.00000000000E+00  0.20997641164E+04  0.23705314436E+04  0.11001863391E+04 0.  0.
        4    1    3    3  502    0  0.35594230275E+03 -0.48638810167E+02  0.19474752526E+04  0.19803338428E+04  0.12699999809E+01 0. -1.
       -4    1    3    3    0  502 -0.35594230275E+03  0.48638810167E+02  0.15228886384E+03  0.39019760083E+03  0.12699999809E+01 0.  1.
</event>
<event>
 5   0  0.8621738E-05  0.1099795E+04  0.7818609E-02  0.9205391E-01
        1   -1    0    0  501    0  0.00000000000E+00  0.00000000000E+00  0.12979688940E+04  0.12979688940E+04  0.50400001928E-02 0. -1.
       -1   -1    0    0    0  501  0.00000000000E+00  0.00000000000E+00 -0.23296967005E+03  0.23296967011E+03  0.50400001928E-02 0.  1.
    10030    2    1    2    0    0  0.00000000000E+00  0.00000000000E+00  0.10649992240E+04  0.15309385641E+04  0.10997952264E+04 0.  0.
        2    1    3    3  502    0 -0.77296599509E+02 -0.39379110094E+01 -0.22534979948E+03  0.23827044209E+03  0.25500000920E-02 0.  1.
       -2    1    3    3    0  502  0.77296599509E+02  0.39379110094E+01  0.12903490235E+04  0.12926681221E+04  0.25500000920E-02 0. -1.
</event>
<event>
 5   0  0.8657442E-05  0.1099877E+04  0.7818609E-02  0.9205312E-01
        1   -1    0    0  501    0  0.00000000000E+00  0.00000000000E+00  0.26119462142E+04  0.26119462142E+04  0.50400001928E-02 0.  1.
       -1   -1    0    0    0  501  0.00000000000E+00  0.00000000000E+00 -0.11578817733E+03  0.11578817744E+03  0.50400001928E-02 0. -1.
    10030    2    1    2    0    0  0.00000000000E+00  0.00000000000E+00  0.24961580368E+04  0.27277343916E+04  0.10998772506E+04 0.  0.
        1    1    3    3  502    0  0.48619098396E+03  0.95591492078E+02  0.18397277324E+04  0.19052867332E+04  0.50400001928E-02 0.  1.
       -1    1    3    3    0  502 -0.48619098396E+03 -0.95591492078E+02  0.65643030443E+03  0.82244765842E+03  0.50400001928E-02 0. -1.
</event>
<event>
 5   0  0.8921459E-05  0.1099938E+04  0.7818609E-02  0.9205252E-01
        1   -1    0    0  501    0  0.00000000000E+00  0.00000000000E+00  0.14302588417E+04  0.14302588418E+04  0.50400001928E-02 0.  1.
       -1   -1    0    0    0  501  0.00000000000E+00  0.00000000000E+00 -0.21147651418E+03  0.21147651424E+03  0.50400001928E-02 0. -1.
    10030    2    1    2    0    0  0.00000000000E+00  0.00000000000E+00  0.12187823276E+04  0.16417353560E+04  0.10999384606E+04 0.  0.
        3    1    3    3  502    0  0.52475761328E+03 -0.67459781232E+02  0.83349931920E+03  0.98723983919E+03  0.10100000352E+00 0.  1.
       -3    1    3    3    0  502 -0.52475761328E+03  0.67459781232E+02  0.38528300836E+03  0.65449551680E+03  0.10100000352E+00 0. -1.
</event>
<event>
 5   0  0.1540772E-04  0.1099418E+04  0.7818609E-02  0.9205759E-01
        2   -1    0    0  501    0  0.00000000000E+00  0.00000000000E+00  0.14763886682E+04  0.14763886682E+04  0.25500000920E-02 0.  1.
       -2   -1    0    0    0  501  0.00000000000E+00  0.00000000000E+00 -0.20467507301E+03  0.20467507302E+03  0.25500000920E-02 0. -1.
    10030    2    1    2    0    0  0.00000000000E+00  0.00000000000E+00  0.12717135952E+04  0.16810637412E+04  0.10994179523E+04 0.  0.
        2    1    3    3  502    0 -0.81933051823E+01 -0.28654926060E+03  0.13530481034E+04  0.13830823472E+04  0.25500000920E-02 0.  1.
       -2    1    3    3    0  502  0.81933051823E+01  0.28654926060E+03 -0.81334508155E+02  0.29798139409E+03  0.25500000920E-02 0. -1.
</event>
<event>
 5   0  0.8657442E-05  0.1100073E+04  0.7818609E-02  0.9205121E-01
       -1   -1    0    0    0  501  0.00000000000E+00  0.00000000000E+00  0.59878788793E+03  0.59878788795E+03  0.50400001928E-02 0.  1.
        1   -1    0    0  501    0  0.00000000000E+00  0.00000000000E+00 -0.50525437762E+03  0.50525437764E+03  0.50400001928E-02 0. -1.
    10030    2    1    2    0    0  0.00000000000E+00  0.00000000000E+00  0.93533510311E+02  0.11040422656E+04  0.11000730915E+04 0.  0.
        1    1    3    3  502    0  0.70880789781E+02  0.54503512273E+03  0.68123343818E+02  0.55383044460E+03  0.50400001928E-02 0. -1.
       -1    1    3    3    0  502 -0.70880789781E+02 -0.54503512273E+03  0.25410166493E+02  0.55021182099E+03  0.50400001928E-02 0.  1.
</event>
<event>
 5   0  0.1503277E-04  0.1099555E+04  0.7818609E-02  0.9205626E-01
       -2   -1    0    0    0  501  0.00000000000E+00  0.00000000000E+00  0.29086316935E+03  0.29086316936E+03  0.25500000920E-02 0. -1.
        2   -1    0    0  501    0  0.00000000000E+00  0.00000000000E+00 -0.10391660422E+04  0.10391660422E+04  0.25500000920E-02 0.  1.
    10030    2    1    2    0    0  0.00000000000E+00  0.00000000000E+00 -0.74830287288E+03  0.13300292116E+04  0.10995546890E+04 0.  0.
        5    1    3    3  502    0  0.48964935963E+03 -0.63381184871E+02 -0.81688117183E+02  0.50046848898E+03  0.46999998093E+01 0. -1.
       -5    1    3    3    0  502 -0.48964935963E+03  0.63381184871E+02 -0.66661475570E+03  0.82956072261E+03  0.46999998093E+01 0.  1.
</event>
<event>
 5   0  0.8657442E-05  0.1099925E+04  0.7818609E-02  0.9205265E-01
        1   -1    0    0  501    0  0.00000000000E+00  0.00000000000E+00  0.57482615701E+03  0.57482615704E+03  0.50400001928E-02 0. -1.
       -1   -1    0    0    0  501  0.00000000000E+00  0.00000000000E+00 -0.52617457298E+03  0.52617457300E+03  0.50400001928E-02 0.  1.
    10030    2    1    2    0    0  0.00000000000E+00  0.00000000000E+00  0.48651584033E+02  0.11010007300E+04  0.10999252842E+04 0.  0.
        1    1    3    3  502    0  0.81695159264E+02  0.45678913115E+03 -0.27113818281E+03  0.53744425161E+03  0.50400001928E-02 0. -1.
       -1    1    3    3    0  502 -0.81695159264E+02 -0.45678913115E+03  0.31978976684E+03  0.56355647843E+03  0.50400001928E-02 0.  1.
</event>
<event>
 5   0  0.1540772E-04  0.1099501E+04  0.7818609E-02  0.9205678E-01
       -2   -1    0    0    0  501  0.00000000000E+00  0.00000000000E+00  0.23514492615E+03  0.23514492617E+03  0.25500000920E-02 0. -1.
        2   -1    0    0  501    0  0.00000000000E+00  0.00000000000E+00 -0.12852739475E+04  0.12852739475E+04  0.25500000920E-02 0.  1.
    10030    2    1    2    0    0  0.00000000000E+00  0.00000000000E+00 -0.10501290214E+04  0.15204188737E+04  0.10995010641E+04 0.  0.
        2    1    3    3  502    0  0.54669809400E+03  0.15995773066E+02 -0.60194488112E+03  0.81330948024E+03  0.25500000920E-02 0.  1.
       -2    1    3    3    0  502 -0.54669809400E+03 -0.15995773066E+02 -0.44818414026E+03  0.70710939346E+03  0.25500000920E-02 0. -1.
</event>
<event>
 5   0  0.9346836E-05  0.1099986E+04  0.7818609E-02  0.9205206E-01
       -1   -1    0    0    0  501  0.00000000000E+00  0.00000000000E+00  0.89141314960E+03  0.89141314962E+03  0.50400001928E-02 0. -1.
        1   -1    0    0  501    0  0.00000000000E+00  0.00000000000E+00 -0.33933989483E+03  0.33933989487E+03  0.50400001928E-02 0.  1.
    10030    2    1    2    0    0  0.00000000000E+00  0.00000000000E+00  0.55207325477E+03  0.12307530445E+04  0.10999855353E+04 0.  0.
        5    1    3    3  502    0 -0.31780655424E+02  0.17026680979E+03  0.86007666361E+03  0.87735668566E+03  0.46999998093E+01 0. -1.
       -5    1    3    3    0  502  0.31780655424E+02 -0.17026680979E+03 -0.30800340884E+03  0.35339635883E+03  0.46999998093E+01 0.  1.
</event>
<event>
 5   0  0.1503277E-04  0.1102317E+04  0.7818609E-02  0.9202937E-01
       -2   -1    0    0    0  501  0.00000000000E+00  0.00000000000E+00  0.39237693222E+03  0.39237693223E+03  0.25500000920E-02 0. -1.
        2   -1    0    0  501    0  0.00000000000E+00  0.00000000000E+00 -0.77419343664E+03  0.77419343664E+03  0.25500000920E-02 0.  1.
    10030    2    1    2    0    0  0.00000000000E+00  0.00000000000E+00 -0.38181650441E+03  0.11665703689E+04  0.11023169156E+04 0.  0.
        5    1    3    3  502    0  0.47306292789E+03  0.25628778064E+03 -0.64436705052E+02  0.54189126142E+03  0.46999998093E+01 0. -1.
       -5    1    3    3    0  502 -0.47306292789E+03 -0.25628778064E+03 -0.31737979936E+03  0.62467910745E+03  0.46999998093E+01 0.  1.
</event>
<event>
 5   0  0.8657442E-05  0.1100129E+04  0.7818609E-02  0.9205066E-01
       -1   -1    0    0    0  501  0.00000000000E+00  0.00000000000E+00  0.39456971461E+03  0.39456971464E+03  0.50400001928E-02 0.  1.
        1   -1    0    0  501    0  0.00000000000E+00  0.00000000000E+00 -0.76683765872E+03  0.76683765873E+03  0.50400001928E-02 0. -1.
    10030    2    1    2    0    0  0.00000000000E+00  0.00000000000E+00 -0.37226794411E+03  0.11614073734E+04  0.11001289309E+04 0.  0.
        1    1    3    3  502    0 -0.20946641745E+03 -0.57600201572E+02  0.34736285823E+03  0.40970101118E+03  0.50400001928E-02 0.  1.
       -1    1    3    3    0  502  0.20946641745E+03  0.57600201572E+02 -0.71963080234E+03  0.75170636219E+03  0.50400001928E-02 0. -1.
</event>
<event>
 5   0  0.8621738E-05  0.1100664E+04  0.7818609E-02  0.9204545E-01
       -1   -1    0    0    0  501  0.00000000000E+00  0.00000000000E+00  0.30858502581E+03  0.30858502585E+03  0.50400001928E-02 0. -1.
        1   -1    0    0  501    0  0.00000000000E+00  0.00000000000E+00 -0.98146519429E+03  0.98146519430E+03  0.50400001928E-02 0.  1.
    10030    2    1    2    0    0  0.00000000000E+00  0.00000000000E+00 -0.67288016848E+03  0.12900502202E+04  0.11006642764E+04 0.  0.
        2    1    3    3  502    0 -0.30003760381E+03 -0.22178225527E+03 -0.81059154016E+03  0.89233882435E+03  0.25500000920E-02 0.  1.
       -2    1    3    3    0  502  0.30003760381E+03  0.22178225527E+03  0.13771137168E+03  0.39771139580E+03  0.25500000920E-02 0. -1.
</event>
<event>
 5   0  0.1464205E-04  0.1096789E+04  0.7818609E-02  0.9208327E-01
       -2   -1    0    0    0  501  0.00000000000E+00  0.00000000000E+00  0.11388577826E+04  0.11388577826E+04  0.25500000920E-02 0. -1.
        2   -1    0    0  501    0  0.00000000000E+00  0.00000000000E+00 -0.26406870083E+03  0.26406870085E+03  0.25500000920E-02 0.  1.
    10030    2    1    2    0    0  0.00000000000E+00  0.00000000000E+00  0.87478908173E+03  0.14029264834E+04  0.10967893054E+04 0.  0.
        3    1    3    3  502    0  0.46219663599E+03 -0.29054292466E+03  0.50380746476E+03  0.74287474929E+03  0.10100000352E+00 0. -1.
       -3    1    3    3    0  502 -0.46219663599E+03  0.29054292466E+03  0.37098161697E+03  0.66005173412E+03  0.10100000352E+00 0.  1.
</event>
<event>
 5   0  0.8921459E-05  0.1100085E+04  0.7818609E-02  0.9205109E-01
        1   -1    0    0  501    0  0.00000000000E+00  0.00000000000E+00  0.11083192818E+04  0.11083192818E+04  0.50400001928E-02 0. -1.
       -1   -1    0    0    0  501  0.00000000000E+00  0.00000000000E+00 -0.27297802189E+03  0.27297802194E+03  0.50400001928E-02 0.  1.
    10030    2    1    2    0    0  0.00000000000E+00  0.00000000000E+00  0.83534125990E+03  0.13812973037E+04  0.11000850971E+04 0.  0.
        3    1    3    3  502    0 -0.21925529659E+03 -0.17006657187E+03 -0.17865506393E+03  0.33001994791E+03  0.10100000352E+00 0.  1.
       -3    1    3    3    0  502  0.21925529659E+03  0.17006657187E+03  0.10139963238E+04  0.10512773558E+04  0.10100000352E+00 0. -1.
</event>
<event>
 5   0  0.1553937E-04  0.1099879E+04  0.7818609E-02  0.9205310E-01
        2   -1    0    0  501    0  0.00000000000E+00  0.00000000000E+00  0.15642402429E+04  0.15642402429E+04  0.25500000920E-02 0. -1.
       -2   -1    0    0    0  501  0.00000000000E+00  0.00000000000E+00 -0.19334190707E+03  0.19334190709E+03  0.25500000920E-02 0.  1.
    10030    2    1    2    0    0  0.00000000000E+00  0.00000000000E+00  0.13708983358E+04  0.17575821500E+04  0.10998785236E+04 0.  0.
        1    1    3    3  502    0  0.48068526815E+02 -0.50862291869E+03  0.10106891479E+04  0.11324753465E+04  0.50400001928E-02 0. -1.
       -1    1    3    3    0  502 -0.48068526815E+02  0.50862291869E+03  0.36020918791E+03  0.62510680349E+03  0.50400001928E-02 0.  1.
</event>
<event>
 5   0  0.8657442E-05  0.1099755E+04  0.7818609E-02  0.9205430E-01
        1   -1    0    0  501    0  0.00000000000E+00  0.00000000000E+00  0.12311659623E+04  0.12311659623E+04  0.50400001928E-02 0. -1.
       -1   -1    0    0    0  501  0.00000000000E+00  0.00000000000E+00 -0.24559283031E+03  0.24559283036E+03  0.50400001928E-02 0.  1.
    10030    2    1    2    0    0  0.00000000000E+00  0.00000000000E+00  0.98557313200E+03  0.14767587927E+04  0.10997554879E+04 0.  0.
        1    1    3    3  502    0  0.64383539335E+02 -0.32823805518E+03  0.10788413306E+04  0.11295061211E+04  0.50400001928E-02 0. -1.
       -1    1    3    3    0  502 -0.64383539335E+02  0.32823805518E+03 -0.93268198615E+02  0.34725267156E+03  0.50400001928E-02 0.  1.
</event>
<event>
 5   0  0.1540772E-04  0.1099603E+04  0.7818609E-02  0.9205579E-01
       -2   -1    0    0    0  501  0.00000000000E+00  0.00000000000E+00  0.44822273260E+03  0.44822273261E+03  0.25500000920E-02 0. -1.
        2   -1    0    0  501    0  0.00000000000E+00  0.00000000000E+00 -0.67440009878E+03  0.67440009878E+03  0.25500000920E-02 0.  1.
    10030    2    1    2    0    0  0.00000000000E+00  0.00000000000E+00 -0.22617736617E+03  0.11226228314E+04  0.10996025739E+04 0.  0.
        2    1    3    3  502    0  0.31485545856E+03  0.22314930776E+03  0.28671121356E+03  0.48076282440E+03  0.25500000920E-02 0. -1.
       -2    1    3    3    0  502 -0.31485545856E+03 -0.22314930776E+03 -0.51288857973E+03  0.64186000699E+03  0.25500000920E-02 0.  1.
</event>
<event>
 5   0  0.8921459E-05  0.1099979E+04  0.7818609E-02  0.9205212E-01
       -1   -1    0    0    0  501  0.00000000000E+00  0.00000000000E+00  0.35858655626E+03  0.35858655629E+03  0.50400001928E-02 0. -1.
        1   -1    0    0  501    0  0.00000000000E+00  0.00000000000E+00 -0.84355823325E+03  0.84355823327E+03  0.50400001928E-02 0.  1.
    10030    2    1    2    0    0  0.00000000000E+00  0.00000000000E+00 -0.48497167699E+03  0.12021447896E+04  0.10999793487E+04 0.  0.
        3    1    3    3  502    0  0.14637206775E+03 -0.86107319212E+02  0.32921585705E+03  0.37043534304E+03  0.10100000352E+00 0. -1.
       -3    1    3    3    0  502 -0.14637206775E+03  0.86107319212E+02 -0.81418753404E+03  0.83170944652E+03  0.10100000352E+00 0.  1.
</event>
<event>
 5   0  0.1574101E-04  0.1099751E+04  0.7818609E-02  0.9205434E-01
       -2   -1    0    0    0  501  0.00000000000E+00  0.00000000000E+00  0.61490523712E+03  0.61490523713E+03  0.25500000920E-02 0.  1.
        2   -1    0    0  501    0  0.00000000000E+00  0.00000000000E+00 -0.49172345652E+03  0.49172345653E+03  0.25500000920E-02 0. -1.
    10030    2    1    2    0    0  0.00000000000E+00  0.00000000000E+00  0.12318178060E+03  0.11066286937E+04  0.10997514785E+04 0.  0.
        4    1    3    3  502    0  0.21426805247E+03 -0.14359681885E+03 -0.42707013266E+03  0.49892018981E+03  0.12699999809E+01 0. -1.
       -4    1    3    3    0  502 -0.21426805247E+03  0.14359681885E+03  0.55025191326E+03  0.60770850384E+03  0.12699999809E+01 0.  1.
</event>
<event>
 5   0  0.1553937E-04  0.1100003E+04  0.7818609E-02  0.9205189E-01
       -2   -1    0    0    0  501  0.00000000000E+00  0.00000000000E+00  0.52883939541E+03  0.52883939542E+03  0.25500000920E-02 0.  1.
        2   -1    0    0  501    0  0.00000000000E+00  0.00000000000E+00 -0.57201013441E+03  0.57201013441E+03  0.25500000920E-02 0. -1.
    10030    2    1    2    0    0  0.00000000000E+00  0.00000000000E+00 -0.43170738994E+02  0.11008495298E+04  0.11000027157E+04 0.  0.
        1    1    3    3  502    0  0.31006573839E+03 -0.45078830037E+03 -0.77759140345E+02  0.55262766652E+03  0.50400001928E-02 0. -1.
       -1    1    3    3    0  502 -0.31006573839E+03  0.45078830037E+03  0.34588401350E+02  0.54822186331E+03  0.50400001928E-02 0.  1.
</event>
<event>
 5   0  0.8921459E-05  0.1102659E+04  0.7818609E-02  0.9202604E-01
       -1   -1    0    0    0  501  0.00000000000E+00  0.00000000000E+00  0.13685742931E+03  0.13685742940E+03  0.50400001928E-02 0.  1.
        1   -1    0    0  501    0  0.00000000000E+00  0.00000000000E+00 -0.22210285271E+04  0.22210285271E+04  0.50400001928E-02 0. -1.
    10030    2    1    2    0    0  0.00000000000E+00  0.00000000000E+00 -0.20841710978E+04  0.23578859565E+04  0.11026590674E+04 0.  0.
        3    1    3    3  502    0  0.32679108327E+03  0.44394649926E+03 -0.10225644746E+04  0.11616880051E+04  0.10100000352E+00 0.  1.
       -3    1    3    3    0  502 -0.32679108327E+03 -0.44394649926E+03 -0.10616066232E+04  0.11961979514E+04  0.10100000352E+00 0. -1.
</event>
<event>
 5   0  0.9346836E-05  0.1096666E+04  0.7818609E-02  0.9208448E-01
       -1   -1    0    0    0  501  0.00000000000E+00  0.00000000000E+00  0.10821544153E+04  0.10821544153E+04  0.50400001928E-02 0.  1.
        1   -1    0    0  501    0  0.00000000000E+00  0.00000000000E+00 -0.27784281344E+03  0.27784281348E+03  0.50400001928E-02 0. -1.
    10030    2    1    2    0    0  0.00000000000E+00  0.00000000000E+00  0.80431160190E+03  0.13599972288E+04  0.10966655413E+04 0.  0.
        5    1    3    3  502    0  0.30104682324E+03  0.20051102333E+03  0.91318902492E+03  0.98222713539E+03  0.46999998093E+01 0.  1.
       -5    1    3    3    0  502 -0.30104682324E+03 -0.20051102333E+03 -0.10887742302E+03  0.37777009344E+03  0.46999998093E+01 0. -1.
</event>
<event>
 5   0  0.8921459E-05  0.1099691E+04  0.7818609E-02  0.9205493E-01
       -1   -1    0    0    0  501  0.00000000000E+00  0.00000000000E+00  0.28898724440E+03  0.28898724444E+03  0.50400001928E-02 0.  1.
        1   -1    0    0  501    0  0.00000000000E+00  0.00000000000E+00 -0.10461716425E+04  0.10461716425E+04  0.50400001928E-02 0. -1.
    10030    2    1    2    0    0  0.00000000000E+00  0.00000000000E+00 -0.75718439805E+03  0.13351588869E+04  0.10996913388E+04 0.  0.
        3    1    3    3  502    0 -0.53037080847E+03  0.22709681140E+02 -0.20466606064E+03  0.56894387304E+03  0.10100000352E+00 0.  1.
       -3    1    3    3    0  502  0.53037080847E+03 -0.22709681140E+02 -0.55251833741E+03  0.76621501386E+03  0.10100000352E+00 0. -1.
</event>
<event>
 5   0  0.9346836E-05  0.1100257E+04  0.7818609E-02  0.9204941E-01
        1   -1    0    0  501    0  0.00000000000E+00  0.00000000000E+00  0.54906386827E+03  0.54906386830E+03  0.50400001928E-02 0.  1.
       -1   -1    0    0    0  501  0.00000000000E+00  0.00000000000E+00 -0.55119557955E+03  0.55119557957E+03  0.50400001928E-02 0. -1.
    10030    2    1    2    0    0  0.00000000000E+00  0.00000000000E+00 -0.21317112746E+01  0.11002594479E+04  0.11002573828E+04 0.  0.
        5    1    3    3  502    0 -0.42685531414E+03  0.27902913468E+03  0.20522745411E+03  0.54973003841E+03  0.46999998093E+01 0. -1.
       -5    1    3    3    0  502  0.42685531414E+03 -0.27902913468E+03 -0.20735916538E+03  0.55052940946E+03  0.46999998093E+01 0.  1.
</event>
<event>
 5   0  0.1540772E-04  0.1100014E+04  0.7818609E-02  0.9205179E-01
       -2   -1    0    0    0  501  0.00000000000E+00  0.00000000000E+00  0.16047021148E+03  0.16047021150E+03  0.25500000920E-02 0. -1.
        2   -1    0    0  501    0  0.00000000000E+00  0.00000000000E+00 -0.18851317763E+04  0.18851317763E+04  0.25500000920E-02 0.  1.
    10030    2    1    2    0    0  0.00000000000E+00  0.00000000000E+00 -0.17246615648E+04  0.20456019878E+04  0.11000136269E+04 0.  0.
        2    1    3    3  502    0  0.52847321238E+03  0.60630702756E+02 -0.60233373153E+03  0.80359563367E+03  0.25500000920E-02 0. -1.
       -2    1    3    3    0  502 -0.52847321238E+03 -0.60630702756E+02 -0.11223278333E+04  0.12420063542E+04  0.25500000920E-02 0.  1.
</event>
<event>
 5   0  0.8657442E-05  0.1099778E+04  0.7818609E-02  0.9205409E-01
        1   -1    0    0  501    0  0.00000000000E+00  0.00000000000E+00  0.83589717365E+03  0.83589717366E+03  0.50400001928E-02 0. -1.
       -1   -1    0    0    0  501  0.00000000000E+00  0.00000000000E+00 -0.36174030221E+03  0.36174030224E+03  0.50400001928E-02 0.  1.
    10030    2    1    2    0    0  0.00000000000E+00  0.00000000000E+00  0.47415687144E+03  0.11976374759E+04  0.10997776070E+04 0.  0.
        1    1    3    3  502    0 -0.14410281728E+03  0.17656811795E+03  0.78204353243E+03  0.81457596875E+03  0.50400001928E-02 0. -1.
       -1    1    3    3    0  502  0.14410281728E+03 -0.17656811795E+03 -0.30788666099E+03  0.38306150716E+03  0.50400001928E-02 0.  1.
</event>
<event>
 5   0  0.1553937E-04  0.1100401E+04  0.7818609E-02  0.9204801E-01
       -2   -1    0    0    0  501  0.00000000000E+00  0.00000000000E+00  0.58777225500E+03  0.58777225501E+03  0.25500000920E-02 0.  1.
        2   -1    0    0  501    0  0.00000000000E+00  0.00000000000E+00 -0.51503083495E+03  0.51503083496E+03  0.25500000920E-02 0. -1.
    10030    2    1    2    0    0  0.00000000000E+00  0.00000000000E+00  0.72741420053E+02  0.11028030900E+04  0.11004014454E+04 0.  0.
        1    1    3    3  502    0 -0.95686933248E+02 -0.43115767263E+03  0.36521473727E+03  0.57309225453E+03  0.50400001928E-02 0.  1.
       -1    1    3    3    0  502  0.95686933248E+02  0.43115767263E+03 -0.29247331721E+03  0.52971083543E+03  0.50400001928E-02 0. -1.
</event>
<event>
 5   0  0.1574101E-04  0.1100109E+04  0.7818609E-02  0.9205086E-01
        2   -1    0    0  501    0  0.00000000000E+00  0.00000000000E+00  0.15188609548E+04  0.15188609548E+04  0.25500000920E-02 0.  1.
       -2   -1    0    0    0  501  0.00000000000E+00  0.00000000000E+00 -0.19920176499E+03  0.19920176501E+03  0.25500000920E-02 0. -1.
    10030    2    1    2    0    0  0.00000000000E+00  0.00000000000E+00  0.13196591898E+04  0.17180627198E+04  0.11001086910E+04 0.  0.
        4    1    3    3  502    0 -0.89788998485E+01  0.37945974886E+03  0.12815589932E+04  0.13365872166E+04  0.12699999809E+01 0.  1.
       -4    1    3    3    0  502  0.89788998485E+01 -0.37945974886E+03  0.38100196594E+02  0.38147550318E+03  0.12699999809E+01 0. -1.
</event>
<event>
 5   0  0.8921459E-05  0.1099370E+04  0.7818609E-02  0.9205807E-01
       -1   -1    0    0    0  501  0.00000000000E+00  0.00000000000E+00  0.83915511053E+03  0.83915511054E+03  0.50400001928E-02 0.  1.
        1   -1    0    0  501    0  0.00000000000E+00  0.00000000000E+00 -0.36006855925E+03  0.36006855928E+03  0.50400001928E-02 0. -1.
    10030    2    1    2    0    0  0.00000000000E+00  0.00000000000E+00  0.47908655128E+03  0.11992236698E+04  0.10993695860E+04 0.  0.
        3    1    3    3  502    0  0.48107118365E+02 -0.45939809462E+03  0.56458904011E+03  0.72946672206E+03  0.10100000352E+00 0.  1.
       -3    1    3    3    0  502 -0.48107118365E+02  0.45939809462E+03 -0.85502488829E+02  0.46975694777E+03  0.10100000352E+00 0. -1.
</event>
<event>
 5   0  0.1464205E-04  0.1100480E+04  0.7818609E-02  0.9204724E-01
       -2   -1    0    0    0  501  0.00000000000E+00  0.00000000000E+00  0.46558601374E+03  0.46558601375E+03  0.25500000920E-02 0.  1.
        2   -1    0    0  501    0  0.00000000000E+00  0.00000000000E+00 -0.65028634227E+03  0.65028634228E+03  0.25500000920E-02 0. -1.
    10030    2    1    2    0    0  0.00000000000E+00  0.00000000000E+00 -0.18470032853E+03  0.11158723560E+04  0.11004803059E+04 0.  0.
        3    1    3    3  502    0 -0.33461669863E+02  0.50811033945E+03 -0.30375705929E+03  0.59292846253E+03  0.10100000352E+00 0.  1.
       -3    1    3    3    0  502  0.33461669863E+02 -0.50811033945E+03  0.11905673076E+03  0.52294389350E+03  0.10100000352E+00 0. -1.
</event>
<event>
 5   0  0.1464205E-04  0.1100411E+04  0.7818609E-02  0.9204792E-01
        2   -1    0    0  501    0  0.00000000000E+00  0.00000000000E+00  0.79643742928E+03  0.79643742929E+03  0.25500000920E-02 0.  1.
       -2   -1    0    0    0  501  0.00000000000E+00  0.00000000000E+00 -0.38009996299E+03  0.38009996300E+03  0.25500000920E-02 0. -1.
    10030    2    1    2    0    0  0.00000000000E+00  0.00000000000E+00  0.41633746629E+03  0.11765373923E+04  0.11004105368E+04 0.  0.
        3    1    3    3  502    0  0.37065133535E+03  0.82458088085E+02 -0.21755318193E+03  0.43761986456E+03  0.10100000352E+00 0. -1.
       -3    1    3    3    0  502 -0.37065133535E+03 -0.82458088085E+02  0.63389064822E+03  0.73891752773E+03  0.10100000352E+00 0.  1.
</event>
<event>
 5   0  0.8621738E-05  0.1100056E+04  0.7818609E-02  0.9205137E-01
        1   -1    0    0  501    0  0.00000000000E+00  0.00000000000E+00  0.14824359847E+04  0.14824359847E+04  0.50400001928E-02 0. -1.
       -1   -1    0    0    0  501  0.00000000000E+00  0.00000000000E+00 -0.20407687557E+03  0.20407687563E+03  0.50400001928E-02 0.  1.
    10030    2    1    2    0    0  0.00000000000E+00  0.00000000000E+00  0.12783591092E+04  0.16865128604E+04  0.11000561878E+04 0.  0.
        2    1    3    3  502    0  0.51899820628E+03 -0.16782685000E+03  0.74765126693E+03  0.92547685365E+03  0.25500000920E-02 0.  1.
       -2    1    3    3    0  502 -0.51899820628E+03  0.16782685000E+03  0.53070784224E+03  0.76103600672E+03  0.25500000920E-02 0. -1.
</event>
<event>
 5   0  0.8921459E-05  0.1100716E+04  0.7818609E-02  0.9204495E-01
        1   -1    0    0  501    0  0.00000000000E+00  0.00000000000E+00  0.51461989012E+03  0.51461989015E+03  0.50400001928E-02 0. -1.
       -1   -1    0    0    0  501  0.00000000000E+00  0.00000000000E+00 -0.58857754354E+03  0.58857754356E+03  0.50400001928E-02 0.  1.
    10030    2    1    2    0    0  0.00000000000E+00  0.00000000000E+00 -0.73957653416E+02  0.11031974337E+04  0.11007156051E+04 0.  0.
        3    1    3    3  502    0  0.91506439628E+02  0.19034016710E+03 -0.54634800929E+03  0.58574650248E+03  0.10100000352E+00 0.  1.
       -3    1    3    3    0  502 -0.91506439628E+02 -0.19034016710E+03  0.47239035588E+03  0.51745093123E+03  0.10100000352E+00 0. -1.
</event>
<event>
 5   0  0.8657442E-05  0.1099471E+04  0.7818609E-02  0.9205707E-01
       -1   -1    0    0    0  501  0.00000000000E+00  0.00000000000E+00  0.33235173702E+03  0.33235173706E+03  0.50400001928E-02 0. -1.
        1   -1    0    0  501    0  0.00000000000E+00  0.00000000000E+00 -0.90930560232E+03  0.90930560233E+03  0.50400001928E-02 0.  1.
    10030    2    1    2    0    0  0.00000000000E+00  0.00000000000E+00 -0.57695386530E+03  0.12416573394E+04  0.10994713210E+04 0.  0.
        1    1    3    3  502    0 -0.80129809700E+02  0.38997370108E+02  0.32414023488E+03  0.33616732913E+03  0.50400001928E-02 0. -1.
       -1    1    3    3    0  502  0.80129809700E+02 -0.38997370108E+02 -0.90109410018E+03  0.90549001026E+03  0.50400001928E-02 0.  1.
</event>
<event>
 5   0  0.1503277E-04  0.1100102E+04  0.7818609E-02  0.9205093E-01
        2   -1    0    0  501    0  0.00000000000E+00  0.00000000000E+00  0.78740278674E+03  0.78740278674E+03  0.25500000920E-02 0.  1.
       -2   -1    0    0    0  501  0.00000000000E+00  0.00000000000E+00 -0.38424546674E+03  0.38424546675E+03  0.25500000920E-02 0. -1.
    10030    2    1    2    0    0  0.00000000000E+00  0.00000000000E+00  0.40315732000E+03  0.11716482535E+04  0.11001017250E+04 0.  0.
        5    1    3    3  502    0  0.23536133339E+03 -0.47513270848E+03  0.35733566832E+03  0.63941920348E+03  0.46999998093E+01 0.  1.
       -5    1    3    3    0  502 -0.23536133339E+03  0.47513270848E+03  0.45821651676E+02  0.53222905002E+03  0.46999998093E+01 0. -1.
</event>
<event>
 5   0  0.1464205E-04  0.1099328E+04  0.7818609E-02  0.9205847E-01
       -2   -1    0    0    0  501  0.00000000000E+00  0.00000000000E+00  0.43198749829E+03  0.43198749830E+03  0.25500000920E-02 0.  1.
        2   -1    0    0  501    0  0.00000000000E+00  0.00000000000E+00 -0.69939694367E+03  0.69939694368E+03  0.25500000920E-02 0. -1.
    10030    2    1    2    0    0  0.00000000000E+00  0.00000000000E+00 -0.26740944538E+03  0.11313844420E+04  0.10993284059E+04 0.  0.
        3    1    3    3  502    0  0.52789547123E+03 -0.14725516515E+03 -0.17703972121E+03  0.57593470576E+03  0.10100000352E+00 0.  1.
       -3    1    3    3    0  502 -0.52789547123E+03  0.14725516515E+03 -0.90369724174E+02  0.55544973621E+03  0.10100000352E+00 0. -1.
</event>
<event>
 5   0  0.1574101E-04  0.1101257E+04  0.7818609E-02  0.9203968E-01
       -2   -1    0    0    0  501  0.00000000000E+00  0.00000000000E+00  0.22631211953E+03  0.22631211954E+03  0.25500000920E-02 0. -1.
        2   -1    0    0  501    0  0.00000000000E+00  0.00000000000E+00 -0.13397060993E+04  0.13397060993E+04  0.25500000920E-02 0.  1.
    10030    2    1    2    0    0  0.00000000000E+00  0.00000000000E+00 -0.11133939798E+04  0.15660182189E+04  0.11012569671E+04 0.  0.
        4    1    3    3  502    0  0.15338428800E+03  0.47559817503E+03 -0.88552001349E+03  0.10167928359E+04  0.12699999809E+01 0.  1.
       -4    1    3    3    0  502 -0.15338428800E+03 -0.47559817503E+03 -0.22787396629E+03  0.54922538298E+03  0.12699999809E+01 0. -1.
</event>
<event>
 5   0  0.1464205E-04  0.1099549E+04  0.7818609E-02  0.9205631E-01
        2   -1    0    0  501    0  0.00000000000E+00  0.00000000000E+00  0.17540802564E+04  0.17540802564E+04  0.25500000920E-02 0.  1.
       -2   -1    0    0    0  501  0.00000000000E+00  0.00000000000E+00 -0.17231373008E+03  0.17231373010E+03  0.25500000920E-02 0. -1.
    10030    2    1    2    0    0  0.00000000000E+00  0.00000000000E+00  0.15817665263E+04  0.19263939865E+04  0.10995492019E+04 0.  0.
        3    1    3    3  502    0  0.40104226523E+03 -0.70068938057E+02  0.14357853746E+03  0.43169359644E+03  0.10100000352E+00 0. -1.
       -3    1    3    3    0  502 -0.40104226523E+03  0.70068938057E+02  0.14381879888E+04  0.14947003900E+04  0.10100000352E+00 0.  1.
</event>
<event>
 5   0  0.9346836E-05  0.1099981E+04  0.7818609E-02  0.9205211E-01
       -1   -1    0    0    0  501  0.00000000000E+00  0.00000000000E+00  0.29885540426E+03  0.29885540430E+03  0.50400001928E-02 0. -1.
        1   -1    0    0  501    0  0.00000000000E+00  0.00000000000E+00 -0.10121596571E+04  0.10121596571E+04  0.50400001928E-02 0.  1.
    10030    2    1    2    0    0  0.00000000000E+00  0.00000000000E+00 -0.71330425285E+03  0.13110150614E+04  0.10999806972E+04 0.  0.
        5    1    3    3  502    0  0.50978145152E+03 -0.11518378630E+03 -0.15256021890E+03  0.54446408819E+03  0.46999998093E+01 0. -1.
       -5    1    3    3    0  502 -0.50978145152E+03  0.11518378630E+03 -0.56074403395E+03  0.76655097322E+03  0.46999998093E+01 0.  1.
</event>
<event>
 5   0  0.9016738E-05  0.1100268E+04  0.7818609E-02  0.9204930E-01
        1   -1    0    0  501    0  0.00000000000E+00  0.00000000000E+00  0.17011944595E+04  0.17011944595E+04  0.50400001928E-02 0. -1.
       -1   -1    0    0    0  501  0.00000000000E+00  0.00000000000E+00 -0.17790299349E+03  0.17790299356E+03  0.50400001928E-02 0.  1.
    10030    2    1    2    0    0  0.00000000000E+00  0.00000000000E+00  0.15232914660E+04  0.18790974530E+04  0.11002683071E+04 0.  0.
        4    1    3    3  502    0  0.51880958062E+03 -0.70324682586E+02  0.47313956506E+03  0.70567103019E+03  0.12699999809E+01 0.  1.
       -4    1    3    3    0  502 -0.51880958062E+03  0.70324682586E+02  0.10501519009E+04  0.11734264228E+04  0.12699999809E+01 0. -1.
</event>
<event>
 5   0  0.9346836E-05  0.1099858E+04  0.7818609E-02  0.9205330E-01
        1   -1    0    0  501    0  0.00000000000E+00  0.00000000000E+00  0.13153512490E+04  0.13153512490E+04  0.50400001928E-02 0. -1.
       -1   -1    0    0    0  501  0.00000000000E+00  0.00000000000E+00 -0.22991715318E+03  0.22991715323E+03  0.50400001928E-02 0.  1.
    10030    2    1    2    0    0  0.00000000000E+00  0.00000000000E+00  0.10854340958E+04  0.15452684023E+04  0.10998578356E+04 0.  0.
        5    1    3    3  502    0 -0.22699754533E+03 -0.39857113504E+03  0.96889571361E+03  0.10719924576E+04  0.46999998093E+01 0. -1.
       -5    1    3    3    0  502  0.22699754533E+03  0.39857113504E+03  0.11653838223E+03  0.47327594467E+03  0.46999998093E+01 0.  1.
</event>
<event>
 5   0  0.9016738E-05  0.1101024E+04  0.7818609E-02  0.9204195E-01
        1   -1    0    0  501    0  0.00000000000E+00  0.00000000000E+00  0.48587812684E+03  0.48587812687E+03  0.50400001928E-02 0. -1.
       -1   -1    0    0    0  501  0.00000000000E+00  0.00000000000E+00 -0.62374358992E+03  0.62374358994E+03  0.50400001928E-02 0.  1.
    10030    2    1    2    0    0  0.00000000000E+00  0.00000000000E+00 -0.13786546307E+03  0.11096217168E+04  0.11010238274E+04 0.  0.
        4    1    3    3  502    0 -0.31571497398E+03  0.44713128627E+03 -0.12820888561E+03  0.56217565156E+03  0.12699999809E+01 0.  1.
       -4    1    3    3    0  502  0.31571497398E+03 -0.44713128627E+03 -0.96565774659E+01  0.54744606524E+03  0.12699999809E+01 0. -1.
</event>
<event>
 5   0  0.1464205E-04  0.1099847E+04  0.7818609E-02  0.9205341E-01
       -2   -1    0    0    0  501  0.00000000000E+00  0.00000000000E+00  0.67911280175E+03  0.67911280176E+03  0.25500000920E-02 0. -1.
        2   -1    0    0  501    0  0.00000000000E+00  0.00000000000E+00 -0.44531010689E+03  0.44531010690E+03  0.25500000920E-02 0.  1.
    10030    2    1    2    0    0  0.00000000000E+00  0.00000000000E+00  0.23380269486E+03  0.11244229087E+04  0.10998468882E+04 0.  0.
        3    1    3    3  502    0 -0.44975017793E+03  0.78001390952E+02 -0.19663760503E+03  0.49701689855E+03  0.10100000352E+00 0.  1.
       -3    1    3    3    0  502  0.44975017793E+03 -0.78001390952E+02  0.43044029989E+03  0.62740601010E+03  0.10100000352E+00 0. -1.
</event>
<event>
 5   0  0.8921459E-05  0.1100352E+04  0.7818609E-02  0.9204848E-01
       -1   -1    0    0    0  501  0.00000000000E+00  0.00000000000E+00  0.40489868980E+03  0.40489868983E+03  0.50400001928E-02 0. -1.
        1   -1    0    0  501    0  0.00000000000E+00  0.00000000000E+00 -0.74757917541E+03  0.74757917542E+03  0.50400001928E-02 0.  1.
    10030    2    1    2    0    0  0.00000000000E+00  0.00000000000E+00 -0.34268048561E+03  0.11524778653E+04  0.11003523593E+04 0.  0.
        3    1    3    3  502    0 -0.25164591313E+03  0.32737330771E+02 -0.68262114745E+03  0.72826440224E+03  0.10100000352E+00 0.  1.
       -3    1    3    3    0  502  0.25164591313E+03 -0.32737330771E+02  0.33994066184E+03  0.42421346301E+03  0.10100000352E+00 0. -1.
</event>
<event>
 5   0  0.1503277E-04  0.1099699E+04  0.7818609E-02  0.9205485E-01
        2   -1    0    0  501    0  0.00000000000E+00  0.00000000000E+00  0.11042702763E+04  0.11042702763E+04  0.25500000920E-02 0. -1.
       -2   -1    0    0    0  501  0.00000000000E+00  0.00000000000E+00 -0.27378667026E+03  0.27378667027E+03  0.25500000920E-02 0.  1.
    10030    2    1    2    0    0  0.00000000000E+00  0.00000000000E+00  0.83048360600E+03  0.13780569465E+04  0.10996990170E+04 0.  0.
        5    1    3    3  502    0  0.28037350738E+03 -0.36074202396E+03  0.31925181106E+02  0.45802338223E+03  0.46999998093E+01 0.  1.
       -5    1    3    3    0  502 -0.28037350738E+03  0.36074202396E+03  0.79855842490E+03  0.92003356431E+03  0.46999998093E+01 0. -1.
</event>
<event>
 5   0  0.1464205E-04  0.1100084E+04  0.7818609E-02  0.9205110E-01
        2   -1    0    0  501    0  0.00000000000E+00  0.00000000000E+00  0.46110905582E+03  0.46110905583E+03  0.25500000920E-02 0. -1.
       -2   -1    0    0    0  501  0.00000000000E+00  0.00000000000E+00 -0.65612733902E+03  0.65612733902E+03  0.25500000920E-02 0.  1.
    10030    2    1    2    0    0  0.00000000000E+00  0.00000000000E+00 -0.19501828320E+03  0.11172363949E+04  0.11000841019E+04 0.  0.
        3    1    3    3  502    0  0.28798379481E+03  0.22750488981E+03 -0.51359588387E+03  0.63124787769E+03  0.10100000352E+00 0.  1.
       -3    1    3    3    0  502 -0.28798379481E+03 -0.22750488981E+03  0.31857760067E+03  0.48598851716E+03  0.10100000352E+00 0. -1.
</event>
<event>
 5   0  0.8921459E-05  0.1100304E+04  0.7818609E-02  0.9204895E-01
        1   -1    0    0  501    0  0.00000000000E+00  0.00000000000E+00  0.73478703437E+03  0.73478703439E+03  0.50400001928E-02 0. -1.
       -1   -1    0    0    0  501  0.00000000000E+00  0.00000000000E+00 -0.41191171549E+03  0.41191171552E+03  0.50400001928E-02 0.  1.
    10030    2    1    2    0    0  0.00000000000E+00  0.00000000000E+00  0.32287531889E+03  0.11466987499E+04  0.11003042995E+04 0.  0.
        3    1    3    3  502    0  0.45611712560E+02 -0.55076481016E+02  0.72992275500E+03  0.73341740200E+03  0.10100000352E+00 0. -1.
       -3    1    3    3    0  502 -0.45611712560E+02  0.55076481016E+02 -0.40704743611E+03  0.41328134791E+03  0.10100000352E+00 0.  1.
</event>
<event>
 5   0  0.1574101E-04  0.1100456E+04  0.7818609E-02  0.9204747E-01
        2   -1    0    0  501    0  0.00000000000E+00  0.00000000000E+00  0.75293789928E+03  0.75293789928E+03  0.25500000920E-02 0.  1.
       -2   -1    0    0    0  501  0.00000000000E+00  0.00000000000E+00 -0.40209303689E+03  0.40209303690E+03  0.25500000920E-02 0. -1.
    10030    2    1    2    0    0  0.00000000000E+00  0.00000000000E+00  0.35084486239E+03  0.11550309362E+04  0.11004564262E+04 0.  0.
        4    1    3    3  502    0  0.23091234785E+03 -0.76024749608E+02 -0.34266524200E+03  0.42014444649E+03  0.12699999809E+01 0. -1.
       -4    1    3    3    0  502 -0.23091234785E+03  0.76024749608E+02  0.69351010438E+03  0.73488648969E+03  0.12699999809E+01 0.  1.
</event>
<event>
 5   0  0.1503277E-04  0.1100015E+04  0.7818609E-02  0.9205177E-01
        2   -1    0    0  501    0  0.00000000000E+00  0.00000000000E+00  0.12277005525E+04  0.12277005525E+04  0.25500000920E-02 0. -1.
       -2   -1    0    0    0  501  0.00000000000E+00  0.00000000000E+00 -0.24640220254E+03  0.24640220255E+03  0.25500000920E-02 0.  1.
    10030    2    1    2    0    0  0.00000000000E+00  0.00000000000E+00  0.98129835000E+03  0.14741027551E+04  0.11000147639E+04 0.  0.
        5    1    3    3  502    0 -0.16014641293E+03 -0.12451820934E+03  0.11757074410E+04  0.11930891563E+04  0.46999998093E+01 0. -1.
       -5    1    3    3    0  502  0.16014641293E+03  0.12451820934E+03 -0.19440909103E+03  0.28101359878E+03  0.46999998093E+01 0.  1.
</event>
<event>
 5   0  0.8621738E-05  0.1099526E+04  0.7818609E-02  0.9205654E-01
        1   -1    0    0  501    0  0.00000000000E+00  0.00000000000E+00  0.88900671839E+03  0.88900671840E+03  0.50400001928E-02 0.  1.
       -1   -1    0    0    0  501  0.00000000000E+00  0.00000000000E+00 -0.33997427733E+03  0.33997427736E+03  0.50400001928E-02 0. -1.
    10030    2    1    2    0    0  0.00000000000E+00  0.00000000000E+00  0.54903244106E+03  0.12289809958E+04  0.10995261100E+04 0.  0.
        2    1    3    3  502    0 -0.12366799933E+02  0.31582077924E+03 -0.22827128799E+03  0.38987624096E+03  0.25500000920E-02 0. -1.
       -2    1    3    3    0  502  0.12366799933E+02 -0.31582077924E+03  0.77730372905E+03  0.83910475481E+03  0.25500000920E-02 0.  1.
</event>
<event>
 5   0  0.9016738E-05  0.1100401E+04  0.7818609E-02  0.9204801E-01
       -1   -1    0    0    0  501  0.00000000000E+00  0.00000000000E+00  0.53517363317E+03  0.53517363320E+03  0.50400001928E-02 0. -1.
        1   -1    0    0  501    0  0.00000000000E+00  0.00000000000E+00 -0.56564919152E+03  0.56564919154E+03  0.50400001928E-02 0.  1.
    10030    2    1    2    0    0  0.00000000000E+00  0.00000000000E+00 -0.30475558342E+02  0.11008228247E+04  0.11004008959E+04 0.  0.
        4    1    3    3  502    0  0.16282138007E+02  0.41722122408E+03  0.34320152009E+03  0.54048825532E+03  0.12699999809E+01 0. -1.
       -4    1    3    3    0  502 -0.16282138007E+02 -0.41722122408E+03 -0.37367707843E+03  0.56033456942E+03  0.12699999809E+01 0.  1.
</event>
<event>
 5   0  0.8921459E-05  0.1099930E+04  0.7818609E-02  0.9205260E-01
        1   -1    0    0  501    0  0.00000000000E+00  0.00000000000E+00  0.62566924855E+03  0.62566924857E+03  0.50400001928E-02 0.  1.
       -1   -1    0    0    0  501  0.00000000000E+00  0.00000000000E+00 -0.48342051387E+03  0.48342051389E+03  0.50400001928E-02 0. -1.
    10030    2    1    2    0    0  0.00000000000E+00  0.00000000000E+00  0.14224873468E+03  0.11090897625E+04  0.10999297244E+04 0.  0.
        3    1    3    3  502    0 -0.87112895160E+02  0.53429761012E+03 -0.26630126778E+02  0.54200716466E+03  0.10100000352E+00 0. -1.
       -3    1    3    3    0  502  0.87112895160E+02 -0.53429761012E+03  0.16887886146E+03  0.56708259781E+03  0.10100000352E+00 0.  1.
</event>
<event>
 5   0  0.9346836E-05  0.1099996E+04  0.7818609E-02  0.9205196E-01
        1   -1    0    0  501    0  0.00000000000E+00  0.00000000000E+00  0.55110519781E+03  0.55110519783E+03  0.50400001928E-02 0.  1.
       -1   -1    0    0    0  501  0.00000000000E+00  0.00000000000E+00 -0.54889294341E+03  0.54889294343E+03  0.50400001928E-02 0. -1.
    10030    2    1    2    0    0  0.00000000000E+00  0.00000000000E+00  0.22122544016E+01  0.10999981413E+04  0.10999959167E+04 0.  0.
        5    1    3    3  502    0  0.50208585757E+02 -0.28164768801E+03 -0.46860680036E+03  0.54905441041E+03  0.46999998093E+01 0. -1.
       -5    1    3    3    0  502 -0.50208585757E+02  0.28164768801E+03  0.47081905476E+03  0.55094373086E+03  0.46999998093E+01 0.  1.
</event>
<event>
 5   0  0.1464205E-04  0.1099374E+04  0.7818609E-02  0.9205802E-01
        2   -1    0    0  501    0  0.00000000000E+00  0.00000000000E+00  0.13885754329E+04  0.13885754329E+04  0.25500000920E-02 0.  1.
       -2   -1    0    0    0  501  0.00000000000E+00  0.00000000000E+00 -0.21760146168E+03  0.21760146169E+03  0.25500000920E-02 0. -1.
    10030    2    1    2    0    0  0.00000000000E+00  0.00000000000E+00  0.11709739712E+04  0.16061768946E+04  0.10993744473E+04 0.  0.
        3    1    3    3  502    0  0.29326452426E+03  0.46353632064E+03  0.63788002707E+03  0.84128529101E+03  0.10100000352E+00 0. -1.
       -3    1    3    3    0  502 -0.29326452426E+03 -0.46353632064E+03  0.53309394417E+03  0.76489160360E+03  0.10100000352E+00 0.  1.
</event>
<event>
 5   0  0.8657442E-05  0.1100100E+04  0.7818609E-02  0.9205094E-01
        1   -1    0    0  501    0  0.00000000000E+00  0.00000000000E+00  0.62527961605E+03  0.62527961607E+03  0.50400001928E-02 0.  1.
       -1   -1    0    0    0  501  0.00000000000E+00  0.00000000000E+00 -0.48387180649E+03  0.48387180652E+03  0.50400001928E-02 0. -1.
    10030    2    1    2    0    0  0.00000000000E+00  0.00000000000E+00  0.14140780955E+03  0.11091514226E+04  0.11001003180E+04 0.  0.
        1    1    3    3  502    0 -0.23509356104E+03  0.49727806320E+03  0.71561072147E+02  0.55468499318E+03  0.50400001928E-02 0. -1.
       -1    1    3    3    0  502  0.23509356104E+03 -0.49727806320E+03  0.69846737408E+02  0.55446642941E+03  0.50400001928E-02 0.  1.
</event>
<event>
 5   0  0.1553937E-04  0.1099664E+04  0.7818609E-02  0.9205520E-01
       -2   -1    0    0    0  501  0.00000000000E+00  0.00000000000E+00  0.10851662478E+04  0.10851662478E+04  0.25500000920E-02 0. -1.
        2   -1    0    0  501    0  0.00000000000E+00  0.00000000000E+00 -0.27858872736E+03  0.27858872738E+03  0.25500000920E-02 0.  1.
    10030    2    1    2    0    0  0.00000000000E+00  0.00000000000E+00  0.80657752047E+03  0.13637549752E+04  0.10996637376E+04 0.  0.
        1    1    3    3  502    0 -0.14905004113E+03 -0.41854539942E+03  0.15873604158E+01  0.44429571894E+03  0.50400001928E-02 0.  1.
       -1    1    3    3    0  502  0.14905004113E+03  0.41854539942E+03  0.80499016005E+03  0.91945925627E+03  0.50400001928E-02 0. -1.
</event>
<event>
 5   0  0.8921459E-05  0.1100038E+04  0.7818609E-02  0.9205155E-01
        1   -1    0    0  501    0  0.00000000000E+00  0.00000000000E+00  0.57073840874E+03  0.57073840876E+03  0.50400001928E-02 0.  1.
       -1   -1    0    0    0  501  0.00000000000E+00  0.00000000000E+00 -0.53005151723E+03  0.53005151725E+03  0.50400001928E-02 0. -1.
    10030    2    1    2    0    0  0.00000000000E+00  0.00000000000E+00  0.40686891509E+02  0.11007899260E+04  0.11000377439E+04 0.  0.
        3    1    3    3  502    0 -0.15857619382E+03  0.28545429282E+03 -0.42255402470E+03  0.53402479018E+03  0.10100000352E+00 0. -1.
       -3    1    3    3    0  502  0.15857619382E+03 -0.28545429282E+03  0.46324091621E+03  0.56676513583E+03  0.10100000352E+00 0.  1.
</event>
<event>
 5   0  0.8621738E-05  0.1100106E+04  0.7818609E-02  0.9205089E-01
        1   -1    0    0  501    0  0.00000000000E+00  0.00000000000E+00  0.12085637981E+04  0.12085637981E+04  0.50400001928E-02 0.  1.
       -1   -1    0    0    0  501  0.00000000000E+00  0.00000000000E+00 -0.25034513865E+03  0.25034513870E+03  0.50400001928E-02 0. -1.
    10030    2    1    2    0    0  0.00000000000E+00  0.00000000000E+00  0.95821865949E+03  0.14589089368E+04  0.11001055798E+04 0.  0.
        2    1    3    3  502    0 -0.44336866093E+02 -0.25447243888E+03 -0.16491007307E+03  0.30645931549E+03  0.25500000920E-02 0. -1.
       -2    1    3    3    0  502  0.44336866093E+02  0.25447243888E+03  0.11231287326E+04  0.11524496214E+04  0.25500000920E-02 0.  1.
</event>
<event>
 5   0  0.9346836E-05  0.1099820E+04  0.7818609E-02  0.9205367E-01
        1   -1    0    0  501    0  0.00000000000E+00  0.00000000000E+00  0.72322335211E+03  0.72322335213E+03  0.50400001928E-02 0.  1.
       -1   -1    0    0    0  501  0.00000000000E+00  0.00000000000E+00 -0.41812979368E+03  0.41812979371E+03  0.50400001928E-02 0. -1.
    10030    2    1    2    0    0  0.00000000000E+00  0.00000000000E+00  0.30509355843E+03  0.11413531458E+04  0.10998204054E+04 0.  0.
        5    1    3    3  502    0 -0.34728081617E+03 -0.20803580106E+03  0.53875127340E+03  0.67391237144E+03  0.46999998093E+01 0.  1.
       -5    1    3    3    0  502  0.34728081617E+03  0.20803580106E+03 -0.23365771497E+03  0.46744077439E+03  0.46999998093E+01 0. -1.
</event>
<event>
 5   0  0.1503277E-04  0.1099648E+04  0.7818609E-02  0.9205535E-01
       -2   -1    0    0    0  501  0.00000000000E+00  0.00000000000E+00  0.67209815875E+03  0.67209815875E+03  0.25500000920E-02 0. -1.
        2   -1    0    0  501    0  0.00000000000E+00  0.00000000000E+00 -0.44979484191E+03  0.44979484192E+03  0.25500000920E-02 0.  1.
    10030    2    1    2    0    0  0.00000000000E+00  0.00000000000E+00  0.22230331684E+03  0.11218930007E+04  0.10996477346E+04 0.  0.
        5    1    3    3  502    0  0.14944845322E+03 -0.25741714649E+03  0.58276453393E+03  0.65439668358E+03  0.46999998093E+01 0. -1.
       -5    1    3    3    0  502 -0.14944845322E+03  0.25741714649E+03 -0.36046121709E+03  0.46749631710E+03  0.46999998093E+01 0.  1.
</event>
<event>
 5   0  0.1503277E-04  0.1100103E+04  0.7818609E-02  0.9205092E-01
       -2   -1    0    0    0  501  0.00000000000E+00  0.00000000000E+00  0.31899250298E+03  0.31899250299E+03  0.25500000920E-02 0. -1.
        2   -1    0    0  501    0  0.00000000000E+00  0.00000000000E+00 -0.94847510296E+03  0.94847510296E+03  0.25500000920E-02 0.  1.
    10030    2    1    2    0    0  0.00000000000E+00  0.00000000000E+00 -0.62948259997E+03  0.12674676059E+04  0.11001026263E+04 0.  0.
        5    1    3    3  502    0  0.26542503636E+03  0.42285410484E+03 -0.48804217314E+02  0.50165723909E+03  0.46999998093E+01 0. -1.
       -5    1    3    3    0  502 -0.26542503636E+03 -0.42285410484E+03 -0.58067838266E+03  0.76581036686E+03  0.46999998093E+01 0.  1.
</event>
<event>
 5   0  0.1503277E-04  0.1099770E+04  0.7818609E-02  0.9205416E-01
       -2   -1    0    0    0  501  0.00000000000E+00  0.00000000000E+00  0.77498251565E+03  0.77498251565E+03  0.25500000920E-02 0. -1.
        2   -1    0    0  501    0  0.00000000000E+00  0.00000000000E+00 -0.39016835673E+03  0.39016835674E+03  0.25500000920E-02 0.  1.
    10030    2    1    2    0    0  0.00000000000E+00  0.00000000000E+00  0.38481415892E+03  0.11651508724E+04  0.10997702572E+04 0.  0.
        5    1    3    3  502    0  0.39015904938E+03  0.26520031438E+03  0.49168281108E+03  0.68141717564E+03  0.46999998093E+01 0. -1.
       -5    1    3    3    0  502 -0.39015904938E+03 -0.26520031438E+03 -0.10686865216E+03  0.48373369675E+03  0.46999998093E+01 0.  1.
</event>
<event>
 5   0  0.9016738E-05  0.1099847E+04  0.7818609E-02  0.9205341E-01
        1   -1    0    0  501    0  0.00000000000E+00  0.00000000000E+00  0.63862265356E+03  0.63862265358E+03  0.50400001928E-02 0.  1.
       -1   -1    0    0    0  501  0.00000000000E+00  0.00000000000E+00 -0.47354430216E+03  0.47354430219E+03  0.50400001928E-02 0. -1.
    10030    2    1    2    0    0  0.00000000000E+00  0.00000000000E+00  0.16507835140E+03  0.11121669558E+04  0.10998474782E+04 0.  0.
        4    1    3    3  502    0  0.34296337279E+03 -0.18731865605E+03  0.47378691017E+03  0.61415617161E+03  0.12699999809E+01 0.  1.
       -4    1    3    3    0  502 -0.34296337279E+03  0.18731865605E+03 -0.30870855876E+03  0.49801078416E+03  0.12699999809E+01 0. -1.
</event>
<event>
 5   0  0.1540772E-04  0.1100132E+04  0.7818609E-02  0.9205063E-01
        2   -1    0    0  501    0  0.00000000000E+00  0.00000000000E+00  0.96932782474E+03  0.96932782474E+03  0.25500000920E-02 0. -1.
       -2   -1    0    0    0  501  0.00000000000E+00  0.00000000000E+00 -0.31214709846E+03  0.31214709847E+03  0.25500000920E-02 0.  1.
    10030    2    1    2    0    0  0.00000000000E+00  0.00000000000E+00  0.65718072628E+03  0.12814749232E+04  0.11001324792E+04 0.  0.
        2    1    3    3  502    0 -0.17360580008E+03 -0.33832719576E+03  0.79155787267E+03  0.87816179091E+03  0.25500000920E-02 0. -1.
       -2    1    3    3    0  502  0.17360580008E+03  0.33832719576E+03 -0.13437714639E+03  0.40331313230E+03  0.25500000920E-02 0.  1.
</event>
<event>
 5   0  0.1464205E-04  0.1099259E+04  0.7818609E-02  0.9205915E-01
        2   -1    0    0  501    0  0.00000000000E+00  0.00000000000E+00  0.89754856710E+03  0.89754856710E+03  0.25500000920E-02 0. -1.
       -2   -1    0    0    0  501  0.00000000000E+00  0.00000000000E+00 -0.33657500286E+03  0.33657500287E+03  0.25500000920E-02 0.  1.
    10030    2    1    2    0    0  0.00000000000E+00  0.00000000000E+00  0.56097356424E+03  0.12341235700E+04  0.10992586803E+04 0.  0.
        3    1    3    3  502    0  0.54574066137E+03  0.59234623942E+02  0.24972451580E+03  0.60307872964E+03  0.10100000352E+00 0.  1.
       -3    1    3    3    0  502 -0.54574066137E+03 -0.59234623942E+02  0.31124904844E+03  0.63104484033E+03  0.10100000352E+00 0. -1.
</event>
<event>
 5   0  0.8657442E-05  0.1100187E+04  0.7818609E-02  0.9205010E-01
        1   -1    0    0  501    0  0.00000000000E+00  0.00000000000E+00  0.12284056162E+04  0.12284056162E+04  0.50400001928E-02 0.  1.
       -1   -1    0    0    0  501  0.00000000000E+00  0.00000000000E+00 -0.24633787266E+03  0.24633787271E+03  0.50400001928E-02 0. -1.
    10030    2    1    2    0    0  0.00000000000E+00  0.00000000000E+00  0.98206774352E+03  0.14747434889E+04  0.11001869410E+04 0.  0.
        1    1    3    3  502    0 -0.35760143125E+03  0.10786841922E+02  0.10511546467E+04  0.11103698622E+04  0.50400001928E-02 0.  1.
       -1    1    3    3    0  502  0.35760143125E+03 -0.10786841922E+02 -0.69086903201E+02  0.36437362667E+03  0.50400001928E-02 0. -1.
</event>
<event>
 5   0  0.1464205E-04  0.1100350E+04  0.7818609E-02  0.9204851E-01
        2   -1    0    0  501    0  0.00000000000E+00  0.00000000000E+00  0.58322134504E+03  0.58322134505E+03  0.25500000920E-02 0. -1.
       -2   -1    0    0    0  501  0.00000000000E+00  0.00000000000E+00 -0.51900138253E+03  0.51900138253E+03  0.25500000920E-02 0.  1.
    10030    2    1    2    0    0  0.00000000000E+00  0.00000000000E+00  0.64219962517E+02  0.11022227276E+04  0.11003502795E+04 0.  0.
        3    1    3    3  502    0  0.29788562446E+03 -0.14896626792E+03 -0.40654601721E+03  0.52555348781E+03  0.10100000352E+00 0.  1.
       -3    1    3    3    0  502 -0.29788562446E+03  0.14896626792E+03  0.47076597972E+03  0.57666923978E+03  0.10100000352E+00 0. -1.
</event>
<event>
 5   0  0.9016738E-05  0.1100035E+04  0.7818609E-02  0.9205158E-01
       -1   -1    0    0    0  501  0.00000000000E+00  0.00000000000E+00  0.42347661067E+03  0.42347661070E+03  0.50400001928E-02 0.  1.
        1   -1    0    0  501    0  0.00000000000E+00  0.00000000000E+00 -0.71437044391E+03  0.71437044392E+03  0.50400001928E-02 0. -1.
    10030    2    1    2    0    0  0.00000000000E+00  0.00000000000E+00 -0.29089383324E+03  0.11378470546E+04  0.11000348619E+04 0.  0.
        4    1    3    3  502    0  0.59735136705E+02  0.42410398917E+03 -0.50239587542E+03  0.66017854306E+03  0.12699999809E+01 0. -1.
       -4    1    3    3    0  502 -0.59735136705E+02 -0.42410398917E+03  0.21150204218E+03  0.47766851156E+03  0.12699999809E+01 0.  1.
</event>
<event>
 5   0  0.1503277E-04  0.1099786E+04  0.7818609E-02  0.9205401E-01
        2   -1    0    0  501    0  0.00000000000E+00  0.00000000000E+00  0.75682449634E+03  0.75682449635E+03  0.25500000920E-02 0.  1.
       -2   -1    0    0    0  501  0.00000000000E+00  0.00000000000E+00 -0.39954064711E+03  0.39954064712E+03  0.25500000920E-02 0. -1.
    10030    2    1    2    0    0  0.00000000000E+00  0.00000000000E+00  0.35728384923E+03  0.11563651435E+04  0.10997857046E+04 0.  0.
        5    1    3    3  502    0  0.15723751746E+03  0.22708611265E+03 -0.32128528515E+03  0.42371932209E+03  0.46999998093E+01 0. -1.
       -5    1    3    3    0  502 -0.15723751746E+03 -0.22708611265E+03  0.67856913438E+03  0.73264582138E+03  0.46999998093E+01 0.  1.
</event>
<event>
 5   0  0.8921459E-05  0.1099985E+04  0.7818609E-02  0.9205207E-01
        1   -1    0    0  501    0  0.00000000000E+00  0.00000000000E+00  0.73715233692E+03  0.73715233694E+03  0.50400001928E-02 0.  1.
       -1   -1    0    0    0  501  0.00000000000E+00  0.00000000000E+00 -0.41035153519E+03  0.41035153522E+03  0.50400001928E-02 0. -1.
    10030    2    1    2    0    0  0.00000000000E+00  0.00000000000E+00  0.32680080173E+03  0.11475038722E+04  0.10999847147E+04 0.  0.
        3    1    3    3  502    0  0.37784037226E+03  0.28039861930E+02 -0.25249761567E+03  0.45530718958E+03  0.10100000352E+00 0. -1.
       -3    1    3    3    0  502 -0.37784037226E+03 -0.28039861930E+02  0.57929841740E+03  0.69219668258E+03  0.10100000352E+00 0.  1.
</event>
<event>
 5   0  0.1540772E-04  0.1099358E+04  0.7818609E-02  0.9205818E-01
        2   -1    0    0  501    0  0.00000000000E+00  0.00000000000E+00  0.39341410547E+03  0.39341410548E+03  0.25500000920E-02 0.  1.
       -2   -1    0    0    0  501  0.00000000000E+00  0.00000000000E+00 -0.76801242761E+03  0.76801242761E+03  0.25500000920E-02 0. -1.
    10030    2    1    2    0    0  0.00000000000E+00  0.00000000000E+00 -0.37459832214E+03  0.11614265331E+04  0.10993578529E+04 0.  0.
        2    1    3    3  502    0  0.15948951821E+03  0.46361304985E+03  0.75274918403E+02  0.49602447496E+03  0.25500000920E-02 0.  1.
       -2    1    3    3    0  502 -0.15948951821E+03 -0.46361304985E+03 -0.44987324054E+03  0.66540205814E+03  0.25500000920E-02 0. -1.
</event>
<event>
 5   0  0.9346836E-05  0.1099784E+04  0.7818609E-02  0.9205402E-01
       -1   -1    0    0    0  501  0.00000000000E+00  0.00000000000E+00  0.32798621925E+03  0.32798621929E+03  0.50400001928E-02 0.  1.
        1   -1    0    0  501    0  0.00000000000E+00  0.00000000000E+00 -0.92193310068E+03  0.92193310069E+03  0.50400001928E-02 0. -1.
    10030    2    1    2    0    0  0.00000000000E+00  0.00000000000E+00 -0.59394688143E+03  0.12499193200E+04  0.10997842554E+04 0.  0.
        5    1    3    3  502    0 -0.21323569127E+02 -0.50883334520E+03 -0.53262718244E+03  0.73693953162E+03  0.46999998093E+01 0.  1.
       -5    1    3    3    0  502  0.21323569127E+02  0.50883334520E+03 -0.61319698983E+02  0.51297978836E+03  0.46999998093E+01 0. -1.
</event>
<event>
 5   0  0.8621738E-05  0.1099198E+04  0.7818609E-02  0.9205974E-01
       -1   -1    0    0    0  501  0.00000000000E+00  0.00000000000E+00  0.89389245364E+03  0.89389245365E+03  0.50400001928E-02 0.  1.
        1   -1    0    0  501    0  0.00000000000E+00  0.00000000000E+00 -0.33791405196E+03  0.33791405199E+03  0.50400001928E-02 0. -1.
    10030    2    1    2    0    0  0.00000000000E+00  0.00000000000E+00  0.55597840168E+03  0.12318065056E+04  0.10991975638E+04 0.  0.
        2    1    3    3  502    0  0.19010654676E+03  0.38776007164E+03  0.65894215536E+03  0.78784715294E+03  0.25500000920E-02 0.  1.
       -2    1    3    3    0  502 -0.19010654676E+03 -0.38776007164E+03 -0.10296375367E+03  0.44395935271E+03  0.25500000920E-02 0. -1.
</event>
<event>
 5   0  0.9346836E-05  0.1099684E+04  0.7818609E-02  0.9205500E-01
        1   -1    0    0  501    0  0.00000000000E+00  0.00000000000E+00  0.10741619149E+04  0.10741619150E+04  0.50400001928E-02 0. -1.
       -1   -1    0    0    0  501  0.00000000000E+00  0.00000000000E+00 -0.28145287029E+03  0.28145287034E+03  0.50400001928E-02 0.  1.
    10030    2    1    2    0    0  0.00000000000E+00  0.00000000000E+00  0.79270904465E+03  0.13556147853E+04  0.10996835075E+04 0.  0.
        5    1    3    3  502    0  0.66241496360E+02 -0.11738008664E+03  0.10534570310E+04  0.10620545309E+04  0.46999998093E+01 0. -1.
       -5    1    3    3    0  502 -0.66241496360E+02  0.11738008664E+03 -0.26074798631E+03  0.29356025437E+03  0.46999998093E+01 0.  1.
</event>
<event>
 5   0  0.1503277E-04  0.1099522E+04  0.7818609E-02  0.9205658E-01
       -2   -1    0    0    0  501  0.00000000000E+00  0.00000000000E+00  0.31823025323E+03  0.31823025325E+03  0.25500000920E-02 0. -1.
        2   -1    0    0  501    0  0.00000000000E+00  0.00000000000E+00 -0.94974319159E+03  0.94974319159E+03  0.25500000920E-02 0.  1.
    10030    2    1    2    0    0  0.00000000000E+00  0.00000000000E+00 -0.63151293836E+03  0.12679734448E+04  0.10995217440E+04 0.  0.
        5    1    3    3  502    0  0.38840251060E+03 -0.27393731832E+03 -0.63433485179E+03  0.79265437537E+03  0.46999998093E+01 0.  1.
       -5    1    3    3    0  502 -0.38840251060E+03  0.27393731832E+03  0.28219134365E+01  0.47531906947E+03  0.46999998093E+01 0. -1.
</event>
<event>
 5   0  0.9346836E-05  0.1099854E+04  0.7818609E-02  0.9205334E-01
       -1   -1    0    0    0  501  0.00000000000E+00  0.00000000000E+00  0.30357450257E+03  0.30357450261E+03  0.50400001928E-02 0. -1.
        1   -1    0    0  501    0  0.00000000000E+00  0.00000000000E+00 -0.99619546113E+03  0.99619546114E+03  0.50400001928E-02 0.  1.
    10030    2    1    2    0    0  0.00000000000E+00  0.00000000000E+00 -0.69262095856E+03  0.12997699637E+04  0.10998537023E+04 0.  0.
        5    1    3    3  502    0  0.40581960457E+03  0.86378236090E+01 -0.78473346812E+03  0.88351166910E+03  0.46999998093E+01 0.  1.
       -5    1    3    3    0  502 -0.40581960457E+03 -0.86378236090E+01  0.92112509563E+02  0.41625829465E+03  0.46999998093E+01 0. -1.
</event>
<event>
 5   0  0.1553937E-04  0.1099256E+04  0.7818609E-02  0.9205917E-01
       -2   -1    0    0    0  501  0.00000000000E+00  0.00000000000E+00  0.57094382930E+03  0.57094382930E+03  0.25500000920E-02 0. -1.
        2   -1    0    0  501    0  0.00000000000E+00  0.00000000000E+00 -0.52910831986E+03  0.52910831987E+03  0.25500000920E-02 0.  1.
    10030    2    1    2    0    0  0.00000000000E+00  0.00000000000E+00  0.41835509434E+02  0.11000521492E+04  0.10992563491E+04 0.  0.
        1    1    3    3  502    0 -0.51185166163E+03 -0.30619632252E+02  0.21895352612E+03  0.55755746970E+03  0.50400001928E-02 0. -1.
       -1    1    3    3    0  502  0.51185166163E+03  0.30619632252E+02 -0.17711801669E+03  0.54249467947E+03  0.50400001928E-02 0.  1.
</event>
<event>
 5   0  0.1503277E-04  0.1100937E+04  0.7818609E-02  0.9204279E-01
        2   -1    0    0  501    0  0.00000000000E+00  0.00000000000E+00  0.33699799127E+03  0.33699799127E+03  0.25500000920E-02 0. -1.
       -2   -1    0    0    0  501  0.00000000000E+00  0.00000000000E+00 -0.89916134498E+03  0.89916134498E+03  0.25500000920E-02 0.  1.
    10030    2    1    2    0    0  0.00000000000E+00  0.00000000000E+00 -0.56216335371E+03  0.12361593363E+04  0.11009369956E+04 0.  0.
        5    1    3    3  502    0  0.23133322037E+03  0.22075324582E+03  0.22199698241E+03  0.38929655095E+03  0.46999998093E+01 0. -1.
       -5    1    3    3    0  502 -0.23133322037E+03 -0.22075324582E+03 -0.78416033612E+03  0.84686278530E+03  0.46999998093E+01 0.  1.
</event>
<event>
 5   0  0.1503277E-04  0.1099606E+04  0.7818609E-02  0.9205576E-01
        2   -1    0    0  501    0  0.00000000000E+00  0.00000000000E+00  0.23787401827E+04  0.23787401827E+04  0.25500000920E-02 0.  1.
       -2   -1    0    0    0  501  0.00000000000E+00  0.00000000000E+00 -0.12707708037E+03  0.12707708040E+03  0.25500000920E-02 0. -1.
    10030    2    1    2    0    0  0.00000000000E+00  0.00000000000E+00  0.22516631024E+04  0.25058172631E+04  0.10996060339E+04 0.  0.
        5    1    3    3  502    0 -0.17400779073E+03 -0.49173993855E+02 -0.57328808971E+02  0.18975108759E+03  0.46999998093E+01 0. -1.
       -5    1    3    3    0  502  0.17400779073E+03  0.49173993855E+02  0.23089919113E+04  0.23160661755E+04  0.46999998093E+01 0.  1.
</event>
<event>
 5   0  0.8921459E-05  0.1100088E+04  0.7818609E-02  0.9205106E-01
       -1   -1    0    0    0  501  0.00000000000E+00  0.00000000000E+00  0.16227373035E+03  0.16227373043E+03  0.50400001928E-02 0. -1.
        1   -1    0    0  501    0  0.00000000000E+00  0.00000000000E+00 -0.18644316820E+04  0.18644316820E+04  0.50400001928E-02 0.  1.
    10030    2    1    2    0    0  0.00000000000E+00  0.00000000000E+00 -0.17021579516E+04  0.20267054124E+04  0.11000877858E+04 0.  0.
        3    1    3    3  502    0 -0.18676384967E+03  0.46051773867E+03 -0.12854544892E+04  0.13781692847E+04  0.10100000352E+00 0.  1.
       -3    1    3    3    0  502  0.18676384967E+03 -0.46051773867E+03 -0.41670346239E+03  0.64853612771E+03  0.10100000352E+00 0. -1.
</event>
<event>
 5   0  0.9346836E-05  0.1099089E+04  0.7818609E-02  0.9206080E-01
       -1   -1    0    0    0  501  0.00000000000E+00  0.00000000000E+00  0.29069003433E+03  0.29069003437E+03  0.50400001928E-02 0.  1.
        1   -1    0    0  501    0  0.00000000000E+00  0.00000000000E+00 -0.10389040178E+04  0.10389040178E+04  0.50400001928E-02 0. -1.
    10030    2    1    2    0    0  0.00000000000E+00  0.00000000000E+00 -0.74821398348E+03  0.13295940522E+04  0.10990887947E+04 0.  0.
        5    1    3    3  502    0  0.28272802613E+03  0.17943169912E+03  0.15298583297E+03  0.36818151297E+03  0.46999998093E+01 0.  1.
       -5    1    3    3    0  502 -0.28272802613E+03 -0.17943169912E+03 -0.90119981644E+03  0.96141253922E+03  0.46999998093E+01 0. -1.
</event>
<event>
 5   0  0.1503277E-04  0.1100359E+04  0.7818609E-02  0.9204842E-01
        2   -1    0    0  501    0  0.00000000000E+00  0.00000000000E+00  0.27369838632E+04  0.27369838632E+04  0.25500000920E-02 0.  1.
       -2   -1    0    0    0  501  0.00000000000E+00  0.00000000000E+00 -0.11059535159E+03  0.11059535162E+03  0.25500000920E-02 0. -1.
    10030    2    1    2    0    0  0.00000000000E+00  0.00000000000E+00  0.26263885116E+04  0.28475792148E+04  0.11003593825E+04 0.  0.
        5    1    3    3  502    0 -0.46085860281E+03 -0.19789808680E+03  0.72807795135E+03  0.88412323676E+03  0.46999998093E+01 0. -1.
       -5    1    3    3    0  502  0.46085860281E+03  0.19789808680E+03  0.18983105602E+04  0.19634559780E+04  0.46999998093E+01 0.  1.
</event>
<event>
 5   0  0.8621738E-05  0.1099974E+04  0.7818609E-02  0.9205217E-01
       -1   -1    0    0    0  501  0.00000000000E+00  0.00000000000E+00  0.20945850207E+03  0.20945850213E+03  0.50400001928E-02 0. -1.
        1   -1    0    0  501    0  0.00000000000E+00  0.00000000000E+00 -0.14441326224E+04  0.14441326224E+04  0.50400001928E-02 0.  1.
    10030    2    1    2    0    0  0.00000000000E+00  0.00000000000E+00 -0.12346741204E+04  0.16535911246E+04  0.10999742832E+04 0.  0.
        2    1    3    3  502    0  0.10537815808E+03 -0.81867237487E+02  0.18475341433E+03  0.22790485929E+03  0.25500000920E-02 0. -1.
       -2    1    3    3    0  502 -0.10537815808E+03  0.81867237487E+02 -0.14194275347E+04  0.14256862653E+04  0.25500000920E-02 0.  1.
</event>
<event>
 5   0  0.1553937E-04  0.1099699E+04  0.7818609E-02  0.9205485E-01
       -2   -1    0    0    0  501  0.00000000000E+00  0.00000000000E+00  0.21766838407E+03  0.21766838408E+03  0.25500000920E-02 0.  1.
        2   -1    0    0  501    0  0.00000000000E+00  0.00000000000E+00 -0.13889689806E+04  0.13889689806E+04  0.25500000920E-02 0. -1.
    10030    2    1    2    0    0  0.00000000000E+00  0.00000000000E+00 -0.11713005966E+04  0.16066373647E+04  0.10996992926E+04 0.  0.
        1    1    3    3  502    0 -0.47621113915E+03  0.16454945461E+03 -0.90733468105E+03  0.10378390027E+04  0.50400001928E-02 0.  1.
       -1    1    3    3    0  502  0.47621113915E+03 -0.16454945461E+03 -0.26396591552E+03  0.56879836202E+03  0.50400001928E-02 0. -1.
</event>
<event>
 5   0  0.9346836E-05  0.1099998E+04  0.7818609E-02  0.9205194E-01
        1   -1    0    0  501    0  0.00000000000E+00  0.00000000000E+00  0.44939620066E+03  0.44939620069E+03  0.50400001928E-02 0.  1.
       -1   -1    0    0    0  501  0.00000000000E+00  0.00000000000E+00 -0.67312252536E+03  0.67312252538E+03  0.50400001928E-02 0. -1.
    10030    2    1    2    0    0  0.00000000000E+00  0.00000000000E+00 -0.22372632470E+03  0.11225187261E+04  0.10999976464E+04 0.  0.
        5    1    3    3  502    0 -0.50312584659E+03 -0.16657750891E+03  0.38090695256E+02  0.53137244475E+03  0.46999998093E+01 0.  1.
       -5    1    3    3    0  502  0.50312584659E+03  0.16657750891E+03 -0.26181701996E+03  0.59114628132E+03  0.46999998093E+01 0. -1.
</event>
<event>
 5   0  0.8657442E-05  0.1100071E+04  0.7818609E-02  0.9205123E-01
        1   -1    0    0  501    0  0.00000000000E+00  0.00000000000E+00  0.33156154022E+03  0.33156154026E+03  0.50400001928E-02 0.  1.
       -1   -1    0    0    0  501  0.00000000000E+00  0.00000000000E+00 -0.91246694237E+03  0.91246694238E+03  0.50400001928E-02 0. -1.
    10030    2    1    2    0    0  0.00000000000E+00  0.00000000000E+00 -0.58090540215E+03  0.12440284826E+04  0.11000708065E+04 0.  0.
        1    1    3    3  502    0 -0.67117480599E+02  0.34640190667E+02  0.32566925606E+03  0.33431297220E+03  0.50400001928E-02 0.  1.
       -1    1    3    3    0  502  0.67117480599E+02 -0.34640190667E+02 -0.90657465821E+03  0.90971551045E+03  0.50400001928E-02 0. -1.
</event>
<event>
 5   0  0.8657442E-05  0.1100063E+04  0.7818609E-02  0.9205130E-01
       -1   -1    0    0    0  501  0.00000000000E+00  0.00000000000E+00  0.25762317150E+03  0.25762317155E+03  0.50400001928E-02 0.  1.
        1   -1    0    0  501    0  0.00000000000E+00  0.00000000000E+00 -0.11743304143E+04  0.11743304144E+04  0.50400001928E-02 0. -1.
    10030    2    1    2    0    0  0.00000000000E+00  0.00000000000E+00 -0.91670724285E+03  0.14319535859E+04  0.11000631360E+04 0.  0.
        1    1    3    3  502    0 -0.72573476043E+02  0.53821419884E+03 -0.57178321983E+03  0.78859208959E+03  0.50400001928E-02 0. -1.
       -1    1    3    3    0  502  0.72573476043E+02 -0.53821419884E+03 -0.34492402302E+03  0.64336149632E+03  0.50400001928E-02 0.  1.
</event>
<event>
 5   0  0.8621738E-05  0.1099476E+04  0.7818609E-02  0.9205703E-01
       -1   -1    0    0    0  501  0.00000000000E+00  0.00000000000E+00  0.11040224087E+04  0.11040224087E+04  0.50400001928E-02 0. -1.
        1   -1    0    0  501    0  0.00000000000E+00  0.00000000000E+00 -0.27373709684E+03  0.27373709689E+03  0.50400001928E-02 0.  1.
    10030    2    1    2    0    0  0.00000000000E+00  0.00000000000E+00  0.83028531189E+03  0.13777595056E+04  0.10994760371E+04 0.  0.
        2    1    3    3  502    0  0.40520679393E+03 -0.32746629690E+03  0.19527648719E+03  0.55638082993E+03  0.25500000920E-02 0.  1.
       -2    1    3    3    0  502 -0.40520679393E+03  0.32746629690E+03  0.63500882470E+03  0.82137867571E+03  0.25500000920E-02 0. -1.
</event>
<event>
 5   0  0.1574101E-04  0.1099676E+04  0.7818609E-02  0.9205508E-01
       -2   -1    0    0    0  501  0.00000000000E+00  0.00000000000E+00  0.21519275648E+03  0.21519275650E+03  0.25500000920E-02 0.  1.
        2   -1    0    0  501    0  0.00000000000E+00  0.00000000000E+00 -0.14048889897E+04  0.14048889897E+04  0.25500000920E-02 0. -1.
    10030    2    1    2    0    0  0.00000000000E+00  0.00000000000E+00 -0.11896962332E+04  0.16200817462E+04  0.10996761964E+04 0.  0.
        4    1    3    3  502    0  0.15498753762E+03 -0.20210535013E+03  0.12304630708E+03  0.28285988750E+03  0.12699999809E+01 0.  1.
       -4    1    3    3    0  502 -0.15498753762E+03  0.20210535013E+03 -0.13127425403E+04  0.13372218587E+04  0.12699999809E+01 0. -1.
</event>
<event>
 5   0  0.1464205E-04  0.1099930E+04  0.7818609E-02  0.9205260E-01
        2   -1    0    0  501    0  0.00000000000E+00  0.00000000000E+00  0.21419870881E+04  0.21419870881E+04  0.25500000920E-02 0. -1.
       -2   -1    0    0    0  501  0.00000000000E+00  0.00000000000E+00 -0.14120608709E+03  0.14120608712E+03  0.25500000920E-02 0.  1.
    10030    2    1    2    0    0  0.00000000000E+00  0.00000000000E+00  0.20007810010E+04  0.22831931752E+04  0.10999302075E+04 0.  0.
        3    1    3    3  502    0  0.69671283911E+01  0.54803385711E+03  0.90590443527E+03  0.10587976697E+04  0.10100000352E+00 0. -1.
       -3    1    3    3    0  502 -0.69671283911E+01 -0.54803385711E+03  0.10948765657E+04  0.12243955054E+04  0.10100000352E+00 0.  1.
</event>
<event>
 5   0  0.9016738E-05  0.1100011E+04  0.7818609E-02  0.9205182E-01
       -1   -1    0    0    0  501  0.00000000000E+00  0.00000000000E+00  0.75515310564E+03  0.75515310565E+03  0.50400001928E-02 0.  1.
        1   -1    0    0  501    0  0.00000000000E+00  0.00000000000E+00 -0.40058873972E+03  0.40058873975E+03  0.50400001928E-02 0. -1.
    10030    2    1    2    0    0  0.00000000000E+00  0.00000000000E+00  0.35456436592E+03  0.11557418454E+04  0.11000106016E+04 0.  0.
        4    1    3    3  502    0  0.10547955604E+03  0.24169640093E+01 -0.38985510510E+03  0.40388165882E+03  0.12699999809E+01 0. -1.
       -4    1    3    3    0  502 -0.10547955604E+03 -0.24169640093E+01  0.74441947101E+03  0.75186018659E+03  0.12699999809E+01 0.  1.
</event>
<event>
 5   0  0.1503277E-04  0.1099776E+04  0.7818609E-02  0.9205410E-01
       -2   -1    0    0    0  501  0.00000000000E+00  0.00000000000E+00  0.71216127857E+03  0.71216127857E+03  0.25500000920E-02 0.  1.
        2   -1    0    0  501    0  0.00000000000E+00  0.00000000000E+00 -0.42459043431E+03  0.42459043432E+03  0.25500000920E-02 0. -1.
    10030    2    1    2    0    0  0.00000000000E+00  0.00000000000E+00  0.28757084425E+03  0.11367517129E+04  0.10997760983E+04 0.  0.
        5    1    3    3  502    0  0.32449503358E+03  0.73972869577E+02  0.59620663371E+03  0.68282754216E+03  0.46999998093E+01 0.  1.
       -5    1    3    3    0  502 -0.32449503358E+03 -0.73972869577E+02 -0.30863578945E+03  0.45392417074E+03  0.46999998093E+01 0. -1.
</event>
<event>
 5   0  0.1464205E-04  0.1100219E+04  0.7818609E-02  0.9204978E-01
       -2   -1    0    0    0  501  0.00000000000E+00  0.00000000000E+00  0.42376209830E+03  0.42376209831E+03  0.25500000920E-02 0. -1.
        2   -1    0    0  501    0  0.00000000000E+00  0.00000000000E+00 -0.71412833847E+03  0.71412833847E+03  0.25500000920E-02 0.  1.
    10030    2    1    2    0    0  0.00000000000E+00  0.00000000000E+00 -0.29036624017E+03  0.11378904368E+04  0.11002191112E+04 0.  0.
        3    1    3    3  502    0 -0.66669005289E+02  0.76806044394E+02  0.41395393859E+03  0.42626493897E+03  0.10100000352E+00 0. -1.
       -3    1    3    3    0  502  0.66669005289E+02 -0.76806044394E+02 -0.70432017876E+03  0.71162549781E+03  0.10100000352E+00 0.  1.
</event>
<event>
 5   0  0.1574101E-04  0.1100282E+04  0.7818609E-02  0.9204917E-01
        2   -1    0    0  501    0  0.00000000000E+00  0.00000000000E+00  0.81195424411E+03  0.81195424411E+03  0.25500000920E-02 0.  1.
       -2   -1    0    0    0  501  0.00000000000E+00  0.00000000000E+00 -0.37274919548E+03  0.37274919549E+03  0.25500000920E-02 0. -1.
    10030    2    1    2    0    0  0.00000000000E+00  0.00000000000E+00  0.43920504863E+03  0.11847034396E+04  0.11002823115E+04 0.  0.
        4    1    3    3  502    0 -0.32970876082E+03  0.29613584661E+03 -0.13136643149E+03  0.46223701586E+03  0.12699999809E+01 0. -1.
       -4    1    3    3    0  502  0.32970876082E+03 -0.29613584661E+03  0.57057148012E+03  0.72246642374E+03  0.12699999809E+01 0.  1.
</event>
<event>
 5   0  0.1540772E-04  0.1098235E+04  0.7818609E-02  0.9206914E-01
       -2   -1    0    0    0  501  0.00000000000E+00  0.00000000000E+00  0.22315199943E+03  0.22315199944E+03  0.25500000920E-02 0.  1.
        2   -1    0    0  501    0  0.00000000000E+00  0.00000000000E+00 -0.13512303883E+04  0.13512303883E+04  0.25500000920E-02 0. -1.
    10030    2    1    2    0    0  0.00000000000E+00  0.00000000000E+00 -0.11280783889E+04  0.15743823878E+04  0.10982345157E+04 0.  0.
        2    1    3    3  502    0  0.95802608460E+02  0.12738689296E+03 -0.13173381605E+04  0.13269458879E+04  0.25500000920E-02 0. -1.
       -2    1    3    3    0  502 -0.95802608460E+02 -0.12738689296E+03  0.18925977164E+03  0.24743649984E+03  0.25500000920E-02 0.  1.
</event>
<event>
 5   0  0.1540772E-04  0.1100054E+04  0.7818609E-02  0.9205139E-01
       -2   -1    0    0    0  501  0.00000000000E+00  0.00000000000E+00  0.23281158689E+03  0.23281158690E+03  0.25500000920E-02 0.  1.
        2   -1    0    0  501    0  0.00000000000E+00  0.00000000000E+00 -0.12994622532E+04  0.12994622532E+04  0.25500000920E-02 0. -1.
    10030    2    1    2    0    0  0.00000000000E+00  0.00000000000E+00 -0.10666506663E+04  0.15322738401E+04  0.11000543064E+04 0.  0.
        2    1    3    3  502    0 -0.22710084346E+03 -0.39812315639E+03 -0.95685402089E+03  0.10609648713E+04  0.25500000920E-02 0. -1.
       -2    1    3    3    0  502  0.22710084346E+03  0.39812315639E+03 -0.10979664541E+03  0.47130896883E+03  0.25500000920E-02 0.  1.
</event>
<event>
 5   0  0.1540772E-04  0.1100841E+04  0.7818609E-02  0.9204372E-01
        2   -1    0    0  501    0  0.00000000000E+00  0.00000000000E+00  0.10923247522E+04  0.10923247522E+04  0.25500000920E-02 0. -1.
       -2   -1    0    0    0  501  0.00000000000E+00  0.00000000000E+00 -0.27735614758E+03  0.27735614759E+03  0.25500000920E-02 0.  1.
    10030    2    1    2    0    0  0.00000000000E+00  0.00000000000E+00  0.81496860460E+03  0.13696808998E+04  0.11008414694E+04 0.  0.
        2    1    3    3  502    0 -0.26445946385E+03  0.15355997436E+03  0.97689821397E+03  0.10236452482E+04  0.25500000920E-02 0. -1.
       -2    1    3    3    0  502  0.26445946385E+03 -0.15355997436E+03 -0.16192960936E+03  0.34603565155E+03  0.25500000920E-02 0.  1.
</event>
<event>
 5   0  0.1464205E-04  0.1100112E+04  0.7818609E-02  0.9205082E-01
        2   -1    0    0  501    0  0.00000000000E+00  0.00000000000E+00  0.72889945461E+03  0.72889945461E+03  0.25500000920E-02 0.  1.
       -2   -1    0    0    0  501  0.00000000000E+00  0.00000000000E+00 -0.41509411975E+03  0.41509411976E+03  0.25500000920E-02 0. -1.
    10030    2    1    2    0    0  0.00000000000E+00  0.00000000000E+00  0.31380533486E+03  0.11439935744E+04  0.11001124988E+04 0.  0.
        3    1    3    3  502    0  0.17321837754E+03  0.18070237402E+03 -0.35243424587E+03  0.43228215573E+03  0.10100000352E+00 0. -1.
       -3    1    3    3    0  502 -0.17321837754E+03 -0.18070237402E+03  0.66623958073E+03  0.71171141864E+03  0.10100000352E+00 0.  1.
</event>
<event>
 5   0  0.1574101E-04  0.1100211E+04  0.7818609E-02  0.9204987E-01
       -2   -1    0    0    0  501  0.00000000000E+00  0.00000000000E+00  0.14388854285E+04  0.14388854285E+04  0.25500000920E-02 0.  1.
        2   -1    0    0  501    0  0.00000000000E+00  0.00000000000E+00 -0.21031266298E+03  0.21031266300E+03  0.25500000920E-02 0. -1.
    10030    2    1    2    0    0  0.00000000000E+00  0.00000000000E+00  0.12285727655E+04  0.16491980915E+04  0.11002105729E+04 0.  0.
        4    1    3    3  502    0  0.46581607218E+03 -0.19597157060E+03  0.28853834053E+03  0.58193251880E+03  0.12699999809E+01 0. -1.
       -4    1    3    3    0  502 -0.46581607218E+03  0.19597157060E+03  0.94003442499E+03  0.10672655727E+04  0.12699999809E+01 0.  1.
</event>
<event>
 5   0  0.1553937E-04  0.1100745E+04  0.7818609E-02  0.9204466E-01
        2   -1    0    0  501    0  0.00000000000E+00  0.00000000000E+00  0.12297541256E+04  0.12297541256E+04  0.25500000920E-02 0.  1.
       -2   -1    0    0    0  501  0.00000000000E+00  0.00000000000E+00 -0.24631764698E+03  0.24631764700E+03  0.25500000920E-02 0. -1.
    10030    2    1    2    0    0  0.00000000000E+00  0.00000000000E+00  0.98343647858E+03  0.14760717726E+04  0.11007454612E+04 0.  0.
        1    1    3    3  502    0  0.54276154419E+02 -0.54033117219E+03  0.61170712032E+03  0.81797877579E+03  0.50400001928E-02 0.  1.
       -1    1    3    3    0  502 -0.54276154419E+02  0.54033117219E+03  0.37172935826E+03  0.65809299677E+03  0.50400001928E-02 0. -1.
</event>
<event>
 5   0  0.8657442E-05  0.1105252E+04  0.7818609E-02  0.9200088E-01
       -1   -1    0    0    0  501  0.00000000000E+00  0.00000000000E+00  0.20258509353E+03  0.20258509360E+03  0.50400001928E-02 0. -1.
        1   -1    0    0  501    0  0.00000000000E+00  0.00000000000E+00 -0.15074932877E+04  0.15074932877E+04  0.50400001928E-02 0.  1.
    10030    2    1    2    0    0  0.00000000000E+00  0.00000000000E+00 -0.13049081942E+04  0.17100783813E+04  0.11052523128E+04 0.  0.
        1    1    3    3  502    0  0.32128034235E+03 -0.44947484542E+03 -0.63369662198E+03  0.84072593857E+03  0.50400001928E-02 0. -1.
       -1    1    3    3    0  502 -0.32128034235E+03  0.44947484542E+03 -0.67121157222E+03  0.86935244277E+03  0.50400001928E-02 0.  1.
</event>
<event>
 5   0  0.8921459E-05  0.1098702E+04  0.7818609E-02  0.9206457E-01
        1   -1    0    0  501    0  0.00000000000E+00  0.00000000000E+00  0.20471180285E+04  0.20471180285E+04  0.50400001928E-02 0.  1.
       -1   -1    0    0    0  501  0.00000000000E+00  0.00000000000E+00 -0.14742029777E+03  0.14742029786E+03  0.50400001928E-02 0. -1.
    10030    2    1    2    0    0  0.00000000000E+00  0.00000000000E+00  0.18996977307E+04  0.21945383264E+04  0.10987024155E+04 0.  0.
        3    1    3    3  502    0 -0.24084148874E+03 -0.30448614551E+03  0.17350765234E+03  0.42523093859E+03  0.10100000352E+00 0. -1.
       -3    1    3    3    0  502  0.24084148874E+03  0.30448614551E+03  0.17261900784E+04  0.17693073878E+04  0.10100000352E+00 0.  1.
</event>
<event>
 5   0  0.9016738E-05  0.1100053E+04  0.7818609E-02  0.9205141E-01
        1   -1    0    0  501    0  0.00000000000E+00  0.00000000000E+00  0.27493661828E+03  0.27493661833E+03  0.50400001928E-02 0. -1.
       -1   -1    0    0    0  501  0.00000000000E+00  0.00000000000E+00 -0.11003586169E+04  0.11003586169E+04  0.50400001928E-02 0.  1.
    10030    2    1    2    0    0  0.00000000000E+00  0.00000000000E+00 -0.82542199860E+03  0.13752952352E+04  0.11000525025E+04 0.  0.
        4    1    3    3  502    0 -0.53112033849E+03  0.14042802516E+03 -0.37920120854E+03  0.66753577707E+03  0.12699999809E+01 0. -1.
       -4    1    3    3    0  502  0.53112033849E+03 -0.14042802516E+03 -0.44622079006E+03  0.70775945814E+03  0.12699999809E+01 0.  1.
</event>
<event>
 5   0  0.1574101E-04  0.1098716E+04  0.7818609E-02  0.9206444E-01
        2   -1    0    0  501    0  0.00000000000E+00  0.00000000000E+00  0.38029576911E+03  0.38029576912E+03  0.25500000920E-02 0.  1.
       -2   -1    0    0    0  501  0.00000000000E+00  0.00000000000E+00 -0.79357827449E+03  0.79357827449E+03  0.25500000920E-02 0. -1.
    10030    2    1    2    0    0  0.00000000000E+00  0.00000000000E+00 -0.41328250538E+03  0.11738740436E+04  0.10987164516E+04 0.  0.
        4    1    3    3  502    0 -0.14492210918E+03  0.51747822130E+03 -0.84792869886E+02  0.54403820724E+03  0.12699999809E+01 0.  1.
       -4    1    3    3    0  502  0.14492210918E+03 -0.51747822130E+03 -0.32848963549E+03  0.62983583637E+03  0.12699999809E+01 0. -1.
</event>
<event>
 5   0  0.1540772E-04  0.1100285E+04  0.7818609E-02  0.9204914E-01
        2   -1    0    0  501    0  0.00000000000E+00  0.00000000000E+00  0.11923502577E+04  0.11923502577E+04  0.25500000920E-02 0. -1.
       -2   -1    0    0    0  501  0.00000000000E+00  0.00000000000E+00 -0.25383214128E+03  0.25383214129E+03  0.25500000920E-02 0.  1.
    10030    2    1    2    0    0  0.00000000000E+00  0.00000000000E+00  0.93851811643E+03  0.14461823990E+04  0.11002850887E+04 0.  0.
        2    1    3    3  502    0  0.80776209599E+02 -0.54272242548E+03  0.52157681965E+03  0.75704346372E+03  0.25500000920E-02 0. -1.
       -2    1    3    3    0  502 -0.80776209599E+02  0.54272242548E+03  0.41694129678E+03  0.68913893528E+03  0.25500000920E-02 0.  1.
</event>
<event>
 5   0  0.1540772E-04  0.1098963E+04  0.7818609E-02  0.9206203E-01
       -2   -1    0    0    0  501  0.00000000000E+00  0.00000000000E+00  0.31495349371E+03  0.31495349372E+03  0.25500000920E-02 0.  1.
        2   -1    0    0  501    0  0.00000000000E+00  0.00000000000E+00 -0.95864981459E+03  0.95864981460E+03  0.25500000920E-02 0. -1.
    10030    2    1    2    0    0  0.00000000000E+00  0.00000000000E+00 -0.64369632088E+03  0.12736033083E+04  0.10989633449E+04 0.  0.
        2    1    3    3  502    0 -0.54287308580E+03  0.59110719505E+02 -0.39257838070E+03  0.67254966318E+03  0.25500000920E-02 0. -1.
       -2    1    3    3    0  502  0.54287308580E+03 -0.59110719505E+02 -0.25111794018E+03  0.60105364514E+03  0.25500000920E-02 0.  1.
</event>
<event>
 5   0  0.1553937E-04  0.1100023E+04  0.7818609E-02  0.9205169E-01
       -2   -1    0    0    0  501  0.00000000000E+00  0.00000000000E+00  0.17947928940E+03  0.17947928942E+03  0.25500000920E-02 0. -1.
        2   -1    0    0  501    0  0.00000000000E+00  0.00000000000E+00 -0.16855022176E+04  0.16855022176E+04  0.25500000920E-02 0.  1.
    10030    2    1    2    0    0  0.00000000000E+00  0.00000000000E+00 -0.15060229282E+04  0.18649815070E+04  0.11000231640E+04 0.  0.
        1    1    3    3  502    0  0.27731336842E+02 -0.31389992742E+03  0.11256795677E+02  0.31532349572E+03  0.50400001928E-02 0. -1.
       -1    1    3    3    0  502 -0.27731336842E+02  0.31389992742E+03 -0.15172797239E+04  0.15496580113E+04  0.50400001928E-02 0.  1.
</event>
<event>
 5   0  0.1503277E-04  0.1100183E+04  0.7818609E-02  0.9205014E-01
        2   -1    0    0  501    0  0.00000000000E+00  0.00000000000E+00  0.11920194423E+04  0.11920194423E+04  0.25500000920E-02 0.  1.
       -2   -1    0    0    0  501  0.00000000000E+00  0.00000000000E+00 -0.25385547648E+03  0.25385547650E+03  0.25500000920E-02 0. -1.
    10030    2    1    2    0    0  0.00000000000E+00  0.00000000000E+00  0.93816396579E+03  0.14458749188E+04  0.11001830093E+04 0.  0.
        5    1    3    3  502    0  0.22510343611E+03  0.47083297343E+03  0.24060790644E+03  0.57469078682E+03  0.46999998093E+01 0. -1.
       -5    1    3    3    0  502 -0.22510343611E+03 -0.47083297343E+03  0.69755605935E+03  0.87118413194E+03  0.46999998093E+01 0.  1.
</event>
<event>
 5   0  0.8621738E-05  0.1100001E+04  0.7818609E-02  0.9205191E-01
       -1   -1    0    0    0  501  0.00000000000E+00  0.00000000000E+00  0.98733117223E+03  0.98733117224E+03  0.50400001928E-02 0. -1.
        1   -1    0    0  501    0  0.00000000000E+00  0.00000000000E+00 -0.30638180108E+03  0.30638180112E+03  0.50400001928E-02 0.  1.
    10030    2    1    2    0    0  0.00000000000E+00  0.00000000000E+00  0.68094937115E+03  0.12937129734E+04  0.11000005506E+04 0.  0.
        2    1    3    3  502    0  0.29425927792E+03  0.27831267134E+03 -0.97145684410E+02  0.41651380490E+03  0.25500000920E-02 0.  1.
       -2    1    3    3    0  502 -0.29425927792E+03 -0.27831267134E+03  0.77809505556E+03  0.87719916846E+03  0.25500000920E-02 0. -1.
</event>
<event>
 5   0  0.8921459E-05  0.1099680E+04  0.7818609E-02  0.9205504E-01
       -1   -1    0    0    0  501  0.00000000000E+00  0.00000000000E+00  0.67684455341E+03  0.67684455343E+03  0.50400001928E-02 0.  1.
        1   -1    0    0  501    0  0.00000000000E+00  0.00000000000E+00 -0.44666706089E+03  0.44666706092E+03  0.50400001928E-02 0. -1.
    10030    2    1    2    0    0  0.00000000000E+00  0.00000000000E+00  0.23017749251E+03  0.11235116143E+04  0.10996802579E+04 0.  0.
        3    1    3    3  502    0  0.38057369427E+03  0.38940737445E+03  0.19322967535E+03  0.57776479443E+03  0.10100000352E+00 0. -1.
       -3    1    3    3    0  502 -0.38057369427E+03 -0.38940737445E+03  0.36947817169E+02  0.54574681991E+03  0.10100000352E+00 0.  1.
</event>
<event>
 5   0  0.8657442E-05  0.1100126E+04  0.7818609E-02  0.9205069E-01
        1   -1    0    0  501    0  0.00000000000E+00  0.00000000000E+00  0.61024302543E+03  0.61024302545E+03  0.50400001928E-02 0.  1.
       -1   -1    0    0    0  501  0.00000000000E+00  0.00000000000E+00 -0.49581814844E+03  0.49581814847E+03  0.50400001928E-02 0. -1.
    10030    2    1    2    0    0  0.00000000000E+00  0.00000000000E+00  0.11442487699E+03  0.11060611739E+04  0.11001264782E+04 0.  0.
        1    1    3    3  502    0  0.47581871934E+03 -0.23366100445E+03  0.20486738287E+03  0.56830587122E+03  0.50400001928E-02 0.  1.
       -1    1    3    3    0  502 -0.47581871934E+03  0.23366100445E+03 -0.90442505886E+02  0.53775530269E+03  0.50400001928E-02 0. -1.
</event>
<event>
 5   0  0.8621738E-05  0.1098555E+04  0.7818609E-02  0.9206601E-01
       -1   -1    0    0    0  501  0.00000000000E+00  0.00000000000E+00  0.19165295859E+03  0.19165295866E+03  0.50400001928E-02 0.  1.
        1   -1    0    0  501    0  0.00000000000E+00  0.00000000000E+00 -0.15742296461E+04  0.15742296461E+04  0.50400001928E-02 0. -1.
    10030    2    1    2    0    0  0.00000000000E+00  0.00000000000E+00 -0.13825766875E+04  0.17658826047E+04  0.10985549950E+04 0.  0.
        2    1    3    3  502    0 -0.31995124416E+03 -0.33141098053E+03 -0.21038189710E+03  0.50642134561E+03  0.25500000920E-02 0.  1.
       -2    1    3    3    0  502  0.31995124416E+03  0.33141098053E+03 -0.11721947904E+04  0.12594612591E+04  0.25500000920E-02 0. -1.
</event>
<event>
 5   0  0.1464205E-04  0.1099408E+04  0.7818609E-02  0.9205769E-01
       -2   -1    0    0    0  501  0.00000000000E+00  0.00000000000E+00  0.22632972838E+03  0.22632972839E+03  0.25500000920E-02 0.  1.
        2   -1    0    0  501    0  0.00000000000E+00  0.00000000000E+00 -0.13351071486E+04  0.13351071486E+04  0.25500000920E-02 0. -1.
    10030    2    1    2    0    0  0.00000000000E+00  0.00000000000E+00 -0.11087774202E+04  0.15614368770E+04  0.10994079103E+04 0.  0.
        3    1    3    3  502    0  0.39748331083E+03 -0.27275820384E+03 -0.17920430884E+03  0.51429973232E+03  0.10100000352E+00 0.  1.
       -3    1    3    3    0  502 -0.39748331083E+03  0.27275820384E+03 -0.92957311138E+03  0.10471371447E+04  0.10100000352E+00 0. -1.
</event>
<event>
 5   0  0.8621738E-05  0.1099868E+04  0.7818609E-02  0.9205321E-01
        1   -1    0    0  501    0  0.00000000000E+00  0.00000000000E+00  0.31990830618E+03  0.31990830622E+03  0.50400001928E-02 0.  1.
       -1   -1    0    0    0  501  0.00000000000E+00  0.00000000000E+00 -0.94535602990E+03  0.94535602992E+03  0.50400001928E-02 0. -1.
    10030    2    1    2    0    0  0.00000000000E+00  0.00000000000E+00 -0.62544772373E+03  0.12652643361E+04  0.10998677126E+04 0.  0.
        2    1    3    3  502    0  0.65479569960E+02 -0.14959973984E+03  0.29137236891E+03  0.33401424163E+03  0.25500000920E-02 0.  1.
       -2    1    3    3    0  502 -0.65479569960E+02  0.14959973984E+03 -0.91682009263E+03  0.93125009450E+03  0.25500000920E-02 0. -1.
</event>
<event>
 5   0  0.1503277E-04  0.1098723E+04  0.7818609E-02  0.9206437E-01
       -2   -1    0    0    0  501  0.00000000000E+00  0.00000000000E+00  0.20877415177E+04  0.20877415177E+04  0.25500000920E-02 0.  1.
        2   -1    0    0  501    0  0.00000000000E+00  0.00000000000E+00 -0.14455722678E+03  0.14455722681E+03  0.25500000920E-02 0. -1.
    10030    2    1    2    0    0  0.00000000000E+00  0.00000000000E+00  0.19431842909E+04  0.22322987445E+04  0.10987231208E+04 0.  0.
        5    1    3    3  502    0 -0.36863652285E+03  0.18984652954E+03  0.23949161996E+03  0.47886628278E+03  0.46999998093E+01 0. -1.
       -5    1    3    3    0  502  0.36863652285E+03 -0.18984652954E+03  0.17036926710E+04  0.17534324618E+04  0.46999998093E+01 0.  1.
</event>
<event>
 5   0  0.1553937E-04  0.1099156E+04  0.7818609E-02  0.9206015E-01
       -2   -1    0    0    0  501  0.00000000000E+00  0.00000000000E+00  0.10774312334E+04  0.10774312334E+04  0.25500000920E-02 0. -1.
        2   -1    0    0  501    0  0.00000000000E+00  0.00000000000E+00 -0.28032968490E+03  0.28032968491E+03  0.25500000920E-02 0.  1.
    10030    2    1    2    0    0  0.00000000000E+00  0.00000000000E+00  0.79710154850E+03  0.13577609183E+04  0.10991559638E+04 0.  0.
        1    1    3    3  502    0 -0.17540477095E+03  0.29809361115E+03  0.92612977319E+03  0.98860659086E+03  0.50400001928E-02 0. -1.
       -1    1    3    3    0  502  0.17540477095E+03 -0.29809361115E+03 -0.12902822469E+03  0.36915432745E+03  0.50400001928E-02 0.  1.
</event>
<event>
 5   0  0.9346836E-05  0.1101635E+04  0.7818609E-02  0.9203599E-01
        1   -1    0    0  501    0  0.00000000000E+00  0.00000000000E+00  0.85328602503E+03  0.85328602504E+03  0.50400001928E-02 0.  1.
       -1   -1    0    0    0  501  0.00000000000E+00  0.00000000000E+00 -0.35556669743E+03  0.35556669746E+03  0.50400001928E-02 0. -1.
    10030    2    1    2    0    0  0.00000000000E+00  0.00000000000E+00  0.49771932760E+03  0.12088527225E+04  0.11016353188E+04 0.  0.
        5    1    3    3  502    0  0.22623757933E+03  0.13935430279E+03  0.77828369848E+03  0.82240541664E+03  0.46999998093E+01 0.  1.
       -5    1    3    3    0  502 -0.22623757933E+03 -0.13935430279E+03 -0.28056437088E+03  0.38644730586E+03  0.46999998093E+01 0. -1.
</event>
<event>
 5   0  0.8921459E-05  0.1099300E+04  0.7818609E-02  0.9205874E-01
       -1   -1    0    0    0  501  0.00000000000E+00  0.00000000000E+00  0.17464573263E+03  0.17464573271E+03  0.50400001928E-02 0.  1.
        1   -1    0    0  501    0  0.00000000000E+00  0.00000000000E+00 -0.17298746251E+04  0.17298746251E+04  0.50400001928E-02 0. -1.
    10030    2    1    2    0    0  0.00000000000E+00  0.00000000000E+00 -0.15552288924E+04  0.19045203578E+04  0.10993001798E+04 0.  0.
        3    1    3    3  502    0 -0.41450940663E+03  0.24701811987E+03 -0.12336206888E+04  0.13246342943E+04  0.10100000352E+00 0. -1.
       -3    1    3    3    0  502  0.41450940663E+03 -0.24701811987E+03 -0.32160820364E+03  0.57988606344E+03  0.10100000352E+00 0.  1.
</event>
<event>
 5   0  0.9016738E-05  0.1099706E+04  0.7818609E-02  0.9205478E-01
       -1   -1    0    0    0  501  0.00000000000E+00  0.00000000000E+00  0.34559013756E+03  0.34559013759E+03  0.50400001928E-02 0.  1.
        1   -1    0    0  501    0  0.00000000000E+00  0.00000000000E+00 -0.87484657161E+03  0.87484657163E+03  0.50400001928E-02 0. -1.
    10030    2    1    2    0    0  0.00000000000E+00  0.00000000000E+00 -0.52925643406E+03  0.12204367092E+04  0.10997060463E+04 0.  0.
        4    1    3    3  502    0  0.10915926906E+03  0.25033030505E+03  0.26500266715E+03  0.38053782222E+03  0.12699999809E+01 0.  1.
       -4    1    3    3    0  502 -0.10915926906E+03 -0.25033030505E+03 -0.79425910120E+03  0.83989888700E+03  0.12699999809E+01 0. -1.
</event>
<event>
 5   0  0.9346836E-05  0.1101094E+04  0.7818609E-02  0.9204126E-01
        1   -1    0    0  501    0  0.00000000000E+00  0.00000000000E+00  0.35520061348E+03  0.35520061352E+03  0.50400001928E-02 0.  1.
       -1   -1    0    0    0  501  0.00000000000E+00  0.00000000000E+00 -0.85332615516E+03  0.85332615517E+03  0.50400001928E-02 0. -1.
    10030    2    1    2    0    0  0.00000000000E+00  0.00000000000E+00 -0.49812554168E+03  0.12085267687E+04  0.11010939539E+04 0.  0.
        5    1    3    3  502    0  0.45722884322E+03 -0.29899863446E+03 -0.32367717710E+03  0.63501764027E+03  0.46999998093E+01 0. -1.
       -5    1    3    3    0  502 -0.45722884322E+03  0.29899863446E+03 -0.17444836458E+03  0.57350912842E+03  0.46999998093E+01 0.  1.
</event>
<event>
 5   0  0.1540772E-04  0.1100111E+04  0.7818609E-02  0.9205084E-01
       -2   -1    0    0    0  501  0.00000000000E+00  0.00000000000E+00  0.73324633965E+03  0.73324633965E+03  0.25500000920E-02 0. -1.
        2   -1    0    0  501    0  0.00000000000E+00  0.00000000000E+00 -0.41263188043E+03  0.41263188044E+03  0.25500000920E-02 0.  1.
    10030    2    1    2    0    0  0.00000000000E+00  0.00000000000E+00  0.32061445921E+03  0.11458782201E+04  0.11001105689E+04 0.  0.
        2    1    3    3  502    0 -0.13480239592E+03  0.37940519352E+03 -0.23003794960E+03  0.46372130108E+03  0.25500000920E-02 0.  1.
       -2    1    3    3    0  502  0.13480239592E+03 -0.37940519352E+03  0.55065240882E+03  0.68215691901E+03  0.25500000920E-02 0. -1.
</event>
<event>
 5   0  0.8621738E-05  0.1103972E+04  0.7818609E-02  0.9201330E-01
       -1   -1    0    0    0  501  0.00000000000E+00  0.00000000000E+00  0.54992719676E+03  0.54992719678E+03  0.50400001928E-02 0.  1.
        1   -1    0    0  501    0  0.00000000000E+00  0.00000000000E+00 -0.55405206368E+03  0.55405206370E+03  0.50400001928E-02 0. -1.
    10030    2    1    2    0    0  0.00000000000E+00  0.00000000000E+00 -0.41248669179E+01  0.11039792605E+04  0.11039715545E+04 0.  0.
        2    1    3    3  502    0  0.35975567312E+03  0.15937472494E+03  0.38506279583E+03  0.55054318998E+03  0.25500000920E-02 0.  1.
       -2    1    3    3    0  502 -0.35975567312E+03 -0.15937472494E+03 -0.38918766275E+03  0.55343607050E+03  0.25500000920E-02 0. -1.
</event>
<event>
 5   0  0.1503277E-04  0.1099806E+04  0.7818609E-02  0.9205381E-01
       -2   -1    0    0    0  501  0.00000000000E+00  0.00000000000E+00  0.42575037500E+03  0.42575037501E+03  0.25500000920E-02 0. -1.
        2   -1    0    0  501    0  0.00000000000E+00  0.00000000000E+00 -0.71025944750E+03  0.71025944751E+03  0.25500000920E-02 0.  1.
    10030    2    1    2    0    0  0.00000000000E+00  0.00000000000E+00 -0.28450907250E+03  0.11360098225E+04  0.10998058486E+04 0.  0.
        5    1    3    3  502    0 -0.53662442187E+03  0.11422262734E+03 -0.10418259202E+03  0.55846994657E+03  0.46999998093E+01 0.  1.
       -5    1    3    3    0  502  0.53662442187E+03 -0.11422262734E+03 -0.18032648048E+03  0.57753987594E+03  0.46999998093E+01 0. -1.
</event>
<event>
 5   0  0.8657442E-05  0.1100720E+04  0.7818609E-02  0.9204490E-01
       -1   -1    0    0    0  501  0.00000000000E+00  0.00000000000E+00  0.27183849434E+03  0.27183849438E+03  0.50400001928E-02 0. -1.
        1   -1    0    0  501    0  0.00000000000E+00  0.00000000000E+00 -0.11142507991E+04  0.11142507992E+04  0.50400001928E-02 0.  1.
    10030    2    1    2    0    0  0.00000000000E+00  0.00000000000E+00 -0.84241230481E+03  0.13860892935E+04  0.11007202362E+04 0.  0.
        1    1    3    3  502    0 -0.18471951121E+03 -0.39098892045E+03 -0.84991346920E+03  0.95359663322E+03  0.50400001928E-02 0.  1.
       -1    1    3    3    0  502  0.18471951121E+03  0.39098892045E+03  0.75011643868E+01  0.43249266032E+03  0.50400001928E-02 0. -1.
</event>
<event>
 5   0  0.1464205E-04  0.1100544E+04  0.7818609E-02  0.9204662E-01
        2   -1    0    0  501    0  0.00000000000E+00  0.00000000000E+00  0.68169100124E+03  0.68169100125E+03  0.25500000920E-02 0. -1.
       -2   -1    0    0    0  501  0.00000000000E+00  0.00000000000E+00 -0.44418851984E+03  0.44418851985E+03  0.25500000920E-02 0.  1.
    10030    2    1    2    0    0  0.00000000000E+00  0.00000000000E+00  0.23750248140E+03  0.11258795211E+04  0.11005440779E+04 0.  0.
        3    1    3    3  502    0  0.70852283833E+02 -0.49667458586E+03  0.34999381717E+03  0.61172001162E+03  0.10100000352E+00 0. -1.
       -3    1    3    3    0  502 -0.70852283833E+02  0.49667458586E+03 -0.11249133577E+03  0.51415950947E+03  0.10100000352E+00 0.  1.
</event>
<event>
 5   0  0.1503277E-04  0.1100481E+04  0.7818609E-02  0.9204723E-01
        2   -1    0    0  501    0  0.00000000000E+00  0.00000000000E+00  0.10995415084E+04  0.10995415084E+04  0.25500000920E-02 0.  1.
       -2   -1    0    0    0  501  0.00000000000E+00  0.00000000000E+00 -0.27535542468E+03  0.27535542469E+03  0.25500000920E-02 0. -1.
    10030    2    1    2    0    0  0.00000000000E+00  0.00000000000E+00  0.82418608373E+03  0.13748969331E+04  0.11004812020E+04 0.  0.
        5    1    3    3  502    0 -0.31373016865E+03 -0.12498399698E+03  0.95480291611E+03  0.10127775258E+04  0.46999998093E+01 0.  1.
       -5    1    3    3    0  502  0.31373016865E+03  0.12498399698E+03 -0.13061683238E+03  0.36211940727E+03  0.46999998093E+01 0. -1.
</event>
<event>
 5   0  0.1503277E-04  0.1100149E+04  0.7818609E-02  0.9205047E-01
       -2   -1    0    0    0  501  0.00000000000E+00  0.00000000000E+00  0.30565513129E+03  0.30565513130E+03  0.25500000920E-02 0. -1.
        2   -1    0    0  501    0  0.00000000000E+00  0.00000000000E+00 -0.98994480518E+03  0.98994480519E+03  0.25500000920E-02 0.  1.
    10030    2    1    2    0    0  0.00000000000E+00  0.00000000000E+00 -0.68428967389E+03  0.12955999365E+04  0.11001485525E+04 0.  0.
        5    1    3    3  502    0 -0.45143855009E+03 -0.66957453179E+00  0.27952038303E+02  0.45232799967E+03  0.46999998093E+01 0. -1.
       -5    1    3    3    0  502  0.45143855009E+03  0.66957453179E+00 -0.71224171219E+03  0.84327193682E+03  0.46999998093E+01 0.  1.
</event>
<event>
 5   0  0.1464205E-04  0.1100390E+04  0.7818609E-02  0.9204812E-01
       -2   -1    0    0    0  501  0.00000000000E+00  0.00000000000E+00  0.40821713596E+03  0.40821713597E+03  0.25500000920E-02 0.  1.
        2   -1    0    0  501    0  0.00000000000E+00  0.00000000000E+00 -0.74155231415E+03  0.74155231415E+03  0.25500000920E-02 0. -1.
    10030    2    1    2    0    0  0.00000000000E+00  0.00000000000E+00 -0.33333517819E+03  0.11497694501E+04  0.11003896798E+04 0.  0.
        3    1    3    3  502    0  0.24794386365E+03 -0.31149822942E+03 -0.56345464456E+03  0.68991916420E+03  0.10100000352E+00 0. -1.
       -3    1    3    3    0  502 -0.24794386365E+03  0.31149822942E+03  0.23011946638E+03  0.45985028592E+03  0.10100000352E+00 0.  1.
</event>
<event>
 5   0  0.8657442E-05  0.1100065E+04  0.7818609E-02  0.9205128E-01
        1   -1    0    0  501    0  0.00000000000E+00  0.00000000000E+00  0.12785943577E+04  0.12785943577E+04  0.50400001928E-02 0. -1.
       -1   -1    0    0    0  501  0.00000000000E+00  0.00000000000E+00 -0.23661605619E+03  0.23661605625E+03  0.50400001928E-02 0.  1.
    10030    2    1    2    0    0  0.00000000000E+00  0.00000000000E+00  0.10419783015E+04  0.15152104139E+04  0.11000653697E+04 0.  0.
        1    1    3    3  502    0  0.45670025989E+03  0.24088912569E+03  0.25989163483E+03  0.57805394224E+03  0.50400001928E-02 0.  1.
       -1    1    3    3    0  502 -0.45670025989E+03 -0.24088912569E+03  0.78208666665E+03  0.93715647169E+03  0.50400001928E-02 0. -1.
</event>
<event>
 5   0  0.8621738E-05  0.1099583E+04  0.7818609E-02  0.9205599E-01
        1   -1    0    0  501    0  0.00000000000E+00  0.00000000000E+00  0.12366023574E+04  0.12366023574E+04  0.50400001928E-02 0.  1.
       -1   -1    0    0    0  501  0.00000000000E+00  0.00000000000E+00 -0.24443630310E+03  0.24443630315E+03  0.50400001928E-02 0. -1.
    10030    2    1    2    0    0  0.00000000000E+00  0.00000000000E+00  0.99216605429E+03  0.14810386606E+04  0.10995826639E+04 0.  0.
        2    1    3    3  502    0  0.42573375672E+03 -0.18298675303E+03  0.97577222790E+02  0.47355537987E+03  0.25500000920E-02 0. -1.
       -2    1    3    3    0  502 -0.42573375672E+03  0.18298675303E+03  0.89458883150E+03  0.10074832807E+04  0.25500000920E-02 0.  1.
</event>
<event>
 5   0  0.9346836E-05  0.1100035E+04  0.7818609E-02  0.9205157E-01
       -1   -1    0    0    0  501  0.00000000000E+00  0.00000000000E+00  0.83275733068E+03  0.83275733070E+03  0.50400001928E-02 0. -1.
        1   -1    0    0  501    0  0.00000000000E+00  0.00000000000E+00 -0.36327437780E+03  0.36327437784E+03  0.50400001928E-02 0.  1.
    10030    2    1    2    0    0  0.00000000000E+00  0.00000000000E+00  0.46948295288E+03  0.11960317085E+04  0.11000352743E+04 0.  0.
        5    1    3    3  502    0  0.76841867661E+01  0.26861710002E+03  0.75649709258E+03  0.80282260445E+03  0.46999998093E+01 0. -1.
       -5    1    3    3    0  502 -0.76841867661E+01 -0.26861710002E+03 -0.28701413970E+03  0.39320910408E+03  0.46999998093E+01 0.  1.
</event>
<event>
 5   0  0.1540772E-04  0.1099692E+04  0.7818609E-02  0.9205492E-01
        2   -1    0    0  501    0  0.00000000000E+00  0.00000000000E+00  0.11473583845E+04  0.11473583845E+04  0.25500000920E-02 0.  1.
       -2   -1    0    0    0  501  0.00000000000E+00  0.00000000000E+00 -0.26350166679E+03  0.26350166681E+03  0.25500000920E-02 0. -1.
    10030    2    1    2    0    0  0.00000000000E+00  0.00000000000E+00  0.88385671775E+03  0.14108600514E+04  0.10996924056E+04 0.  0.
        2    1    3    3  502    0 -0.40482048265E+03 -0.32811193637E+03  0.66706398139E+03  0.84646997657E+03  0.25500000920E-02 0.  1.
       -2    1    3    3    0  502  0.40482048265E+03  0.32811193637E+03  0.21679273636E+03  0.56439007478E+03  0.25500000920E-02 0. -1.
</event>
<event>
 5   0  0.8921459E-05  0.1098974E+04  0.7818609E-02  0.9206192E-01
       -1   -1    0    0    0  501  0.00000000000E+00  0.00000000000E+00  0.39561478762E+03  0.39561478766E+03  0.50400001928E-02 0.  1.
        1   -1    0    0  501    0  0.00000000000E+00  0.00000000000E+00 -0.76320692694E+03  0.76320692696E+03  0.50400001928E-02 0. -1.
    10030    2    1    2    0    0  0.00000000000E+00  0.00000000000E+00 -0.36759213932E+03  0.11588217146E+04  0.10989739694E+04 0.  0.
        3    1    3    3  502    0 -0.62445266244E+02  0.54580045236E+03 -0.19620068377E+03  0.58334574961E+03  0.10100000352E+00 0. -1.
       -3    1    3    3    0  502  0.62445266244E+02 -0.54580045236E+03 -0.17139145555E+03  0.57547596501E+03  0.10100000352E+00 0.  1.
</event>
<event>
 5   0  0.9016738E-05  0.1100623E+04  0.7818609E-02  0.9204585E-01
        1   -1    0    0  501    0  0.00000000000E+00  0.00000000000E+00  0.95857268963E+03  0.95857268965E+03  0.50400001928E-02 0.  1.
       -1   -1    0    0    0  501  0.00000000000E+00  0.00000000000E+00 -0.31593080619E+03  0.31593080623E+03  0.50400001928E-02 0. -1.
    10030    2    1    2    0    0  0.00000000000E+00  0.00000000000E+00  0.64264188345E+03  0.12745034959E+04  0.11006228103E+04 0.  0.
        4    1    3    3  502    0  0.94027400678E+01 -0.33677481559E+02  0.95728338679E+03  0.95792258550E+03  0.12699999809E+01 0.  1.
       -4    1    3    3    0  502 -0.94027400678E+01  0.33677481559E+02 -0.31464150335E+03  0.31658091037E+03  0.12699999809E+01 0. -1.
</event>
<event>
 5   0  0.1574101E-04  0.1099092E+04  0.7818609E-02  0.9206078E-01
        2   -1    0    0  501    0  0.00000000000E+00  0.00000000000E+00  0.80422092713E+03  0.80422092714E+03  0.25500000920E-02 0. -1.
       -2   -1    0    0    0  501  0.00000000000E+00  0.00000000000E+00 -0.37551954005E+03  0.37551954006E+03  0.25500000920E-02 0.  1.
    10030    2    1    2    0    0  0.00000000000E+00  0.00000000000E+00  0.42870138708E+03  0.11797404672E+04  0.10990917572E+04 0.  0.
        4    1    3    3  502    0 -0.51822855831E+03  0.15310525001E+03  0.10702901691E+03  0.55087101901E+03  0.12699999809E+01 0. -1.
       -4    1    3    3    0  502  0.51822855831E+03 -0.15310525001E+03  0.32167237018E+03  0.62886944819E+03  0.12699999809E+01 0.  1.
</event>
<event>
 5   0  0.6010125E-05  0.1106293E+04  0.7818609E-02  0.9199080E-01
        3   -1    0    0  501    0  0.00000000000E+00  0.00000000000E+00  0.35116810442E+03  0.35116811894E+03  0.10100000352E+00 0.  1.
       -3   -1    0    0    0  501  0.00000000000E+00  0.00000000000E+00 -0.87129542128E+03  0.87129542713E+03  0.10100000352E+00 0. -1.
    10030    2    1    2    0    0  0.00000000000E+00  0.00000000000E+00 -0.52012731686E+03  0.12224635461E+04  0.11062932232E+04 0.  0.
        1    1    3    3  502    0 -0.49368945441E+03 -0.21809524481E+03 -0.12619625065E+03  0.55427457718E+03  0.50400001928E-02 0.  1.
       -1    1    3    3    0  502  0.49368945441E+03  0.21809524481E+03 -0.39393106621E+03  0.66818896889E+03  0.50400001928E-02 0. -1.
</event>
<event>
 5   0  0.9016738E-05  0.1100275E+04  0.7818609E-02  0.9204923E-01
       -1   -1    0    0    0  501  0.00000000000E+00  0.00000000000E+00  0.31873214230E+03  0.31873214234E+03  0.50400001928E-02 0. -1.
        1   -1    0    0  501    0  0.00000000000E+00  0.00000000000E+00 -0.94954811434E+03  0.94954811436E+03  0.50400001928E-02 0.  1.
    10030    2    1    2    0    0  0.00000000000E+00  0.00000000000E+00 -0.63081597205E+03  0.12682802567E+04  0.11002754287E+04 0.  0.
        4    1    3    3  502    0 -0.55477350655E+02 -0.49489377984E+03 -0.58488271728E+03  0.76817120203E+03  0.12699999809E+01 0.  1.
       -4    1    3    3    0  502  0.55477350655E+02  0.49489377984E+03 -0.45933254768E+02  0.50010905466E+03  0.12699999809E+01 0. -1.
</event>
<event>
 5   0  0.9016738E-05  0.1100031E+04  0.7818609E-02  0.9205162E-01
        1   -1    0    0  501    0  0.00000000000E+00  0.00000000000E+00  0.77654916084E+03  0.77654916086E+03  0.50400001928E-02 0.  1.
       -1   -1    0    0    0  501  0.00000000000E+00  0.00000000000E+00 -0.38956581201E+03  0.38956581204E+03  0.50400001928E-02 0. -1.
    10030    2    1    2    0    0  0.00000000000E+00  0.00000000000E+00  0.38698334883E+03  0.11661149729E+04  0.11000309167E+04 0.  0.
        4    1    3    3  502    0 -0.12240638663E+03 -0.30366817172E+03  0.66198918954E+03  0.73853163911E+03  0.12699999809E+01 0.  1.
       -4    1    3    3    0  502  0.12240638663E+03  0.30366817172E+03 -0.27500584071E+03  0.42758333378E+03  0.12699999809E+01 0. -1.
</event>
<event>
 5   0  0.8657442E-05  0.1100047E+04  0.7818609E-02  0.9205146E-01
       -1   -1    0    0    0  501  0.00000000000E+00  0.00000000000E+00  0.31480331653E+03  0.31480331657E+03  0.50400001928E-02 0.  1.
        1   -1    0    0  501    0  0.00000000000E+00  0.00000000000E+00 -0.96099938463E+03  0.96099938464E+03  0.50400001928E-02 0. -1.
    10030    2    1    2    0    0  0.00000000000E+00  0.00000000000E+00 -0.64619606810E+03  0.12758027012E+04  0.11000468963E+04 0.  0.
        1    1    3    3  502    0  0.21641379026E+03  0.50563836702E+03 -0.32837552258E+03  0.64057440682E+03  0.50400001928E-02 0.  1.
       -1    1    3    3    0  502 -0.21641379026E+03 -0.50563836702E+03 -0.31782054552E+03  0.63522829439E+03  0.50400001928E-02 0. -1.
</event>
<event>
 5   0  0.1553937E-04  0.1099047E+04  0.7818609E-02  0.9206122E-01
        2   -1    0    0  501    0  0.00000000000E+00  0.00000000000E+00  0.85157702772E+03  0.85157702772E+03  0.25500000920E-02 0. -1.
       -2   -1    0    0    0  501  0.00000000000E+00  0.00000000000E+00 -0.35460786935E+03  0.35460786936E+03  0.25500000920E-02 0.  1.
    10030    2    1    2    0    0  0.00000000000E+00  0.00000000000E+00  0.49696915837E+03  0.12061848971E+04  0.10990467058E+04 0.  0.
        1    1    3    3  502    0 -0.20065917058E+03  0.39541816500E+03  0.60471250862E+03  0.74986455181E+03  0.50400001928E-02 0. -1.
       -1    1    3    3    0  502  0.20065917058E+03 -0.39541816500E+03 -0.10774335026E+03  0.45632034527E+03  0.50400001928E-02 0.  1.
</event>
<event>
 5   0  0.8921459E-05  0.1100315E+04  0.7818609E-02  0.9204885E-01
       -1   -1    0    0    0  501  0.00000000000E+00  0.00000000000E+00  0.26256475590E+03  0.26256475594E+03  0.50400001928E-02 0. -1.
        1   -1    0    0  501    0  0.00000000000E+00  0.00000000000E+00 -0.11527561411E+04  0.11527561411E+04  0.50400001928E-02 0.  1.
    10030    2    1    2    0    0  0.00000000000E+00  0.00000000000E+00 -0.89019138522E+03  0.14153208971E+04  0.11003147456E+04 0.  0.
        3    1    3    3  502    0 -0.18939571170E+03  0.45654995546E+03 -0.75584664746E+03  0.90311281805E+03  0.10100000352E+00 0.  1.
       -3    1    3    3    0  502  0.18939571170E+03 -0.45654995546E+03 -0.13434473775E+03  0.51220807902E+03  0.10100000352E+00 0. -1.
</event>
<event>
 5   0  0.1540772E-04  0.1099952E+04  0.7818609E-02  0.9205239E-01
       -2   -1    0    0    0  501  0.00000000000E+00  0.00000000000E+00  0.53916444421E+03  0.53916444421E+03  0.25500000920E-02 0.  1.
        2   -1    0    0  501    0  0.00000000000E+00  0.00000000000E+00 -0.56100430171E+03  0.56100430172E+03  0.25500000920E-02 0. -1.
    10030    2    1    2    0    0  0.00000000000E+00  0.00000000000E+00 -0.21839857505E+02  0.11001687459E+04  0.10999519490E+04 0.  0.
        2    1    3    3  502    0  0.15481155618E+03 -0.12698129801E+03 -0.52325394508E+03  0.56025490540E+03  0.25500000920E-02 0. -1.
       -2    1    3    3    0  502 -0.15481155618E+03  0.12698129801E+03  0.50141408758E+03  0.53991384053E+03  0.25500000920E-02 0.  1.
</event>
<event>
 5   0  0.1464205E-04  0.1098349E+04  0.7818609E-02  0.9206802E-01
       -2   -1    0    0    0  501  0.00000000000E+00  0.00000000000E+00  0.38886280896E+03  0.38886280897E+03  0.25500000920E-02 0. -1.
        2   -1    0    0  501    0  0.00000000000E+00  0.00000000000E+00 -0.77557657623E+03  0.77557657623E+03  0.25500000920E-02 0.  1.
    10030    2    1    2    0    0  0.00000000000E+00  0.00000000000E+00 -0.38671376726E+03  0.11644393852E+04  0.10983494635E+04 0.  0.
        3    1    3    3  502    0  0.19881318225E+03 -0.16234436892E+03  0.32135691229E+03  0.41128171712E+03  0.10100000352E+00 0. -1.
       -3    1    3    3    0  502 -0.19881318225E+03  0.16234436892E+03 -0.70807067955E+03  0.75315766809E+03  0.10100000352E+00 0.  1.
</event>
<event>
 5   0  0.9346836E-05  0.1099845E+04  0.7818609E-02  0.9205343E-01
        1   -1    0    0  501    0  0.00000000000E+00  0.00000000000E+00  0.11486906285E+04  0.11486906285E+04  0.50400001928E-02 0. -1.
       -1   -1    0    0    0  501  0.00000000000E+00  0.00000000000E+00 -0.26326906320E+03  0.26326906325E+03  0.50400001928E-02 0.  1.
    10030    2    1    2    0    0  0.00000000000E+00  0.00000000000E+00  0.88542156533E+03  0.14119596918E+04  0.10998449086E+04 0.  0.
        5    1    3    3  502    0  0.83242903152E+02 -0.52668321818E+02  0.11372459810E+04  0.11415138389E+04  0.46999998093E+01 0. -1.
       -5    1    3    3    0  502 -0.83242903152E+02  0.52668321818E+02 -0.25182441565E+03  0.27044585293E+03  0.46999998093E+01 0.  1.
</event>
<event>
 5   0  0.9346836E-05  0.1099907E+04  0.7818609E-02  0.9205282E-01
       -1   -1    0    0    0  501  0.00000000000E+00  0.00000000000E+00  0.53762453692E+03  0.53762453694E+03  0.50400001928E-02 0. -1.
        1   -1    0    0  501    0  0.00000000000E+00  0.00000000000E+00 -0.56256535294E+03  0.56256535297E+03  0.50400001928E-02 0.  1.
    10030    2    1    2    0    0  0.00000000000E+00  0.00000000000E+00 -0.24940816026E+02  0.11001898899E+04  0.10999071550E+04 0.  0.
        5    1    3    3  502    0  0.93164272171E+01  0.54981196967E+03 -0.56239730443E+01  0.54993973932E+03  0.46999998093E+01 0. -1.
       -5    1    3    3    0  502 -0.93164272171E+01 -0.54981196967E+03 -0.19316842981E+02  0.55025015059E+03  0.46999998093E+01 0.  1.
</event>
<event>
 5   0  0.1574101E-04  0.1100037E+04  0.7818609E-02  0.9205156E-01
       -2   -1    0    0    0  501  0.00000000000E+00  0.00000000000E+00  0.10177445579E+04  0.10177445579E+04  0.25500000920E-02 0. -1.
        2   -1    0    0  501    0  0.00000000000E+00  0.00000000000E+00 -0.29724586976E+03  0.29724586977E+03  0.25500000920E-02 0.  1.
    10030    2    1    2    0    0  0.00000000000E+00  0.00000000000E+00  0.72049868818E+03  0.13149904277E+04  0.11000370291E+04 0.  0.
        4    1    3    3  502    0  0.21838644662E+03 -0.35248078408E+03 -0.71726329014E+02  0.42081067285E+03  0.12699999809E+01 0.  1.
       -4    1    3    3    0  502 -0.21838644662E+03  0.35248078408E+03  0.79222501719E+03  0.89417975485E+03  0.12699999809E+01 0. -1.
</event>
<event>
 5   0  0.1574101E-04  0.1100134E+04  0.7818609E-02  0.9205061E-01
        2   -1    0    0  501    0  0.00000000000E+00  0.00000000000E+00  0.10944227664E+04  0.10944227664E+04  0.25500000920E-02 0.  1.
       -2   -1    0    0    0  501  0.00000000000E+00  0.00000000000E+00 -0.27646879736E+03  0.27646879737E+03  0.25500000920E-02 0. -1.
    10030    2    1    2    0    0  0.00000000000E+00  0.00000000000E+00  0.81795396905E+03  0.13708915638E+04  0.11001340755E+04 0.  0.
        4    1    3    3  502    0  0.19510686334E+03 -0.15207721894E+03  0.10211952710E+04  0.10507309660E+04  0.12699999809E+01 0.  1.
       -4    1    3    3    0  502 -0.19510686334E+03  0.15207721894E+03 -0.20324130192E+03  0.32016059774E+03  0.12699999809E+01 0. -1.
</event>
<event>
 5   0  0.1540772E-04  0.1100076E+04  0.7818609E-02  0.9205118E-01
       -2   -1    0    0    0  501  0.00000000000E+00  0.00000000000E+00  0.25798750111E+03  0.25798750112E+03  0.25500000920E-02 0.  1.
        2   -1    0    0  501    0  0.00000000000E+00  0.00000000000E+00 -0.11726991062E+04  0.11726991062E+04  0.25500000920E-02 0. -1.
    10030    2    1    2    0    0  0.00000000000E+00  0.00000000000E+00 -0.91471160506E+03  0.14306866073E+04  0.11000758373E+04 0.  0.
        2    1    3    3  502    0 -0.15310615587E+03 -0.24207553710E+03 -0.10680528771E+04  0.11057933843E+04  0.25500000920E-02 0. -1.
       -2    1    3    3    0  502  0.15310615587E+03  0.24207553710E+03  0.15334127200E+03  0.32489322297E+03  0.25500000920E-02 0.  1.
</event>
<event>
 5   0  0.8921459E-05  0.1100401E+04  0.7818609E-02  0.9204801E-01
        1   -1    0    0  501    0  0.00000000000E+00  0.00000000000E+00  0.81109969733E+03  0.81109969735E+03  0.50400001928E-02 0.  1.
       -1   -1    0    0    0  501  0.00000000000E+00  0.00000000000E+00 -0.37322243256E+03  0.37322243259E+03  0.50400001928E-02 0. -1.
    10030    2    1    2    0    0  0.00000000000E+00  0.00000000000E+00  0.43787726477E+03  0.11843221299E+04  0.11004010217E+04 0.  0.
        3    1    3    3  502    0  0.38662520904E+03 -0.80194928293E+02 -0.19344093815E+03  0.43969271719E+03  0.10100000352E+00 0. -1.
       -3    1    3    3    0  502 -0.38662520904E+03  0.80194928293E+02  0.63131820293E+03  0.74462941275E+03  0.10100000352E+00 0.  1.
</event>
<event>
 5   0  0.1464205E-04  0.1100464E+04  0.7818609E-02  0.9204740E-01
        2   -1    0    0  501    0  0.00000000000E+00  0.00000000000E+00  0.42673267713E+03  0.42673267714E+03  0.25500000920E-02 0.  1.
       -2   -1    0    0    0  501  0.00000000000E+00  0.00000000000E+00 -0.70947245318E+03  0.70947245318E+03  0.25500000920E-02 0. -1.
    10030    2    1    2    0    0  0.00000000000E+00  0.00000000000E+00 -0.28273977605E+03  0.11362051303E+04  0.11004636828E+04 0.  0.
        3    1    3    3  502    0  0.50638240827E+03 -0.68815553650E+01  0.80755984848E+02  0.51282749389E+03  0.10100000352E+00 0.  1.
       -3    1    3    3    0  502 -0.50638240827E+03  0.68815553650E+01 -0.36349576090E+03  0.62337763643E+03  0.10100000352E+00 0. -1.
</event>
<event>
 5   0  0.9346836E-05  0.1100110E+04  0.7818609E-02  0.9205085E-01
        1   -1    0    0  501    0  0.00000000000E+00  0.00000000000E+00  0.72193225029E+03  0.72193225031E+03  0.50400001928E-02 0. -1.
       -1   -1    0    0    0  501  0.00000000000E+00  0.00000000000E+00 -0.41909788298E+03  0.41909788301E+03  0.50400001928E-02 0.  1.
    10030    2    1    2    0    0  0.00000000000E+00  0.00000000000E+00  0.30283436731E+03  0.11410301333E+04  0.11001095905E+04 0.  0.
        5    1    3    3  502    0  0.50036913993E+03 -0.21877160841E+03  0.21949313431E+03  0.58858272048E+03  0.46999998093E+01 0.  1.
       -5    1    3    3    0  502 -0.50036913993E+03  0.21877160841E+03  0.83341233007E+02  0.55244741284E+03  0.46999998093E+01 0. -1.
</event>
<event>
 5   0  0.8921459E-05  0.1101488E+04  0.7818609E-02  0.9203743E-01
       -1   -1    0    0    0  501  0.00000000000E+00  0.00000000000E+00  0.10589754855E+04  0.10589754855E+04  0.50400001928E-02 0.  1.
        1   -1    0    0  501    0  0.00000000000E+00  0.00000000000E+00 -0.28642664637E+03  0.28642664642E+03  0.50400001928E-02 0. -1.
    10030    2    1    2    0    0  0.00000000000E+00  0.00000000000E+00  0.77254883914E+03  0.13454021319E+04  0.11014877157E+04 0.  0.
        3    1    3    3  502    0 -0.58675245438E+02 -0.13889216204E+03 -0.26072613812E+03  0.30118423996E+03  0.10100000352E+00 0. -1.
       -3    1    3    3    0  502  0.58675245438E+02  0.13889216204E+03  0.10332749773E+04  0.10442178920E+04  0.10100000352E+00 0.  1.
</event>
<event>
 5   0  0.9346836E-05  0.1100130E+04  0.7818609E-02  0.9205066E-01
       -1   -1    0    0    0  501  0.00000000000E+00  0.00000000000E+00  0.80765933112E+03  0.80765933113E+03  0.50400001928E-02 0.  1.
        1   -1    0    0  501    0  0.00000000000E+00  0.00000000000E+00 -0.37462732191E+03  0.37462732194E+03  0.50400001928E-02 0. -1.
    10030    2    1    2    0    0  0.00000000000E+00  0.00000000000E+00  0.43303200921E+03  0.11822866531E+04  0.11001295419E+04 0.  0.
        5    1    3    3  502    0 -0.30320997273E+03  0.14818621092E+03 -0.25026335981E+03  0.42017767662E+03  0.46999998093E+01 0. -1.
       -5    1    3    3    0  502  0.30320997273E+03 -0.14818621092E+03  0.68329536902E+03  0.76210897646E+03  0.46999998093E+01 0.  1.
</event>
<event>
 5   0  0.1574101E-04  0.1100151E+04  0.7818609E-02  0.9205045E-01
       -2   -1    0    0    0  501  0.00000000000E+00  0.00000000000E+00  0.37676995362E+03  0.37676995363E+03  0.25500000920E-02 0.  1.
        2   -1    0    0  501    0  0.00000000000E+00  0.00000000000E+00 -0.80309717341E+03  0.80309717342E+03  0.25500000920E-02 0. -1.
    10030    2    1    2    0    0  0.00000000000E+00  0.00000000000E+00 -0.42632721979E+03  0.11798671270E+04  0.11001506893E+04 0.  0.
        4    1    3    3  502    0  0.11318085360E+03  0.53558896548E+03 -0.15525251819E+03  0.56900826257E+03  0.12699999809E+01 0.  1.
       -4    1    3    3    0  502 -0.11318085360E+03 -0.53558896548E+03 -0.27107470160E+03  0.61085886448E+03  0.12699999809E+01 0. -1.
</event>
<event>
 5   0  0.8621738E-05  0.1100089E+04  0.7818609E-02  0.9205105E-01
        1   -1    0    0  501    0  0.00000000000E+00  0.00000000000E+00  0.62883235133E+03  0.62883235135E+03  0.50400001928E-02 0. -1.
       -1   -1    0    0    0  501  0.00000000000E+00  0.00000000000E+00 -0.48112817190E+03  0.48112817193E+03  0.50400001928E-02 0.  1.
    10030    2    1    2    0    0  0.00000000000E+00  0.00000000000E+00  0.14770417942E+03  0.11099605233E+04  0.11000890139E+04 0.  0.
        2    1    3    3  502    0 -0.11694151852E+02 -0.91139455674E+02  0.62103371426E+03  0.62779457454E+03  0.25500000920E-02 0. -1.
       -2    1    3    3    0  502  0.11694151852E+02  0.91139455674E+02 -0.47332953483E+03  0.48216594874E+03  0.25500000920E-02 0.  1.
</event>
<event>
 5   0  0.8921459E-05  0.1100061E+04  0.7818609E-02  0.9205133E-01
        1   -1    0    0  501    0  0.00000000000E+00  0.00000000000E+00  0.22150535954E+04  0.22150535954E+04  0.50400001928E-02 0. -1.
       -1   -1    0    0    0  501  0.00000000000E+00  0.00000000000E+00 -0.13658066134E+03  0.13658066143E+03  0.50400001928E-02 0.  1.
    10030    2    1    2    0    0  0.00000000000E+00  0.00000000000E+00  0.20784729340E+04  0.23516342568E+04  0.11000608803E+04 0.  0.
        3    1    3    3  502    0  0.78977867073E+02 -0.53073118893E+03  0.12977196751E+04  0.14042754231E+04  0.10100000352E+00 0. -1.
       -3    1    3    3    0  502 -0.78977867073E+02  0.53073118893E+03  0.78075325889E+03  0.94735883374E+03  0.10100000352E+00 0.  1.
</event>
<event>
 5   0  0.1540772E-04  0.1099761E+04  0.7818609E-02  0.9205425E-01
       -2   -1    0    0    0  501  0.00000000000E+00  0.00000000000E+00  0.22913052123E+03  0.22913052125E+03  0.25500000920E-02 0. -1.
        2   -1    0    0  501    0  0.00000000000E+00  0.00000000000E+00 -0.13196346794E+04  0.13196346794E+04  0.25500000920E-02 0.  1.
    10030    2    1    2    0    0  0.00000000000E+00  0.00000000000E+00 -0.10905041582E+04  0.15487652007E+04  0.10997610321E+04 0.  0.
        2    1    3    3  502    0 -0.11380199358E+03  0.53700138656E+03 -0.49967968238E+03  0.74229452908E+03  0.25500000920E-02 0.  1.
       -2    1    3    3    0  502  0.11380199358E+03 -0.53700138656E+03 -0.59082447581E+03  0.80647067159E+03  0.25500000920E-02 0. -1.
</event>
<event>
 5   0  0.8921459E-05  0.1099917E+04  0.7818609E-02  0.9205272E-01
        1   -1    0    0  501    0  0.00000000000E+00  0.00000000000E+00  0.56167815940E+03  0.56167815943E+03  0.50400001928E-02 0. -1.
       -1   -1    0    0    0  501  0.00000000000E+00  0.00000000000E+00 -0.53848372163E+03  0.53848372165E+03  0.50400001928E-02 0.  1.
    10030    2    1    2    0    0  0.00000000000E+00  0.00000000000E+00  0.23194437779E+02  0.11001618811E+04  0.10999173526E+04 0.  0.
        3    1    3    3  502    0 -0.17821535607E+03  0.44858195208E+02  0.53005747962E+03  0.56101150854E+03  0.10100000352E+00 0. -1.
       -3    1    3    3    0  502  0.17821535607E+03 -0.44858195208E+02 -0.50686304184E+03  0.53915037253E+03  0.10100000352E+00 0.  1.
</event>
<event>
 5   0  0.1574101E-04  0.1100927E+04  0.7818609E-02  0.9204289E-01
        2   -1    0    0  501    0  0.00000000000E+00  0.00000000000E+00  0.81246826821E+03  0.81246826821E+03  0.25500000920E-02 0. -1.
       -2   -1    0    0    0  501  0.00000000000E+00  0.00000000000E+00 -0.37294970786E+03  0.37294970787E+03  0.25500000920E-02 0.  1.
    10030    2    1    2    0    0  0.00000000000E+00  0.00000000000E+00  0.43951856035E+03  0.11854179761E+04  0.11009265249E+04 0.  0.
        4    1    3    3  502    0 -0.38564339562E+03 -0.22468955988E+03 -0.12715003179E+03  0.46408508960E+03  0.12699999809E+01 0.  1.
       -4    1    3    3    0  502  0.38564339562E+03  0.22468955988E+03  0.56666859214E+03  0.72133288648E+03  0.12699999809E+01 0. -1.
</event>
<event>
 5   0  0.1553937E-04  0.1099367E+04  0.7818609E-02  0.9205809E-01
        2   -1    0    0  501    0  0.00000000000E+00  0.00000000000E+00  0.16049325567E+04  0.16049325567E+04  0.25500000920E-02 0. -1.
       -2   -1    0    0    0  501  0.00000000000E+00  0.00000000000E+00 -0.18826448453E+03  0.18826448455E+03  0.25500000920E-02 0.  1.
    10030    2    1    2    0    0  0.00000000000E+00  0.00000000000E+00  0.14166680722E+04  0.17931970413E+04  0.10993667277E+04 0.  0.
        1    1    3    3  502    0  0.24255658408E+03  0.34462710416E+03  0.12839830291E+04  0.13513748394E+04  0.50400001928E-02 0. -1.
       -1    1    3    3    0  502 -0.24255658408E+03 -0.34462710416E+03  0.13268504306E+03  0.44182220189E+03  0.50400001928E-02 0.  1.
</event>
<event>
 5   0  0.1553937E-04  0.1101702E+04  0.7818609E-02  0.9203535E-01
       -2   -1    0    0    0  501  0.00000000000E+00  0.00000000000E+00  0.18853200968E+03  0.18853200970E+03  0.25500000920E-02 0. -1.
        2   -1    0    0  501    0  0.00000000000E+00  0.00000000000E+00 -0.16094698046E+04  0.16094698046E+04  0.25500000920E-02 0.  1.
    10030    2    1    2    0    0  0.00000000000E+00  0.00000000000E+00 -0.14209377949E+04  0.17980018143E+04  0.11017015509E+04 0.  0.
        1    1    3    3  502    0 -0.85247915472E+01 -0.17805846458E+03  0.14015637946E+03  0.22676265039E+03  0.50400001928E-02 0. -1.
       -1    1    3    3    0  502  0.85247915472E+01  0.17805846458E+03 -0.15610941744E+04  0.15712391639E+04  0.50400001928E-02 0.  1.
</event>
<event>
 5   0  0.1464205E-04  0.1100070E+04  0.7818609E-02  0.9205124E-01
        2   -1    0    0  501    0  0.00000000000E+00  0.00000000000E+00  0.10028248107E+04  0.10028248107E+04  0.25500000920E-02 0.  1.
       -2   -1    0    0    0  501  0.00000000000E+00  0.00000000000E+00 -0.30168634516E+03  0.30168634517E+03  0.25500000920E-02 0. -1.
    10030    2    1    2    0    0  0.00000000000E+00  0.00000000000E+00  0.70113846550E+03  0.13045111558E+04  0.11000700923E+04 0.  0.
        3    1    3    3  502    0  0.34888421001E+03 -0.93390365030E+01 -0.15356237148E+03  0.38129886144E+03  0.10100000352E+00 0. -1.
       -3    1    3    3    0  502 -0.34888421001E+03  0.93390365030E+01  0.85470083698E+03  0.92321229440E+03  0.10100000352E+00 0.  1.
</event>
<event>
 5   0  0.1503277E-04  0.1100909E+04  0.7818609E-02  0.9204307E-01
        2   -1    0    0  501    0  0.00000000000E+00  0.00000000000E+00  0.96867900739E+03  0.96867900739E+03  0.25500000920E-02 0.  1.
       -2   -1    0    0    0  501  0.00000000000E+00  0.00000000000E+00 -0.31279700707E+03  0.31279700708E+03  0.25500000920E-02 0. -1.
    10030    2    1    2    0    0  0.00000000000E+00  0.00000000000E+00  0.65588200032E+03  0.12814760145E+04  0.11009085236E+04 0.  0.
        5    1    3    3  502    0 -0.12012324419E+02 -0.54999995688E+03  0.30668196674E+03  0.62985725941E+03  0.46999998093E+01 0. -1.
       -5    1    3    3    0  502  0.12012324419E+02  0.54999995688E+03  0.34920003358E+03  0.65161875507E+03  0.46999998093E+01 0.  1.
</event>
<event>
 5   0  0.8921459E-05  0.1106371E+04  0.7818609E-02  0.9199004E-01
        1   -1    0    0  501    0  0.00000000000E+00  0.00000000000E+00  0.13215156180E+04  0.13215156180E+04  0.50400001928E-02 0.  1.
       -1   -1    0    0    0  501  0.00000000000E+00  0.00000000000E+00 -0.23156310265E+03  0.23156310271E+03  0.50400001928E-02 0. -1.
    10030    2    1    2    0    0  0.00000000000E+00  0.00000000000E+00  0.10899525154E+04  0.15530787207E+04  0.11063711073E+04 0.  0.
        3    1    3    3  502    0  0.84202712268E+02 -0.34118073914E+02  0.13109711953E+04  0.13141155295E+04  0.10100000352E+00 0.  1.
       -3    1    3    3    0  502 -0.84202712268E+02  0.34118073914E+02 -0.22101867991E+03  0.23896319128E+03  0.10100000352E+00 0. -1.
</event>
<event>
 5   0  0.9016738E-05  0.1099702E+04  0.7818609E-02  0.9205482E-01
       -1   -1    0    0    0  501  0.00000000000E+00  0.00000000000E+00  0.16872676537E+03  0.16872676544E+03  0.50400001928E-02 0.  1.
        1   -1    0    0  501    0  0.00000000000E+00  0.00000000000E+00 -0.17918681772E+04  0.17918681772E+04  0.50400001928E-02 0. -1.
    10030    2    1    2    0    0  0.00000000000E+00  0.00000000000E+00 -0.16231414118E+04  0.19605949426E+04  0.10997019989E+04 0.  0.
        4    1    3    3  502    0  0.16830198629E+03 -0.30400487942E+03 -0.51841524613E+02  0.35133129931E+03  0.12699999809E+01 0.  1.
       -4    1    3    3    0  502 -0.16830198629E+03  0.30400487942E+03 -0.15712998872E+04  0.16092636433E+04  0.12699999809E+01 0. -1.
</event>
<event>
 5   0  0.1574101E-04  0.1100595E+04  0.7818609E-02  0.9204613E-01
       -2   -1    0    0    0  501  0.00000000000E+00  0.00000000000E+00  0.14813588532E+03  0.14813588534E+03  0.25500000920E-02 0.  1.
        2   -1    0    0  501    0  0.00000000000E+00  0.00000000000E+00 -0.20442521223E+04  0.20442521223E+04  0.25500000920E-02 0. -1.
    10030    2    1    2    0    0  0.00000000000E+00  0.00000000000E+00 -0.18961162370E+04  0.21923880076E+04  0.11005945629E+04 0.  0.
        4    1    3    3  502    0  0.89936503209E+02  0.12338304940E+03 -0.20012111327E+04  0.20070275439E+04  0.12699999809E+01 0. -1.
       -4    1    3    3    0  502 -0.89936503209E+02 -0.12338304940E+03  0.10509489575E+03  0.18536046369E+03  0.12699999809E+01 0.  1.
</event>
<event>
 5   0  0.8921459E-05  0.1099928E+04  0.7818609E-02  0.9205262E-01
        1   -1    0    0  501    0  0.00000000000E+00  0.00000000000E+00  0.23089507916E+03  0.23089507921E+03  0.50400001928E-02 0.  1.
       -1   -1    0    0    0  501  0.00000000000E+00  0.00000000000E+00 -0.13099466640E+04  0.13099466640E+04  0.50400001928E-02 0. -1.
    10030    2    1    2    0    0  0.00000000000E+00  0.00000000000E+00 -0.10790515849E+04  0.15408417432E+04  0.10999277044E+04 0.  0.
        3    1    3    3  502    0 -0.46401543917E+02  0.52353283652E+03 -0.31268856407E+03  0.61156674410E+03  0.10100000352E+00 0.  1.
       -3    1    3    3    0  502  0.46401543917E+02 -0.52353283652E+03 -0.76636302080E+03  0.92927499915E+03  0.10100000352E+00 0. -1.
</event>
<event>
 5   0  0.8621738E-05  0.1098387E+04  0.7818609E-02  0.9206765E-01
        1   -1    0    0  501    0  0.00000000000E+00  0.00000000000E+00  0.17676603691E+04  0.17676603691E+04  0.50400001928E-02 0. -1.
       -1   -1    0    0    0  501  0.00000000000E+00  0.00000000000E+00 -0.17062874934E+03  0.17062874942E+03  0.50400001928E-02 0.  1.
    10030    2    1    2    0    0  0.00000000000E+00  0.00000000000E+00  0.15970316198E+04  0.19382891186E+04  0.10983873235E+04 0.  0.
        2    1    3    3  502    0 -0.19194409018E+03  0.39654033697E+03  0.13771733539E+04  0.14459229645E+04  0.25500000920E-02 0. -1.
       -2    1    3    3    0  502  0.19194409018E+03 -0.39654033697E+03  0.21985826594E+03  0.49236615410E+03  0.25500000920E-02 0.  1.
</event>
<event>
 5   0  0.8921459E-05  0.1100025E+04  0.7818609E-02  0.9205168E-01
        1   -1    0    0  501    0  0.00000000000E+00  0.00000000000E+00  0.14613527532E+04  0.14613527532E+04  0.50400001928E-02 0. -1.
       -1   -1    0    0    0  501  0.00000000000E+00  0.00000000000E+00 -0.20700935643E+03  0.20700935649E+03  0.50400001928E-02 0.  1.
    10030    2    1    2    0    0  0.00000000000E+00  0.00000000000E+00  0.12543433968E+04  0.16683621097E+04  0.11000248961E+04 0.  0.
        3    1    3    3  502    0  0.25564593070E+03  0.48632528972E+03  0.66573640583E+03  0.86317559138E+03  0.10100000352E+00 0.  1.
       -3    1    3    3    0  502 -0.25564593070E+03 -0.48632528972E+03  0.58860699097E+03  0.80518651835E+03  0.10100000352E+00 0. -1.
</event>
<event>
 5   0  0.8657442E-05  0.1100008E+04  0.7818609E-02  0.9205184E-01
       -1   -1    0    0    0  501  0.00000000000E+00  0.00000000000E+00  0.41824661386E+03  0.41824661389E+03  0.50400001928E-02 0.  1.
        1   -1    0    0  501    0  0.00000000000E+00  0.00000000000E+00 -0.72326782057E+03  0.72326782059E+03  0.50400001928E-02 0. -1.
    10030    2    1    2    0    0  0.00000000000E+00  0.00000000000E+00 -0.30502120672E+03  0.11415144345E+04  0.11000078489E+04 0.  0.
        1    1    3    3  502    0 -0.12434568774E+03  0.49691715246E+03 -0.36035743496E+03  0.62629544739E+03  0.50400001928E-02 0. -1.
       -1    1    3    3    0  502  0.12434568774E+03 -0.49691715246E+03  0.55336228240E+02  0.51521898708E+03  0.50400001928E-02 0.  1.
</event>
<event>
 5   0  0.9346836E-05  0.1099707E+04  0.7818609E-02  0.9205478E-01
       -1   -1    0    0    0  501  0.00000000000E+00  0.00000000000E+00  0.32528904083E+03  0.32528904087E+03  0.50400001928E-02 0.  1.
        1   -1    0    0  501    0  0.00000000000E+00  0.00000000000E+00 -0.92944638786E+03  0.92944638787E+03  0.50400001928E-02 0. -1.
    10030    2    1    2    0    0  0.00000000000E+00  0.00000000000E+00 -0.60415734702E+03  0.12547354287E+04  0.10997067319E+04 0.  0.
        5    1    3    3  502    0  0.91398788182E+02  0.29774441586E+03  0.21491062562E+03  0.37843644468E+03  0.46999998093E+01 0.  1.
       -5    1    3    3    0  502 -0.91398788182E+02 -0.29774441586E+03 -0.81906797265E+03  0.87629898406E+03  0.46999998093E+01 0. -1.
</event>
<event>
 5   0  0.8621738E-05  0.1100180E+04  0.7818609E-02  0.9205017E-01
        1   -1    0    0  501    0  0.00000000000E+00  0.00000000000E+00  0.35499385150E+03  0.35499385154E+03  0.50400001928E-02 0.  1.
       -1   -1    0    0    0  501  0.00000000000E+00  0.00000000000E+00 -0.85240568970E+03  0.85240568972E+03  0.50400001928E-02 0. -1.
    10030    2    1    2    0    0  0.00000000000E+00  0.00000000000E+00 -0.49741183820E+03  0.12073995413E+04  0.11001795833E+04 0.  0.
        2    1    3    3  502    0 -0.90548096351E+02  0.33166478819E+03  0.22255982155E+03  0.40955263844E+03  0.25500000920E-02 0.  1.
       -2    1    3    3    0  502  0.90548096351E+02 -0.33166478819E+03 -0.71997165975E+03  0.79784690281E+03  0.25500000920E-02 0. -1.
</event>
<event>
 5   0  0.6010125E-05  0.1100207E+04  0.7818609E-02  0.9204990E-01
        3   -1    0    0  501    0  0.00000000000E+00  0.00000000000E+00  0.55885685841E+03  0.55885686754E+03  0.10100000352E+00 0. -1.
       -3   -1    0    0    0  501  0.00000000000E+00  0.00000000000E+00 -0.54148736034E+03  0.54148736976E+03  0.10100000352E+00 0.  1.
    10030    2    1    2    0    0  0.00000000000E+00  0.00000000000E+00  0.17369498075E+02  0.11003442373E+04  0.11002071355E+04 0.  0.
        2    1    3    3  502    0 -0.23518906763E+03  0.47023724981E+03 -0.15312838730E+03  0.54761781531E+03  0.25500000920E-02 0.  1.
       -2    1    3    3    0  502  0.23518906763E+03 -0.47023724981E+03  0.17049788537E+03  0.55272642199E+03  0.25500000920E-02 0. -1.
</event>
<event>
 5   0  0.6010125E-05  0.1099606E+04  0.7818609E-02  0.9205576E-01
        4   -1    0    0  501    0  0.00000000000E+00  0.00000000000E+00  0.51369709438E+03  0.51369866427E+03  0.12699999809E+01 0. -1.
       -4   -1    0    0    0  501  0.00000000000E+00  0.00000000000E+00 -0.58844328064E+03  0.58844465112E+03  0.12699999809E+01 0.  1.
    10030    2    1    2    0    0  0.00000000000E+00  0.00000000000E+00 -0.74746186260E+02  0.11021433154E+04  0.10996057909E+04 0.  0.
        4    1    3    3  502    0 -0.33345299961E+03 -0.17622718592E+03 -0.43833961647E+03  0.57826478042E+03  0.12699999809E+01 0.  1.
       -4    1    3    3    0  502  0.33345299961E+03  0.17622718592E+03  0.36359343021E+03  0.52387853497E+03  0.12699999809E+01 0. -1.
</event>
<event>
 5   0  0.1503277E-04  0.1099221E+04  0.7818609E-02  0.9205952E-01
       -2   -1    0    0    0  501  0.00000000000E+00  0.00000000000E+00  0.26318090544E+03  0.26318090545E+03  0.25500000920E-02 0. -1.
        2   -1    0    0  501    0  0.00000000000E+00  0.00000000000E+00 -0.11477712195E+04  0.11477712195E+04  0.25500000920E-02 0.  1.
    10030    2    1    2    0    0  0.00000000000E+00  0.00000000000E+00 -0.88459031409E+03  0.14109521250E+04  0.10992205762E+04 0.  0.
        5    1    3    3  502    0  0.48984950752E+03 -0.22487174645E+03 -0.58012185511E+03  0.79188591296E+03  0.46999998093E+01 0.  1.
       -5    1    3    3    0  502 -0.48984950752E+03  0.22487174645E+03 -0.30446845898E+03  0.61906621203E+03  0.46999998093E+01 0. -1.
</event>
<event>
 5   0  0.8657442E-05  0.1100307E+04  0.7818609E-02  0.9204893E-01
        1   -1    0    0  501    0  0.00000000000E+00  0.00000000000E+00  0.88504386866E+03  0.88504386867E+03  0.50400001928E-02 0. -1.
       -1   -1    0    0    0  501  0.00000000000E+00  0.00000000000E+00 -0.34198155731E+03  0.34198155735E+03  0.50400001928E-02 0.  1.
    10030    2    1    2    0    0  0.00000000000E+00  0.00000000000E+00  0.54306231134E+03  0.12270254260E+04  0.11003066491E+04 0.  0.
        1    1    3    3  502    0  0.43328044658E+03  0.33829157228E+03  0.24670655042E+03  0.60252573000E+03  0.50400001928E-02 0. -1.
       -1    1    3    3    0  502 -0.43328044658E+03 -0.33829157228E+03  0.29635576092E+03  0.62449969602E+03  0.50400001928E-02 0.  1.
</event>
<event>
 5   0  0.1503277E-04  0.1100284E+04  0.7818609E-02  0.9204915E-01
       -2   -1    0    0    0  501  0.00000000000E+00  0.00000000000E+00  0.26289623742E+03  0.26289623744E+03  0.25500000920E-02 0.  1.
        2   -1    0    0  501    0  0.00000000000E+00  0.00000000000E+00 -0.11512380515E+04  0.11512380515E+04  0.25500000920E-02 0. -1.
    10030    2    1    2    0    0  0.00000000000E+00  0.00000000000E+00 -0.88834181409E+03  0.14141342890E+04  0.11002838763E+04 0.  0.
        5    1    3    3  502    0  0.39316863941E+03 -0.17821792977E+03 -0.58838140570E+01  0.43174056883E+03  0.46999998093E+01 0. -1.
       -5    1    3    3    0  502 -0.39316863941E+03  0.17821792977E+03 -0.88245800004E+03  0.98239372012E+03  0.46999998093E+01 0.  1.
</event>
<event>
 5   0  0.8921459E-05  0.1100215E+04  0.7818609E-02  0.9204983E-01
        1   -1    0    0  501    0  0.00000000000E+00  0.00000000000E+00  0.52496712020E+03  0.52496712022E+03  0.50400001928E-02 0.  1.
       -1   -1    0    0    0  501  0.00000000000E+00  0.00000000000E+00 -0.57645135858E+03  0.57645135860E+03  0.50400001928E-02 0. -1.
    10030    2    1    2    0    0  0.00000000000E+00  0.00000000000E+00 -0.51484238378E+02  0.11014184788E+04  0.11002145421E+04 0.  0.
        3    1    3    3  502    0 -0.22572898503E+02 -0.19693885819E+03  0.48797001972E+03  0.52669649700E+03  0.10100000352E+00 0.  1.
       -3    1    3    3    0  502  0.22572898503E+02  0.19693885819E+03 -0.53945425810E+03  0.57472198182E+03  0.10100000352E+00 0. -1.
</event>
<event>
 5   0  0.1574101E-04  0.1100103E+04  0.7818609E-02  0.9205091E-01
        2   -1    0    0  501    0  0.00000000000E+00  0.00000000000E+00  0.59441263698E+03  0.59441263699E+03  0.25500000920E-02 0. -1.
       -2   -1    0    0    0  501  0.00000000000E+00  0.00000000000E+00 -0.50900149103E+03  0.50900149104E+03  0.25500000920E-02 0.  1.
    10030    2    1    2    0    0  0.00000000000E+00  0.00000000000E+00  0.85411145952E+02  0.11034141280E+04  0.11001034833E+04 0.  0.
        4    1    3    3  502    0 -0.24576967677E+03  0.43685482874E+03 -0.18449416620E+03  0.53412038500E+03  0.12699999809E+01 0.  1.
       -4    1    3    3    0  502  0.24576967677E+03 -0.43685482874E+03  0.26990531215E+03  0.56929374302E+03  0.12699999809E+01 0. -1.
</event>
<event>
 5   0  0.9016738E-05  0.1099959E+04  0.7818609E-02  0.9205232E-01
       -1   -1    0    0    0  501  0.00000000000E+00  0.00000000000E+00  0.11721720269E+04  0.11721720269E+04  0.50400001928E-02 0. -1.
        1   -1    0    0  501    0  0.00000000000E+00  0.00000000000E+00 -0.25804882818E+03  0.25804882823E+03  0.50400001928E-02 0.  1.
    10030    2    1    2    0    0  0.00000000000E+00  0.00000000000E+00  0.91412319872E+03  0.14302208551E+04  0.10999593047E+04 0.  0.
        4    1    3    3  502    0 -0.14319406270E+03  0.14096995293E+03  0.11227318053E+04  0.11405723943E+04  0.12699999809E+01 0. -1.
       -4    1    3    3    0  502  0.14319406270E+03 -0.14096995293E+03 -0.20860860656E+03  0.28964846081E+03  0.12699999809E+01 0.  1.
</event>
<event>
 5   0  0.1574101E-04  0.1102103E+04  0.7818609E-02  0.9203145E-01
        2   -1    0    0  501    0  0.00000000000E+00  0.00000000000E+00  0.45337847674E+03  0.45337847675E+03  0.25500000920E-02 0.  1.
       -2   -1    0    0    0  501  0.00000000000E+00  0.00000000000E+00 -0.66976621210E+03  0.66976621210E+03  0.25500000920E-02 0. -1.
    10030    2    1    2    0    0  0.00000000000E+00  0.00000000000E+00 -0.21638773536E+03  0.11231446889E+04  0.11021026904E+04 0.  0.
        4    1    3    3  502    0 -0.32265891251E+03  0.11174112325E+03 -0.54895715144E+03  0.64649085025E+03  0.12699999809E+01 0. -1.
       -4    1    3    3    0  502  0.32265891251E+03 -0.11174112325E+03  0.33256941608E+03  0.47665383860E+03  0.12699999809E+01 0.  1.
</event>
<event>
 5   0  0.1540772E-04  0.1098861E+04  0.7818609E-02  0.9206302E-01
       -2   -1    0    0    0  501  0.00000000000E+00  0.00000000000E+00  0.71425623725E+03  0.71425623725E+03  0.25500000920E-02 0. -1.
        2   -1    0    0  501    0  0.00000000000E+00  0.00000000000E+00 -0.42264117140E+03  0.42264117141E+03  0.25500000920E-02 0.  1.
    10030    2    1    2    0    0  0.00000000000E+00  0.00000000000E+00  0.29161506584E+03  0.11368974087E+04  0.10988613976E+04 0.  0.
        2    1    3    3  502    0  0.35225374122E+03 -0.49197948488E+02 -0.28746104604E+03  0.45731497826E+03  0.25500000920E-02 0.  1.
       -2    1    3    3    0  502 -0.35225374122E+03  0.49197948488E+02  0.57907611189E+03  0.67958243040E+03  0.25500000920E-02 0. -1.
</event>
<event>
 5   0  0.8657442E-05  0.1099779E+04  0.7818609E-02  0.9205407E-01
       -1   -1    0    0    0  501  0.00000000000E+00  0.00000000000E+00  0.31128408218E+03  0.31128408222E+03  0.50400001928E-02 0.  1.
        1   -1    0    0  501    0  0.00000000000E+00  0.00000000000E+00 -0.97139073208E+03  0.97139073209E+03  0.50400001928E-02 0. -1.
    10030    2    1    2    0    0  0.00000000000E+00  0.00000000000E+00 -0.66010664990E+03  0.12826748143E+04  0.10997790187E+04 0.  0.
        1    1    3    3  502    0  0.24980766610E+03  0.14910936618E+03  0.21417512759E+03  0.36125954441E+03  0.50400001928E-02 0.  1.
       -1    1    3    3    0  502 -0.24980766610E+03 -0.14910936618E+03 -0.87428177749E+03  0.92141526990E+03  0.50400001928E-02 0. -1.
</event>
<event>
 5   0  0.9346836E-05  0.1099936E+04  0.7818609E-02  0.9205255E-01
       -1   -1    0    0    0  501  0.00000000000E+00  0.00000000000E+00  0.21037378376E+03  0.21037378382E+03  0.50400001928E-02 0.  1.
        1   -1    0    0  501    0  0.00000000000E+00  0.00000000000E+00 -0.14377485362E+04  0.14377485362E+04  0.50400001928E-02 0. -1.
    10030    2    1    2    0    0  0.00000000000E+00  0.00000000000E+00 -0.12273747525E+04  0.16481223201E+04  0.10999356340E+04 0.  0.
        5    1    3    3  502    0 -0.49585525814E+03 -0.37319058049E+02 -0.26171982210E+03  0.56194706547E+03  0.46999998093E+01 0.  1.
       -5    1    3    3    0  502  0.49585525814E+03  0.37319058049E+02 -0.96565493037E+03  0.10861752546E+04  0.46999998093E+01 0. -1.
</event>
<event>
 5   0  0.8657442E-05  0.1099815E+04  0.7818609E-02  0.9205372E-01
       -1   -1    0    0    0  501  0.00000000000E+00  0.00000000000E+00  0.57367981642E+03  0.57367981644E+03  0.50400001928E-02 0.  1.
        1   -1    0    0  501    0  0.00000000000E+00  0.00000000000E+00 -0.52712039255E+03  0.52712039258E+03  0.50400001928E-02 0. -1.
    10030    2    1    2    0    0  0.00000000000E+00  0.00000000000E+00  0.46559423869E+02  0.11008002090E+04  0.10998151300E+04 0.  0.
        1    1    3    3  502    0  0.79188130065E+02 -0.29785249390E+03 -0.43255268672E+03  0.53112022639E+03  0.50400001928E-02 0. -1.
       -1    1    3    3    0  502 -0.79188130065E+02  0.29785249390E+03  0.47911211059E+03  0.56967998263E+03  0.50400001928E-02 0.  1.
</event>
<event>
 5   0  0.1503277E-04  0.1099881E+04  0.7818609E-02  0.9205307E-01
        2   -1    0    0  501    0  0.00000000000E+00  0.00000000000E+00  0.64444554054E+03  0.64444554055E+03  0.25500000920E-02 0. -1.
       -2   -1    0    0    0  501  0.00000000000E+00  0.00000000000E+00 -0.46929453894E+03  0.46929453894E+03  0.25500000920E-02 0.  1.
    10030    2    1    2    0    0  0.00000000000E+00  0.00000000000E+00  0.17515100160E+03  0.11137400795E+04  0.10998813987E+04 0.  0.
        5    1    3    3  502    0  0.75639207662E+02 -0.28371938285E+03  0.55840158784E+03  0.63091394123E+03  0.46999998093E+01 0. -1.
       -5    1    3    3    0  502 -0.75639207662E+02  0.28371938285E+03 -0.38325058624E+03  0.48282613826E+03  0.46999998093E+01 0.  1.
</event>
<event>
 5   0  0.1464205E-04  0.1100087E+04  0.7818609E-02  0.9205107E-01
       -2   -1    0    0    0  501  0.00000000000E+00  0.00000000000E+00  0.44311115516E+03  0.44311115517E+03  0.25500000920E-02 0. -1.
        2   -1    0    0  501    0  0.00000000000E+00  0.00000000000E+00 -0.68278078548E+03  0.68278078548E+03  0.25500000920E-02 0.  1.
    10030    2    1    2    0    0  0.00000000000E+00  0.00000000000E+00 -0.23966963032E+03  0.11258919407E+04  0.11000868740E+04 0.  0.
        3    1    3    3  502    0 -0.29115932032E+02 -0.16183517589E+03  0.41736758765E+03  0.44859121154E+03  0.10100000352E+00 0. -1.
       -3    1    3    3    0  502  0.29115932032E+02  0.16183517589E+03 -0.65703721796E+03  0.67730072911E+03  0.10100000352E+00 0.  1.
</event>
<event>
 5   0  0.1464205E-04  0.1099955E+04  0.7818609E-02  0.9205236E-01
       -2   -1    0    0    0  501  0.00000000000E+00  0.00000000000E+00  0.45922116866E+03  0.45922116866E+03  0.25500000920E-02 0.  1.
        2   -1    0    0  501    0  0.00000000000E+00  0.00000000000E+00 -0.65866990752E+03  0.65866990752E+03  0.25500000920E-02 0. -1.
    10030    2    1    2    0    0  0.00000000000E+00  0.00000000000E+00 -0.19944873886E+03  0.11178910762E+04  0.10999548440E+04 0.  0.
        3    1    3    3  502    0  0.19483090344E+02  0.21279416669E+03 -0.61475629980E+03  0.65083505325E+03  0.10100000352E+00 0. -1.
       -3    1    3    3    0  502 -0.19483090344E+02 -0.21279416669E+03  0.41530756094E+03  0.46705602294E+03  0.10100000352E+00 0.  1.
</event>
<event>
 5   0  0.8621738E-05  0.1099334E+04  0.7818609E-02  0.9205841E-01
       -1   -1    0    0    0  501  0.00000000000E+00  0.00000000000E+00  0.68345958332E+03  0.68345958334E+03  0.50400001928E-02 0.  1.
        1   -1    0    0  501    0  0.00000000000E+00  0.00000000000E+00 -0.44206546221E+03  0.44206546224E+03  0.50400001928E-02 0. -1.
    10030    2    1    2    0    0  0.00000000000E+00  0.00000000000E+00  0.24139412111E+03  0.11255250456E+04  0.10993341196E+04 0.  0.
        2    1    3    3  502    0  0.42574020214E+03 -0.30602454403E+03 -0.48243685134E+02  0.52652938610E+03  0.25500000920E-02 0. -1.
       -2    1    3    3    0  502 -0.42574020214E+03  0.30602454403E+03  0.28963780624E+03  0.59899565948E+03  0.25500000920E-02 0.  1.
</event>
<event>
 5   0  0.1574101E-04  0.1100195E+04  0.7818609E-02  0.9205002E-01
       -2   -1    0    0    0  501  0.00000000000E+00  0.00000000000E+00  0.25186091411E+03  0.25186091413E+03  0.25500000920E-02 0. -1.
        2   -1    0    0  501    0  0.00000000000E+00  0.00000000000E+00 -0.12014845610E+04  0.12014845610E+04  0.25500000920E-02 0.  1.
    10030    2    1    2    0    0  0.00000000000E+00  0.00000000000E+00 -0.94962364690E+03  0.14533454751E+04  0.11001945280E+04 0.  0.
        4    1    3    3  502    0  0.19756798387E+03 -0.11655303159E+03 -0.11352903101E+04  0.11582328862E+04  0.12699999809E+01 0.  1.
       -4    1    3    3    0  502 -0.19756798387E+03  0.11655303159E+03  0.18566666324E+03  0.29511258896E+03  0.12699999809E+01 0. -1.
</event>
<event>
 5   0  0.8657442E-05  0.1100135E+04  0.7818609E-02  0.9205060E-01
        1   -1    0    0  501    0  0.00000000000E+00  0.00000000000E+00  0.99231987062E+03  0.99231987063E+03  0.50400001928E-02 0. -1.
       -1   -1    0    0    0  501  0.00000000000E+00  0.00000000000E+00 -0.30491620082E+03  0.30491620086E+03  0.50400001928E-02 0.  1.
    10030    2    1    2    0    0  0.00000000000E+00  0.00000000000E+00  0.68740366980E+03  0.12972360715E+04  0.11001352735E+04 0.  0.
        1    1    3    3  502    0 -0.33220455110E+03  0.26940461150E+03 -0.64150842723E+02  0.43249744406E+03  0.50400001928E-02 0.  1.
       -1    1    3    3    0  502  0.33220455110E+03 -0.26940461150E+03  0.75155451252E+03  0.86473862744E+03  0.50400001928E-02 0. -1.
</event>
<event>
 5   0  0.1464205E-04  0.1100147E+04  0.7818609E-02  0.9205049E-01
       -2   -1    0    0    0  501  0.00000000000E+00  0.00000000000E+00  0.54582280338E+03  0.54582280339E+03  0.25500000920E-02 0. -1.
        2   -1    0    0  501    0  0.00000000000E+00  0.00000000000E+00 -0.55435696444E+03  0.55435696445E+03  0.25500000920E-02 0.  1.
    10030    2    1    2    0    0  0.00000000000E+00  0.00000000000E+00 -0.85341610570E+01  0.11001797678E+04  0.11001466673E+04 0.  0.
        3    1    3    3  502    0 -0.19350750142E+03 -0.96406764270E+02 -0.51008981658E+03  0.55401358150E+03  0.10100000352E+00 0.  1.
       -3    1    3    3    0  502  0.19350750142E+03  0.96406764270E+02  0.50155565553E+03  0.54616618633E+03  0.10100000352E+00 0. -1.
</event>
<event>
 5   0  0.8657442E-05  0.1097265E+04  0.7818609E-02  0.9207861E-01
       -1   -1    0    0    0  501  0.00000000000E+00  0.00000000000E+00  0.34882684181E+03  0.34882684184E+03  0.50400001928E-02 0.  1.
        1   -1    0    0  501    0  0.00000000000E+00  0.00000000000E+00 -0.86288587392E+03  0.86288587394E+03  0.50400001928E-02 0. -1.
    10030    2    1    2    0    0  0.00000000000E+00  0.00000000000E+00 -0.51405903212E+03  0.12117127158E+04  0.10972652446E+04 0.  0.
        1    1    3    3  502    0 -0.42115544248E+03 -0.27558348354E+03 -0.49816121346E+03  0.70815447308E+03  0.50400001928E-02 0.  1.
       -1    1    3    3    0  502  0.42115544248E+03  0.27558348354E+03 -0.15897818657E+02  0.50355824270E+03  0.50400001928E-02 0. -1.
</event>
<event>
 5   0  0.1503277E-04  0.1099722E+04  0.7818609E-02  0.9205463E-01
       -2   -1    0    0    0  501  0.00000000000E+00  0.00000000000E+00  0.12362199314E+03  0.12362199317E+03  0.25500000920E-02 0. -1.
        2   -1    0    0  501    0  0.00000000000E+00  0.00000000000E+00 -0.24457368162E+04  0.24457368162E+04  0.25500000920E-02 0.  1.
    10030    2    1    2    0    0  0.00000000000E+00  0.00000000000E+00 -0.23221148231E+04  0.25693588094E+04  0.10997215283E+04 0.  0.
        5    1    3    3  502    0  0.18601565879E+02 -0.32297578222E+03 -0.21997986024E+04  0.22234647187E+04  0.46999998093E+01 0.  1.
       -5    1    3    3    0  502 -0.18601565879E+02  0.32297578222E+03 -0.12231622071E+03  0.34589409073E+03  0.46999998093E+01 0. -1.
</event>
<event>
 5   0  0.9346836E-05  0.1100037E+04  0.7818609E-02  0.9205156E-01
       -1   -1    0    0    0  501  0.00000000000E+00  0.00000000000E+00  0.61722711958E+03  0.61722711960E+03  0.50400001928E-02 0. -1.
        1   -1    0    0  501    0  0.00000000000E+00  0.00000000000E+00 -0.49012809992E+03  0.49012809995E+03  0.50400001928E-02 0.  1.
    10030    2    1    2    0    0  0.00000000000E+00  0.00000000000E+00  0.12709901966E+03  0.11073552196E+04  0.11000370091E+04 0.  0.
        5    1    3    3  502    0 -0.32877952431E+03  0.31553099714E+03  0.37356336970E+03  0.58926010126E+03  0.46999998093E+01 0. -1.
       -5    1    3    3    0  502  0.32877952431E+03 -0.31553099714E+03 -0.24646435004E+03  0.51809511829E+03  0.46999998093E+01 0.  1.
</event>
<event>
 5   0  0.8621738E-05  0.1098568E+04  0.7818609E-02  0.9206589E-01
        1   -1    0    0  501    0  0.00000000000E+00  0.00000000000E+00  0.37043711011E+03  0.37043711014E+03  0.50400001928E-02 0.  1.
       -1   -1    0    0    0  501  0.00000000000E+00  0.00000000000E+00 -0.81447832572E+03  0.81447832574E+03  0.50400001928E-02 0. -1.
    10030    2    1    2    0    0  0.00000000000E+00  0.00000000000E+00 -0.44404121561E+03  0.11849154359E+04  0.10985681540E+04 0.  0.
        2    1    3    3  502    0  0.49942644675E+03  0.17621246300E+03 -0.64843075292E+02  0.53355621282E+03  0.25500000920E-02 0.  1.
       -2    1    3    3    0  502 -0.49942644675E+03 -0.17621246300E+03 -0.37919814032E+03  0.65135922305E+03  0.25500000920E-02 0. -1.
</event>
<event>
 5   0  0.1540772E-04  0.1100086E+04  0.7818609E-02  0.9205108E-01
        2   -1    0    0  501    0  0.00000000000E+00  0.00000000000E+00  0.15207150135E+04  0.15207150135E+04  0.25500000920E-02 0. -1.
       -2   -1    0    0    0  501  0.00000000000E+00  0.00000000000E+00 -0.19895069226E+03  0.19895069228E+03  0.25500000920E-02 0.  1.
    10030    2    1    2    0    0  0.00000000000E+00  0.00000000000E+00  0.13217643212E+04  0.17196657058E+04  0.11000860052E+04 0.  0.
        2    1    3    3  502    0  0.27263166068E+03  0.37356317628E+03  0.11263667873E+04  0.12176122571E+04  0.25500000920E-02 0.  1.
       -2    1    3    3    0  502 -0.27263166068E+03 -0.37356317628E+03  0.19539753395E+03  0.50205344871E+03  0.25500000920E-02 0. -1.
</event>
<event>
 5   0  0.1464205E-04  0.1099972E+04  0.7818609E-02  0.9205219E-01
        2   -1    0    0  501    0  0.00000000000E+00  0.00000000000E+00  0.51706349381E+03  0.51706349382E+03  0.25500000920E-02 0.  1.
       -2   -1    0    0    0  501  0.00000000000E+00  0.00000000000E+00 -0.58500448322E+03  0.58500448323E+03  0.25500000920E-02 0. -1.
    10030    2    1    2    0    0  0.00000000000E+00  0.00000000000E+00 -0.67940989410E+02  0.11020679770E+04  0.10999717487E+04 0.  0.
        3    1    3    3  502    0 -0.41934692374E+03  0.35512417524E+03 -0.11136065396E+02  0.54962627706E+03  0.10100000352E+00 0. -1.
       -3    1    3    3    0  502  0.41934692374E+03 -0.35512417524E+03 -0.56804924014E+02  0.55244169998E+03  0.10100000352E+00 0.  1.
</event>
<event>
 5   0  0.8921459E-05  0.1102173E+04  0.7818609E-02  0.9203077E-01
       -1   -1    0    0    0  501  0.00000000000E+00  0.00000000000E+00  0.12006622171E+04  0.12006622171E+04  0.50400001928E-02 0.  1.
        1   -1    0    0  501    0  0.00000000000E+00  0.00000000000E+00 -0.25294049475E+03  0.25294049480E+03  0.50400001928E-02 0. -1.
    10030    2    1    2    0    0  0.00000000000E+00  0.00000000000E+00  0.94772172237E+03  0.14536027119E+04  0.11021725732E+04 0.  0.
        3    1    3    3  502    0  0.14633167469E+03 -0.26824646985E+03  0.10787051644E+04  0.11211485047E+04  0.10100000352E+00 0.  1.
       -3    1    3    3    0  502 -0.14633167469E+03  0.26824646985E+03 -0.13098344207E+03  0.33245420723E+03  0.10100000352E+00 0. -1.
</event>
<event>
 5   0  0.1503277E-04  0.1100107E+04  0.7818609E-02  0.9205088E-01
       -2   -1    0    0    0  501  0.00000000000E+00  0.00000000000E+00  0.51308291694E+03  0.51308291694E+03  0.25500000920E-02 0. -1.
        2   -1    0    0  501    0  0.00000000000E+00  0.00000000000E+00 -0.58968785760E+03  0.58968785760E+03  0.25500000920E-02 0.  1.
    10030    2    1    2    0    0  0.00000000000E+00  0.00000000000E+00 -0.76604940661E+02  0.11027707745E+04  0.11001068422E+04 0.  0.
        5    1    3    3  502    0 -0.19156031225E+03 -0.47912972521E+03 -0.22922635133E+03  0.56464808240E+03  0.46999998093E+01 0.  1.
       -5    1    3    3    0  502  0.19156031225E+03  0.47912972521E+03  0.15262141067E+03  0.53812269215E+03  0.46999998093E+01 0. -1.
</event>
<event>
 5   0  0.1574101E-04  0.1099731E+04  0.7818609E-02  0.9205454E-01
       -2   -1    0    0    0  501  0.00000000000E+00  0.00000000000E+00  0.26495247360E+03  0.26495247361E+03  0.25500000920E-02 0.  1.
        2   -1    0    0  501    0  0.00000000000E+00  0.00000000000E+00 -0.11411564551E+04  0.11411564551E+04  0.25500000920E-02 0. -1.
    10030    2    1    2    0    0  0.00000000000E+00  0.00000000000E+00 -0.87620398152E+03  0.14061089287E+04  0.10997312864E+04 0.  0.
        4    1    3    3  502    0  0.15948171334E+03  0.11285427991E+03 -0.10952791210E+04  0.11125684119E+04  0.12699999809E+01 0. -1.
       -4    1    3    3    0  502 -0.15948171334E+03 -0.11285427991E+03  0.21907513948E+03  0.29354051683E+03  0.12699999809E+01 0.  1.
</event>
<event>
 5   0  0.1540772E-04  0.1099864E+04  0.7818609E-02  0.9205324E-01
       -2   -1    0    0    0  501  0.00000000000E+00  0.00000000000E+00  0.51459886648E+03  0.51459886649E+03  0.25500000920E-02 0.  1.
        2   -1    0    0  501    0  0.00000000000E+00  0.00000000000E+00 -0.58769116667E+03  0.58769116667E+03  0.25500000920E-02 0. -1.
    10030    2    1    2    0    0  0.00000000000E+00  0.00000000000E+00 -0.73092300183E+02  0.11022900332E+04  0.10998640065E+04 0.  0.
        2    1    3    3  502    0  0.18438627632E+03 -0.22462621650E+03  0.43135619852E+03  0.52011864612E+03  0.25500000920E-02 0.  1.
       -2    1    3    3    0  502 -0.18438627632E+03  0.22462621650E+03 -0.50444849870E+03  0.58217138704E+03  0.25500000920E-02 0. -1.
</event>
<event>
 5   0  0.6010125E-05  0.1095634E+04  0.7818609E-02  0.9209458E-01
        4   -1    0    0  501    0  0.00000000000E+00  0.00000000000E+00  0.45854569115E+03  0.45854744986E+03  0.12699999809E+01 0.  1.
       -4   -1    0    0    0  501  0.00000000000E+00  0.00000000000E+00 -0.65446398976E+03  0.65446522199E+03  0.12699999809E+01 0. -1.
    10030    2    1    2    0    0  0.00000000000E+00  0.00000000000E+00 -0.19591829861E+03  0.11130126719E+04  0.10956337107E+04 0.  0.
        3    1    3    3  502    0 -0.54512967957E+02 -0.16082871553E+03  0.43113408751E+03  0.46337258338E+03  0.10100000352E+00 0.  1.
       -3    1    3    3    0  502  0.54512967957E+02  0.16082871553E+03 -0.62705238612E+03  0.64964008847E+03  0.10100000352E+00 0. -1.
</event>
<event>
 5   0  0.1540772E-04  0.1105762E+04  0.7818609E-02  0.9199594E-01
       -2   -1    0    0    0  501  0.00000000000E+00  0.00000000000E+00  0.62706755153E+03  0.62706755153E+03  0.25500000920E-02 0.  1.
        2   -1    0    0  501    0  0.00000000000E+00  0.00000000000E+00 -0.48747142750E+03  0.48747142751E+03  0.25500000920E-02 0. -1.
    10030    2    1    2    0    0  0.00000000000E+00  0.00000000000E+00  0.13959612402E+03  0.11145389790E+04  0.11057622068E+04 0.  0.
        2    1    3    3  502    0  0.72885808615E+02 -0.14789449913E+03 -0.46211442518E+03  0.49064739471E+03  0.25500000920E-02 0. -1.
       -2    1    3    3    0  502 -0.72885808615E+02  0.14789449913E+03  0.60171054920E+03  0.62389158433E+03  0.25500000920E-02 0.  1.
</event>
<event>
 5   0  0.1503277E-04  0.1100070E+04  0.7818609E-02  0.9205124E-01
       -2   -1    0    0    0  501  0.00000000000E+00  0.00000000000E+00  0.14946645735E+03  0.14946645737E+03  0.25500000920E-02 0. -1.
        2   -1    0    0  501    0  0.00000000000E+00  0.00000000000E+00 -0.20241225295E+04  0.20241225295E+04  0.25500000920E-02 0.  1.
    10030    2    1    2    0    0  0.00000000000E+00  0.00000000000E+00 -0.18746560722E+04  0.21735889869E+04  0.11000698591E+04 0.  0.
        5    1    3    3  502    0  0.31589367108E+03  0.12073622175E+03 -0.80271242029E+02  0.34760841325E+03  0.46999998093E+01 0. -1.
       -5    1    3    3    0  502 -0.31589367108E+03 -0.12073622175E+03 -0.17943848301E+04  0.18259805736E+04  0.46999998093E+01 0.  1.
</event>
<event>
 5   0  0.1574101E-04  0.1100102E+04  0.7818609E-02  0.9205092E-01
        2   -1    0    0  501    0  0.00000000000E+00  0.00000000000E+00  0.51999255906E+03  0.51999255906E+03  0.25500000920E-02 0.  1.
       -2   -1    0    0    0  501  0.00000000000E+00  0.00000000000E+00 -0.58184714401E+03  0.58184714402E+03  0.25500000920E-02 0. -1.
    10030    2    1    2    0    0  0.00000000000E+00  0.00000000000E+00 -0.61854584956E+02  0.11018397031E+04  0.11001021505E+04 0.  0.
        4    1    3    3  502    0 -0.19689113236E+03  0.26580886769E+03 -0.47109166193E+03  0.57562960225E+03  0.12699999809E+01 0. -1.
       -4    1    3    3    0  502  0.19689113236E+03 -0.26580886769E+03  0.40923707698E+03  0.52621010083E+03  0.12699999809E+01 0.  1.
</event>
<event>
 5   0  0.1540772E-04  0.1099732E+04  0.7818609E-02  0.9205454E-01
        2   -1    0    0  501    0  0.00000000000E+00  0.00000000000E+00  0.29137389573E+03  0.29137389574E+03  0.25500000920E-02 0. -1.
       -2   -1    0    0    0  501  0.00000000000E+00  0.00000000000E+00 -0.10376783437E+04  0.10376783437E+04  0.25500000920E-02 0.  1.
    10030    2    1    2    0    0  0.00000000000E+00  0.00000000000E+00 -0.74630444794E+03  0.13290522394E+04  0.10997315700E+04 0.  0.
        2    1    3    3  502    0 -0.34057936048E+03  0.13748682575E+03  0.12139185533E+03  0.38682413393E+03  0.25500000920E-02 0. -1.
       -2    1    3    3    0  502  0.34057936048E+03 -0.13748682575E+03 -0.86769630327E+03  0.94222810548E+03  0.25500000920E-02 0.  1.
</event>
<event>
 5   0  0.1503277E-04  0.1101253E+04  0.7818609E-02  0.9203972E-01
        2   -1    0    0  501    0  0.00000000000E+00  0.00000000000E+00  0.92585762755E+03  0.92585762756E+03  0.25500000920E-02 0. -1.
       -2   -1    0    0    0  501  0.00000000000E+00  0.00000000000E+00 -0.32746860530E+03  0.32746860531E+03  0.25500000920E-02 0.  1.
    10030    2    1    2    0    0  0.00000000000E+00  0.00000000000E+00  0.59838902225E+03  0.12533262329E+04  0.11012525705E+04 0.  0.
        5    1    3    3  502    0  0.22132319025E+03  0.31117660304E+03 -0.15225985458E+03  0.41112040345E+03  0.46999998093E+01 0.  1.
       -5    1    3    3    0  502 -0.22132319025E+03 -0.31117660304E+03  0.75064887683E+03  0.84220582942E+03  0.46999998093E+01 0. -1.
</event>
<event>
 5   0  0.8657442E-05  0.1099784E+04  0.7818609E-02  0.9205402E-01
        1   -1    0    0  501    0  0.00000000000E+00  0.00000000000E+00  0.17988276209E+04  0.17988276209E+04  0.50400001928E-02 0.  1.
       -1   -1    0    0    0  501  0.00000000000E+00  0.00000000000E+00 -0.16809910214E+03  0.16809910221E+03  0.50400001928E-02 0. -1.
    10030    2    1    2    0    0  0.00000000000E+00  0.00000000000E+00  0.16307285188E+04  0.19669267231E+04  0.10997841753E+04 0.  0.
        1    1    3    3  502    0 -0.47432470351E+03  0.14668730587E+02  0.13122303115E+04  0.13954022669E+04  0.50400001928E-02 0.  1.
       -1    1    3    3    0  502  0.47432470351E+03 -0.14668730587E+02  0.31849820727E+03  0.57152445623E+03  0.50400001928E-02 0. -1.
</event>
<event>
 5   0  0.1464205E-04  0.1099814E+04  0.7818609E-02  0.9205373E-01
        2   -1    0    0  501    0  0.00000000000E+00  0.00000000000E+00  0.11674231549E+04  0.11674231549E+04  0.25500000920E-02 0. -1.
       -2   -1    0    0    0  501  0.00000000000E+00  0.00000000000E+00 -0.25903000478E+03  0.25903000480E+03  0.25500000920E-02 0.  1.
    10030    2    1    2    0    0  0.00000000000E+00  0.00000000000E+00  0.90839315016E+03  0.14264531597E+04  0.10998138486E+04 0.  0.
        3    1    3    3  502    0  0.31078446031E+03  0.67106174588E+02 -0.12773000801E+03  0.34264439961E+03  0.10100000352E+00 0.  1.
       -3    1    3    3    0  502 -0.31078446031E+03 -0.67106174588E+02  0.10361231582E+04  0.10838087601E+04  0.10100000352E+00 0. -1.
</event>
<event>
 5   0  0.8657442E-05  0.1099781E+04  0.7818609E-02  0.9205405E-01
       -1   -1    0    0    0  501  0.00000000000E+00  0.00000000000E+00  0.40778223633E+03  0.40778223637E+03  0.50400001928E-02 0.  1.
        1   -1    0    0  501    0  0.00000000000E+00  0.00000000000E+00 -0.74152243128E+03  0.74152243130E+03  0.50400001928E-02 0. -1.
    10030    2    1    2    0    0  0.00000000000E+00  0.00000000000E+00 -0.33374019495E+03  0.11493046677E+04  0.10997812061E+04 0.  0.
        1    1    3    3  502    0 -0.48597986238E+02 -0.43081129728E+03  0.18662139824E+03  0.47200390299E+03  0.50400001928E-02 0.  1.
       -1    1    3    3    0  502  0.48597986238E+02  0.43081129728E+03 -0.52036159319E+03  0.67730076467E+03  0.50400001928E-02 0. -1.
</event>
<event>
 5   0  0.1540772E-04  0.1099802E+04  0.7818609E-02  0.9205385E-01
        2   -1    0    0  501    0  0.00000000000E+00  0.00000000000E+00  0.11786259176E+04  0.11786259176E+04  0.25500000920E-02 0. -1.
       -2   -1    0    0    0  501  0.00000000000E+00  0.00000000000E+00 -0.25656243730E+03  0.25656243732E+03  0.25500000920E-02 0.  1.
    10030    2    1    2    0    0  0.00000000000E+00  0.00000000000E+00  0.92206348033E+03  0.14351883550E+04  0.10998020515E+04 0.  0.
        2    1    3    3  502    0 -0.52940177437E+03 -0.14647579573E+03  0.42726044545E+03  0.69589718040E+03  0.25500000920E-02 0.  1.
       -2    1    3    3    0  502  0.52940177437E+03  0.14647579573E+03  0.49480303488E+03  0.73929117455E+03  0.25500000920E-02 0. -1.
</event>
<event>
 5   0  0.1503277E-04  0.1099399E+04  0.7818609E-02  0.9205778E-01
       -2   -1    0    0    0  501  0.00000000000E+00  0.00000000000E+00  0.17558512765E+03  0.17558512767E+03  0.25500000920E-02 0. -1.
        2   -1    0    0  501    0  0.00000000000E+00  0.00000000000E+00 -0.17209276075E+04  0.17209276075E+04  0.25500000920E-02 0.  1.
    10030    2    1    2    0    0  0.00000000000E+00  0.00000000000E+00 -0.15453424799E+04  0.18965127352E+04  0.10993985513E+04 0.  0.
        5    1    3    3  502    0  0.19719256077E+03 -0.28298126412E+03 -0.15109905984E+04  0.15498638586E+04  0.46999998093E+01 0.  1.
       -5    1    3    3    0  502 -0.19719256077E+03  0.28298126412E+03 -0.34351881485E+02  0.34664887657E+03  0.46999998093E+01 0. -1.
</event>
<event>
 5   0  0.8657442E-05  0.1099898E+04  0.7818609E-02  0.9205291E-01
        1   -1    0    0  501    0  0.00000000000E+00  0.00000000000E+00  0.65818429052E+03  0.65818429054E+03  0.50400001928E-02 0.  1.
       -1   -1    0    0    0  501  0.00000000000E+00  0.00000000000E+00 -0.45951231307E+03  0.45951231310E+03  0.50400001928E-02 0. -1.
    10030    2    1    2    0    0  0.00000000000E+00  0.00000000000E+00  0.19867197745E+03  0.11176966036E+04  0.10998977876E+04 0.  0.
        1    1    3    3  502    0 -0.26171662137E+03  0.36717930741E+03 -0.22060419769E+03  0.50197853117E+03  0.50400001928E-02 0. -1.
       -1    1    3    3    0  502  0.26171662137E+03 -0.36717930741E+03  0.41927617514E+03  0.61571807247E+03  0.50400001928E-02 0.  1.
</event>
<event>
 5   0  0.9016738E-05  0.1100244E+04  0.7818609E-02  0.9204954E-01
        1   -1    0    0  501    0  0.00000000000E+00  0.00000000000E+00  0.95379734561E+03  0.95379734562E+03  0.50400001928E-02 0. -1.
       -1   -1    0    0    0  501  0.00000000000E+00  0.00000000000E+00 -0.31729409072E+03  0.31729409076E+03  0.50400001928E-02 0.  1.
    10030    2    1    2    0    0  0.00000000000E+00  0.00000000000E+00  0.63650325489E+03  0.12710914364E+04  0.11002440848E+04 0.  0.
        4    1    3    3  502    0 -0.41713181580E+03 -0.20720511624E+03  0.65645465749E+03  0.80490200781E+03  0.12699999809E+01 0. -1.
       -4    1    3    3    0  502  0.41713181580E+03  0.20720511624E+03 -0.19951402593E+02  0.46618942857E+03  0.12699999809E+01 0.  1.
</event>
<event>
 5   0  0.8921459E-05  0.1100191E+04  0.7818609E-02  0.9205006E-01
        1   -1    0    0  501    0  0.00000000000E+00  0.00000000000E+00  0.10711482531E+04  0.10711482531E+04  0.50400001928E-02 0. -1.
       -1   -1    0    0    0  501  0.00000000000E+00  0.00000000000E+00 -0.28250508768E+03  0.28250508773E+03  0.50400001928E-02 0.  1.
    10030    2    1    2    0    0  0.00000000000E+00  0.00000000000E+00  0.78864316545E+03  0.13536533409E+04  0.11001905857E+04 0.  0.
        3    1    3    3  502    0  0.83598643360E+02  0.54034619321E+03  0.32006854343E+03  0.63356659034E+03  0.10100000352E+00 0. -1.
       -3    1    3    3    0  502 -0.83598643360E+02 -0.54034619321E+03  0.46857462202E+03  0.72008675053E+03  0.10100000352E+00 0.  1.
</event>
<event>
 5   0  0.9346836E-05  0.1100494E+04  0.7818609E-02  0.9204711E-01
       -1   -1    0    0    0  501  0.00000000000E+00  0.00000000000E+00  0.75660414720E+03  0.75660414722E+03  0.50400001928E-02 0.  1.
        1   -1    0    0  501    0  0.00000000000E+00  0.00000000000E+00 -0.40017167832E+03  0.40017167835E+03  0.50400001928E-02 0. -1.
    10030    2    1    2    0    0  0.00000000000E+00  0.00000000000E+00  0.35643246888E+03  0.11567758256E+04  0.11004936191E+04 0.  0.
        5    1    3    3  502    0  0.10872305608E+03  0.41715930981E+03 -0.18118675864E+03  0.46764658044E+03  0.46999998093E+01 0. -1.
       -5    1    3    3    0  502 -0.10872305608E+03 -0.41715930981E+03  0.53761922753E+03  0.68912924513E+03  0.46999998093E+01 0.  1.
</event>
<event>
 5   0  0.9346836E-05  0.1101514E+04  0.7818609E-02  0.9203717E-01
        1   -1    0    0  501    0  0.00000000000E+00  0.00000000000E+00  0.17255139605E+04  0.17255139605E+04  0.50400001928E-02 0.  1.
       -1   -1    0    0    0  501  0.00000000000E+00  0.00000000000E+00 -0.17579299779E+03  0.17579299786E+03  0.50400001928E-02 0. -1.
    10030    2    1    2    0    0  0.00000000000E+00  0.00000000000E+00  0.15497209627E+04  0.19013069584E+04  0.11015139980E+04 0.  0.
        5    1    3    3  502    0  0.39724194079E+03  0.35048330352E+03  0.10347579911E+04  0.11624912454E+04  0.46999998093E+01 0.  1.
       -5    1    3    3    0  502 -0.39724194079E+03 -0.35048330352E+03  0.51496297164E+03  0.73881571296E+03  0.46999998093E+01 0. -1.
</event>
<event>
 5   0  0.8657442E-05  0.1100478E+04  0.7818609E-02  0.9204726E-01
        1   -1    0    0  501    0  0.00000000000E+00  0.00000000000E+00  0.97219026276E+03  0.97219026278E+03  0.50400001928E-02 0. -1.
       -1   -1    0    0    0  501  0.00000000000E+00  0.00000000000E+00 -0.31142341895E+03  0.31142341899E+03  0.50400001928E-02 0.  1.
    10030    2    1    2    0    0  0.00000000000E+00  0.00000000000E+00  0.66076684382E+03  0.12836136818E+04  0.11004777427E+04 0.  0.
        1    1    3    3  502    0  0.26401737346E+03  0.32991956807E+03 -0.80702510169E+02  0.43019180613E+03  0.50400001928E-02 0.  1.
       -1    1    3    3    0  502 -0.26401737346E+03 -0.32991956807E+03  0.74146935399E+03  0.85342187564E+03  0.50400001928E-02 0. -1.
</event>
<event>
 5   0  0.1503277E-04  0.1099219E+04  0.7818609E-02  0.9205953E-01
        2   -1    0    0  501    0  0.00000000000E+00  0.00000000000E+00  0.71259847010E+03  0.71259847011E+03  0.25500000920E-02 0. -1.
       -2   -1    0    0    0  501  0.00000000000E+00  0.00000000000E+00 -0.42390027766E+03  0.42390027766E+03  0.25500000920E-02 0.  1.
    10030    2    1    2    0    0  0.00000000000E+00  0.00000000000E+00  0.28869819245E+03  0.11364987478E+04  0.10992191580E+04 0.  0.
        5    1    3    3  502    0  0.53380642435E+03  0.60607962157E+02  0.24548880764E+02  0.53781721923E+03  0.46999998093E+01 0.  1.
       -5    1    3    3    0  502 -0.53380642435E+03 -0.60607962157E+02  0.26414931168E+03  0.59868152854E+03  0.46999998093E+01 0. -1.
</event>
<event>
 5   0  0.6010125E-05  0.1099901E+04  0.7818609E-02  0.9205288E-01
        3   -1    0    0  501    0  0.00000000000E+00  0.00000000000E+00  0.53826835781E+03  0.53826836728E+03  0.10100000352E+00 0. -1.
       -3   -1    0    0    0  501  0.00000000000E+00  0.00000000000E+00 -0.56188642699E+03  0.56188643606E+03  0.10100000352E+00 0.  1.
    10030    2    1    2    0    0  0.00000000000E+00  0.00000000000E+00 -0.23618069179E+02  0.11001548033E+04  0.10999012584E+04 0.  0.
        5    1    3    3  502    0 -0.13777809231E+03  0.28298527358E+03  0.43924961253E+03  0.54039409683E+03  0.46999998093E+01 0. -1.
       -5    1    3    3    0  502  0.13777809231E+03 -0.28298527358E+03 -0.46286768171E+03  0.55976070651E+03  0.46999998093E+01 0.  1.
</event>
<event>
 5   0  0.9346836E-05  0.1100382E+04  0.7818609E-02  0.9204820E-01
        1   -1    0    0  501    0  0.00000000000E+00  0.00000000000E+00  0.10583543377E+04  0.10583543377E+04  0.50400001928E-02 0. -1.
       -1   -1    0    0    0  501  0.00000000000E+00  0.00000000000E+00 -0.28601951727E+03  0.28601951732E+03  0.50400001928E-02 0.  1.
    10030    2    1    2    0    0  0.00000000000E+00  0.00000000000E+00  0.77233482043E+03  0.13443738550E+04  0.11003817461E+04 0.  0.
        5    1    3    3  502    0  0.11559545609E+03  0.53616938308E+03  0.33364719619E+03  0.64201437550E+03  0.46999998093E+01 0. -1.
       -5    1    3    3    0  502 -0.11559545609E+03 -0.53616938308E+03  0.43868762424E+03  0.70235947953E+03  0.46999998093E+01 0.  1.
</event>
<event>
 5   0  0.1503277E-04  0.1099685E+04  0.7818609E-02  0.9205499E-01
        2   -1    0    0  501    0  0.00000000000E+00  0.00000000000E+00  0.18663307912E+04  0.18663307912E+04  0.25500000920E-02 0.  1.
       -2   -1    0    0    0  501  0.00000000000E+00  0.00000000000E+00 -0.16198999301E+03  0.16198999303E+03  0.25500000920E-02 0. -1.
    10030    2    1    2    0    0  0.00000000000E+00  0.00000000000E+00  0.17043407982E+04  0.20283207843E+04  0.10996852493E+04 0.  0.
        5    1    3    3  502    0 -0.33992979539E+03 -0.24745916564E+03  0.19871089078E+03  0.46507678136E+03  0.46999998093E+01 0. -1.
       -5    1    3    3    0  502  0.33992979539E+03  0.24745916564E+03  0.15056299074E+04  0.15632440029E+04  0.46999998093E+01 0.  1.
</event>
<event>
 5   0  0.9016738E-05  0.1097415E+04  0.7818609E-02  0.9207715E-01
       -1   -1    0    0    0  501  0.00000000000E+00  0.00000000000E+00  0.70481251030E+03  0.70481251032E+03  0.50400001928E-02 0.  1.
        1   -1    0    0  501    0  0.00000000000E+00  0.00000000000E+00 -0.42717763570E+03  0.42717763573E+03  0.50400001928E-02 0. -1.
    10030    2    1    2    0    0  0.00000000000E+00  0.00000000000E+00  0.27763487460E+03  0.11319901461E+04  0.10974154032E+04 0.  0.
        4    1    3    3  502    0  0.10157992153E+03  0.18595070167E+03 -0.38327358703E+03  0.43794565796E+03  0.12699999809E+01 0.  1.
       -4    1    3    3    0  502 -0.10157992153E+03 -0.18595070167E+03  0.66090846162E+03  0.69404448809E+03  0.12699999809E+01 0. -1.
</event>
<event>
 5   0  0.9346836E-05  0.1099872E+04  0.7818609E-02  0.9205316E-01
       -1   -1    0    0    0  501  0.00000000000E+00  0.00000000000E+00  0.12401319994E+04  0.12401319994E+04  0.50400001928E-02 0. -1.
        1   -1    0    0  501    0  0.00000000000E+00  0.00000000000E+00 -0.24386908233E+03  0.24386908238E+03  0.50400001928E-02 0.  1.
    10030    2    1    2    0    0  0.00000000000E+00  0.00000000000E+00  0.99626291710E+03  0.14840010818E+04  0.10998724521E+04 0.  0.
        5    1    3    3  502    0 -0.30733025650E+03  0.16360247051E+03 -0.76195410480E+02  0.35643440560E+03  0.46999998093E+01 0. -1.
       -5    1    3    3    0  502  0.30733025650E+03 -0.16360247051E+03  0.10724583276E+04  0.11275666762E+04  0.46999998093E+01 0.  1.
</event>
<event>
 5   0  0.1464205E-04  0.1099870E+04  0.7818609E-02  0.9205318E-01
        2   -1    0    0  501    0  0.00000000000E+00  0.00000000000E+00  0.23067259346E+04  0.23067259346E+04  0.25500000920E-02 0.  1.
       -2   -1    0    0    0  501  0.00000000000E+00  0.00000000000E+00 -0.13110736186E+03  0.13110736189E+03  0.25500000920E-02 0. -1.
    10030    2    1    2    0    0  0.00000000000E+00  0.00000000000E+00  0.21756185728E+04  0.24378332965E+04  0.10998704503E+04 0.  0.
        3    1    3    3  502    0  0.17347770035E+03  0.34334386531E+03  0.21673472899E+03  0.44153536134E+03  0.10100000352E+00 0. -1.
       -3    1    3    3    0  502 -0.17347770035E+03 -0.34334386531E+03  0.19588838438E+04  0.19962979352E+04  0.10100000352E+00 0.  1.
</event>
<event>
 5   0  0.1503277E-04  0.1099519E+04  0.7818609E-02  0.9205661E-01
        2   -1    0    0  501    0  0.00000000000E+00  0.00000000000E+00  0.64713140173E+03  0.64713140174E+03  0.25500000920E-02 0.  1.
       -2   -1    0    0    0  501  0.00000000000E+00  0.00000000000E+00 -0.46703884104E+03  0.46703884105E+03  0.25500000920E-02 0. -1.
    10030    2    1    2    0    0  0.00000000000E+00  0.00000000000E+00  0.18009256069E+03  0.11141702428E+04  0.10995189855E+04 0.  0.
        5    1    3    3  502    0 -0.13308934265E+03  0.36386049160E+03  0.48525111730E+03  0.62096535114E+03  0.46999998093E+01 0.  1.
       -5    1    3    3    0  502  0.13308934265E+03 -0.36386049160E+03 -0.30515855661E+03  0.49320489165E+03  0.46999998093E+01 0. -1.
</event>
<event>
 5   0  0.9346836E-05  0.1100095E+04  0.7818609E-02  0.9205099E-01
       -1   -1    0    0    0  501  0.00000000000E+00  0.00000000000E+00  0.67020027338E+03  0.67020027339E+03  0.50400001928E-02 0.  1.
        1   -1    0    0  501    0  0.00000000000E+00  0.00000000000E+00 -0.45143569622E+03  0.45143569624E+03  0.50400001928E-02 0. -1.
    10030    2    1    2    0    0  0.00000000000E+00  0.00000000000E+00  0.21876457716E+03  0.11216359696E+04  0.11000951360E+04 0.  0.
        5    1    3    3  502    0 -0.12795879007E+03  0.82347961643E+00  0.65479241006E+03  0.66719511415E+03  0.46999998093E+01 0.  1.
       -5    1    3    3    0  502  0.12795879007E+03 -0.82347961643E+00 -0.43602783290E+03  0.45444085549E+03  0.46999998093E+01 0. -1.
</event>
<event>
 5   0  0.1574101E-04  0.1099590E+04  0.7818609E-02  0.9205592E-01
       -2   -1    0    0    0  501  0.00000000000E+00  0.00000000000E+00  0.40237067600E+03  0.40237067601E+03  0.25500000920E-02 0.  1.
        2   -1    0    0  501    0  0.00000000000E+00  0.00000000000E+00 -0.75123363930E+03  0.75123363930E+03  0.25500000920E-02 0. -1.
    10030    2    1    2    0    0  0.00000000000E+00  0.00000000000E+00 -0.34886296329E+03  0.11536043153E+04  0.10995897186E+04 0.  0.
        4    1    3    3  502    0  0.43214524767E+03  0.32711569888E+03 -0.27126144674E+03  0.60608463182E+03  0.12699999809E+01 0. -1.
       -4    1    3    3    0  502 -0.43214524767E+03 -0.32711569888E+03 -0.77601516552E+02  0.54751968349E+03  0.12699999809E+01 0.  1.
</event>
<event>
 5   0  0.8657442E-05  0.1101382E+04  0.7818609E-02  0.9203846E-01
        1   -1    0    0  501    0  0.00000000000E+00  0.00000000000E+00  0.12611264366E+04  0.12611264366E+04  0.50400001928E-02 0. -1.
       -1   -1    0    0    0  501  0.00000000000E+00  0.00000000000E+00 -0.24046800383E+03  0.24046800388E+03  0.50400001928E-02 0.  1.
    10030    2    1    2    0    0  0.00000000000E+00  0.00000000000E+00  0.10206584327E+04  0.15015944405E+04  0.11013819625E+04 0.  0.
        1    1    3    3  502    0 -0.80072667292E+02 -0.25798466602E+03  0.11645960521E+04  0.11955131470E+04  0.50400001928E-02 0. -1.
       -1    1    3    3    0  502  0.80072667292E+02  0.25798466602E+03 -0.14393761935E+03  0.30608129351E+03  0.50400001928E-02 0.  1.
</event>
<event>
 5   0  0.8621738E-05  0.1099889E+04  0.7818609E-02  0.9205300E-01
        1   -1    0    0  501    0  0.00000000000E+00  0.00000000000E+00  0.63328575315E+03  0.63328575317E+03  0.50400001928E-02 0.  1.
       -1   -1    0    0    0  501  0.00000000000E+00  0.00000000000E+00 -0.47757103292E+03  0.47757103295E+03  0.50400001928E-02 0. -1.
    10030    2    1    2    0    0  0.00000000000E+00  0.00000000000E+00  0.15571472022E+03  0.11108567861E+04  0.10998889604E+04 0.  0.
        2    1    3    3  502    0 -0.22065240855E+03 -0.50085015780E+03  0.13225130472E+03  0.56305308237E+03  0.25500000920E-02 0.  1.
       -2    1    3    3    0  502  0.22065240855E+03  0.50085015780E+03  0.23463415501E+02  0.54780370374E+03  0.25500000920E-02 0. -1.
</event>
<event>
 5   0  0.9016738E-05  0.1099519E+04  0.7818609E-02  0.9205661E-01
        1   -1    0    0  501    0  0.00000000000E+00  0.00000000000E+00  0.58880351239E+03  0.58880351241E+03  0.50400001928E-02 0.  1.
       -1   -1    0    0    0  501  0.00000000000E+00  0.00000000000E+00 -0.51330469960E+03  0.51330469963E+03  0.50400001928E-02 0. -1.
    10030    2    1    2    0    0  0.00000000000E+00  0.00000000000E+00  0.75498812784E+02  0.11021082120E+04  0.10995191860E+04 0.  0.
        4    1    3    3  502    0 -0.16942039750E+03 -0.26921188139E+03  0.48719756929E+03  0.58184309964E+03  0.12699999809E+01 0.  1.
       -4    1    3    3    0  502  0.16942039750E+03  0.26921188139E+03 -0.41169875651E+03  0.52026511240E+03  0.12699999809E+01 0. -1.
</event>
<event>
 5   0  0.9016738E-05  0.1100313E+04  0.7818609E-02  0.9204887E-01
        1   -1    0    0  501    0  0.00000000000E+00  0.00000000000E+00  0.78129606228E+03  0.78129606230E+03  0.50400001928E-02 0. -1.
       -1   -1    0    0    0  501  0.00000000000E+00  0.00000000000E+00 -0.38739762626E+03  0.38739762629E+03  0.50400001928E-02 0.  1.
    10030    2    1    2    0    0  0.00000000000E+00  0.00000000000E+00  0.39389843602E+03  0.11686936886E+04  0.11003131190E+04 0.  0.
        4    1    3    3  502    0  0.89901785430E+02 -0.42132282310E+02 -0.37780174605E+03  0.39063183748E+03  0.12699999809E+01 0.  1.
       -4    1    3    3    0  502 -0.89901785430E+02  0.42132282310E+02  0.77170018207E+03  0.77806185111E+03  0.12699999809E+01 0. -1.
</event>
<event>
 5   0  0.8657442E-05  0.1099407E+04  0.7818609E-02  0.9205770E-01
       -1   -1    0    0    0  501  0.00000000000E+00  0.00000000000E+00  0.69523819868E+03  0.69523819870E+03  0.50400001928E-02 0. -1.
        1   -1    0    0  501    0  0.00000000000E+00  0.00000000000E+00 -0.43463387964E+03  0.43463387967E+03  0.50400001928E-02 0.  1.
    10030    2    1    2    0    0  0.00000000000E+00  0.00000000000E+00  0.26060431904E+03  0.11298720784E+04  0.10994072505E+04 0.  0.
        1    1    3    3  502    0 -0.67170339519E+02 -0.20089610339E+03  0.65160859334E+03  0.68517505632E+03  0.50400001928E-02 0. -1.
       -1    1    3    3    0  502  0.67170339519E+02  0.20089610339E+03 -0.39100427430E+03  0.44469702204E+03  0.50400001928E-02 0.  1.
</event>
<event>
 5   0  0.9346836E-05  0.1101633E+04  0.7818609E-02  0.9203601E-01
        1   -1    0    0  501    0  0.00000000000E+00  0.00000000000E+00  0.35192651296E+03  0.35192651299E+03  0.50400001928E-02 0. -1.
       -1   -1    0    0    0  501  0.00000000000E+00  0.00000000000E+00 -0.86210893445E+03  0.86210893446E+03  0.50400001928E-02 0.  1.
    10030    2    1    2    0    0  0.00000000000E+00  0.00000000000E+00 -0.51018242149E+03  0.12140354475E+04  0.11016333167E+04 0.  0.
        5    1    3    3  502    0 -0.47842551995E+03 -0.23907640179E+03 -0.40015983796E+03  0.66798090538E+03  0.46999998093E+01 0.  1.
       -5    1    3    3    0  502  0.47842551995E+03  0.23907640179E+03 -0.11002258353E+03  0.54605454207E+03  0.46999998093E+01 0. -1.
</event>
<event>
 5   0  0.1574101E-04  0.1101700E+04  0.7818609E-02  0.9203537E-01
        2   -1    0    0  501    0  0.00000000000E+00  0.00000000000E+00  0.31812188951E+03  0.31812188952E+03  0.25500000920E-02 0. -1.
       -2   -1    0    0    0  501  0.00000000000E+00  0.00000000000E+00 -0.95383445237E+03  0.95383445237E+03  0.25500000920E-02 0.  1.
    10030    2    1    2    0    0  0.00000000000E+00  0.00000000000E+00 -0.63571256285E+03  0.12719563419E+04  0.11016998108E+04 0.  0.
        4    1    3    3  502    0  0.40955698939E+03 -0.21958437202E+03  0.23621754398E+02  0.46531045999E+03  0.12699999809E+01 0. -1.
       -4    1    3    3    0  502 -0.40955698939E+03  0.21958437202E+03 -0.65933431725E+03  0.80664588191E+03  0.12699999809E+01 0.  1.
</event>
<event>
 5   0  0.9346836E-05  0.1098743E+04  0.7818609E-02  0.9206418E-01
        1   -1    0    0  501    0  0.00000000000E+00  0.00000000000E+00  0.31670848542E+03  0.31670848546E+03  0.50400001928E-02 0. -1.
       -1   -1    0    0    0  501  0.00000000000E+00  0.00000000000E+00 -0.95295481735E+03  0.95295481736E+03  0.50400001928E-02 0.  1.
    10030    2    1    2    0    0  0.00000000000E+00  0.00000000000E+00 -0.63624633193E+03  0.12696633028E+04  0.10987426940E+04 0.  0.
        5    1    3    3  502    0 -0.29122433025E+03 -0.26375277086E+03 -0.76178853226E+03  0.85715867408E+03  0.46999998093E+01 0.  1.
       -5    1    3    3    0  502  0.29122433025E+03  0.26375277086E+03  0.12554220033E+03  0.41250462874E+03  0.46999998093E+01 0. -1.
</event>
<event>
 5   0  0.1574101E-04  0.1096151E+04  0.7818609E-02  0.9208951E-01
       -2   -1    0    0    0  501  0.00000000000E+00  0.00000000000E+00  0.28669137631E+03  0.28669137632E+03  0.25500000920E-02 0. -1.
        2   -1    0    0  501    0  0.00000000000E+00  0.00000000000E+00 -0.10477709115E+04  0.10477709115E+04  0.25500000920E-02 0.  1.
    10030    2    1    2    0    0  0.00000000000E+00  0.00000000000E+00 -0.76107953519E+03  0.13344622878E+04  0.10961512390E+04 0.  0.
        4    1    3    3  502    0 -0.42147684622E+03  0.13812438443E+03  0.11427872594E+02  0.44368151488E+03  0.12699999809E+01 0. -1.
       -4    1    3    3    0  502  0.42147684622E+03 -0.13812438443E+03 -0.77250740779E+03  0.89078077295E+03  0.12699999809E+01 0.  1.
</event>
<event>
 5   0  0.8657442E-05  0.1099371E+04  0.7818609E-02  0.9205805E-01
       -1   -1    0    0    0  501  0.00000000000E+00  0.00000000000E+00  0.31717546921E+03  0.31717546925E+03  0.50400001928E-02 0.  1.
        1   -1    0    0  501    0  0.00000000000E+00  0.00000000000E+00 -0.95264024919E+03  0.95264024921E+03  0.50400001928E-02 0. -1.
    10030    2    1    2    0    0  0.00000000000E+00  0.00000000000E+00 -0.63546477998E+03  0.12698157185E+04  0.10993709439E+04 0.  0.
        1    1    3    3  502    0 -0.16334034168E+03  0.42030261669E+03 -0.68082578126E+03  0.81661380179E+03  0.50400001928E-02 0. -1.
       -1    1    3    3    0  502  0.16334034168E+03 -0.42030261669E+03  0.45361001277E+02  0.45320191667E+03  0.50400001928E-02 0.  1.
</event>
<event>
 5   0  0.6010125E-05  0.1099368E+04  0.7818609E-02  0.9205809E-01
        3   -1    0    0  501    0  0.00000000000E+00  0.00000000000E+00  0.57400192963E+03  0.57400193851E+03  0.10100000352E+00 0.  1.
       -3   -1    0    0    0  501  0.00000000000E+00  0.00000000000E+00 -0.52639584483E+03  0.52639585451E+03  0.10100000352E+00 0. -1.
    10030    2    1    2    0    0  0.00000000000E+00  0.00000000000E+00  0.47606084803E+02  0.11003977930E+04  0.10993675289E+04 0.  0.
        1    1    3    3  502    0  0.43754349901E+03  0.31370982289E+03 -0.87179513760E+02  0.54539750104E+03  0.50400001928E-02 0. -1.
       -1    1    3    3    0  502 -0.43754349901E+03 -0.31370982289E+03  0.13478559856E+03  0.55500029199E+03  0.50400001928E-02 0.  1.
</event>
<event>
 5   0  0.1553937E-04  0.1100488E+04  0.7818609E-02  0.9204717E-01
        2   -1    0    0  501    0  0.00000000000E+00  0.00000000000E+00  0.10622694062E+04  0.10622694062E+04  0.25500000920E-02 0.  1.
       -2   -1    0    0    0  501  0.00000000000E+00  0.00000000000E+00 -0.28502024195E+03  0.28502024196E+03  0.25500000920E-02 0. -1.
    10030    2    1    2    0    0  0.00000000000E+00  0.00000000000E+00  0.77724916425E+03  0.13472896482E+04  0.11004876795E+04 0.  0.
        1    1    3    3  502    0  0.30058961807E+02 -0.40214862988E+03 -0.69684788916E+02  0.40924690779E+03  0.50400001928E-02 0. -1.
       -1    1    3    3    0  502 -0.30058961807E+02  0.40214862988E+03  0.84693395317E+03  0.93804274037E+03  0.50400001928E-02 0.  1.
</event>
<event>
 5   0  0.8657442E-05  0.1099942E+04  0.7818609E-02  0.9205249E-01
        1   -1    0    0  501    0  0.00000000000E+00  0.00000000000E+00  0.44936144534E+03  0.44936144536E+03  0.50400001928E-02 0.  1.
       -1   -1    0    0    0  501  0.00000000000E+00  0.00000000000E+00 -0.67310607251E+03  0.67310607253E+03  0.50400001928E-02 0. -1.
    10030    2    1    2    0    0  0.00000000000E+00  0.00000000000E+00 -0.22374462718E+03  0.11224675179E+04  0.10999416669E+04 0.  0.
        1    1    3    3  502    0  0.22313220445E+01 -0.35787850804E+03 -0.53801969797E+03  0.64617892317E+03  0.50400001928E-02 0. -1.
       -1    1    3    3    0  502 -0.22313220445E+01  0.35787850804E+03  0.31427507079E+03  0.47628859473E+03  0.50400001928E-02 0.  1.
</event>
<event>
 5   0  0.1540772E-04  0.1099683E+04  0.7818609E-02  0.9205501E-01
       -2   -1    0    0    0  501  0.00000000000E+00  0.00000000000E+00  0.34815049997E+03  0.34815049997E+03  0.25500000920E-02 0. -1.
        2   -1    0    0  501    0  0.00000000000E+00  0.00000000000E+00 -0.86837568764E+03  0.86837568764E+03  0.25500000920E-02 0.  1.
    10030    2    1    2    0    0  0.00000000000E+00  0.00000000000E+00 -0.52022518767E+03  0.12165261876E+04  0.10996825539E+04 0.  0.
        2    1    3    3  502    0  0.31282107571E+03  0.28297305731E+03  0.13005840370E+03  0.44141359851E+03  0.25500000920E-02 0. -1.
       -2    1    3    3    0  502 -0.31282107571E+03 -0.28297305731E+03 -0.65028359137E+03  0.77511258910E+03  0.25500000920E-02 0.  1.
</event>
<event>
 5   0  0.8657442E-05  0.1100022E+04  0.7818609E-02  0.9205171E-01
        1   -1    0    0  501    0  0.00000000000E+00  0.00000000000E+00  0.40846698403E+03  0.40846698406E+03  0.50400001928E-02 0.  1.
       -1   -1    0    0    0  501  0.00000000000E+00  0.00000000000E+00 -0.74060317345E+03  0.74060317347E+03  0.50400001928E-02 0. -1.
    10030    2    1    2    0    0  0.00000000000E+00  0.00000000000E+00 -0.33213618943E+03  0.11490701575E+04  0.11000217173E+04 0.  0.
        1    1    3    3  502    0  0.55633953170E+02 -0.48223045137E+03 -0.43619192246E+03  0.65261377416E+03  0.50400001928E-02 0. -1.
       -1    1    3    3    0  502 -0.55633953170E+02  0.48223045137E+03  0.10405573304E+03  0.49645638336E+03  0.50400001928E-02 0.  1.
</event>
<event>
 5   0  0.8921459E-05  0.1099886E+04  0.7818609E-02  0.9205303E-01
       -1   -1    0    0    0  501  0.00000000000E+00  0.00000000000E+00  0.48796486125E+03  0.48796486128E+03  0.50400001928E-02 0. -1.
        1   -1    0    0  501    0  0.00000000000E+00  0.00000000000E+00 -0.61979363106E+03  0.61979363108E+03  0.50400001928E-02 0.  1.
    10030    2    1    2    0    0  0.00000000000E+00  0.00000000000E+00 -0.13182876981E+03  0.11077584924E+04  0.10998863818E+04 0.  0.
        3    1    3    3  502    0  0.18698553848E+03 -0.17427220456E+03 -0.55633180532E+03  0.61224135820E+03  0.10100000352E+00 0.  1.
       -3    1    3    3    0  502 -0.18698553848E+03  0.17427220456E+03  0.42450303551E+03  0.49551713416E+03  0.10100000352E+00 0. -1.
</event>
<event>
 5   0  0.8657442E-05  0.1099905E+04  0.7818609E-02  0.9205285E-01
        1   -1    0    0  501    0  0.00000000000E+00  0.00000000000E+00  0.83872775445E+03  0.83872775447E+03  0.50400001928E-02 0. -1.
       -1   -1    0    0    0  501  0.00000000000E+00  0.00000000000E+00 -0.36060271987E+03  0.36060271990E+03  0.50400001928E-02 0.  1.
    10030    2    1    2    0    0  0.00000000000E+00  0.00000000000E+00  0.47812503459E+03  0.11993304744E+04  0.10999045586E+04 0.  0.
        1    1    3    3  502    0  0.18589369540E+03  0.51309049812E+03  0.16487410105E+03  0.57008928640E+03  0.50400001928E-02 0. -1.
       -1    1    3    3    0  502 -0.18589369540E+03 -0.51309049812E+03  0.31325093354E+03  0.62924118797E+03  0.50400001928E-02 0.  1.
</event>
<event>
 5   0  0.1503277E-04  0.1099943E+04  0.7818609E-02  0.9205247E-01
       -2   -1    0    0    0  501  0.00000000000E+00  0.00000000000E+00  0.46891742191E+03  0.46891742192E+03  0.25500000920E-02 0. -1.
        2   -1    0    0  501    0  0.00000000000E+00  0.00000000000E+00 -0.64503663899E+03  0.64503663899E+03  0.25500000920E-02 0.  1.
    10030    2    1    2    0    0  0.00000000000E+00  0.00000000000E+00 -0.17611921708E+03  0.11139540609E+04  0.10999434855E+04 0.  0.
        5    1    3    3  502    0 -0.12568256745E+03 -0.18065009585E+03 -0.59847959344E+03  0.63767584136E+03  0.46999998093E+01 0.  1.
       -5    1    3    3    0  502  0.12568256745E+03  0.18065009585E+03  0.42236037637E+03  0.47627821955E+03  0.46999998093E+01 0. -1.
</event>
<event>
 5   0  0.1464205E-04  0.1099945E+04  0.7818609E-02  0.9205245E-01
        2   -1    0    0  501    0  0.00000000000E+00  0.00000000000E+00  0.88309979117E+03  0.88309979118E+03  0.25500000920E-02 0. -1.
       -2   -1    0    0    0  501  0.00000000000E+00  0.00000000000E+00 -0.34250938045E+03  0.34250938046E+03  0.25500000920E-02 0.  1.
    10030    2    1    2    0    0  0.00000000000E+00  0.00000000000E+00  0.54059041072E+03  0.12256091716E+04  0.10999453848E+04 0.  0.
        3    1    3    3  502    0 -0.47652005933E+03 -0.23053413845E+03  0.10407981869E+03  0.53949047702E+03  0.10100000352E+00 0.  1.
       -3    1    3    3    0  502  0.47652005933E+03  0.23053413845E+03  0.43651059204E+03  0.68611869462E+03  0.10100000352E+00 0. -1.
</event>
<event>
 5   0  0.1553937E-04  0.1099880E+04  0.7818609E-02  0.9205309E-01
       -2   -1    0    0    0  501  0.00000000000E+00  0.00000000000E+00  0.24965636573E+03  0.24965636574E+03  0.25500000920E-02 0.  1.
        2   -1    0    0  501    0  0.00000000000E+00  0.00000000000E+00 -0.12114007387E+04  0.12114007387E+04  0.25500000920E-02 0. -1.
    10030    2    1    2    0    0  0.00000000000E+00  0.00000000000E+00 -0.96174437299E+03  0.14610571045E+04  0.10998798223E+04 0.  0.
        1    1    3    3  502    0 -0.39120974967E+03 -0.33771782634E+03 -0.23116696636E+03  0.56615948710E+03  0.50400001928E-02 0. -1.
       -1    1    3    3    0  502  0.39120974967E+03  0.33771782634E+03 -0.73057740663E+03  0.89489761737E+03  0.50400001928E-02 0.  1.
</event>
<event>
 5   0  0.8621738E-05  0.1099990E+04  0.7818609E-02  0.9205202E-01
        1   -1    0    0  501    0  0.00000000000E+00  0.00000000000E+00  0.46149222686E+03  0.46149222688E+03  0.50400001928E-02 0. -1.
       -1   -1    0    0    0  501  0.00000000000E+00  0.00000000000E+00 -0.65547042476E+03  0.65547042478E+03  0.50400001928E-02 0.  1.
    10030    2    1    2    0    0  0.00000000000E+00  0.00000000000E+00 -0.19397819790E+03  0.11169626517E+04  0.10999900108E+04 0.  0.
        2    1    3    3  502    0  0.35717813569E+03  0.23818447808E+03 -0.44607614678E+03  0.61910580271E+03  0.25500000920E-02 0.  1.
       -2    1    3    3    0  502 -0.35717813569E+03 -0.23818447808E+03  0.25209794888E+03  0.49785684895E+03  0.25500000920E-02 0. -1.
</event>
<event>
 5   0  0.8657442E-05  0.1096111E+04  0.7818609E-02  0.9208990E-01
       -1   -1    0    0    0  501  0.00000000000E+00  0.00000000000E+00  0.20971750625E+03  0.20971750631E+03  0.50400001928E-02 0.  1.
        1   -1    0    0  501    0  0.00000000000E+00  0.00000000000E+00 -0.14322364846E+04  0.14322364846E+04  0.50400001928E-02 0. -1.
    10030    2    1    2    0    0  0.00000000000E+00  0.00000000000E+00 -0.12225189784E+04  0.16419539910E+04  0.10961114249E+04 0.  0.
        1    1    3    3  502    0 -0.71640593556E+02  0.40028384493E+03 -0.11616640991E+04  0.12307814633E+04  0.50400001928E-02 0. -1.
       -1    1    3    3    0  502  0.71640593556E+02 -0.40028384493E+03 -0.60854879268E+02  0.41117252767E+03  0.50400001928E-02 0.  1.
</event>
<event>
 5   0  0.1503277E-04  0.1100224E+04  0.7818609E-02  0.9204973E-01
       -2   -1    0    0    0  501  0.00000000000E+00  0.00000000000E+00  0.25308241317E+03  0.25308241318E+03  0.25500000920E-02 0.  1.
        2   -1    0    0  501    0  0.00000000000E+00  0.00000000000E+00 -0.11957507245E+04  0.11957507245E+04  0.25500000920E-02 0. -1.
    10030    2    1    2    0    0  0.00000000000E+00  0.00000000000E+00 -0.94266831133E+03  0.14488331377E+04  0.11002244842E+04 0.  0.
        5    1    3    3  502    0 -0.12939137618E+03 -0.14986163312E+03 -0.11471767668E+04  0.11641465808E+04  0.46999998093E+01 0. -1.
       -5    1    3    3    0  502  0.12939137618E+03  0.14986163312E+03  0.20450845547E+03  0.28468655688E+03  0.46999998093E+01 0.  1.
</event>
<event>
 5   0  0.8921459E-05  0.1099683E+04  0.7818609E-02  0.9205501E-01
       -1   -1    0    0    0  501  0.00000000000E+00  0.00000000000E+00  0.36669668760E+03  0.36669668764E+03  0.50400001928E-02 0.  1.
        1   -1    0    0  501    0  0.00000000000E+00  0.00000000000E+00 -0.82445690402E+03  0.82445690403E+03  0.50400001928E-02 0. -1.
    10030    2    1    2    0    0  0.00000000000E+00  0.00000000000E+00 -0.45776021641E+03  0.11911535917E+04  0.10996828921E+04 0.  0.
        3    1    3    3  502    0 -0.26554381056E+03 -0.37367288623E+03 -0.55774704475E+03  0.72196032949E+03  0.10100000352E+00 0. -1.
       -3    1    3    3    0  502  0.26554381056E+03  0.37367288623E+03  0.99986828339E+02  0.46919326218E+03  0.10100000352E+00 0.  1.
</event>
<event>
 5   0  0.9016738E-05  0.1100508E+04  0.7818609E-02  0.9204697E-01
        1   -1    0    0  501    0  0.00000000000E+00  0.00000000000E+00  0.91881212860E+03  0.91881212862E+03  0.50400001928E-02 0.  1.
       -1   -1    0    0    0  501  0.00000000000E+00  0.00000000000E+00 -0.32953365119E+03  0.32953365123E+03  0.50400001928E-02 0. -1.
    10030    2    1    2    0    0  0.00000000000E+00  0.00000000000E+00  0.58927847741E+03  0.12483457798E+04  0.11005080927E+04 0.  0.
        4    1    3    3  502    0 -0.42593155049E+03 -0.20924174449E+03  0.61058406814E+03  0.77331384994E+03  0.12699999809E+01 0.  1.
       -4    1    3    3    0  502  0.42593155049E+03  0.20924174449E+03 -0.21305590730E+02  0.47503192991E+03  0.12699999809E+01 0. -1.
</event>
<event>
 5   0  0.1464205E-04  0.1099532E+04  0.7818609E-02  0.9205648E-01
        2   -1    0    0  501    0  0.00000000000E+00  0.00000000000E+00  0.15103818954E+04  0.15103818954E+04  0.25500000920E-02 0. -1.
       -2   -1    0    0    0  501  0.00000000000E+00  0.00000000000E+00 -0.20011014902E+03  0.20011014904E+03  0.25500000920E-02 0.  1.
    10030    2    1    2    0    0  0.00000000000E+00  0.00000000000E+00  0.13102717464E+04  0.17104920445E+04  0.10995321663E+04 0.  0.
        3    1    3    3  502    0  0.21493177135E+03 -0.45821451405E+03  0.98910023052E+03  0.11110695223E+04  0.10100000352E+00 0. -1.
       -3    1    3    3    0  502 -0.21493177135E+03  0.45821451405E+03  0.32117151588E+03  0.59942252213E+03  0.10100000352E+00 0.  1.
</event>
<event>
 5   0  0.9346836E-05  0.1100098E+04  0.7818609E-02  0.9205096E-01
       -1   -1    0    0    0  501  0.00000000000E+00  0.00000000000E+00  0.20753395937E+03  0.20753395943E+03  0.50400001928E-02 0. -1.
        1   -1    0    0  501    0  0.00000000000E+00  0.00000000000E+00 -0.14578534542E+04  0.14578534542E+04  0.50400001928E-02 0.  1.
    10030    2    1    2    0    0  0.00000000000E+00  0.00000000000E+00 -0.12503194948E+04  0.16653874136E+04  0.11000983585E+04 0.  0.
        5    1    3    3  502    0  0.33048130750E+03 -0.32664038519E+03 -0.10707065042E+04  0.11671959321E+04  0.46999998093E+01 0.  1.
       -5    1    3    3    0  502 -0.33048130750E+03  0.32664038519E+03 -0.17961299061E+03  0.49819148150E+03  0.46999998093E+01 0. -1.
</event>
<event>
 5   0  0.1503277E-04  0.1100226E+04  0.7818609E-02  0.9204972E-01
        2   -1    0    0  501    0  0.00000000000E+00  0.00000000000E+00  0.66257151880E+03  0.66257151880E+03  0.25500000920E-02 0. -1.
       -2   -1    0    0    0  501  0.00000000000E+00  0.00000000000E+00 -0.45674210075E+03  0.45674210076E+03  0.25500000920E-02 0.  1.
    10030    2    1    2    0    0  0.00000000000E+00  0.00000000000E+00  0.20582941804E+03  0.11193136196E+04  0.11002259902E+04 0.  0.
        5    1    3    3  502    0  0.37138026834E+03 -0.25242853847E+03  0.42616718754E+03  0.61909937205E+03  0.46999998093E+01 0. -1.
       -5    1    3    3    0  502 -0.37138026834E+03  0.25242853847E+03 -0.22033776950E+03  0.50021424751E+03  0.46999998093E+01 0.  1.
</event>
<event>
 5   0  0.1574101E-04  0.1099678E+04  0.7818609E-02  0.9205505E-01
        2   -1    0    0  501    0  0.00000000000E+00  0.00000000000E+00  0.16999157694E+04  0.16999157694E+04  0.25500000920E-02 0. -1.
       -2   -1    0    0    0  501  0.00000000000E+00  0.00000000000E+00 -0.17784598497E+03  0.17784598498E+03  0.25500000920E-02 0.  1.
    10030    2    1    2    0    0  0.00000000000E+00  0.00000000000E+00  0.15220697844E+04  0.18777617544E+04  0.10996784883E+04 0.  0.
        4    1    3    3  502    0 -0.23791424701E+03 -0.31420525912E+03  0.10636292069E+03  0.40821908038E+03  0.12699999809E+01 0.  1.
       -4    1    3    3    0  502  0.23791424701E+03  0.31420525912E+03  0.14157068637E+04  0.14695426740E+04  0.12699999809E+01 0. -1.
</event>
<event>
 5   0  0.1553937E-04  0.1100008E+04  0.7818609E-02  0.9205184E-01
       -2   -1    0    0    0  501  0.00000000000E+00  0.00000000000E+00  0.74833055138E+03  0.74833055139E+03  0.25500000920E-02 0.  1.
        2   -1    0    0  501    0  0.00000000000E+00  0.00000000000E+00 -0.40423877471E+03  0.40423877471E+03  0.25500000920E-02 0. -1.
    10030    2    1    2    0    0  0.00000000000E+00  0.00000000000E+00  0.34409177667E+03  0.11525693261E+04  0.11000076821E+04 0.  0.
        1    1    3    3  502    0  0.49401625458E+03 -0.86912283511E+02  0.40843283505E+03  0.64685638714E+03  0.50400001928E-02 0. -1.
       -1    1    3    3    0  502 -0.49401625458E+03  0.86912283511E+02 -0.64341058372E+02  0.50571293896E+03  0.50400001928E-02 0.  1.
</event>
<event>
 5   0  0.1553937E-04  0.1100009E+04  0.7818609E-02  0.9205183E-01
       -2   -1    0    0    0  501  0.00000000000E+00  0.00000000000E+00  0.44011545984E+03  0.44011545985E+03  0.25500000920E-02 0.  1.
        2   -1    0    0  501    0  0.00000000000E+00  0.00000000000E+00 -0.68733127406E+03  0.68733127407E+03  0.25500000920E-02 0. -1.
    10030    2    1    2    0    0  0.00000000000E+00  0.00000000000E+00 -0.24721581423E+03  0.11274467339E+04  0.11000093086E+04 0.  0.
        1    1    3    3  502    0  0.15450999457E+01  0.17694839428E+03 -0.65735817751E+03  0.68075905806E+03  0.50400001928E-02 0. -1.
       -1    1    3    3    0  502 -0.15450999457E+01 -0.17694839428E+03  0.41014236328E+03  0.44668767585E+03  0.50400001928E-02 0.  1.
</event>
<event>
 5   0  0.8621738E-05  0.1099980E+04  0.7818609E-02  0.9205211E-01
       -1   -1    0    0    0  501  0.00000000000E+00  0.00000000000E+00  0.53976151514E+03  0.53976151516E+03  0.50400001928E-02 0.  1.
        1   -1    0    0  501    0  0.00000000000E+00  0.00000000000E+00 -0.56041278225E+03  0.56041278227E+03  0.50400001928E-02 0. -1.
    10030    2    1    2    0    0  0.00000000000E+00  0.00000000000E+00 -0.20651267112E+02  0.11001742974E+04  0.10999804589E+04 0.  0.
        2    1    3    3  502    0 -0.21329280317E+02 -0.30519911670E+03  0.44679736996E+03  0.54150653629E+03  0.25500000920E-02 0.  1.
       -2    1    3    3    0  502  0.21329280317E+02  0.30519911670E+03 -0.46744863707E+03  0.55866776114E+03  0.25500000920E-02 0. -1.
</event>
<event>
 5   0  0.1553937E-04  0.1099992E+04  0.7818609E-02  0.9205200E-01
        2   -1    0    0  501    0  0.00000000000E+00  0.00000000000E+00  0.20543726157E+04  0.20543726157E+04  0.25500000920E-02 0. -1.
       -2   -1    0    0    0  501  0.00000000000E+00  0.00000000000E+00 -0.14724471010E+03  0.14724471012E+03  0.25500000920E-02 0.  1.
    10030    2    1    2    0    0  0.00000000000E+00  0.00000000000E+00  0.19071279056E+04  0.22016173258E+04  0.10999918186E+04 0.  0.
        1    1    3    3  502    0  0.26978387349E+03  0.18695412364E+03  0.18368525341E+04  0.18659481276E+04  0.50400001928E-02 0. -1.
       -1    1    3    3    0  502 -0.26978387349E+03 -0.18695412364E+03  0.70275371415E+02  0.33566919816E+03  0.50400001928E-02 0.  1.
</event>
<event>
 5   0  0.9346836E-05  0.1100229E+04  0.7818609E-02  0.9204968E-01
       -1   -1    0    0    0  501  0.00000000000E+00  0.00000000000E+00  0.65163721083E+03  0.65163721085E+03  0.50400001928E-02 0. -1.
        1   -1    0    0  501    0  0.00000000000E+00  0.00000000000E+00 -0.46440906807E+03  0.46440906810E+03  0.50400001928E-02 0.  1.
    10030    2    1    2    0    0  0.00000000000E+00  0.00000000000E+00  0.18722814276E+03  0.11160462790E+04  0.11002294848E+04 0.  0.
        5    1    3    3  502    0 -0.26717181115E+03 -0.13929698348E+03 -0.37324103420E+03  0.47970343535E+03  0.46999998093E+01 0.  1.
       -5    1    3    3    0  502  0.26717181115E+03  0.13929698348E+03  0.56046917696E+03  0.63634284360E+03  0.46999998093E+01 0. -1.
</event>
<event>
 5   0  0.8921459E-05  0.1100109E+04  0.7818609E-02  0.9205085E-01
       -1   -1    0    0    0  501  0.00000000000E+00  0.00000000000E+00  0.54504189117E+03  0.54504189119E+03  0.50400001928E-02 0.  1.
        1   -1    0    0  501    0  0.00000000000E+00  0.00000000000E+00 -0.55511349589E+03  0.55511349591E+03  0.50400001928E-02 0. -1.
    10030    2    1    2    0    0  0.00000000000E+00  0.00000000000E+00 -0.10071604723E+02  0.11001553871E+04  0.11001092848E+04 0.  0.
        3    1    3    3  502    0  0.34857330076E+03  0.19360652878E+03 -0.38396231127E+03  0.55354665626E+03  0.10100000352E+00 0. -1.
       -3    1    3    3    0  502 -0.34857330076E+03 -0.19360652878E+03  0.37389070655E+03  0.54660873084E+03  0.10100000352E+00 0.  1.
</event>
<event>
 5   0  0.1574101E-04  0.1102452E+04  0.7818609E-02  0.9202805E-01
        2   -1    0    0  501    0  0.00000000000E+00  0.00000000000E+00  0.10706791814E+04  0.10706791814E+04  0.25500000920E-02 0.  1.
       -2   -1    0    0    0  501  0.00000000000E+00  0.00000000000E+00 -0.28379185504E+03  0.28379185505E+03  0.25500000920E-02 0. -1.
    10030    2    1    2    0    0  0.00000000000E+00  0.00000000000E+00  0.78688732640E+03  0.13544710365E+04  0.11024518694E+04 0.  0.
        4    1    3    3  502    0 -0.17920588981E+03 -0.39154070947E+03  0.81624865466E+03  0.92286638103E+03  0.12699999809E+01 0.  1.
       -4    1    3    3    0  502  0.17920588981E+03  0.39154070947E+03 -0.29361328260E+02  0.43160465545E+03  0.12699999809E+01 0. -1.
</event>
<event>
 5   0  0.9016738E-05  0.1099865E+04  0.7818609E-02  0.9205324E-01
       -1   -1    0    0    0  501  0.00000000000E+00  0.00000000000E+00  0.45631778676E+03  0.45631778679E+03  0.50400001928E-02 0. -1.
        1   -1    0    0  501    0  0.00000000000E+00  0.00000000000E+00 -0.66275223164E+03  0.66275223166E+03  0.50400001928E-02 0.  1.
    10030    2    1    2    0    0  0.00000000000E+00  0.00000000000E+00 -0.20643444488E+03  0.11190700184E+04  0.10998647763E+04 0.  0.
        4    1    3    3  502    0  0.40341649524E+02  0.50598848636E+03  0.11207199996E+03  0.51982068359E+03  0.12699999809E+01 0. -1.
       -4    1    3    3    0  502 -0.40341649524E+02 -0.50598848636E+03 -0.31850644484E+03  0.59924933485E+03  0.12699999809E+01 0.  1.
</event>
<event>
 5   0  0.1464205E-04  0.1099924E+04  0.7818609E-02  0.9205266E-01
       -2   -1    0    0    0  501  0.00000000000E+00  0.00000000000E+00  0.41498876581E+03  0.41498876582E+03  0.25500000920E-02 0.  1.
        2   -1    0    0  501    0  0.00000000000E+00  0.00000000000E+00 -0.72883463725E+03  0.72883463726E+03  0.25500000920E-02 0. -1.
    10030    2    1    2    0    0  0.00000000000E+00  0.00000000000E+00 -0.31384587144E+03  0.11438234031E+04  0.10999239730E+04 0.  0.
        3    1    3    3  502    0  0.33696181521E+03 -0.44586277346E+02  0.29268327298E+03  0.44854733253E+03  0.10100000352E+00 0.  1.
       -3    1    3    3    0  502 -0.33696181521E+03  0.44586277346E+02 -0.60652914442E+03  0.69527607054E+03  0.10100000352E+00 0. -1.
</event>
<event>
 5   0  0.1464205E-04  0.1099694E+04  0.7818609E-02  0.9205490E-01
       -2   -1    0    0    0  501  0.00000000000E+00  0.00000000000E+00  0.34212418337E+03  0.34212418338E+03  0.25500000920E-02 0.  1.
        2   -1    0    0  501    0  0.00000000000E+00  0.00000000000E+00 -0.88368989339E+03  0.88368989340E+03  0.25500000920E-02 0. -1.
    10030    2    1    2    0    0  0.00000000000E+00  0.00000000000E+00 -0.54156571003E+03  0.12258140768E+04  0.10996939268E+04 0.  0.
        3    1    3    3  502    0 -0.13835563251E+03 -0.16065625321E+03  0.29472585547E+03  0.36306480527E+03  0.10100000352E+00 0.  1.
       -3    1    3    3    0  502  0.13835563251E+03  0.16065625321E+03 -0.83629156550E+03  0.86274927150E+03  0.10100000352E+00 0. -1.
</event>
<event>
 5   0  0.1464205E-04  0.1099865E+04  0.7818609E-02  0.9205323E-01
        2   -1    0    0  501    0  0.00000000000E+00  0.00000000000E+00  0.18945705943E+04  0.18945705943E+04  0.25500000920E-02 0.  1.
       -2   -1    0    0    0  501  0.00000000000E+00  0.00000000000E+00 -0.15962761828E+03  0.15962761830E+03  0.25500000920E-02 0. -1.
    10030    2    1    2    0    0  0.00000000000E+00  0.00000000000E+00  0.17349429760E+04  0.20541982126E+04  0.10998650674E+04 0.  0.
        3    1    3    3  502    0 -0.48062124441E+03  0.12532687952E+03  0.13083480028E+04  0.13994563637E+04  0.10100000352E+00 0.  1.
       -3    1    3    3    0  502  0.48062124441E+03 -0.12532687952E+03  0.42659497325E+03  0.65474184891E+03  0.10100000352E+00 0. -1.
</event>
<event>
 5   0  0.8621738E-05  0.1100273E+04  0.7818609E-02  0.9204926E-01
       -1   -1    0    0    0  501  0.00000000000E+00  0.00000000000E+00  0.38127725554E+03  0.38127725557E+03  0.50400001928E-02 0.  1.
        1   -1    0    0  501    0  0.00000000000E+00  0.00000000000E+00 -0.79378021882E+03  0.79378021884E+03  0.50400001928E-02 0. -1.
    10030    2    1    2    0    0  0.00000000000E+00  0.00000000000E+00 -0.41250296329E+03  0.11750574744E+04  0.11002733176E+04 0.  0.
        2    1    3    3  502    0 -0.14983072599E+03  0.34916201009E+03 -0.63114600686E+03  0.73668761203E+03  0.25500000920E-02 0. -1.
       -2    1    3    3    0  502  0.14983072599E+03 -0.34916201009E+03  0.21864304357E+03  0.43836986238E+03  0.25500000920E-02 0.  1.
</event>
<event>
 5   0  0.1503277E-04  0.1099869E+04  0.7818609E-02  0.9205319E-01
       -2   -1    0    0    0  501  0.00000000000E+00  0.00000000000E+00  0.28317356266E+03  0.28317356267E+03  0.25500000920E-02 0. -1.
        2   -1    0    0  501    0  0.00000000000E+00  0.00000000000E+00 -0.10679956073E+04  0.10679956073E+04  0.25500000920E-02 0.  1.
    10030    2    1    2    0    0  0.00000000000E+00  0.00000000000E+00 -0.78482204465E+03  0.13511691700E+04  0.10998693032E+04 0.  0.
        5    1    3    3  502    0  0.25527761774E+03 -0.42810705452E+03 -0.10703361950E+03  0.50982408530E+03  0.46999998093E+01 0. -1.
       -5    1    3    3    0  502 -0.25527761774E+03  0.42810705452E+03 -0.67778842514E+03  0.84134508467E+03  0.46999998093E+01 0.  1.
</event>
<event>
 5   0  0.1503277E-04  0.1100072E+04  0.7818609E-02  0.9205122E-01
        2   -1    0    0  501    0  0.00000000000E+00  0.00000000000E+00  0.70782706358E+03  0.70782706358E+03  0.25500000920E-02 0. -1.
       -2   -1    0    0    0  501  0.00000000000E+00  0.00000000000E+00 -0.42741984231E+03  0.42741984231E+03  0.25500000920E-02 0.  1.
    10030    2    1    2    0    0  0.00000000000E+00  0.00000000000E+00  0.28040722127E+03  0.11352469059E+04  0.11000715102E+04 0.  0.
        5    1    3    3  502    0 -0.28001883456E+03  0.40675466361E+03  0.39014062853E+03  0.62935816838E+03  0.46999998093E+01 0. -1.
       -5    1    3    3    0  502  0.28001883456E+03 -0.40675466361E+03 -0.10973340726E+03  0.50588873752E+03  0.46999998093E+01 0.  1.
</event>
<event>
 5   0  0.1574101E-04  0.1101015E+04  0.7818609E-02  0.9204203E-01
        2   -1    0    0  501    0  0.00000000000E+00  0.00000000000E+00  0.16069560092E+04  0.16069560092E+04  0.25500000920E-02 0.  1.
       -2   -1    0    0    0  501  0.00000000000E+00  0.00000000000E+00 -0.18859182022E+03  0.18859182024E+03  0.25500000920E-02 0. -1.
    10030    2    1    2    0    0  0.00000000000E+00  0.00000000000E+00  0.14183641890E+04  0.17955478294E+04  0.11010154564E+04 0.  0.
        4    1    3    3  502    0  0.30785268558E+03 -0.27777921554E+03  0.11865163825E+03  0.43129385894E+03  0.12699999809E+01 0. -1.
       -4    1    3    3    0  502 -0.30785268558E+03  0.27777921554E+03  0.12997125507E+04  0.13642539705E+04  0.12699999809E+01 0.  1.
</event>
<event>
 5   0  0.1574101E-04  0.1099932E+04  0.7818609E-02  0.9205258E-01
        2   -1    0    0  501    0  0.00000000000E+00  0.00000000000E+00  0.12159402989E+04  0.12159402989E+04  0.25500000920E-02 0.  1.
       -2   -1    0    0    0  501  0.00000000000E+00  0.00000000000E+00 -0.24874779584E+03  0.24874779585E+03  0.25500000920E-02 0. -1.
    10030    2    1    2    0    0  0.00000000000E+00  0.00000000000E+00  0.96719250301E+03  0.14646880947E+04  0.10999317601E+04 0.  0.
        4    1    3    3  502    0  0.13519352798E+03  0.37691494644E+03  0.98559774156E+03  0.10638358369E+04  0.12699999809E+01 0.  1.
       -4    1    3    3    0  502 -0.13519352798E+03 -0.37691494644E+03 -0.18405238554E+02  0.40085225778E+03  0.12699999809E+01 0. -1.
</event>
<event>
 5   0  0.8621738E-05  0.1099894E+04  0.7818609E-02  0.9205295E-01
        1   -1    0    0  501    0  0.00000000000E+00  0.00000000000E+00  0.10095266479E+04  0.10095266479E+04  0.50400001928E-02 0. -1.
       -1   -1    0    0    0  501  0.00000000000E+00  0.00000000000E+00 -0.29958748717E+03  0.29958748721E+03  0.50400001928E-02 0.  1.
    10030    2    1    2    0    0  0.00000000000E+00  0.00000000000E+00  0.70993916074E+03  0.13091141351E+04  0.10998937253E+04 0.  0.
        2    1    3    3  502    0  0.16791194433E+03 -0.26492756859E+03 -0.18268862228E+03  0.36298232789E+03  0.25500000920E-02 0.  1.
       -2    1    3    3    0  502 -0.16791194433E+03  0.26492756859E+03  0.89262778302E+03  0.94613180724E+03  0.25500000920E-02 0. -1.
</event>
<event>
 5   0  0.1464205E-04  0.1100022E+04  0.7818609E-02  0.9205170E-01
        2   -1    0    0  501    0  0.00000000000E+00  0.00000000000E+00  0.56117333677E+03  0.56117333678E+03  0.25500000920E-02 0. -1.
       -2   -1    0    0    0  501  0.00000000000E+00  0.00000000000E+00 -0.53907114764E+03  0.53907114765E+03  0.25500000920E-02 0.  1.
    10030    2    1    2    0    0  0.00000000000E+00  0.00000000000E+00  0.22102189135E+02  0.11002444844E+04  0.11000224628E+04 0.  0.
        3    1    3    3  502    0 -0.40759686491E+03  0.17186303795E+03 -0.31587912530E+03  0.54355472594E+03  0.10100000352E+00 0.  1.
       -3    1    3    3    0  502  0.40759686491E+03 -0.17186303795E+03  0.33798131443E+03  0.55668975848E+03  0.10100000352E+00 0. -1.
</event>
<event>
 5   0  0.9016738E-05  0.1104436E+04  0.7818609E-02  0.9200879E-01
        1   -1    0    0  501    0  0.00000000000E+00  0.00000000000E+00  0.15853302968E+04  0.15853302968E+04  0.50400001928E-02 0.  1.
       -1   -1    0    0    0  501  0.00000000000E+00  0.00000000000E+00 -0.19235408133E+03  0.19235408140E+03  0.50400001928E-02 0. -1.
    10030    2    1    2    0    0  0.00000000000E+00  0.00000000000E+00  0.13929762155E+04  0.17776843782E+04  0.11044360605E+04 0.  0.
        4    1    3    3  502    0 -0.15035116608E+03  0.11073779408E+03  0.15329691751E+04  0.15443006303E+04  0.12699999809E+01 0.  1.
       -4    1    3    3    0  502  0.15035116608E+03 -0.11073779408E+03 -0.13999295956E+03  0.23338374794E+03  0.12699999809E+01 0. -1.
</event>
<event>
 5   0  0.1553937E-04  0.1099672E+04  0.7818609E-02  0.9205511E-01
        2   -1    0    0  501    0  0.00000000000E+00  0.00000000000E+00  0.93525826254E+03  0.93525826255E+03  0.25500000920E-02 0.  1.
       -2   -1    0    0    0  501  0.00000000000E+00  0.00000000000E+00 -0.32324730149E+03  0.32324730150E+03  0.25500000920E-02 0. -1.
    10030    2    1    2    0    0  0.00000000000E+00  0.00000000000E+00  0.61201096105E+03  0.12585055640E+04  0.10996721504E+04 0.  0.
        1    1    3    3  502    0 -0.25572652733E+03  0.17458016233E+03  0.82599493889E+03  0.88212353384E+03  0.50400001928E-02 0.  1.
       -1    1    3    3    0  502  0.25572652733E+03 -0.17458016233E+03 -0.21398397784E+03  0.37638203020E+03  0.50400001928E-02 0. -1.
</event>
<event>
 5   0  0.1540772E-04  0.1100252E+04  0.7818609E-02  0.9204946E-01
       -2   -1    0    0    0  501  0.00000000000E+00  0.00000000000E+00  0.68983551887E+03  0.68983551888E+03  0.25500000920E-02 0. -1.
        2   -1    0    0  501    0  0.00000000000E+00  0.00000000000E+00 -0.43871123293E+03  0.43871123294E+03  0.25500000920E-02 0.  1.
    10030    2    1    2    0    0  0.00000000000E+00  0.00000000000E+00  0.25112428594E+03  0.11285467518E+04  0.11002519548E+04 0.  0.
        2    1    3    3  502    0 -0.17750466360E+03 -0.40446834932E+03  0.46192220638E+03  0.63912023591E+03  0.25500000920E-02 0. -1.
       -2    1    3    3    0  502  0.17750466360E+03  0.40446834932E+03 -0.21079792044E+03  0.48942651590E+03  0.25500000920E-02 0.  1.
</event>
<event>
 5   0  0.9016738E-05  0.1101523E+04  0.7818609E-02  0.9203709E-01
       -1   -1    0    0    0  501  0.00000000000E+00  0.00000000000E+00  0.29955784587E+03  0.29955784592E+03  0.50400001928E-02 0.  1.
        1   -1    0    0  501    0  0.00000000000E+00  0.00000000000E+00 -0.10126191700E+04  0.10126191700E+04  0.50400001928E-02 0. -1.
    10030    2    1    2    0    0  0.00000000000E+00  0.00000000000E+00 -0.71306132409E+03  0.13121770159E+04  0.11015226140E+04 0.  0.
        4    1    3    3  502    0 -0.37842770623E+03 -0.28481636921E+03 -0.21691729744E+02  0.47413082272E+03  0.12699999809E+01 0.  1.
       -4    1    3    3    0  502  0.37842770623E+03  0.28481636921E+03 -0.69136959434E+03  0.83804619317E+03  0.12699999809E+01 0. -1.
</event>
<event>
 5   0  0.8621738E-05  0.1100235E+04  0.7818609E-02  0.9204963E-01
        1   -1    0    0  501    0  0.00000000000E+00  0.00000000000E+00  0.14430093775E+04  0.14430093775E+04  0.50400001928E-02 0.  1.
       -1   -1    0    0    0  501  0.00000000000E+00  0.00000000000E+00 -0.20972103720E+03  0.20972103726E+03  0.50400001928E-02 0. -1.
    10030    2    1    2    0    0  0.00000000000E+00  0.00000000000E+00  0.12332883403E+04  0.16527304148E+04  0.11002352901E+04 0.  0.
        2    1    3    3  502    0 -0.39088605947E+03 -0.10523665026E+02  0.35389884161E+02  0.39262590709E+03  0.25500000920E-02 0. -1.
       -2    1    3    3    0  502  0.39088605947E+03  0.10523665026E+02  0.11978984561E+04  0.12601045077E+04  0.25500000920E-02 0.  1.
</event>
<event>
 5   0  0.1574101E-04  0.1098765E+04  0.7818609E-02  0.9206396E-01
       -2   -1    0    0    0  501  0.00000000000E+00  0.00000000000E+00  0.34511510992E+03  0.34511510993E+03  0.25500000920E-02 0.  1.
        2   -1    0    0  501    0  0.00000000000E+00  0.00000000000E+00 -0.87455244716E+03  0.87455244716E+03  0.25500000920E-02 0. -1.
    10030    2    1    2    0    0  0.00000000000E+00  0.00000000000E+00 -0.52943733723E+03  0.12196675571E+04  0.10987652414E+04 0.  0.
        4    1    3    3  502    0 -0.28524728313E+03 -0.37300128861E+03  0.51833332537E+02  0.47242383630E+03  0.12699999809E+01 0.  1.
       -4    1    3    3    0  502  0.28524728313E+03  0.37300128861E+03 -0.58127066977E+03  0.74724372080E+03  0.12699999809E+01 0. -1.
</event>
<event>
 5   0  0.1574101E-04  0.1100090E+04  0.7818609E-02  0.9205104E-01
       -2   -1    0    0    0  501  0.00000000000E+00  0.00000000000E+00  0.22583831630E+03  0.22583831632E+03  0.25500000920E-02 0. -1.
        2   -1    0    0  501    0  0.00000000000E+00  0.00000000000E+00 -0.13396728254E+04  0.13396728254E+04  0.25500000920E-02 0.  1.
    10030    2    1    2    0    0  0.00000000000E+00  0.00000000000E+00 -0.11138345091E+04  0.15655111417E+04  0.11000899150E+04 0.  0.
        4    1    3    3  502    0 -0.34644734264E+03  0.42665954147E+03 -0.52561875044E+03  0.76048721834E+03  0.12699999809E+01 0. -1.
       -4    1    3    3    0  502  0.34644734264E+03 -0.42665954147E+03 -0.58821575863E+03  0.80502392334E+03  0.12699999809E+01 0.  1.
</event>
<event>
 5   0  0.9016738E-05  0.1101191E+04  0.7818609E-02  0.9204032E-01
        1   -1    0    0  501    0  0.00000000000E+00  0.00000000000E+00  0.16360769146E+04  0.16360769146E+04  0.50400001928E-02 0. -1.
       -1   -1    0    0    0  501  0.00000000000E+00  0.00000000000E+00 -0.18529397219E+03  0.18529397226E+03  0.50400001928E-02 0.  1.
    10030    2    1    2    0    0  0.00000000000E+00  0.00000000000E+00  0.14507829424E+04  0.18213708869E+04  0.11011906109E+04 0.  0.
        4    1    3    3  502    0  0.40889338408E+03  0.72840345995E+02  0.12753442964E+03  0.43447227666E+03  0.12699999809E+01 0.  1.
       -4    1    3    3    0  502 -0.40889338408E+03 -0.72840345995E+02  0.13232485128E+04  0.13868986102E+04  0.12699999809E+01 0. -1.
</event>
<event>
 5   0  0.8621738E-05  0.1099664E+04  0.7818609E-02  0.9205520E-01
       -1   -1    0    0    0  501  0.00000000000E+00  0.00000000000E+00  0.74195479831E+03  0.74195479833E+03  0.50400001928E-02 0. -1.
        1   -1    0    0  501    0  0.00000000000E+00  0.00000000000E+00 -0.40745738233E+03  0.40745738236E+03  0.50400001928E-02 0.  1.
    10030    2    1    2    0    0  0.00000000000E+00  0.00000000000E+00  0.33449741598E+03  0.11494121807E+04  0.10996635121E+04 0.  0.
        2    1    3    3  502    0 -0.21531932624E+03 -0.45843476928E+03 -0.56418246159E+02  0.50961541229E+03  0.25500000920E-02 0.  1.
       -2    1    3    3    0  502  0.21531932624E+03  0.45843476928E+03  0.39091566214E+03  0.63979676840E+03  0.25500000920E-02 0. -1.
</event>
<event>
 5   0  0.1503277E-04  0.1100146E+04  0.7818609E-02  0.9205049E-01
        2   -1    0    0  501    0  0.00000000000E+00  0.00000000000E+00  0.85327243491E+03  0.85327243491E+03  0.25500000920E-02 0. -1.
       -2   -1    0    0    0  501  0.00000000000E+00  0.00000000000E+00 -0.35461169037E+03  0.35461169038E+03  0.25500000920E-02 0.  1.
    10030    2    1    2    0    0  0.00000000000E+00  0.00000000000E+00  0.49866074454E+03  0.12078841253E+04  0.11001461367E+04 0.  0.
        5    1    3    3  502    0 -0.23365139301E+03  0.24005770395E+03  0.72833224136E+03  0.80169234653E+03  0.46999998093E+01 0. -1.
       -5    1    3    3    0  502  0.23365139301E+03 -0.24005770395E+03 -0.22967149682E+03  0.40619177876E+03  0.46999998093E+01 0.  1.
</event>
<event>
 5   0  0.1503277E-04  0.1096840E+04  0.7818609E-02  0.9208277E-01
       -2   -1    0    0    0  501  0.00000000000E+00  0.00000000000E+00  0.65073805626E+03  0.65073805627E+03  0.25500000920E-02 0. -1.
        2   -1    0    0  501    0  0.00000000000E+00  0.00000000000E+00 -0.46218988848E+03  0.46218988848E+03  0.25500000920E-02 0.  1.
    10030    2    1    2    0    0  0.00000000000E+00  0.00000000000E+00  0.18854816779E+03  0.11129279447E+04  0.10968400971E+04 0.  0.
        5    1    3    3  502    0 -0.38254608346E+03 -0.27614981129E+03 -0.18936537244E+03  0.50841081668E+03  0.46999998093E+01 0.  1.
       -5    1    3    3    0  502  0.38254608346E+03  0.27614981129E+03  0.37791354022E+03  0.60451712807E+03  0.46999998093E+01 0. -1.
</event>
<event>
 5   0  0.8921459E-05  0.1100062E+04  0.7818609E-02  0.9205132E-01
       -1   -1    0    0    0  501  0.00000000000E+00  0.00000000000E+00  0.27414439349E+03  0.27414439354E+03  0.50400001928E-02 0.  1.
        1   -1    0    0  501    0  0.00000000000E+00  0.00000000000E+00 -0.11035569307E+04  0.11035569307E+04  0.50400001928E-02 0. -1.
    10030    2    1    2    0    0  0.00000000000E+00  0.00000000000E+00 -0.82941253722E+03  0.13777013243E+04  0.11000617173E+04 0.  0.
        3    1    3    3  502    0 -0.15878187649E+03 -0.52544390075E+03 -0.37076630737E+03  0.66239764644E+03  0.10100000352E+00 0.  1.
       -3    1    3    3    0  502  0.15878187649E+03  0.52544390075E+03 -0.45864622985E+03  0.71530367781E+03  0.10100000352E+00 0. -1.
</event>
<event>
 5   0  0.1540772E-04  0.1100015E+04  0.7818609E-02  0.9205177E-01
       -2   -1    0    0    0  501  0.00000000000E+00  0.00000000000E+00  0.49383818181E+03  0.49383818181E+03  0.25500000920E-02 0.  1.
        2   -1    0    0  501    0  0.00000000000E+00  0.00000000000E+00 -0.61256547471E+03  0.61256547471E+03  0.25500000920E-02 0. -1.
    10030    2    1    2    0    0  0.00000000000E+00  0.00000000000E+00 -0.11872729290E+03  0.11064036565E+04  0.11000149459E+04 0.  0.
        2    1    3    3  502    0  0.26949058157E+03 -0.32674378759E+03 -0.41228833731E+03  0.59107389502E+03  0.25500000920E-02 0. -1.
       -2    1    3    3    0  502 -0.26949058157E+03  0.32674378759E+03  0.29356104441E+03  0.51532976150E+03  0.25500000920E-02 0.  1.
</event>
<event>
 5   0  0.9016738E-05  0.1100581E+04  0.7818609E-02  0.9204626E-01
        1   -1    0    0  501    0  0.00000000000E+00  0.00000000000E+00  0.38734062980E+03  0.38734062983E+03  0.50400001928E-02 0. -1.
       -1   -1    0    0    0  501  0.00000000000E+00  0.00000000000E+00 -0.78179119927E+03  0.78179119929E+03  0.50400001928E-02 0.  1.
    10030    2    1    2    0    0  0.00000000000E+00  0.00000000000E+00 -0.39445056947E+03  0.11691318291E+04  0.11005807477E+04 0.  0.
        4    1    3    3  502    0 -0.44625951969E+03 -0.31873706886E+03 -0.14881247292E+03  0.56823203269E+03  0.12699999809E+01 0.  1.
       -4    1    3    3    0  502  0.44625951969E+03  0.31873706886E+03 -0.24563809655E+03  0.60089979643E+03  0.12699999809E+01 0. -1.
</event>
<event>
 5   0  0.1464205E-04  0.1100275E+04  0.7818609E-02  0.9204924E-01
        2   -1    0    0  501    0  0.00000000000E+00  0.00000000000E+00  0.63243124883E+03  0.63243124884E+03  0.25500000920E-02 0. -1.
       -2   -1    0    0    0  501  0.00000000000E+00  0.00000000000E+00 -0.47855172198E+03  0.47855172199E+03  0.25500000920E-02 0.  1.
    10030    2    1    2    0    0  0.00000000000E+00  0.00000000000E+00  0.15387952685E+03  0.11109829708E+04  0.11002746260E+04 0.  0.
        3    1    3    3  502    0 -0.17396045352E+03 -0.50761543635E+03  0.19942735070E+03  0.57245694075E+03  0.10100000352E+00 0.  1.
       -3    1    3    3    0  502  0.17396045352E+03  0.50761543635E+03 -0.45547823845E+02  0.53852603007E+03  0.10100000352E+00 0. -1.
</event>
<event>
 5   0  0.1503277E-04  0.1099889E+04  0.7818609E-02  0.9205300E-01
       -2   -1    0    0    0  501  0.00000000000E+00  0.00000000000E+00  0.47171942208E+03  0.47171942209E+03  0.25500000920E-02 0. -1.
        2   -1    0    0  501    0  0.00000000000E+00  0.00000000000E+00 -0.64114154610E+03  0.64114154611E+03  0.25500000920E-02 0.  1.
    10030    2    1    2    0    0  0.00000000000E+00  0.00000000000E+00 -0.16942212402E+03  0.11128609682E+04  0.10998889391E+04 0.  0.
        5    1    3    3  502    0 -0.32225455466E+03 -0.32969468462E+03  0.21860823614E+03  0.51025310775E+03  0.46999998093E+01 0. -1.
       -5    1    3    3    0  502  0.32225455466E+03  0.32969468462E+03 -0.38803036016E+03  0.60260786044E+03  0.46999998093E+01 0.  1.
</event>
<event>
 5   0  0.1540772E-04  0.1099940E+04  0.7818609E-02  0.9205251E-01
        2   -1    0    0  501    0  0.00000000000E+00  0.00000000000E+00  0.12930072144E+04  0.12930072144E+04  0.25500000920E-02 0.  1.
       -2   -1    0    0    0  501  0.00000000000E+00  0.00000000000E+00 -0.23392514298E+03  0.23392514300E+03  0.25500000920E-02 0. -1.
    10030    2    1    2    0    0  0.00000000000E+00  0.00000000000E+00  0.10590820714E+04  0.15269323574E+04  0.10999398120E+04 0.  0.
        2    1    3    3  502    0  0.95923278470E+02 -0.35415039377E+03  0.10982664684E+04  0.11579348049E+04  0.25500000920E-02 0.  1.
       -2    1    3    3    0  502 -0.95923278470E+02  0.35415039377E+03 -0.39184397009E+02  0.36899755248E+03  0.25500000920E-02 0. -1.
</event>
<event>
 5   0  0.8657442E-05  0.1099986E+04  0.7818609E-02  0.9205206E-01
        1   -1    0    0  501    0  0.00000000000E+00  0.00000000000E+00  0.96753393559E+03  0.96753393561E+03  0.50400001928E-02 0.  1.
       -1   -1    0    0    0  501  0.00000000000E+00  0.00000000000E+00 -0.31264257557E+03  0.31264257561E+03  0.50400001928E-02 0. -1.
    10030    2    1    2    0    0  0.00000000000E+00  0.00000000000E+00  0.65489136003E+03  0.12801765112E+04  0.10999860028E+04 0.  0.
        1    1    3    3  502    0 -0.36320621842E+03  0.40930264216E+03  0.39166543049E+03  0.67294072506E+03  0.50400001928E-02 0.  1.
       -1    1    3    3    0  502  0.36320621842E+03 -0.40930264216E+03  0.26322592953E+03  0.60723578615E+03  0.50400001928E-02 0. -1.
</event>
<event>
 5   0  0.1540772E-04  0.1100794E+04  0.7818609E-02  0.9204418E-01
       -2   -1    0    0    0  501  0.00000000000E+00  0.00000000000E+00  0.71146031819E+03  0.71146031820E+03  0.25500000920E-02 0. -1.
        2   -1    0    0  501    0  0.00000000000E+00  0.00000000000E+00 -0.42579585717E+03  0.42579585718E+03  0.25500000920E-02 0.  1.
    10030    2    1    2    0    0  0.00000000000E+00  0.00000000000E+00  0.28566446102E+03  0.11372561754E+04  0.11007939971E+04 0.  0.
        2    1    3    3  502    0  0.55800733750E+02 -0.49781106173E+02  0.70618774958E+03  0.71013591521E+03  0.25500000920E-02 0. -1.
       -2    1    3    3    0  502 -0.55800733750E+02  0.49781106173E+02 -0.42052328855E+03  0.42712026016E+03  0.25500000920E-02 0.  1.
</event>
<event>
 5   0  0.8921459E-05  0.1098802E+04  0.7818609E-02  0.9206360E-01
        1   -1    0    0  501    0  0.00000000000E+00  0.00000000000E+00  0.90377448641E+03  0.90377448643E+03  0.50400001928E-02 0. -1.
       -1   -1    0    0    0  501  0.00000000000E+00  0.00000000000E+00 -0.33397874341E+03  0.33397874345E+03  0.50400001928E-02 0.  1.
    10030    2    1    2    0    0  0.00000000000E+00  0.00000000000E+00  0.56979574300E+03  0.12377532299E+04  0.10988020155E+04 0.  0.
        3    1    3    3  502    0 -0.18672742319E+03 -0.31244617936E+03  0.74846156662E+03  0.83227668024E+03  0.10100000352E+00 0. -1.
       -3    1    3    3    0  502  0.18672742319E+03  0.31244617936E+03 -0.17866582362E+03  0.40547654963E+03  0.10100000352E+00 0.  1.
</event>
<event>
 5   0  0.9016738E-05  0.1100115E+04  0.7818609E-02  0.9205079E-01
        1   -1    0    0  501    0  0.00000000000E+00  0.00000000000E+00  0.26187581539E+03  0.26187581544E+03  0.50400001928E-02 0. -1.
       -1   -1    0    0    0  501  0.00000000000E+00  0.00000000000E+00 -0.11553698896E+04  0.11553698896E+04  0.50400001928E-02 0.  1.
    10030    2    1    2    0    0  0.00000000000E+00  0.00000000000E+00 -0.89349407421E+03  0.14172457050E+04  0.11001153248E+04 0.  0.
        4    1    3    3  502    0  0.33733810752E+03  0.42796933180E+03 -0.54321319345E+03  0.76943936355E+03  0.12699999809E+01 0. -1.
       -4    1    3    3    0  502 -0.33733810752E+03 -0.42796933180E+03 -0.35028088077E+03  0.64780634149E+03  0.12699999809E+01 0.  1.
</event>
<event>
 5   0  0.1464205E-04  0.1100661E+04  0.7818609E-02  0.9204548E-01
        2   -1    0    0  501    0  0.00000000000E+00  0.00000000000E+00  0.10783174848E+04  0.10783174848E+04  0.25500000920E-02 0. -1.
       -2   -1    0    0    0  501  0.00000000000E+00  0.00000000000E+00 -0.28086698753E+03  0.28086698754E+03  0.25500000920E-02 0.  1.
    10030    2    1    2    0    0  0.00000000000E+00  0.00000000000E+00  0.79745049724E+03  0.13591844723E+04  0.11006612259E+04 0.  0.
        3    1    3    3  502    0 -0.76714052156E+02 -0.12463711206E+03  0.10538454317E+04  0.10639594258E+04  0.10100000352E+00 0. -1.
       -3    1    3    3    0  502  0.76714052156E+02  0.12463711206E+03 -0.25639493447E+03  0.29522504657E+03  0.10100000352E+00 0.  1.
</event>
<event>
 5   0  0.8657442E-05  0.1099746E+04  0.7818609E-02  0.9205439E-01
       -1   -1    0    0    0  501  0.00000000000E+00  0.00000000000E+00  0.14226488340E+03  0.14226488349E+03  0.50400001928E-02 0.  1.
        1   -1    0    0  501    0  0.00000000000E+00  0.00000000000E+00 -0.21253349117E+04  0.21253349117E+04  0.50400001928E-02 0. -1.
    10030    2    1    2    0    0  0.00000000000E+00  0.00000000000E+00 -0.19830700283E+04  0.22675997952E+04  0.10997463771E+04 0.  0.
        1    1    3    3  502    0  0.39206956998E+03  0.26847560164E+03 -0.15620707473E+04  0.16327469846E+04  0.50400001928E-02 0. -1.
       -1    1    3    3    0  502 -0.39206956998E+03 -0.26847560164E+03 -0.42099928100E+03  0.63485281050E+03  0.50400001928E-02 0.  1.
</event>
<event>
 5   0  0.8621738E-05  0.1100255E+04  0.7818609E-02  0.9204943E-01
       -1   -1    0    0    0  501  0.00000000000E+00  0.00000000000E+00  0.12273515266E+04  0.12273515266E+04  0.50400001928E-02 0.  1.
        1   -1    0    0  501    0  0.00000000000E+00  0.00000000000E+00 -0.24658003132E+03  0.24658003137E+03  0.50400001928E-02 0. -1.
    10030    2    1    2    0    0  0.00000000000E+00  0.00000000000E+00  0.98077149524E+03  0.14739315579E+04  0.11002552030E+04 0.  0.
        2    1    3    3  502    0 -0.34819922807E+03  0.42262706347E+03  0.41970165683E+03  0.68993174877E+03  0.25500000920E-02 0. -1.
       -2    1    3    3    0  502  0.34819922807E+03 -0.42262706347E+03  0.56106983841E+03  0.78399980917E+03  0.25500000920E-02 0.  1.
</event>
<event>
 5   0  0.8621738E-05  0.1100531E+04  0.7818609E-02  0.9204675E-01
        1   -1    0    0  501    0  0.00000000000E+00  0.00000000000E+00  0.58833202802E+03  0.58833202805E+03  0.50400001928E-02 0. -1.
       -1   -1    0    0    0  501  0.00000000000E+00  0.00000000000E+00 -0.51466169197E+03  0.51466169199E+03  0.50400001928E-02 0.  1.
    10030    2    1    2    0    0  0.00000000000E+00  0.00000000000E+00  0.73670336056E+02  0.11029937200E+04  0.11005307029E+04 0.  0.
        2    1    3    3  502    0  0.29034900576E+03  0.17499587469E+03  0.47124015682E+03  0.58051131489E+03  0.25500000920E-02 0. -1.
       -2    1    3    3    0  502 -0.29034900576E+03 -0.17499587469E+03 -0.39756982076E+03  0.52248240515E+03  0.25500000920E-02 0.  1.
</event>
<event>
 5   0  0.1574101E-04  0.1100149E+04  0.7818609E-02  0.9205047E-01
       -2   -1    0    0    0  501  0.00000000000E+00  0.00000000000E+00  0.25113559780E+03  0.25113559781E+03  0.25500000920E-02 0.  1.
        2   -1    0    0  501    0  0.00000000000E+00  0.00000000000E+00 -0.12048549632E+04  0.12048549632E+04  0.25500000920E-02 0. -1.
    10030    2    1    2    0    0  0.00000000000E+00  0.00000000000E+00 -0.95371936541E+03  0.14559905610E+04  0.11001490289E+04 0.  0.
        4    1    3    3  502    0  0.45250644639E+03 -0.31275780070E+03 -0.47565205067E+03  0.72720424375E+03  0.12699999809E+01 0. -1.
       -4    1    3    3    0  502 -0.45250644639E+03  0.31275780070E+03 -0.47806731475E+03  0.72878631728E+03  0.12699999809E+01 0.  1.
</event>
<event>
 5   0  0.9016738E-05  0.1099686E+04  0.7818609E-02  0.9205498E-01
       -1   -1    0    0    0  501  0.00000000000E+00  0.00000000000E+00  0.21038655816E+03  0.21038655822E+03  0.50400001928E-02 0. -1.
        1   -1    0    0  501    0  0.00000000000E+00  0.00000000000E+00 -0.14370084367E+04  0.14370084368E+04  0.50400001928E-02 0.  1.
    10030    2    1    2    0    0  0.00000000000E+00  0.00000000000E+00 -0.12266218786E+04  0.16473949950E+04  0.10996858808E+04 0.  0.
        4    1    3    3  502    0 -0.80115550186E+02 -0.53340045487E+03 -0.45342439454E+03  0.70464873597E+03  0.12699999809E+01 0. -1.
       -4    1    3    3    0  502  0.80115550186E+02  0.53340045487E+03 -0.77319748404E+03  0.94274625900E+03  0.12699999809E+01 0.  1.
</event>
<event>
 5   0  0.9016738E-05  0.1099884E+04  0.7818609E-02  0.9205305E-01
        1   -1    0    0  501    0  0.00000000000E+00  0.00000000000E+00  0.74315380719E+03  0.74315380721E+03  0.50400001928E-02 0. -1.
       -1   -1    0    0    0  501  0.00000000000E+00  0.00000000000E+00 -0.40696309277E+03  0.40696309281E+03  0.50400001928E-02 0.  1.
    10030    2    1    2    0    0  0.00000000000E+00  0.00000000000E+00  0.33619071442E+03  0.11501169000E+04  0.10998839426E+04 0.  0.
        4    1    3    3  502    0 -0.50838050564E+01 -0.34104880144E+03  0.61918391315E+03  0.70691616281E+03  0.12699999809E+01 0. -1.
       -4    1    3    3    0  502  0.50838050564E+01  0.34104880144E+03 -0.28299319873E+03  0.44320073721E+03  0.12699999809E+01 0.  1.
</event>
<event>
 5   0  0.1503277E-04  0.1100592E+04  0.7818609E-02  0.9204615E-01
       -2   -1    0    0    0  501  0.00000000000E+00  0.00000000000E+00  0.33836908851E+03  0.33836908852E+03  0.25500000920E-02 0.  1.
        2   -1    0    0  501    0  0.00000000000E+00  0.00000000000E+00 -0.89495629686E+03  0.89495629687E+03  0.25500000920E-02 0. -1.
    10030    2    1    2    0    0  0.00000000000E+00  0.00000000000E+00 -0.55658720835E+03  0.12333253854E+04  0.11005917434E+04 0.  0.
        5    1    3    3  502    0  0.27668641935E+03  0.34907896639E+03  0.83770057950E+02  0.45326704274E+03  0.46999998093E+01 0.  1.
       -5    1    3    3    0  502 -0.27668641935E+03 -0.34907896639E+03 -0.64035726630E+03  0.78005834265E+03  0.46999998093E+01 0. -1.
</event>
<event>
 5   0  0.1553937E-04  0.1099481E+04  0.7818609E-02  0.9205698E-01
        2   -1    0    0  501    0  0.00000000000E+00  0.00000000000E+00  0.13995517958E+04  0.13995517958E+04  0.25500000920E-02 0.  1.
       -2   -1    0    0    0  501  0.00000000000E+00  0.00000000000E+00 -0.21593665250E+03  0.21593665251E+03  0.25500000920E-02 0. -1.
    10030    2    1    2    0    0  0.00000000000E+00  0.00000000000E+00  0.11836151433E+04  0.16154884483E+04  0.10994808408E+04 0.  0.
        1    1    3    3  502    0  0.22282537650E+03  0.22900697829E+03 -0.65487769535E+02  0.32616559061E+03  0.50400001928E-02 0. -1.
       -1    1    3    3    0  502 -0.22282537650E+03 -0.22900697829E+03  0.12491029129E+04  0.12893228577E+04  0.50400001928E-02 0.  1.
</event>
<event>
 5   0  0.1553937E-04  0.1100222E+04  0.7818609E-02  0.9204975E-01
        2   -1    0    0  501    0  0.00000000000E+00  0.00000000000E+00  0.69179254102E+03  0.69179254103E+03  0.25500000920E-02 0. -1.
       -2   -1    0    0    0  501  0.00000000000E+00  0.00000000000E+00 -0.43744639068E+03  0.43744639069E+03  0.25500000920E-02 0.  1.
    10030    2    1    2    0    0  0.00000000000E+00  0.00000000000E+00  0.25434615034E+03  0.11292389317E+04  0.11002220688E+04 0.  0.
        1    1    3    3  502    0  0.24431958565E+03 -0.12299966687E+03 -0.36269988459E+03  0.45428205367E+03  0.50400001928E-02 0.  1.
       -1    1    3    3    0  502 -0.24431958565E+03  0.12299966687E+03  0.61704603493E+03  0.67495687805E+03  0.50400001928E-02 0. -1.
</event>
<event>
 5   0  0.6010125E-05  0.1099748E+04  0.7818609E-02  0.9205437E-01
        3   -1    0    0  501    0  0.00000000000E+00  0.00000000000E+00  0.15172246891E+04  0.15172246925E+04  0.10100000352E+00 0. -1.
       -3   -1    0    0    0  501  0.00000000000E+00  0.00000000000E+00 -0.19928598927E+03  0.19928601486E+03  0.10100000352E+00 0.  1.
    10030    2    1    2    0    0  0.00000000000E+00  0.00000000000E+00  0.13179386998E+04  0.17165107073E+04  0.10997484221E+04 0.  0.
        5    1    3    3  502    0 -0.41377541043E+03 -0.21941978534E+02  0.94806374770E+02  0.42509043673E+03  0.46999998093E+01 0.  1.
       -5    1    3    3    0  502  0.41377541043E+03  0.21941978534E+02  0.12231323251E+04  0.12914202706E+04  0.46999998093E+01 0. -1.
</event>
<event>
 5   0  0.8657442E-05  0.1100065E+04  0.7818609E-02  0.9205129E-01
        1   -1    0    0  501    0  0.00000000000E+00  0.00000000000E+00  0.47544413936E+03  0.47544413939E+03  0.50400001928E-02 0. -1.
       -1   -1    0    0    0  501  0.00000000000E+00  0.00000000000E+00 -0.63632217888E+03  0.63632217890E+03  0.50400001928E-02 0.  1.
    10030    2    1    2    0    0  0.00000000000E+00  0.00000000000E+00 -0.16087803952E+03  0.11117663183E+04  0.11000648176E+04 0.  0.
        1    1    3    3  502    0 -0.93452658363E+02 -0.16777714056E+03  0.44045895292E+03  0.48050666747E+03  0.50400001928E-02 0. -1.
       -1    1    3    3    0  502  0.93452658363E+02  0.16777714056E+03 -0.60133699244E+03  0.63125965082E+03  0.50400001928E-02 0.  1.
</event>
<event>
 5   0  0.1503277E-04  0.1099976E+04  0.7818609E-02  0.9205215E-01
       -2   -1    0    0    0  501  0.00000000000E+00  0.00000000000E+00  0.13404130091E+03  0.13404130093E+03  0.25500000920E-02 0. -1.
        2   -1    0    0  501    0  0.00000000000E+00  0.00000000000E+00 -0.22566688736E+04  0.22566688736E+04  0.25500000920E-02 0.  1.
    10030    2    1    2    0    0  0.00000000000E+00  0.00000000000E+00 -0.21226275727E+04  0.23907101746E+04  0.10999760571E+04 0.  0.
        5    1    3    3  502    0  0.79842365687E+01  0.54042284780E+03 -0.84026360577E+03  0.99909239795E+03  0.46999998093E+01 0. -1.
       -5    1    3    3    0  502 -0.79842365687E+01 -0.54042284780E+03 -0.12823639669E+04  0.13916177766E+04  0.46999998093E+01 0.  1.
</event>
<event>
 5   0  0.1540772E-04  0.1099593E+04  0.7818609E-02  0.9205589E-01
       -2   -1    0    0    0  501  0.00000000000E+00  0.00000000000E+00  0.29281994626E+03  0.29281994627E+03  0.25500000920E-02 0. -1.
        2   -1    0    0  501    0  0.00000000000E+00  0.00000000000E+00 -0.10322932018E+04  0.10322932018E+04  0.25500000920E-02 0.  1.
    10030    2    1    2    0    0  0.00000000000E+00  0.00000000000E+00 -0.73947325552E+03  0.13251131481E+04  0.10995927244E+04 0.  0.
        2    1    3    3  502    0 -0.77685344167E+02 -0.40758943960E+03  0.64953297512E+02  0.41997987433E+03  0.25500000920E-02 0. -1.
       -2    1    3    3    0  502  0.77685344167E+02  0.40758943960E+03 -0.80442655303E+03  0.90513327372E+03  0.25500000920E-02 0.  1.
</event>
<event>
 5   0  0.9346836E-05  0.1100566E+04  0.7818609E-02  0.9204641E-01
       -1   -1    0    0    0  501  0.00000000000E+00  0.00000000000E+00  0.60855804359E+03  0.60855804361E+03  0.50400001928E-02 0. -1.
        1   -1    0    0  501    0  0.00000000000E+00  0.00000000000E+00 -0.49758803473E+03  0.49758803475E+03  0.50400001928E-02 0.  1.
    10030    2    1    2    0    0  0.00000000000E+00  0.00000000000E+00  0.11097000886E+03  0.11061460784E+04  0.11005656745E+04 0.  0.
        5    1    3    3  502    0  0.23729726185E+03  0.46257987594E+03 -0.12570380783E+03  0.53489594260E+03  0.46999998093E+01 0.  1.
       -5    1    3    3    0  502 -0.23729726185E+03 -0.46257987594E+03  0.23667381669E+03  0.57125013577E+03  0.46999998093E+01 0. -1.
</event>
<event>
 5   0  0.1553937E-04  0.1100032E+04  0.7818609E-02  0.9205160E-01
        2   -1    0    0  501    0  0.00000000000E+00  0.00000000000E+00  0.71073793204E+03  0.71073793205E+03  0.25500000920E-02 0.  1.
       -2   -1    0    0    0  501  0.00000000000E+00  0.00000000000E+00 -0.42563911039E+03  0.42563911040E+03  0.25500000920E-02 0. -1.
    10030    2    1    2    0    0  0.00000000000E+00  0.00000000000E+00  0.28509882165E+03  0.11363770424E+04  0.11000324743E+04 0.  0.
        1    1    3    3  502    0 -0.14239930279E+03  0.52676240907E+03  0.21383410993E+03  0.58607271191E+03  0.50400001928E-02 0. -1.
       -1    1    3    3    0  502  0.14239930279E+03 -0.52676240907E+03  0.71264711716E+02  0.55030433054E+03  0.50400001928E-02 0.  1.
</event>
<event>
 5   0  0.1574101E-04  0.1100187E+04  0.7818609E-02  0.9205009E-01
       -2   -1    0    0    0  501  0.00000000000E+00  0.00000000000E+00  0.26755894659E+03  0.26755894660E+03  0.25500000920E-02 0.  1.
        2   -1    0    0  501    0  0.00000000000E+00  0.00000000000E+00 -0.11309769430E+04  0.11309769430E+04  0.25500000920E-02 0. -1.
    10030    2    1    2    0    0  0.00000000000E+00  0.00000000000E+00 -0.86341799640E+03  0.13985358896E+04  0.11001872559E+04 0.  0.
        4    1    3    3  502    0 -0.14899414386E+03 -0.29973192240E+03 -0.98662364727E+03  0.10418571469E+04  0.12699999809E+01 0. -1.
       -4    1    3    3    0  502  0.14899414386E+03  0.29973192240E+03  0.12320565087E+03  0.35667874273E+03  0.12699999809E+01 0.  1.
</event>
<event>
 5   0  0.1553937E-04  0.1091320E+04  0.7818609E-02  0.9213694E-01
       -2   -1    0    0    0  501  0.00000000000E+00  0.00000000000E+00  0.23278477564E+03  0.23278477566E+03  0.25500000920E-02 0. -1.
        2   -1    0    0  501    0  0.00000000000E+00  0.00000000000E+00 -0.12790561454E+04  0.12790561454E+04  0.25500000920E-02 0.  1.
    10030    2    1    2    0    0  0.00000000000E+00  0.00000000000E+00 -0.10462713697E+04  0.15118409211E+04  0.10913199308E+04 0.  0.
        1    1    3    3  502    0 -0.13204586596E+03 -0.70197810849E+02  0.20384179875E+03  0.25281479843E+03  0.50400001928E-02 0. -1.
       -1    1    3    3    0  502  0.13204586596E+03  0.70197810849E+02 -0.12501131685E+04  0.12590261226E+04  0.50400001928E-02 0.  1.
</event>
<event>
 5   0  0.1540772E-04  0.1100257E+04  0.7818609E-02  0.9204942E-01
        2   -1    0    0  501    0  0.00000000000E+00  0.00000000000E+00  0.58169651302E+03  0.58169651303E+03  0.25500000920E-02 0.  1.
       -2   -1    0    0    0  501  0.00000000000E+00  0.00000000000E+00 -0.52027351722E+03  0.52027351723E+03  0.25500000920E-02 0. -1.
    10030    2    1    2    0    0  0.00000000000E+00  0.00000000000E+00  0.61422995801E+02  0.11019700303E+04  0.11002568624E+04 0.  0.
        2    1    3    3  502    0  0.20835427864E+03 -0.41403164618E+03  0.32749633218E+03  0.56752758265E+03  0.25500000920E-02 0.  1.
       -2    1    3    3    0  502 -0.20835427864E+03  0.41403164618E+03 -0.26607333638E+03  0.53444244761E+03  0.25500000920E-02 0. -1.
</event>
<event>
 5   0  0.8621738E-05  0.1099771E+04  0.7818609E-02  0.9205415E-01
       -1   -1    0    0    0  501  0.00000000000E+00  0.00000000000E+00  0.11513288944E+03  0.11513288956E+03  0.50400001928E-02 0. -1.
        1   -1    0    0  501    0  0.00000000000E+00  0.00000000000E+00 -0.26263037557E+04  0.26263037557E+04  0.50400001928E-02 0.  1.
    10030    2    1    2    0    0  0.00000000000E+00  0.00000000000E+00 -0.25111708663E+04  0.27414366453E+04  0.10997707763E+04 0.  0.
        2    1    3    3  502    0 -0.44488814147E+03 -0.21137039814E+03 -0.64615879690E+03  0.81248021172E+03  0.25500000920E-02 0. -1.
       -2    1    3    3    0  502  0.44488814147E+03  0.21137039814E+03 -0.18650120694E+04  0.19289564336E+04  0.25500000920E-02 0.  1.
</event>
<event>
 5   0  0.8621738E-05  0.1100072E+04  0.7818609E-02  0.9205122E-01
        1   -1    0    0  501    0  0.00000000000E+00  0.00000000000E+00  0.92712759538E+03  0.92712759540E+03  0.50400001928E-02 0. -1.
       -1   -1    0    0    0  501  0.00000000000E+00  0.00000000000E+00 -0.32631930356E+03  0.32631930360E+03  0.50400001928E-02 0.  1.
    10030    2    1    2    0    0  0.00000000000E+00  0.00000000000E+00  0.60080829182E+03  0.12534468990E+04  0.11000720545E+04 0.  0.
        2    1    3    3  502    0  0.44654874660E+03  0.12315252585E+03 -0.37540404749E+02  0.46473821632E+03  0.25500000920E-02 0. -1.
       -2    1    3    3    0  502 -0.44654874660E+03 -0.12315252585E+03  0.63834869657E+03  0.78870868268E+03  0.25500000920E-02 0.  1.
</event>
<event>
 5   0  0.1553937E-04  0.1100147E+04  0.7818609E-02  0.9205049E-01
        2   -1    0    0  501    0  0.00000000000E+00  0.00000000000E+00  0.16586397514E+04  0.16586397514E+04  0.25500000920E-02 0.  1.
       -2   -1    0    0    0  501  0.00000000000E+00  0.00000000000E+00 -0.18242700586E+03  0.18242700588E+03  0.25500000920E-02 0. -1.
    10030    2    1    2    0    0  0.00000000000E+00  0.00000000000E+00  0.14762127455E+04  0.18410667573E+04  0.11001466878E+04 0.  0.
        1    1    3    3  502    0  0.26328341070E+03 -0.16975202674E+03  0.14947808352E+04  0.15272536299E+04  0.50400001928E-02 0.  1.
       -1    1    3    3    0  502 -0.26328341070E+03  0.16975202674E+03 -0.18568089606E+02  0.31381312737E+03  0.50400001928E-02 0. -1.
</event>
<event>
 5   0  0.8657442E-05  0.1099908E+04  0.7818609E-02  0.9205281E-01
       -1   -1    0    0    0  501  0.00000000000E+00  0.00000000000E+00  0.18107213373E+03  0.18107213380E+03  0.50400001928E-02 0.  1.
        1   -1    0    0  501    0  0.00000000000E+00  0.00000000000E+00 -0.16703265747E+04  0.16703265747E+04  0.50400001928E-02 0. -1.
    10030    2    1    2    0    0  0.00000000000E+00  0.00000000000E+00 -0.14892544409E+04  0.18513987085E+04  0.10999083543E+04 0.  0.
        1    1    3    3  502    0  0.65873312885E+02  0.53419022223E+03 -0.55455552306E+03  0.77280677731E+03  0.50400001928E-02 0.  1.
       -1    1    3    3    0  502 -0.65873312885E+02 -0.53419022223E+03 -0.93469891787E+03  0.10785919312E+04  0.50400001928E-02 0. -1.
</event>
<event>
 5   0  0.9346836E-05  0.1100048E+04  0.7818609E-02  0.9205146E-01
        1   -1    0    0  501    0  0.00000000000E+00  0.00000000000E+00  0.66322784638E+03  0.66322784639E+03  0.50400001928E-02 0. -1.
       -1   -1    0    0    0  501  0.00000000000E+00  0.00000000000E+00 -0.45614208959E+03  0.45614208961E+03  0.50400001928E-02 0.  1.
    10030    2    1    2    0    0  0.00000000000E+00  0.00000000000E+00  0.20708575679E+03  0.11193699360E+04  0.11000475185E+04 0.  0.
        5    1    3    3  502    0  0.38074383323E+03 -0.26298549365E+03 -0.19896128194E+03  0.50372107175E+03  0.46999998093E+01 0.  1.
       -5    1    3    3    0  502 -0.38074383323E+03  0.26298549365E+03  0.40604703873E+03  0.61564886426E+03  0.46999998093E+01 0. -1.
</event>
<event>
 5   0  0.1553937E-04  0.1099910E+04  0.7818609E-02  0.9205280E-01
       -2   -1    0    0    0  501  0.00000000000E+00  0.00000000000E+00  0.14776116610E+03  0.14776116612E+03  0.25500000920E-02 0. -1.
        2   -1    0    0  501    0  0.00000000000E+00  0.00000000000E+00 -0.20468873714E+04  0.20468873714E+04  0.25500000920E-02 0.  1.
    10030    2    1    2    0    0  0.00000000000E+00  0.00000000000E+00 -0.18991262053E+04  0.21946485375E+04  0.10999099325E+04 0.  0.
        1    1    3    3  502    0 -0.46015283579E+03 -0.26605717124E+03 -0.12312001212E+04  0.13410372065E+04  0.50400001928E-02 0. -1.
       -1    1    3    3    0  502  0.46015283579E+03  0.26605717124E+03 -0.66792608408E+03  0.85361133104E+03  0.50400001928E-02 0.  1.
</event>
<event>
 5   0  0.9016738E-05  0.1100360E+04  0.7818609E-02  0.9204841E-01
        1   -1    0    0  501    0  0.00000000000E+00  0.00000000000E+00  0.79488953178E+03  0.79488953179E+03  0.50400001928E-02 0.  1.
       -1   -1    0    0    0  501  0.00000000000E+00  0.00000000000E+00 -0.38080547174E+03  0.38080547177E+03  0.50400001928E-02 0. -1.
    10030    2    1    2    0    0  0.00000000000E+00  0.00000000000E+00  0.41408406004E+03  0.11756950036E+04  0.11003604558E+04 0.  0.
        4    1    3    3  502    0  0.11336178315E+03  0.41927896539E+03 -0.15379334285E+03  0.46075996994E+03  0.12699999809E+01 0. -1.
       -4    1    3    3    0  502 -0.11336178315E+03 -0.41927896539E+03  0.56787740289E+03  0.71493503363E+03  0.12699999809E+01 0.  1.
</event>
<event>
 5   0  0.1540772E-04  0.1098398E+04  0.7818609E-02  0.9206755E-01
        2   -1    0    0  501    0  0.00000000000E+00  0.00000000000E+00  0.17429788396E+04  0.17429788396E+04  0.25500000920E-02 0.  1.
       -2   -1    0    0    0  501  0.00000000000E+00  0.00000000000E+00 -0.17304827477E+03  0.17304827479E+03  0.25500000920E-02 0. -1.
    10030    2    1    2    0    0  0.00000000000E+00  0.00000000000E+00  0.15699305648E+04  0.19160271144E+04  0.10983978900E+04 0.  0.
        2    1    3    3  502    0 -0.81850103073E+02 -0.43906977009E+03  0.22747774250E+03  0.50122632185E+03  0.25500000920E-02 0. -1.
       -2    1    3    3    0  502  0.81850103073E+02  0.43906977009E+03  0.13424528223E+04  0.14148007925E+04  0.25500000920E-02 0.  1.
</event>
<event>
 5   0  0.9016738E-05  0.1100953E+04  0.7818609E-02  0.9204263E-01
       -1   -1    0    0    0  501  0.00000000000E+00  0.00000000000E+00  0.73770986201E+03  0.73770986203E+03  0.50400001928E-02 0.  1.
        1   -1    0    0  501    0  0.00000000000E+00  0.00000000000E+00 -0.41076380827E+03  0.41076380830E+03  0.50400001928E-02 0. -1.
    10030    2    1    2    0    0  0.00000000000E+00  0.00000000000E+00  0.32694605374E+03  0.11484736703E+04  0.11009532458E+04 0.  0.
        4    1    3    3  502    0 -0.14574152701E+03  0.30779554430E+03  0.61462649585E+03  0.70267064268E+03  0.12699999809E+01 0.  1.
       -4    1    3    3    0  502  0.14574152701E+03 -0.30779554430E+03 -0.28768044211E+03  0.44580302765E+03  0.12699999809E+01 0. -1.
</event>
<event>
 5   0  0.8657442E-05  0.1099977E+04  0.7818609E-02  0.9205214E-01
       -1   -1    0    0    0  501  0.00000000000E+00  0.00000000000E+00  0.21672162401E+03  0.21672162407E+03  0.50400001928E-02 0.  1.
        1   -1    0    0  501    0  0.00000000000E+00  0.00000000000E+00 -0.13957415545E+04  0.13957415545E+04  0.50400001928E-02 0. -1.
    10030    2    1    2    0    0  0.00000000000E+00  0.00000000000E+00 -0.11790199305E+04  0.16124631785E+04  0.10999770478E+04 0.  0.
        1    1    3    3  502    0 -0.15885185590E+03  0.36535513069E+03 -0.33683848863E+02  0.39981606439E+03  0.50400001928E-02 0.  1.
       -1    1    3    3    0  502  0.15885185590E+03 -0.36535513069E+03 -0.11453360816E+04  0.12126471142E+04  0.50400001928E-02 0. -1.
</event>
<event>
 5   0  0.1503277E-04  0.1099326E+04  0.7818609E-02  0.9205849E-01
        2   -1    0    0  501    0  0.00000000000E+00  0.00000000000E+00  0.59629672833E+03  0.59629672834E+03  0.25500000920E-02 0.  1.
       -2   -1    0    0    0  501  0.00000000000E+00  0.00000000000E+00 -0.50667642996E+03  0.50667642996E+03  0.25500000920E-02 0. -1.
    10030    2    1    2    0    0  0.00000000000E+00  0.00000000000E+00  0.89620298375E+02  0.11029731583E+04  0.10993261527E+04 0.  0.
        5    1    3    3  502    0  0.24206185374E+03  0.47421277380E+03  0.18177570832E+03  0.56261549393E+03  0.46999998093E+01 0.  1.
       -5    1    3    3    0  502 -0.24206185374E+03 -0.47421277380E+03 -0.92155409948E+02  0.54035766438E+03  0.46999998093E+01 0. -1.
</event>
<event>
 5   0  0.8921459E-05  0.1099442E+04  0.7818609E-02  0.9205736E-01
        1   -1    0    0  501    0  0.00000000000E+00  0.00000000000E+00  0.60800831758E+03  0.60800831760E+03  0.50400001928E-02 0.  1.
       -1   -1    0    0    0  501  0.00000000000E+00  0.00000000000E+00 -0.49702177313E+03  0.49702177316E+03  0.50400001928E-02 0. -1.
    10030    2    1    2    0    0  0.00000000000E+00  0.00000000000E+00  0.11098654445E+03  0.11050300908E+04  0.10994423534E+04 0.  0.
        3    1    3    3  502    0 -0.34387946604E+03 -0.71165592897E+02 -0.36959326872E+03  0.50982038334E+03  0.10100000352E+00 0. -1.
       -3    1    3    3    0  502  0.34387946604E+03  0.71165592897E+02  0.48057981317E+03  0.59520970742E+03  0.10100000352E+00 0.  1.
</event>
<event>
 5   0  0.8921459E-05  0.1102094E+04  0.7818609E-02  0.9203154E-01
        1   -1    0    0  501    0  0.00000000000E+00  0.00000000000E+00  0.59752001201E+03  0.59752001204E+03  0.50400001928E-02 0.  1.
       -1   -1    0    0    0  501  0.00000000000E+00  0.00000000000E+00 -0.50818810659E+03  0.50818810662E+03  0.50400001928E-02 0. -1.
    10030    2    1    2    0    0  0.00000000000E+00  0.00000000000E+00  0.89331905424E+02  0.11057081187E+04  0.11020935778E+04 0.  0.
        3    1    3    3  502    0  0.39243064868E+03 -0.35803080272E+03 -0.10232285696E+03  0.54097860122E+03  0.10100000352E+00 0.  1.
       -3    1    3    3    0  502 -0.39243064868E+03  0.35803080272E+03  0.19165476238E+03  0.56472951743E+03  0.10100000352E+00 0. -1.
</event>
<event>
 5   0  0.1540772E-04  0.1094189E+04  0.7818609E-02  0.9210874E-01
        2   -1    0    0  501    0  0.00000000000E+00  0.00000000000E+00  0.56398172462E+03  0.56398172462E+03  0.25500000920E-02 0.  1.
       -2   -1    0    0    0  501  0.00000000000E+00  0.00000000000E+00 -0.53071316460E+03  0.53071316461E+03  0.25500000920E-02 0. -1.
    10030    2    1    2    0    0  0.00000000000E+00  0.00000000000E+00  0.33268560012E+02  0.10946948892E+04  0.10941892448E+04 0.  0.
        2    1    3    3  502    0 -0.47837254772E+02  0.40114508017E+03 -0.35246268741E+03  0.53613032400E+03  0.25500000920E-02 0. -1.
       -2    1    3    3    0  502  0.47837254772E+02 -0.40114508017E+03  0.38573124742E+03  0.55856456523E+03  0.25500000920E-02 0.  1.
</event>
<event>
 5   0  0.1574101E-04  0.1099742E+04  0.7818609E-02  0.9205443E-01
       -2   -1    0    0    0  501  0.00000000000E+00  0.00000000000E+00  0.17793251201E+03  0.17793251202E+03  0.25500000920E-02 0. -1.
        2   -1    0    0  501    0  0.00000000000E+00  0.00000000000E+00 -0.16992861617E+04  0.16992861617E+04  0.25500000920E-02 0.  1.
    10030    2    1    2    0    0  0.00000000000E+00  0.00000000000E+00 -0.15213536497E+04  0.18772186737E+04  0.10997422523E+04 0.  0.
        4    1    3    3  502    0  0.44436388758E+03  0.21583791418E+03 -0.34848384847E+03  0.60455593234E+03  0.12699999809E+01 0.  1.
       -4    1    3    3    0  502 -0.44436388758E+03 -0.21583791418E+03 -0.11728698012E+04  0.12726627414E+04  0.12699999809E+01 0. -1.
</event>
<event>
 5   0  0.8921459E-05  0.1100319E+04  0.7818609E-02  0.9204881E-01
       -1   -1    0    0    0  501  0.00000000000E+00  0.00000000000E+00  0.14256861954E+03  0.14256861963E+03  0.50400001928E-02 0. -1.
        1   -1    0    0  501    0  0.00000000000E+00  0.00000000000E+00 -0.21230156388E+04  0.21230156388E+04  0.50400001928E-02 0.  1.
    10030    2    1    2    0    0  0.00000000000E+00  0.00000000000E+00 -0.19804470193E+04  0.22655842585E+04  0.11003188792E+04 0.  0.
        3    1    3    3  502    0 -0.84154061608E+02 -0.36469263783E+03 -0.15996703257E+03  0.40702836251E+03  0.10100000352E+00 0. -1.
       -3    1    3    3    0  502  0.84154061608E+02  0.36469263783E+03 -0.18204799867E+04  0.18585558960E+04  0.10100000352E+00 0.  1.
</event>
<event>
 5   0  0.1540772E-04  0.1100092E+04  0.7818609E-02  0.9205102E-01
       -2   -1    0    0    0  501  0.00000000000E+00  0.00000000000E+00  0.57106414567E+03  0.57106414568E+03  0.25500000920E-02 0. -1.
        2   -1    0    0  501    0  0.00000000000E+00  0.00000000000E+00 -0.52980161553E+03  0.52980161554E+03  0.25500000920E-02 0.  1.
    10030    2    1    2    0    0  0.00000000000E+00  0.00000000000E+00  0.41262530140E+02  0.11008657612E+04  0.11000921906E+04 0.  0.
        2    1    3    3  502    0 -0.32179588770E+03 -0.23141032849E+03  0.40227507653E+03  0.56473761224E+03  0.25500000920E-02 0. -1.
       -2    1    3    3    0  502  0.32179588770E+03  0.23141032849E+03 -0.36101254639E+03  0.53612814898E+03  0.25500000920E-02 0.  1.
</event>
<event>
 5   0  0.1574101E-04  0.1100098E+04  0.7818609E-02  0.9205096E-01
        2   -1    0    0  501    0  0.00000000000E+00  0.00000000000E+00  0.15714155800E+04  0.15714155800E+04  0.25500000920E-02 0.  1.
       -2   -1    0    0    0  501  0.00000000000E+00  0.00000000000E+00 -0.19253603697E+03  0.19253603699E+03  0.25500000920E-02 0. -1.
    10030    2    1    2    0    0  0.00000000000E+00  0.00000000000E+00  0.13788795430E+04  0.17639516170E+04  0.11000984105E+04 0.  0.
        4    1    3    3  502    0 -0.34061715954E+03 -0.29396042657E+03  0.18208123239E+03  0.48537405148E+03  0.12699999809E+01 0. -1.
       -4    1    3    3    0  502  0.34061715954E+03  0.29396042657E+03  0.11967983106E+04  0.12785775655E+04  0.12699999809E+01 0.  1.
</event>
<event>
 5   0  0.1464205E-04  0.1099718E+04  0.7818609E-02  0.9205467E-01
       -2   -1    0    0    0  501  0.00000000000E+00  0.00000000000E+00  0.12198709328E+04  0.12198709328E+04  0.25500000920E-02 0. -1.
        2   -1    0    0  501    0  0.00000000000E+00  0.00000000000E+00 -0.24784978965E+03  0.24784978966E+03  0.25500000920E-02 0.  1.
    10030    2    1    2    0    0  0.00000000000E+00  0.00000000000E+00  0.97202114314E+03  0.14677207225E+04  0.10997176985E+04 0.  0.
        3    1    3    3  502    0 -0.38495506326E+02 -0.54727489244E+03  0.43691794749E+03  0.70134799845E+03  0.10100000352E+00 0. -1.
       -3    1    3    3    0  502  0.38495506326E+02  0.54727489244E+03  0.53510319565E+03  0.76637272400E+03  0.10100000352E+00 0.  1.
</event>
<event>
 5   0  0.8921459E-05  0.1099780E+04  0.7818609E-02  0.9205406E-01
        1   -1    0    0  501    0  0.00000000000E+00  0.00000000000E+00  0.92038128996E+03  0.92038128998E+03  0.50400001928E-02 0. -1.
       -1   -1    0    0    0  501  0.00000000000E+00  0.00000000000E+00 -0.32853661601E+03  0.32853661604E+03  0.50400001928E-02 0.  1.
    10030    2    1    2    0    0  0.00000000000E+00  0.00000000000E+00  0.59184467396E+03  0.12489179060E+04  0.10997798952E+04 0.  0.
        3    1    3    3  502    0 -0.39772465802E+03  0.30521686074E+02 -0.13390529316E+03  0.42076966936E+03  0.10100000352E+00 0.  1.
       -3    1    3    3    0  502  0.39772465802E+03 -0.30521686074E+02  0.72574996712E+03  0.82814823666E+03  0.10100000352E+00 0. -1.
</event>
<event>
 5   0  0.1540772E-04  0.1099400E+04  0.7818609E-02  0.9205777E-01
       -2   -1    0    0    0  501  0.00000000000E+00  0.00000000000E+00  0.13342143613E+03  0.13342143616E+03  0.25500000920E-02 0.  1.
        2   -1    0    0  501    0  0.00000000000E+00  0.00000000000E+00 -0.22647794851E+04  0.22647794851E+04  0.25500000920E-02 0. -1.
    10030    2    1    2    0    0  0.00000000000E+00  0.00000000000E+00 -0.21313580489E+04  0.23982009212E+04  0.10994000754E+04 0.  0.
        2    1    3    3  502    0 -0.71073233480E+02 -0.40494381478E+03 -0.18616236044E+04  0.19064819281E+04  0.25500000920E-02 0. -1.
       -2    1    3    3    0  502  0.71073233480E+02  0.40494381478E+03 -0.26973444456E+03  0.49171899316E+03  0.25500000920E-02 0.  1.
</event>
<event>
 5   0  0.9346836E-05  0.1099324E+04  0.7818609E-02  0.9205851E-01
        1   -1    0    0  501    0  0.00000000000E+00  0.00000000000E+00  0.46750225074E+03  0.46750225077E+03  0.50400001928E-02 0. -1.
       -1   -1    0    0    0  501  0.00000000000E+00  0.00000000000E+00 -0.64626053579E+03  0.64626053581E+03  0.50400001928E-02 0.  1.
    10030    2    1    2    0    0  0.00000000000E+00  0.00000000000E+00 -0.17875828504E+03  0.11137627866E+04  0.10993238924E+04 0.  0.
        5    1    3    3  502    0  0.21514653461E+03 -0.16454682926E+03  0.39517291694E+03  0.47911106714E+03  0.46999998093E+01 0. -1.
       -5    1    3    3    0  502 -0.21514653461E+03  0.16454682926E+03 -0.57393120198E+03  0.63465171944E+03  0.46999998093E+01 0.  1.
</event>
<event>
 5   0  0.8621738E-05  0.1101316E+04  0.7818609E-02  0.9203910E-01
       -1   -1    0    0    0  501  0.00000000000E+00  0.00000000000E+00  0.18345004997E+03  0.18345005003E+03  0.50400001928E-02 0.  1.
        1   -1    0    0  501    0  0.00000000000E+00  0.00000000000E+00 -0.16528971817E+04  0.16528971817E+04  0.50400001928E-02 0. -1.
    10030    2    1    2    0    0  0.00000000000E+00  0.00000000000E+00 -0.14694471318E+04  0.18363472318E+04  0.11013157052E+04 0.  0.
        2    1    3    3  502    0  0.30898912861E+03 -0.31333862724E+03 -0.18279075283E+03  0.47651635465E+03  0.25500000920E-02 0.  1.
       -2    1    3    3    0  502 -0.30898912861E+03  0.31333862724E+03 -0.12866563789E+04  0.13598308771E+04  0.25500000920E-02 0. -1.
</event>
<event>
 5   0  0.1540772E-04  0.1099866E+04  0.7818609E-02  0.9205323E-01
       -2   -1    0    0    0  501  0.00000000000E+00  0.00000000000E+00  0.71853906796E+03  0.71853906797E+03  0.25500000920E-02 0. -1.
        2   -1    0    0  501    0  0.00000000000E+00  0.00000000000E+00 -0.42089044896E+03  0.42089044896E+03  0.25500000920E-02 0.  1.
    10030    2    1    2    0    0  0.00000000000E+00  0.00000000000E+00  0.29764861901E+03  0.11394295169E+04  0.10998658662E+04 0.  0.
        2    1    3    3  502    0  0.37126011261E+03 -0.40559003096E+03  0.15859140846E+03  0.57226617869E+03  0.25500000920E-02 0.  1.
       -2    1    3    3    0  502 -0.37126011261E+03  0.40559003096E+03  0.13905721055E+03  0.56716333824E+03  0.25500000920E-02 0. -1.
</event>
<event>
 5   0  0.8921459E-05  0.1100474E+04  0.7818609E-02  0.9204730E-01
       -1   -1    0    0    0  501  0.00000000000E+00  0.00000000000E+00  0.45930983434E+03  0.45930983436E+03  0.50400001928E-02 0.  1.
        1   -1    0    0  501    0  0.00000000000E+00  0.00000000000E+00 -0.65916413523E+03  0.65916413524E+03  0.50400001928E-02 0. -1.
    10030    2    1    2    0    0  0.00000000000E+00  0.00000000000E+00 -0.19985430089E+03  0.11184739696E+04  0.11004736613E+04 0.  0.
        3    1    3    3  502    0  0.36228139221E+02 -0.49040827501E+03  0.15098706358E+03  0.51440242791E+03  0.10100000352E+00 0.  1.
       -3    1    3    3    0  502 -0.36228139221E+02  0.49040827501E+03 -0.35084136447E+03  0.60407154170E+03  0.10100000352E+00 0. -1.
</event>
<event>
 5   0  0.8921459E-05  0.1099838E+04  0.7818609E-02  0.9205350E-01
        1   -1    0    0  501    0  0.00000000000E+00  0.00000000000E+00  0.15176054079E+04  0.15176054079E+04  0.50400001928E-02 0. -1.
       -1   -1    0    0    0  501  0.00000000000E+00  0.00000000000E+00 -0.19926854173E+03  0.19926854180E+03  0.50400001928E-02 0.  1.
    10030    2    1    2    0    0  0.00000000000E+00  0.00000000000E+00  0.13183368662E+04  0.17168739497E+04  0.10998382001E+04 0.  0.
        3    1    3    3  502    0 -0.47605929971E+02  0.50333354208E+03  0.99686968015E+03  0.11177478019E+04  0.10100000352E+00 0. -1.
       -3    1    3    3    0  502  0.47605929971E+02 -0.50333354208E+03  0.32146718602E+03  0.59912614785E+03  0.10100000352E+00 0.  1.
</event>
<event>
 5   0  0.8921459E-05  0.1100384E+04  0.7818609E-02  0.9204818E-01
        1   -1    0    0  501    0  0.00000000000E+00  0.00000000000E+00  0.65822766889E+03  0.65822766891E+03  0.50400001928E-02 0. -1.
       -1   -1    0    0    0  501  0.00000000000E+00  0.00000000000E+00 -0.45988837615E+03  0.45988837617E+03  0.50400001928E-02 0.  1.
    10030    2    1    2    0    0  0.00000000000E+00  0.00000000000E+00  0.19833929275E+03  0.11181160451E+04  0.11003840308E+04 0.  0.
        3    1    3    3  502    0 -0.19114913459E+03  0.59311517907E+02  0.61992742299E+03  0.65143370176E+03  0.10100000352E+00 0. -1.
       -3    1    3    3    0  502  0.19114913459E+03 -0.59311517907E+02 -0.42158813024E+03  0.46668234333E+03  0.10100000352E+00 0.  1.
</event>
<event>
 5   0  0.8621738E-05  0.1099907E+04  0.7818609E-02  0.9205283E-01
       -1   -1    0    0    0  501  0.00000000000E+00  0.00000000000E+00  0.41862464249E+03  0.41862464252E+03  0.50400001928E-02 0. -1.
        1   -1    0    0  501    0  0.00000000000E+00  0.00000000000E+00 -0.72248185361E+03  0.72248185363E+03  0.50400001928E-02 0.  1.
    10030    2    1    2    0    0  0.00000000000E+00  0.00000000000E+00 -0.30385721112E+03  0.11411064961E+04  0.10999067373E+04 0.  0.
        2    1    3    3  502    0  0.32582592054E+03  0.36192328874E+03 -0.41703444365E+03  0.64114641434E+03  0.25500000920E-02 0.  1.
       -2    1    3    3    0  502 -0.32582592054E+03 -0.36192328874E+03  0.11317723252E+03  0.49996008180E+03  0.25500000920E-02 0. -1.
</event>
<event>
 5   0  0.1503277E-04  0.1100177E+04  0.7818609E-02  0.9205019E-01
        2   -1    0    0  501    0  0.00000000000E+00  0.00000000000E+00  0.14286742155E+04  0.14286742155E+04  0.25500000920E-02 0.  1.
       -2   -1    0    0    0  501  0.00000000000E+00  0.00000000000E+00 -0.21180304720E+03  0.21180304722E+03  0.25500000920E-02 0. -1.
    10030    2    1    2    0    0  0.00000000000E+00  0.00000000000E+00  0.12168711683E+04  0.16404772627E+04  0.11001773536E+04 0.  0.
        5    1    3    3  502    0 -0.22661099457E+03  0.47704710223E+03  0.83774069634E+03  0.99033229014E+03  0.46999998093E+01 0.  1.
       -5    1    3    3    0  502  0.22661099457E+03 -0.47704710223E+03  0.37913047198E+03  0.65014497260E+03  0.46999998093E+01 0. -1.
</event>
<event>
 5   0  0.9016738E-05  0.1100132E+04  0.7818609E-02  0.9205063E-01
        1   -1    0    0  501    0  0.00000000000E+00  0.00000000000E+00  0.34788413738E+03  0.34788413742E+03  0.50400001928E-02 0. -1.
       -1   -1    0    0    0  501  0.00000000000E+00  0.00000000000E+00 -0.86975086059E+03  0.86975086061E+03  0.50400001928E-02 0.  1.
    10030    2    1    2    0    0  0.00000000000E+00  0.00000000000E+00 -0.52186672321E+03  0.12176349980E+04  0.11001318610E+04 0.  0.
        4    1    3    3  502    0  0.46584021351E+03  0.51548818085E+02  0.57755400042E+02  0.47223054148E+03  0.12699999809E+01 0. -1.
       -4    1    3    3    0  502 -0.46584021351E+03 -0.51548818085E+02 -0.57962212325E+03  0.74540445654E+03  0.12699999809E+01 0.  1.
</event>
<event>
 5   0  0.8921459E-05  0.1099106E+04  0.7818609E-02  0.9206064E-01
        1   -1    0    0  501    0  0.00000000000E+00  0.00000000000E+00  0.31972990106E+03  0.31972990110E+03  0.50400001928E-02 0. -1.
       -1   -1    0    0    0  501  0.00000000000E+00  0.00000000000E+00 -0.94457303465E+03  0.94457303466E+03  0.50400001928E-02 0.  1.
    10030    2    1    2    0    0  0.00000000000E+00  0.00000000000E+00 -0.62484313358E+03  0.12643029358E+04  0.10991055326E+04 0.  0.
        3    1    3    3  502    0 -0.51164422312E+03  0.18463911999E+02 -0.54215816804E+03  0.74569177042E+03  0.10100000352E+00 0.  1.
       -3    1    3    3    0  502  0.51164422312E+03 -0.18463911999E+02 -0.82684965545E+02  0.51861116535E+03  0.10100000352E+00 0. -1.
</event>
<event>
 5   0  0.1540772E-04  0.1100532E+04  0.7818609E-02  0.9204673E-01
        2   -1    0    0  501    0  0.00000000000E+00  0.00000000000E+00  0.10133695847E+04  0.10133695847E+04  0.25500000920E-02 0.  1.
       -2   -1    0    0    0  501  0.00000000000E+00  0.00000000000E+00 -0.29879797322E+03  0.29879797323E+03  0.25500000920E-02 0. -1.
    10030    2    1    2    0    0  0.00000000000E+00  0.00000000000E+00  0.71457161151E+03  0.13121675580E+04  0.11005321950E+04 0.  0.
        2    1    3    3  502    0 -0.74119869020E+02  0.10176075618E+03 -0.28139658940E+03  0.30827430482E+03  0.25500000920E-02 0. -1.
       -2    1    3    3    0  502  0.74119869020E+02 -0.10176075618E+03  0.99596820090E+03  0.10038932531E+04  0.25500000920E-02 0.  1.
</event>
<event>
 5   0  0.6010125E-05  0.1100449E+04  0.7818609E-02  0.9204754E-01
        4   -1    0    0  501    0  0.00000000000E+00  0.00000000000E+00  0.26262725316E+03  0.26263032384E+03  0.12699999809E+01 0.  1.
       -4   -1    0    0    0  501  0.00000000000E+00  0.00000000000E+00 -0.11527532875E+04  0.11527539871E+04  0.12699999809E+01 0. -1.
    10030    2    1    2    0    0  0.00000000000E+00  0.00000000000E+00 -0.89012603436E+03  0.14153843109E+04  0.11004491768E+04 0.  0.
        4    1    3    3  502    0  0.24074416733E+03  0.81868346204E+02 -0.10726453114E+04  0.11023745993E+04  0.12699999809E+01 0. -1.
       -4    1    3    3    0  502 -0.24074416733E+03 -0.81868346204E+02  0.18251927702E+03  0.31300971167E+03  0.12699999809E+01 0.  1.
</event>
<event>
 5   0  0.1503277E-04  0.1100099E+04  0.7818609E-02  0.9205096E-01
        2   -1    0    0  501    0  0.00000000000E+00  0.00000000000E+00  0.31688774398E+03  0.31688774399E+03  0.25500000920E-02 0.  1.
       -2   -1    0    0    0  501  0.00000000000E+00  0.00000000000E+00 -0.95476808631E+03  0.95476808632E+03  0.25500000920E-02 0. -1.
    10030    2    1    2    0    0  0.00000000000E+00  0.00000000000E+00 -0.63788034234E+03  0.12716558303E+04  0.11000987318E+04 0.  0.
        5    1    3    3  502    0  0.43649929383E+03  0.24446243742E+03 -0.54739391386E+02  0.50330111046E+03  0.46999998093E+01 0. -1.
       -5    1    3    3    0  502 -0.43649929383E+03 -0.24446243742E+03 -0.58314095095E+03  0.76835471984E+03  0.46999998093E+01 0.  1.
</event>
<event>
 5   0  0.8657442E-05  0.1100143E+04  0.7818609E-02  0.9205052E-01
        1   -1    0    0  501    0  0.00000000000E+00  0.00000000000E+00  0.84528155250E+03  0.84528155251E+03  0.50400001928E-02 0. -1.
       -1   -1    0    0    0  501  0.00000000000E+00  0.00000000000E+00 -0.35796223614E+03  0.35796223617E+03  0.50400001928E-02 0.  1.
    10030    2    1    2    0    0  0.00000000000E+00  0.00000000000E+00  0.48731931636E+03  0.12032437887E+04  0.11001433992E+04 0.  0.
        1    1    3    3  502    0  0.26976621269E+02  0.31539015319E+03 -0.24836665425E+03  0.40234895526E+03  0.50400001928E-02 0.  1.
       -1    1    3    3    0  502 -0.26976621269E+02 -0.31539015319E+03  0.73568597061E+03  0.80089483343E+03  0.50400001928E-02 0. -1.
</event>
<event>
 5   0  0.1464205E-04  0.1101441E+04  0.7818609E-02  0.9203788E-01
        2   -1    0    0  501    0  0.00000000000E+00  0.00000000000E+00  0.10173995350E+04  0.10173995350E+04  0.25500000920E-02 0. -1.
       -2   -1    0    0    0  501  0.00000000000E+00  0.00000000000E+00 -0.29810640805E+03  0.29810640806E+03  0.25500000920E-02 0.  1.
    10030    2    1    2    0    0  0.00000000000E+00  0.00000000000E+00  0.71929312697E+03  0.13155059431E+04  0.11014414573E+04 0.  0.
        3    1    3    3  502    0 -0.17261908460E+03  0.35736625004E+03 -0.96378068220E+02  0.40840755046E+03  0.10100000352E+00 0.  1.
       -3    1    3    3    0  502  0.17261908460E+03 -0.35736625004E+03  0.81567119519E+03  0.90709839262E+03  0.10100000352E+00 0. -1.
</event>
<event>
 5   0  0.1503277E-04  0.1099838E+04  0.7818609E-02  0.9205350E-01
       -2   -1    0    0    0  501  0.00000000000E+00  0.00000000000E+00  0.13707686364E+03  0.13707686366E+03  0.25500000920E-02 0. -1.
        2   -1    0    0  501    0  0.00000000000E+00  0.00000000000E+00 -0.22061394873E+04  0.22061394873E+04  0.25500000920E-02 0.  1.
    10030    2    1    2    0    0  0.00000000000E+00  0.00000000000E+00 -0.20690626237E+04  0.23432163510E+04  0.10998375911E+04 0.  0.
        5    1    3    3  502    0 -0.47161591928E+03 -0.26793524436E+03 -0.12271950491E+04  0.13417304681E+04  0.46999998093E+01 0.  1.
       -5    1    3    3    0  502  0.47161591928E+03  0.26793524436E+03 -0.84186757455E+03  0.10014858829E+04  0.46999998093E+01 0. -1.
</event>
<event>
 5   0  0.8657442E-05  0.1099943E+04  0.7818609E-02  0.9205247E-01
        1   -1    0    0  501    0  0.00000000000E+00  0.00000000000E+00  0.67363799727E+03  0.67363799729E+03  0.50400001928E-02 0.  1.
       -1   -1    0    0    0  501  0.00000000000E+00  0.00000000000E+00 -0.44900772948E+03  0.44900772951E+03  0.50400001928E-02 0. -1.
    10030    2    1    2    0    0  0.00000000000E+00  0.00000000000E+00  0.22463026779E+03  0.11226457268E+04  0.10999430307E+04 0.  0.
        1    1    3    3  502    0  0.54324145646E+02 -0.53266361427E+03  0.24055490587E+03  0.58698236901E+03  0.50400001928E-02 0.  1.
       -1    1    3    3    0  502 -0.54324145646E+02  0.53266361427E+03 -0.15924638071E+02  0.53566335780E+03  0.50400001928E-02 0. -1.
</event>
<event>
 5   0  0.1540772E-04  0.1100421E+04  0.7818609E-02  0.9204782E-01
       -2   -1    0    0    0  501  0.00000000000E+00  0.00000000000E+00  0.46039828938E+03  0.46039828938E+03  0.25500000920E-02 0. -1.
        2   -1    0    0  501    0  0.00000000000E+00  0.00000000000E+00 -0.65754296216E+03  0.65754296216E+03  0.25500000920E-02 0.  1.
    10030    2    1    2    0    0  0.00000000000E+00  0.00000000000E+00 -0.19714467278E+03  0.11179412515E+04  0.11004211103E+04 0.  0.
        2    1    3    3  502    0 -0.29046947012E+03  0.16203925135E+02 -0.57301582533E+03  0.64263692420E+03  0.25500000920E-02 0.  1.
       -2    1    3    3    0  502  0.29046947012E+03 -0.16203925135E+02  0.37587115255E+03  0.47530432734E+03  0.25500000920E-02 0. -1.
</event>
<event>
 5   0  0.1503277E-04  0.1101106E+04  0.7818609E-02  0.9204114E-01
        2   -1    0    0  501    0  0.00000000000E+00  0.00000000000E+00  0.46067358912E+03  0.46067358912E+03  0.25500000920E-02 0. -1.
       -2   -1    0    0    0  501  0.00000000000E+00  0.00000000000E+00 -0.65796854437E+03  0.65796854438E+03  0.25500000920E-02 0.  1.
    10030    2    1    2    0    0  0.00000000000E+00  0.00000000000E+00 -0.19729495526E+03  0.11186421335E+04  0.11011062272E+04 0.  0.
        5    1    3    3  502    0  0.18625816235E+03  0.11678901349E+03 -0.61141817206E+03  0.64975845346E+03  0.46999998093E+01 0.  1.
       -5    1    3    3    0  502 -0.18625816235E+03 -0.11678901349E+03  0.41412321681E+03  0.46888368004E+03  0.46999998093E+01 0. -1.
</event>
<event>
 5   0  0.8621738E-05  0.1099549E+04  0.7818609E-02  0.9205632E-01
       -1   -1    0    0    0  501  0.00000000000E+00  0.00000000000E+00  0.55078421399E+03  0.55078421401E+03  0.50400001928E-02 0.  1.
        1   -1    0    0  501    0  0.00000000000E+00  0.00000000000E+00 -0.54876645019E+03  0.54876645021E+03  0.50400001928E-02 0. -1.
    10030    2    1    2    0    0  0.00000000000E+00  0.00000000000E+00  0.20177638016E+01  0.10995506642E+04  0.10995488128E+04 0.  0.
        2    1    3    3  502    0 -0.64117038072E+02 -0.54382759908E+03 -0.47903835444E+02  0.54968557335E+03  0.25500000920E-02 0.  1.
       -2    1    3    3    0  502  0.64117038072E+02  0.54382759908E+03  0.49921599245E+02  0.54986509088E+03  0.25500000920E-02 0. -1.
</event>
<event>
 5   0  0.1503277E-04  0.1098470E+04  0.7818609E-02  0.9206684E-01
        2   -1    0    0  501    0  0.00000000000E+00  0.00000000000E+00  0.34469555983E+03  0.34469555984E+03  0.25500000920E-02 0.  1.
       -2   -1    0    0    0  501  0.00000000000E+00  0.00000000000E+00 -0.87514721549E+03  0.87514721549E+03  0.25500000920E-02 0. -1.
    10030    2    1    2    0    0  0.00000000000E+00  0.00000000000E+00 -0.53045165566E+03  0.12198427753E+04  0.10984704992E+04 0.  0.
        5    1    3    3  502    0 -0.37141300816E+02  0.54545311195E+03 -0.32334070978E+03  0.63519278819E+03  0.46999998093E+01 0. -1.
       -5    1    3    3    0  502  0.37141300816E+02 -0.54545311195E+03 -0.20711094588E+03  0.58464998714E+03  0.46999998093E+01 0.  1.
</event>
<event>
 5   0  0.9016738E-05  0.1100211E+04  0.7818609E-02  0.9204986E-01
       -1   -1    0    0    0  501  0.00000000000E+00  0.00000000000E+00  0.17181528760E+03  0.17181528767E+03  0.50400001928E-02 0. -1.
        1   -1    0    0  501    0  0.00000000000E+00  0.00000000000E+00 -0.17612886801E+04  0.17612886801E+04  0.50400001928E-02 0.  1.
    10030    2    1    2    0    0  0.00000000000E+00  0.00000000000E+00 -0.15894733925E+04  0.19331039678E+04  0.11002114728E+04 0.  0.
        4    1    3    3  502    0  0.59608561443E+02 -0.11574075303E+03  0.14435504252E+03  0.19439417098E+03  0.12699999809E+01 0. -1.
       -4    1    3    3    0  502 -0.59608561443E+02  0.11574075303E+03 -0.17338284350E+04  0.17387097968E+04  0.12699999809E+01 0.  1.
</event>
<event>
 5   0  0.9346836E-05  0.1099606E+04  0.7818609E-02  0.9205576E-01
       -1   -1    0    0    0  501  0.00000000000E+00  0.00000000000E+00  0.60603276898E+03  0.60603276900E+03  0.50400001928E-02 0.  1.
        1   -1    0    0  501    0  0.00000000000E+00  0.00000000000E+00 -0.49879033679E+03  0.49879033681E+03  0.50400001928E-02 0. -1.
    10030    2    1    2    0    0  0.00000000000E+00  0.00000000000E+00  0.10724243219E+03  0.11048231058E+04  0.10996059094E+04 0.  0.
        5    1    3    3  502    0 -0.29205666484E+03 -0.32485971733E+03  0.38901674581E+03  0.58496756315E+03  0.46999998093E+01 0.  1.
       -5    1    3    3    0  502  0.29205666484E+03  0.32485971733E+03 -0.28177431362E+03  0.51985554266E+03  0.46999998093E+01 0. -1.
</event>
<event>
 5   0  0.9346836E-05  0.1101590E+04  0.7818609E-02  0.9203643E-01
        1   -1    0    0  501    0  0.00000000000E+00  0.00000000000E+00  0.85983770117E+03  0.85983770118E+03  0.50400001928E-02 0. -1.
       -1   -1    0    0    0  501  0.00000000000E+00  0.00000000000E+00 -0.35282861800E+03  0.35282861803E+03  0.50400001928E-02 0.  1.
    10030    2    1    2    0    0  0.00000000000E+00  0.00000000000E+00  0.50700908317E+03  0.12126663192E+04  0.11015903918E+04 0.  0.
        5    1    3    3  502    0 -0.22373540084E+03 -0.44201313248E+03  0.51843744495E+03  0.71710014167E+03  0.46999998093E+01 0.  1.
       -5    1    3    3    0  502  0.22373540084E+03  0.44201313248E+03 -0.11428361774E+02  0.49556617754E+03  0.46999998093E+01 0. -1.
</event>
<event>
 5   0  0.9346836E-05  0.1099730E+04  0.7818609E-02  0.9205455E-01
        1   -1    0    0  501    0  0.00000000000E+00  0.00000000000E+00  0.20149293833E+04  0.20149293833E+04  0.50400001928E-02 0. -1.
       -1   -1    0    0    0  501  0.00000000000E+00  0.00000000000E+00 -0.15005566361E+03  0.15005566370E+03  0.50400001928E-02 0.  1.
    10030    2    1    2    0    0  0.00000000000E+00  0.00000000000E+00  0.18648737197E+04  0.21649850470E+04  0.10997300866E+04 0.  0.
        5    1    3    3  502    0  0.39164242476E+03  0.92282234377E+02  0.19470550579E+03  0.44702586462E+03  0.46999998093E+01 0.  1.
       -5    1    3    3    0  502 -0.39164242476E+03 -0.92282234377E+02  0.16701682139E+04  0.17179591824E+04  0.46999998093E+01 0. -1.
</event>
<event>
 5   0  0.1464205E-04  0.1100402E+04  0.7818609E-02  0.9204800E-01
        2   -1    0    0  501    0  0.00000000000E+00  0.00000000000E+00  0.56179141681E+03  0.56179141681E+03  0.25500000920E-02 0.  1.
       -2   -1    0    0    0  501  0.00000000000E+00  0.00000000000E+00 -0.53884988363E+03  0.53884988364E+03  0.25500000920E-02 0. -1.
    10030    2    1    2    0    0  0.00000000000E+00  0.00000000000E+00  0.22941533175E+02  0.11006413004E+04  0.11004021803E+04 0.  0.
        3    1    3    3  502    0 -0.39560798218E+03  0.37427625903E+02 -0.36915722856E+03  0.54238692125E+03  0.10100000352E+00 0. -1.
       -3    1    3    3    0  502  0.39560798218E+03 -0.37427625903E+02  0.39209876173E+03  0.55825437920E+03  0.10100000352E+00 0.  1.
</event>
<event>
 5   0  0.8921459E-05  0.1100293E+04  0.7818609E-02  0.9204907E-01
        1   -1    0    0  501    0  0.00000000000E+00  0.00000000000E+00  0.41818475266E+03  0.41818475269E+03  0.50400001928E-02 0.  1.
       -1   -1    0    0    0  501  0.00000000000E+00  0.00000000000E+00 -0.72374931353E+03  0.72374931355E+03  0.50400001928E-02 0. -1.
    10030    2    1    2    0    0  0.00000000000E+00  0.00000000000E+00 -0.30556456087E+03  0.11419340662E+04  0.11002925569E+04 0.  0.
        3    1    3    3  502    0 -0.32967240763E+03 -0.93632523672E+02  0.29386535232E+03  0.45145077399E+03  0.10100000352E+00 0.  1.
       -3    1    3    3    0  502  0.32967240763E+03  0.93632523672E+02 -0.59942991320E+03  0.69048329225E+03  0.10100000352E+00 0. -1.
</event>
<event>
 5   0  0.9346836E-05  0.1099973E+04  0.7818609E-02  0.9205218E-01
        1   -1    0    0  501    0  0.00000000000E+00  0.00000000000E+00  0.20235591192E+04  0.20235591192E+04  0.50400001928E-02 0. -1.
       -1   -1    0    0    0  501  0.00000000000E+00  0.00000000000E+00 -0.14948172181E+03  0.14948172189E+03  0.50400001928E-02 0.  1.
    10030    2    1    2    0    0  0.00000000000E+00  0.00000000000E+00  0.18740773974E+04  0.21730408411E+04  0.10999729113E+04 0.  0.
        5    1    3    3  502    0  0.37789660447E+03  0.38552697516E+03  0.72959643652E+03  0.90761772924E+03  0.46999998093E+01 0.  1.
       -5    1    3    3    0  502 -0.37789660447E+03 -0.38552697516E+03  0.11444809609E+04  0.12654231119E+04  0.46999998093E+01 0. -1.
</event>
<event>
 5   0  0.1464205E-04  0.1099976E+04  0.7818609E-02  0.9205215E-01
        2   -1    0    0  501    0  0.00000000000E+00  0.00000000000E+00  0.14724818705E+04  0.14724818705E+04  0.25500000920E-02 0.  1.
       -2   -1    0    0    0  501  0.00000000000E+00  0.00000000000E+00 -0.20542652099E+03  0.20542652100E+03  0.25500000920E-02 0. -1.
    10030    2    1    2    0    0  0.00000000000E+00  0.00000000000E+00  0.12670553495E+04  0.16779083915E+04  0.10999760505E+04 0.  0.
        3    1    3    3  502    0  0.10451436662E+03  0.65418043604E+02  0.14511274618E+04  0.14563563073E+04  0.10100000352E+00 0.  1.
       -3    1    3    3    0  502 -0.10451436662E+03 -0.65418043604E+02 -0.18407211233E+03  0.22155208416E+03  0.10100000352E+00 0. -1.
</event>
<event>
 5   0  0.1553937E-04  0.1099907E+04  0.7818609E-02  0.9205282E-01
       -2   -1    0    0    0  501  0.00000000000E+00  0.00000000000E+00  0.14525172496E+03  0.14525172498E+03  0.25500000920E-02 0.  1.
        2   -1    0    0  501    0  0.00000000000E+00  0.00000000000E+00 -0.20822407793E+04  0.20822407793E+04  0.25500000920E-02 0. -1.
    10030    2    1    2    0    0  0.00000000000E+00  0.00000000000E+00 -0.19369890544E+04  0.22274925043E+04  0.10999073870E+04 0.  0.
        1    1    3    3  502    0  0.27453985853E+03  0.47169085988E+03 -0.83137039954E+03  0.99450547634E+03  0.50400001928E-02 0.  1.
       -1    1    3    3    0  502 -0.27453985853E+03 -0.47169085988E+03 -0.11056186548E+04  0.12329870280E+04  0.50400001928E-02 0. -1.
</event>
<event>
 5   0  0.1574101E-04  0.1101416E+04  0.7818609E-02  0.9203813E-01
       -2   -1    0    0    0  501  0.00000000000E+00  0.00000000000E+00  0.16926437409E+04  0.16926437409E+04  0.25500000920E-02 0.  1.
        2   -1    0    0  501    0  0.00000000000E+00  0.00000000000E+00 -0.17917496736E+03  0.17917496737E+03  0.25500000920E-02 0. -1.
    10030    2    1    2    0    0  0.00000000000E+00  0.00000000000E+00  0.15134687736E+04  0.18718187083E+04  0.11014161558E+04 0.  0.
        4    1    3    3  502    0  0.25123433684E+03  0.16292223363E+03  0.15422026622E+04  0.15710038226E+04  0.12699999809E+01 0.  1.
       -4    1    3    3    0  502 -0.25123433684E+03 -0.16292223363E+03 -0.28733888665E+02  0.30081488573E+03  0.12699999809E+01 0. -1.
</event>
<event>
 5   0  0.8621738E-05  0.1099868E+04  0.7818609E-02  0.9205321E-01
       -1   -1    0    0    0  501  0.00000000000E+00  0.00000000000E+00  0.47307917211E+03  0.47307917214E+03  0.50400001928E-02 0.  1.
        1   -1    0    0  501    0  0.00000000000E+00  0.00000000000E+00 -0.63927403847E+03  0.63927403849E+03  0.50400001928E-02 0. -1.
    10030    2    1    2    0    0  0.00000000000E+00  0.00000000000E+00 -0.16619486635E+03  0.11123532106E+04  0.10998676882E+04 0.  0.
        2    1    3    3  502    0  0.16879803779E+03  0.50424403273E+03 -0.22494799533E+03  0.57737026484E+03  0.25500000920E-02 0.  1.
       -2    1    3    3    0  502 -0.16879803779E+03 -0.50424403273E+03  0.58753128980E+02  0.53498294579E+03  0.25500000920E-02 0. -1.
</event>
<event>
 5   0  0.1503277E-04  0.1099190E+04  0.7818609E-02  0.9205982E-01
        2   -1    0    0  501    0  0.00000000000E+00  0.00000000000E+00  0.71781425057E+03  0.71781425057E+03  0.25500000920E-02 0.  1.
       -2   -1    0    0    0  501  0.00000000000E+00  0.00000000000E+00 -0.42079753843E+03  0.42079753844E+03  0.25500000920E-02 0. -1.
    10030    2    1    2    0    0  0.00000000000E+00  0.00000000000E+00  0.29701671213E+03  0.11386117890E+04  0.10991896464E+04 0.  0.
        5    1    3    3  502    0 -0.46952189414E+03  0.25999233290E+03  0.27101028804E+03  0.60126158073E+03  0.46999998093E+01 0. -1.
       -5    1    3    3    0  502  0.46952189414E+03 -0.25999233290E+03  0.26006424097E+02  0.53735020828E+03  0.46999998093E+01 0.  1.
</event>
<event>
 5   0  0.9016738E-05  0.1100454E+04  0.7818609E-02  0.9204749E-01
       -1   -1    0    0    0  501  0.00000000000E+00  0.00000000000E+00  0.26964494706E+03  0.26964494710E+03  0.50400001928E-02 0. -1.
        1   -1    0    0  501    0  0.00000000000E+00  0.00000000000E+00 -0.11227721863E+04  0.11227721863E+04  0.50400001928E-02 0.  1.
    10030    2    1    2    0    0  0.00000000000E+00  0.00000000000E+00 -0.85312723921E+03  0.13924171334E+04  0.11004541731E+04 0.  0.
        4    1    3    3  502    0  0.29806241571E+03 -0.60782376423E+02 -0.10066954563E+04  0.10516525356E+04  0.12699999809E+01 0.  1.
       -4    1    3    3    0  502 -0.29806241571E+03  0.60782376423E+02  0.15356821707E+03  0.34076459783E+03  0.12699999809E+01 0. -1.
</event>
<event>
 5   0  0.1553937E-04  0.1099927E+04  0.7818609E-02  0.9205263E-01
       -2   -1    0    0    0  501  0.00000000000E+00  0.00000000000E+00  0.26253898443E+03  0.26253898444E+03  0.25500000920E-02 0.  1.
        2   -1    0    0  501    0  0.00000000000E+00  0.00000000000E+00 -0.11520570396E+04  0.11520570397E+04  0.25500000920E-02 0. -1.
    10030    2    1    2    0    0  0.00000000000E+00  0.00000000000E+00 -0.88951805522E+03  0.14145960241E+04  0.10999270616E+04 0.  0.
        1    1    3    3  502    0 -0.35640693754E+03  0.41873761526E+03 -0.45714751371E+03  0.71508806792E+03  0.50400001928E-02 0.  1.
       -1    1    3    3    0  502  0.35640693754E+03 -0.41873761526E+03 -0.43237054151E+03  0.69950795617E+03  0.50400001928E-02 0. -1.
</event>
<event>
 5   0  0.1503277E-04  0.1099481E+04  0.7818609E-02  0.9205698E-01
        2   -1    0    0  501    0  0.00000000000E+00  0.00000000000E+00  0.87401704797E+03  0.87401704797E+03  0.25500000920E-02 0. -1.
       -2   -1    0    0    0  501  0.00000000000E+00  0.00000000000E+00 -0.34577637906E+03  0.34577637907E+03  0.25500000920E-02 0.  1.
    10030    2    1    2    0    0  0.00000000000E+00  0.00000000000E+00  0.52824066891E+03  0.12197934270E+04  0.10994806958E+04 0.  0.
        5    1    3    3  502    0  0.19721647267E+03 -0.32028779083E+03  0.70887980346E+03  0.80250312884E+03  0.46999998093E+01 0. -1.
       -5    1    3    3    0  502 -0.19721647267E+03  0.32028779083E+03 -0.18063913454E+03  0.41729029820E+03  0.46999998093E+01 0.  1.
</event>
<event>
 5   0  0.1540772E-04  0.1100202E+04  0.7818609E-02  0.9204995E-01
       -2   -1    0    0    0  501  0.00000000000E+00  0.00000000000E+00  0.49093838699E+03  0.49093838700E+03  0.25500000920E-02 0. -1.
        2   -1    0    0  501    0  0.00000000000E+00  0.00000000000E+00 -0.61639319652E+03  0.61639319653E+03  0.25500000920E-02 0.  1.
    10030    2    1    2    0    0  0.00000000000E+00  0.00000000000E+00 -0.12545480953E+03  0.11073315835E+04  0.11002019481E+04 0.  0.
        2    1    3    3  502    0 -0.38628741504E+03  0.38557280068E+03  0.64693418299E+01  0.54582616649E+03  0.25500000920E-02 0. -1.
       -2    1    3    3    0  502  0.38628741504E+03 -0.38557280068E+03 -0.13192415136E+03  0.56150541703E+03  0.25500000920E-02 0.  1.
</event>
<event>
 5   0  0.8657442E-05  0.1095568E+04  0.7818609E-02  0.9209523E-01
        1   -1    0    0  501    0  0.00000000000E+00  0.00000000000E+00  0.33051794893E+03  0.33051794897E+03  0.50400001928E-02 0. -1.
       -1   -1    0    0    0  501  0.00000000000E+00  0.00000000000E+00 -0.90786967922E+03  0.90786967923E+03  0.50400001928E-02 0.  1.
    10030    2    1    2    0    0  0.00000000000E+00  0.00000000000E+00 -0.57735173029E+03  0.12383876282E+04  0.10955678424E+04 0.  0.
        1    1    3    3  502    0  0.17910826667E+03 -0.51084325116E+03 -0.38342837936E+03  0.66336861590E+03  0.50400001928E-02 0.  1.
       -1    1    3    3    0  502 -0.17910826667E+03  0.51084325116E+03 -0.19392335093E+03  0.57501901230E+03  0.50400001928E-02 0. -1.
</event>
<event>
 5   0  0.9016738E-05  0.1101051E+04  0.7818609E-02  0.9204169E-01
       -1   -1    0    0    0  501  0.00000000000E+00  0.00000000000E+00  0.55884620563E+03  0.55884620565E+03  0.50400001928E-02 0. -1.
        1   -1    0    0  501    0  0.00000000000E+00  0.00000000000E+00 -0.54232823947E+03  0.54232823950E+03  0.50400001928E-02 0.  1.
    10030    2    1    2    0    0  0.00000000000E+00  0.00000000000E+00  0.16517966155E+02  0.11011744451E+04  0.11010505508E+04 0.  0.
        4    1    3    3  502    0  0.16043717208E+02  0.39882829944E+03 -0.37093411575E+03  0.54489920575E+03  0.12699999809E+01 0.  1.
       -4    1    3    3    0  502 -0.16043717208E+02 -0.39882829944E+03  0.38745208190E+03  0.55627523940E+03  0.12699999809E+01 0. -1.
</event>
<event>
 5   0  0.1540772E-04  0.1100135E+04  0.7818609E-02  0.9205060E-01
        2   -1    0    0  501    0  0.00000000000E+00  0.00000000000E+00  0.43065703693E+03  0.43065703694E+03  0.25500000920E-02 0.  1.
       -2   -1    0    0    0  501  0.00000000000E+00  0.00000000000E+00 -0.70258786056E+03  0.70258786056E+03  0.25500000920E-02 0. -1.
    10030    2    1    2    0    0  0.00000000000E+00  0.00000000000E+00 -0.27193082362E+03  0.11332448975E+04  0.11001352757E+04 0.  0.
        2    1    3    3  502    0 -0.31064374908E+03 -0.39985701964E+03  0.85419515253E+02  0.51349943387E+03  0.25500000920E-02 0.  1.
       -2    1    3    3    0  502  0.31064374908E+03  0.39985701964E+03 -0.35735033888E+03  0.61974546363E+03  0.25500000920E-02 0. -1.
</event>
<event>
 5   0  0.1503277E-04  0.1099459E+04  0.7818609E-02  0.9205720E-01
       -2   -1    0    0    0  501  0.00000000000E+00  0.00000000000E+00  0.74396486275E+03  0.74396486275E+03  0.25500000920E-02 0.  1.
        2   -1    0    0  501    0  0.00000000000E+00  0.00000000000E+00 -0.40620510170E+03  0.40620510171E+03  0.25500000920E-02 0. -1.
    10030    2    1    2    0    0  0.00000000000E+00  0.00000000000E+00  0.33775976104E+03  0.11501699645E+04  0.10994586354E+04 0.  0.
        5    1    3    3  502    0 -0.54016264593E+03 -0.76796618320E+02  0.23910922653E+03  0.59570858384E+03  0.46999998093E+01 0.  1.
       -5    1    3    3    0  502  0.54016264593E+03  0.76796618320E+02  0.98650534511E+02  0.55446138062E+03  0.46999998093E+01 0. -1.
</event>
<event>
 5   0  0.9016738E-05  0.1102334E+04  0.7818609E-02  0.9202920E-01
        1   -1    0    0  501    0  0.00000000000E+00  0.00000000000E+00  0.69654792349E+03  0.69654792351E+03  0.50400001928E-02 0. -1.
       -1   -1    0    0    0  501  0.00000000000E+00  0.00000000000E+00 -0.43612941797E+03  0.43612941800E+03  0.50400001928E-02 0.  1.
    10030    2    1    2    0    0  0.00000000000E+00  0.00000000000E+00  0.26041850552E+03  0.11326773415E+04  0.11023339612E+04 0.  0.
        4    1    3    3  502    0  0.34938405130E+03 -0.11773730081E+03  0.55118440913E+03  0.66312680014E+03  0.12699999809E+01 0. -1.
       -4    1    3    3    0  502 -0.34938405130E+03  0.11773730081E+03 -0.29076590360E+03  0.46955054137E+03  0.12699999809E+01 0.  1.
</event>
<event>
 5   0  0.8621738E-05  0.1099679E+04  0.7818609E-02  0.9205505E-01
       -1   -1    0    0    0  501  0.00000000000E+00  0.00000000000E+00  0.12683294070E+03  0.12683294080E+03  0.50400001928E-02 0. -1.
        1   -1    0    0  501    0  0.00000000000E+00  0.00000000000E+00 -0.23836350184E+04  0.23836350185E+04  0.50400001928E-02 0.  1.
    10030    2    1    2    0    0  0.00000000000E+00  0.00000000000E+00 -0.22568020777E+04  0.25104679592E+04  0.10996789333E+04 0.  0.
        2    1    3    3  502    0  0.20335083488E+03  0.10482081227E+03 -0.22698205608E+04  0.22813207453E+04  0.25500000920E-02 0.  1.
       -2    1    3    3    0  502 -0.20335083488E+03 -0.10482081227E+03  0.13018483097E+02  0.22914721390E+03  0.25500000920E-02 0. -1.
</event>
<event>
 5   0  0.6010125E-05  0.1100605E+04  0.7818609E-02  0.9204602E-01
        3   -1    0    0  501    0  0.00000000000E+00  0.00000000000E+00  0.22756925649E+03  0.22756927890E+03  0.10100000352E+00 0.  1.
       -3   -1    0    0    0  501  0.00000000000E+00  0.00000000000E+00 -0.13307280941E+04  0.13307280980E+04  0.10100000352E+00 0. -1.
    10030    2    1    2    0    0  0.00000000000E+00  0.00000000000E+00 -0.11031588377E+04  0.15582973769E+04  0.11006049671E+04 0.  0.
        3    1    3    3  502    0  0.44666984144E+03  0.11809648601E+03 -0.12830714776E+03  0.47950334892E+03  0.10100000352E+00 0.  1.
       -3    1    3    3    0  502 -0.44666984144E+03 -0.11809648601E+03 -0.97485168990E+03  0.10787940280E+04  0.10100000352E+00 0. -1.
</event>
<event>
 5   0  0.1574101E-04  0.1100550E+04  0.7818609E-02  0.9204656E-01
       -2   -1    0    0    0  501  0.00000000000E+00  0.00000000000E+00  0.19286693559E+03  0.19286693561E+03  0.25500000920E-02 0.  1.
        2   -1    0    0  501    0  0.00000000000E+00  0.00000000000E+00 -0.15700066692E+04  0.15700066692E+04  0.25500000920E-02 0. -1.
    10030    2    1    2    0    0  0.00000000000E+00  0.00000000000E+00 -0.13771397336E+04  0.17628736048E+04  0.11005496357E+04 0.  0.
        4    1    3    3  502    0 -0.42399594355E+03 -0.35052672522E+03 -0.70878172751E+03  0.89722611163E+03  0.12699999809E+01 0. -1.
       -4    1    3    3    0  502  0.42399594355E+03  0.35052672522E+03 -0.66835800611E+03  0.86564749319E+03  0.12699999809E+01 0.  1.
</event>
<event>
 5   0  0.9346836E-05  0.1099975E+04  0.7818609E-02  0.9205216E-01
       -1   -1    0    0    0  501  0.00000000000E+00  0.00000000000E+00  0.33598787838E+03  0.33598787842E+03  0.50400001928E-02 0. -1.
        1   -1    0    0  501    0  0.00000000000E+00  0.00000000000E+00 -0.90028897035E+03  0.90028897036E+03  0.50400001928E-02 0.  1.
    10030    2    1    2    0    0  0.00000000000E+00  0.00000000000E+00 -0.56430109196E+03  0.12362768488E+04  0.10999748745E+04 0.  0.
        5    1    3    3  502    0 -0.10811583746E+03  0.19443555296E+03  0.28313433794E+03  0.36011298488E+03  0.46999998093E+01 0. -1.
       -5    1    3    3    0  502  0.10811583746E+03 -0.19443555296E+03 -0.84743542990E+03  0.87616386390E+03  0.46999998093E+01 0.  1.
</event>
<event>
 5   0  0.1574101E-04  0.1099638E+04  0.7818609E-02  0.9205545E-01
       -2   -1    0    0    0  501  0.00000000000E+00  0.00000000000E+00  0.73341025603E+03  0.73341025603E+03  0.25500000920E-02 0.  1.
        2   -1    0    0  501    0  0.00000000000E+00  0.00000000000E+00 -0.41218499036E+03  0.41218499036E+03  0.25500000920E-02 0. -1.
    10030    2    1    2    0    0  0.00000000000E+00  0.00000000000E+00  0.32122526567E+03  0.11455952464E+04  0.10996375754E+04 0.  0.
        4    1    3    3  502    0 -0.50598325780E+03  0.13012206786E+03  0.33908580129E+03  0.62284155550E+03  0.12699999809E+01 0.  1.
       -4    1    3    3    0  502  0.50598325780E+03 -0.13012206786E+03 -0.17860535619E+02  0.52275369090E+03  0.12699999809E+01 0. -1.
</event>
<event>
 5   0  0.1574101E-04  0.1100142E+04  0.7818609E-02  0.9205054E-01
        2   -1    0    0  501    0  0.00000000000E+00  0.00000000000E+00  0.50542473191E+03  0.50542473192E+03  0.25500000920E-02 0.  1.
       -2   -1    0    0    0  501  0.00000000000E+00  0.00000000000E+00 -0.59866051770E+03  0.59866051770E+03  0.25500000920E-02 0. -1.
    10030    2    1    2    0    0  0.00000000000E+00  0.00000000000E+00 -0.93235785787E+02  0.11040852496E+04  0.11001415030E+04 0.  0.
        4    1    3    3  502    0  0.53946482817E+03  0.44778923811E+02  0.51450189315E+02  0.54376114952E+03  0.12699999809E+01 0.  1.
       -4    1    3    3    0  502 -0.53946482817E+03 -0.44778923811E+02 -0.14468597510E+03  0.56032410009E+03  0.12699999809E+01 0. -1.
</event>
<event>
 5   0  0.1464205E-04  0.1100030E+04  0.7818609E-02  0.9205162E-01
       -2   -1    0    0    0  501  0.00000000000E+00  0.00000000000E+00  0.17759820118E+03  0.17759820119E+03  0.25500000920E-02 0.  1.
        2   -1    0    0  501    0  0.00000000000E+00  0.00000000000E+00 -0.17033772115E+04  0.17033772115E+04  0.25500000920E-02 0. -1.
    10030    2    1    2    0    0  0.00000000000E+00  0.00000000000E+00 -0.15257790103E+04  0.18809754127E+04  0.11000304154E+04 0.  0.
        3    1    3    3  502    0 -0.20549394862E+03 -0.50850598574E+03 -0.69216743752E+03  0.88312053097E+03  0.10100000352E+00 0.  1.
       -3    1    3    3    0  502  0.20549394862E+03  0.50850598574E+03 -0.83361157277E+03  0.99785488169E+03  0.10100000352E+00 0. -1.
</event>
<event>
 5   0  0.8621738E-05  0.1099782E+04  0.7818609E-02  0.9205404E-01
       -1   -1    0    0    0  501  0.00000000000E+00  0.00000000000E+00  0.22599474895E+03  0.22599474900E+03  0.50400001928E-02 0.  1.
        1   -1    0    0  501    0  0.00000000000E+00  0.00000000000E+00 -0.13379963480E+04  0.13379963480E+04  0.50400001928E-02 0. -1.
    10030    2    1    2    0    0  0.00000000000E+00  0.00000000000E+00 -0.11120015991E+04  0.15639910970E+04  0.10997820672E+04 0.  0.
        2    1    3    3  502    0  0.37480500287E+03 -0.37314545879E+03 -0.34191185121E+03  0.62977776842E+03  0.25500000920E-02 0.  1.
       -2    1    3    3    0  502 -0.37480500287E+03  0.37314545879E+03 -0.77008974787E+03  0.93421332862E+03  0.25500000920E-02 0. -1.
</event>
<event>
 5   0  0.9016738E-05  0.1100409E+04  0.7818609E-02  0.9204793E-01
        1   -1    0    0  501    0  0.00000000000E+00  0.00000000000E+00  0.74293044458E+03  0.74293044460E+03  0.50400001928E-02 0.  1.
       -1   -1    0    0    0  501  0.00000000000E+00  0.00000000000E+00 -0.40747427767E+03  0.40747427770E+03  0.50400001928E-02 0. -1.
    10030    2    1    2    0    0  0.00000000000E+00  0.00000000000E+00  0.33545616691E+03  0.11504047223E+04  0.11004090990E+04 0.  0.
        4    1    3    3  502    0  0.27299063928E+03 -0.13026936758E+03 -0.31275013309E+03  0.43509568592E+03  0.12699999809E+01 0. -1.
       -4    1    3    3    0  502 -0.27299063928E+03  0.13026936758E+03  0.64820630000E+03  0.71530903637E+03  0.12699999809E+01 0.  1.
</event>
<event>
 5   0  0.9346836E-05  0.1099271E+04  0.7818609E-02  0.9205902E-01
       -1   -1    0    0    0  501  0.00000000000E+00  0.00000000000E+00  0.10955617125E+04  0.10955617125E+04  0.50400001928E-02 0.  1.
        1   -1    0    0  501    0  0.00000000000E+00  0.00000000000E+00 -0.27574834114E+03  0.27574834118E+03  0.50400001928E-02 0. -1.
    10030    2    1    2    0    0  0.00000000000E+00  0.00000000000E+00  0.81981337134E+03  0.13713100537E+04  0.10992712584E+04 0.  0.
        5    1    3    3  502    0 -0.35647838056E+03 -0.17401485105E+03  0.88446972369E+03  0.96936411442E+03  0.46999998093E+01 0.  1.
       -5    1    3    3    0  502  0.35647838056E+03  0.17401485105E+03 -0.64656352350E+02  0.40194593926E+03  0.46999998093E+01 0. -1.
</event>
<event>
 5   0  0.1553937E-04  0.1100396E+04  0.7818609E-02  0.9204806E-01
       -2   -1    0    0    0  501  0.00000000000E+00  0.00000000000E+00  0.11541023055E+03  0.11541023058E+03  0.25500000920E-02 0. -1.
        2   -1    0    0  501    0  0.00000000000E+00  0.00000000000E+00 -0.26229709669E+04  0.26229709669E+04  0.25500000920E-02 0.  1.
    10030    2    1    2    0    0  0.00000000000E+00  0.00000000000E+00 -0.25075607364E+04  0.27383811975E+04  0.11003957180E+04 0.  0.
        1    1    3    3  502    0  0.30484420951E+03  0.14539395017E+03 -0.17291537746E+03  0.37943262986E+03  0.50400001928E-02 0. -1.
       -1    1    3    3    0  502 -0.30484420951E+03 -0.14539395017E+03 -0.23346453589E+04  0.23589485676E+04  0.50400001928E-02 0.  1.
</event>
<event>
 5   0  0.1503277E-04  0.1100026E+04  0.7818609E-02  0.9205167E-01
       -2   -1    0    0    0  501  0.00000000000E+00  0.00000000000E+00  0.12988962870E+04  0.12988962870E+04  0.25500000920E-02 0. -1.
        2   -1    0    0  501    0  0.00000000000E+00  0.00000000000E+00 -0.23290099671E+03  0.23290099673E+03  0.25500000920E-02 0.  1.
    10030    2    1    2    0    0  0.00000000000E+00  0.00000000000E+00  0.10659952903E+04  0.15317972838E+04  0.11000258904E+04 0.  0.
        5    1    3    3  502    0 -0.15263143548E+03  0.39354351331E+03  0.10239820102E+04  0.11075802902E+04  0.46999998093E+01 0. -1.
       -5    1    3    3    0  502  0.15263143548E+03 -0.39354351331E+03  0.42013280139E+02  0.42421699361E+03  0.46999998093E+01 0.  1.
</event>
<event>
 5   0  0.1574101E-04  0.1099982E+04  0.7818609E-02  0.9205209E-01
       -2   -1    0    0    0  501  0.00000000000E+00  0.00000000000E+00  0.20690298038E+03  0.20690298040E+03  0.25500000920E-02 0. -1.
        2   -1    0    0  501    0  0.00000000000E+00  0.00000000000E+00 -0.14619907495E+04  0.14619907495E+04  0.25500000920E-02 0.  1.
    10030    2    1    2    0    0  0.00000000000E+00  0.00000000000E+00 -0.12550877691E+04  0.16688937299E+04  0.10999822605E+04 0.  0.
        4    1    3    3  502    0  0.12180744157E+03  0.53597724601E+03 -0.59796939107E+03  0.81220543375E+03  0.12699999809E+01 0.  1.
       -4    1    3    3    0  502 -0.12180744157E+03 -0.53597724601E+03 -0.65711837802E+03  0.85668829611E+03  0.12699999809E+01 0. -1.
</event>
<event>
 5   0  0.9346836E-05  0.1100451E+04  0.7818609E-02  0.9204753E-01
        1   -1    0    0  501    0  0.00000000000E+00  0.00000000000E+00  0.90098677024E+03  0.90098677025E+03  0.50400001928E-02 0. -1.
       -1   -1    0    0    0  501  0.00000000000E+00  0.00000000000E+00 -0.33601814391E+03  0.33601814394E+03  0.50400001928E-02 0.  1.
    10030    2    1    2    0    0  0.00000000000E+00  0.00000000000E+00  0.56496862633E+03  0.12370049142E+04  0.11004506391E+04 0.  0.
        5    1    3    3  502    0  0.18078636082E+03 -0.12035051889E+03  0.85074220585E+03  0.87803892082E+03  0.46999998093E+01 0. -1.
       -5    1    3    3    0  502 -0.18078636082E+03  0.12035051889E+03 -0.28577357952E+03  0.35896599338E+03  0.46999998093E+01 0.  1.
</event>
<event>
 5   0  0.8657442E-05  0.1099951E+04  0.7818609E-02  0.9205240E-01
       -1   -1    0    0    0  501  0.00000000000E+00  0.00000000000E+00  0.12830314069E+04  0.12830314070E+04  0.50400001928E-02 0. -1.
        1   -1    0    0  501    0  0.00000000000E+00  0.00000000000E+00 -0.23574865260E+03  0.23574865265E+03  0.50400001928E-02 0.  1.
    10030    2    1    2    0    0  0.00000000000E+00  0.00000000000E+00  0.10472827543E+04  0.15187800596E+04  0.10999507725E+04 0.  0.
        1    1    3    3  502    0  0.10709527172E+03 -0.36520911239E+03  0.10718367104E+04  0.11374009965E+04  0.50400001928E-02 0. -1.
       -1    1    3    3    0  502 -0.10709527172E+03  0.36520911239E+03 -0.24553956069E+02  0.38137906312E+03  0.50400001928E-02 0.  1.
</event>
<event>
 5   0  0.6010125E-05  0.1099986E+04  0.7818609E-02  0.9205205E-01
       -4   -1    0    0    0  501  0.00000000000E+00  0.00000000000E+00  0.55294901764E+03  0.55295047609E+03  0.12699999809E+01 0.  1.
        4   -1    0    0  501    0  0.00000000000E+00  0.00000000000E+00 -0.54705005083E+03  0.54705152501E+03  0.12699999809E+01 0. -1.
    10030    2    1    2    0    0  0.00000000000E+00  0.00000000000E+00  0.58989668136E+01  0.11000020011E+04  0.10999861838E+04 0.  0.
        3    1    3    3  502    0  0.39694248396E+03 -0.35288302217E+03  0.14578930563E+03  0.55076700586E+03  0.10100000352E+00 0.  1.
       -3    1    3    3    0  502 -0.39694248396E+03  0.35288302217E+03 -0.13989033881E+03  0.54923499524E+03  0.10100000352E+00 0. -1.
</event>
<event>
 5   0  0.8621738E-05  0.1100122E+04  0.7818609E-02  0.9205073E-01
        1   -1    0    0  501    0  0.00000000000E+00  0.00000000000E+00  0.23770355715E+03  0.23770355721E+03  0.50400001928E-02 0. -1.
       -1   -1    0    0    0  501  0.00000000000E+00  0.00000000000E+00 -0.12728757314E+04  0.12728757314E+04  0.50400001928E-02 0.  1.
    10030    2    1    2    0    0  0.00000000000E+00  0.00000000000E+00 -0.10351721742E+04  0.15105792886E+04  0.11001219736E+04 0.  0.
        2    1    3    3  502    0 -0.19048113890E+03  0.44301671551E+03 -0.88092708585E+03  0.10042805410E+04  0.25500000920E-02 0. -1.
       -2    1    3    3    0  502  0.19048113890E+03 -0.44301671551E+03 -0.15424508837E+03  0.50629874757E+03  0.25500000920E-02 0.  1.
</event>
<event>
 5   0  0.8921459E-05  0.1099977E+04  0.7818609E-02  0.9205214E-01
        1   -1    0    0  501    0  0.00000000000E+00  0.00000000000E+00  0.22652256713E+03  0.22652256719E+03  0.50400001928E-02 0.  1.
       -1   -1    0    0    0  501  0.00000000000E+00  0.00000000000E+00 -0.13353516108E+04  0.13353516108E+04  0.50400001928E-02 0. -1.
    10030    2    1    2    0    0  0.00000000000E+00  0.00000000000E+00 -0.11088290437E+04  0.15618741780E+04  0.10999768633E+04 0.  0.
        3    1    3    3  502    0 -0.49716339902E+03 -0.17973255482E+03 -0.76981166703E+03  0.93385504736E+03  0.10100000352E+00 0. -1.
       -3    1    3    3    0  502  0.49716339902E+03  0.17973255482E+03 -0.33901737664E+03  0.62801913064E+03  0.10100000352E+00 0.  1.
</event>
<event>
 5   0  0.1553937E-04  0.1100280E+04  0.7818609E-02  0.9204919E-01
       -2   -1    0    0    0  501  0.00000000000E+00  0.00000000000E+00  0.68924402708E+03  0.68924402709E+03  0.25500000920E-02 0. -1.
        2   -1    0    0  501    0  0.00000000000E+00  0.00000000000E+00 -0.43911004396E+03  0.43911004397E+03  0.25500000920E-02 0.  1.
    10030    2    1    2    0    0  0.00000000000E+00  0.00000000000E+00  0.25013398312E+03  0.11283540711E+04  0.11002799190E+04 0.  0.
        1    1    3    3  502    0  0.27205640281E+03 -0.35480757373E+03 -0.20365970571E+03  0.49130476941E+03  0.50400001928E-02 0.  1.
       -1    1    3    3    0  502 -0.27205640281E+03  0.35480757373E+03  0.45379368883E+03  0.63704930165E+03  0.50400001928E-02 0. -1.
</event>
<event>
 5   0  0.8621738E-05  0.1099876E+04  0.7818609E-02  0.9205313E-01
        1   -1    0    0  501    0  0.00000000000E+00  0.00000000000E+00  0.17738894777E+04  0.17738894777E+04  0.50400001928E-02 0. -1.
       -1   -1    0    0    0  501  0.00000000000E+00  0.00000000000E+00 -0.17049079428E+03  0.17049079436E+03  0.50400001928E-02 0.  1.
    10030    2    1    2    0    0  0.00000000000E+00  0.00000000000E+00  0.16033986834E+04  0.19443802720E+04  0.10998760405E+04 0.  0.
        2    1    3    3  502    0 -0.14780842667E+03  0.52209567184E+03  0.64357495036E+03  0.84179566302E+03  0.25500000920E-02 0.  1.
       -2    1    3    3    0  502  0.14780842667E+03 -0.52209567184E+03  0.95982373301E+03  0.11025846090E+04  0.25500000920E-02 0. -1.
</event>
<event>
 5   0  0.9016738E-05  0.1099323E+04  0.7818609E-02  0.9205852E-01
        1   -1    0    0  501    0  0.00000000000E+00  0.00000000000E+00  0.56594857327E+03  0.56594857329E+03  0.50400001928E-02 0.  1.
       -1   -1    0    0    0  501  0.00000000000E+00  0.00000000000E+00 -0.53384293682E+03  0.53384293684E+03  0.50400001928E-02 0. -1.
    10030    2    1    2    0    0  0.00000000000E+00  0.00000000000E+00  0.32105636452E+02  0.10997915101E+04  0.10993227888E+04 0.  0.
        4    1    3    3  502    0  0.17921434496E+03 -0.41984886432E+03 -0.29023974546E+03  0.54095431698E+03  0.12699999809E+01 0. -1.
       -4    1    3    3    0  502 -0.17921434496E+03  0.41984886432E+03  0.32234538191E+03  0.55883719316E+03  0.12699999809E+01 0.  1.
</event>
<event>
 5   0  0.1574101E-04  0.1100900E+04  0.7818609E-02  0.9204315E-01
       -2   -1    0    0    0  501  0.00000000000E+00  0.00000000000E+00  0.41783140075E+03  0.41783140076E+03  0.25500000920E-02 0. -1.
        2   -1    0    0  501    0  0.00000000000E+00  0.00000000000E+00 -0.72516111208E+03  0.72516111208E+03  0.25500000920E-02 0.  1.
    10030    2    1    2    0    0  0.00000000000E+00  0.00000000000E+00 -0.30732971132E+03  0.11429925128E+04  0.11008997833E+04 0.  0.
        4    1    3    3  502    0 -0.54486421392E+03 -0.49900421606E+02 -0.91142713380E+02  0.55468519972E+03  0.12699999809E+01 0. -1.
       -4    1    3    3    0  502  0.54486421392E+03  0.49900421606E+02 -0.21618699794E+03  0.58830731312E+03  0.12699999809E+01 0.  1.
</event>
<event>
 5   0  0.9346836E-05  0.1100134E+04  0.7818609E-02  0.9205061E-01
       -1   -1    0    0    0  501  0.00000000000E+00  0.00000000000E+00  0.47620750405E+03  0.47620750408E+03  0.50400001928E-02 0. -1.
        1   -1    0    0  501    0  0.00000000000E+00  0.00000000000E+00 -0.63538209072E+03  0.63538209074E+03  0.50400001928E-02 0.  1.
    10030    2    1    2    0    0  0.00000000000E+00  0.00000000000E+00 -0.15917458667E+03  0.11115895948E+04  0.11001340274E+04 0.  0.
        5    1    3    3  502    0  0.12836138969E+03  0.52409242546E+03 -0.18747986411E+03  0.57124452403E+03  0.46999998093E+01 0.  1.
       -5    1    3    3    0  502 -0.12836138969E+03 -0.52409242546E+03  0.28305277445E+02  0.54034507078E+03  0.46999998093E+01 0. -1.
</event>
<event>
 5   0  0.9346836E-05  0.1100117E+04  0.7818609E-02  0.9205078E-01
        1   -1    0    0  501    0  0.00000000000E+00  0.00000000000E+00  0.14702333447E+04  0.14702333447E+04  0.50400001928E-02 0.  1.
       -1   -1    0    0    0  501  0.00000000000E+00  0.00000000000E+00 -0.20579326196E+03  0.20579326202E+03  0.50400001928E-02 0. -1.
    10030    2    1    2    0    0  0.00000000000E+00  0.00000000000E+00  0.12644400828E+04  0.16760266068E+04  0.11001165682E+04 0.  0.
        5    1    3    3  502    0  0.43448756515E+03  0.31648947905E+03  0.80986938739E+03  0.97203680447E+03  0.46999998093E+01 0.  1.
       -5    1    3    3    0  502 -0.43448756515E+03 -0.31648947905E+03  0.45457069539E+03  0.70398980229E+03  0.46999998093E+01 0. -1.
</event>
<event>
 5   0  0.6010125E-05  0.1098183E+04  0.7818609E-02  0.9206965E-01
        3   -1    0    0  501    0  0.00000000000E+00  0.00000000000E+00  0.15941241107E+04  0.15941241139E+04  0.10100000352E+00 0.  1.
       -3   -1    0    0    0  501  0.00000000000E+00  0.00000000000E+00 -0.18913296130E+03  0.18913298826E+03  0.10100000352E+00 0. -1.
    10030    2    1    2    0    0  0.00000000000E+00  0.00000000000E+00  0.14049911494E+04  0.17832571021E+04  0.10981829367E+04 0.  0.
        3    1    3    3  502    0  0.28073606431E+03  0.32805672290E+03  0.12533230191E+04  0.13256140281E+04  0.10100000352E+00 0.  1.
       -3    1    3    3    0  502 -0.28073606431E+03 -0.32805672290E+03  0.15166813032E+03  0.45764307402E+03  0.10100000352E+00 0. -1.
</event>
<event>
 5   0  0.8621738E-05  0.1094330E+04  0.7818609E-02  0.9210736E-01
        1   -1    0    0  501    0  0.00000000000E+00  0.00000000000E+00  0.44584534382E+03  0.44584534385E+03  0.50400001928E-02 0. -1.
       -1   -1    0    0    0  501  0.00000000000E+00  0.00000000000E+00 -0.67150992980E+03  0.67150992982E+03  0.50400001928E-02 0.  1.
    10030    2    1    2    0    0  0.00000000000E+00  0.00000000000E+00 -0.22566458598E+03  0.11173552737E+04  0.10943300701E+04 0.  0.
        2    1    3    3  502    0  0.39941525469E+02  0.46732268479E+03  0.17488335317E+03  0.50056967986E+03  0.25500000920E-02 0. -1.
       -2    1    3    3    0  502 -0.39941525469E+02 -0.46732268479E+03 -0.40054793914E+03  0.61678559381E+03  0.25500000920E-02 0.  1.
</event>
<event>
 5   0  0.1553937E-04  0.1098541E+04  0.7818609E-02  0.9206615E-01
       -2   -1    0    0    0  501  0.00000000000E+00  0.00000000000E+00  0.30002559116E+03  0.30002559117E+03  0.25500000920E-02 0.  1.
        2   -1    0    0  501    0  0.00000000000E+00  0.00000000000E+00 -0.10055748469E+04  0.10055748469E+04  0.25500000920E-02 0. -1.
    10030    2    1    2    0    0  0.00000000000E+00  0.00000000000E+00 -0.70554925571E+03  0.13056004380E+04  0.10985411925E+04 0.  0.
        1    1    3    3  502    0 -0.20603861317E+03 -0.27001893887E+03  0.16025492546E+03  0.37555795641E+03  0.50400001928E-02 0.  1.
       -1    1    3    3    0  502  0.20603861317E+03  0.27001893887E+03 -0.86580418118E+03  0.93004248163E+03  0.50400001928E-02 0. -1.
</event>
<event>
 5   0  0.8621738E-05  0.1100069E+04  0.7818609E-02  0.9205124E-01
        1   -1    0    0  501    0  0.00000000000E+00  0.00000000000E+00  0.89812926363E+03  0.89812926365E+03  0.50400001928E-02 0. -1.
       -1   -1    0    0    0  501  0.00000000000E+00  0.00000000000E+00 -0.33685375941E+03  0.33685375945E+03  0.50400001928E-02 0.  1.
    10030    2    1    2    0    0  0.00000000000E+00  0.00000000000E+00  0.56127550423E+03  0.12349830231E+04  0.11000694868E+04 0.  0.
        2    1    3    3  502    0  0.52778504534E+03  0.12317581747E+03  0.38600394433E+03  0.66537837441E+03  0.25500000920E-02 0. -1.
       -2    1    3    3    0  502 -0.52778504534E+03 -0.12317581747E+03  0.17527155990E+03  0.56960464869E+03  0.25500000920E-02 0.  1.
</event>
<event>
 5   0  0.1553937E-04  0.1100530E+04  0.7818609E-02  0.9204676E-01
       -2   -1    0    0    0  501  0.00000000000E+00  0.00000000000E+00  0.16536545575E+03  0.16536545577E+03  0.25500000920E-02 0.  1.
        2   -1    0    0  501    0  0.00000000000E+00  0.00000000000E+00 -0.18310437916E+04  0.18310437916E+04  0.25500000920E-02 0. -1.
    10030    2    1    2    0    0  0.00000000000E+00  0.00000000000E+00 -0.16656783359E+04  0.19964092474E+04  0.11005296745E+04 0.  0.
        1    1    3    3  502    0  0.24154594974E+03  0.35562265496E+03 -0.20974879582E+03  0.47833719898E+03  0.50400001928E-02 0.  1.
       -1    1    3    3    0  502 -0.24154594974E+03 -0.35562265496E+03 -0.14559295400E+04  0.15180720484E+04  0.50400001928E-02 0. -1.
</event>
<event>
 5   0  0.1464205E-04  0.1096240E+04  0.7818609E-02  0.9208864E-01
        2   -1    0    0  501    0  0.00000000000E+00  0.00000000000E+00  0.11379035916E+04  0.11379035916E+04  0.25500000920E-02 0.  1.
       -2   -1    0    0    0  501  0.00000000000E+00  0.00000000000E+00 -0.26402543742E+03  0.26402543743E+03  0.25500000920E-02 0. -1.
    10030    2    1    2    0    0  0.00000000000E+00  0.00000000000E+00  0.87387815421E+03  0.14019290291E+04  0.10962399254E+04 0.  0.
        3    1    3    3  502    0 -0.41281271237E+03  0.29576724536E+03  0.70071422745E+03  0.86538606279E+03  0.10100000352E+00 0.  1.
       -3    1    3    3    0  502  0.41281271237E+03 -0.29576724536E+03  0.17316392677E+03  0.53654296627E+03  0.10100000352E+00 0. -1.
</event>
<event>
 5   0  0.1464205E-04  0.1099560E+04  0.7818609E-02  0.9205621E-01
       -2   -1    0    0    0  501  0.00000000000E+00  0.00000000000E+00  0.22908194284E+03  0.22908194285E+03  0.25500000920E-02 0. -1.
        2   -1    0    0  501    0  0.00000000000E+00  0.00000000000E+00 -0.13194322769E+04  0.13194322769E+04  0.25500000920E-02 0.  1.
    10030    2    1    2    0    0  0.00000000000E+00  0.00000000000E+00 -0.10903503341E+04  0.15485142198E+04  0.10995601110E+04 0.  0.
        3    1    3    3  502    0 -0.13857586821E+03  0.36384948360E+03  0.14722275319E+01  0.38934803919E+03  0.10100000352E+00 0. -1.
       -3    1    3    3    0  502  0.13857586821E+03 -0.36384948360E+03 -0.10918225616E+04  0.11591661806E+04  0.10100000352E+00 0.  1.
</event>
<event>
 5   0  0.8657442E-05  0.1099895E+04  0.7818609E-02  0.9205295E-01
        1   -1    0    0  501    0  0.00000000000E+00  0.00000000000E+00  0.10097981175E+04  0.10097981175E+04  0.50400001928E-02 0.  1.
       -1   -1    0    0    0  501  0.00000000000E+00  0.00000000000E+00 -0.29950747299E+03  0.29950747304E+03  0.50400001928E-02 0. -1.
    10030    2    1    2    0    0  0.00000000000E+00  0.00000000000E+00  0.71029064446E+03  0.13093055905E+04  0.10998946903E+04 0.  0.
        1    1    3    3  502    0 -0.13049167957E+02 -0.37884710054E+03 -0.11914278730E+03  0.39735426279E+03  0.50400001928E-02 0. -1.
       -1    1    3    3    0  502  0.13049167957E+02  0.37884710054E+03  0.82943343176E+03  0.91195132771E+03  0.50400001928E-02 0.  1.
</event>
<event>
 5   0  0.8921459E-05  0.1099818E+04  0.7818609E-02  0.9205370E-01
       -1   -1    0    0    0  501  0.00000000000E+00  0.00000000000E+00  0.52012497957E+03  0.52012497960E+03  0.50400001928E-02 0.  1.
        1   -1    0    0  501    0  0.00000000000E+00  0.00000000000E+00 -0.58139805489E+03  0.58139805492E+03  0.50400001928E-02 0. -1.
    10030    2    1    2    0    0  0.00000000000E+00  0.00000000000E+00 -0.61273075320E+02  0.11015230345E+04  0.10998175330E+04 0.  0.
        3    1    3    3  502    0 -0.45929140375E+03  0.11324734615E+03 -0.31147479783E+03  0.56638336385E+03  0.10100000352E+00 0. -1.
       -3    1    3    3    0  502  0.45929140375E+03 -0.11324734615E+03  0.25020172251E+03  0.53513967066E+03  0.10100000352E+00 0.  1.
</event>
<event>
 5   0  0.1464205E-04  0.1099556E+04  0.7818609E-02  0.9205625E-01
       -2   -1    0    0    0  501  0.00000000000E+00  0.00000000000E+00  0.14620493934E+03  0.14620493937E+03  0.25500000920E-02 0. -1.
        2   -1    0    0  501    0  0.00000000000E+00  0.00000000000E+00 -0.20673425315E+04  0.20673425315E+04  0.25500000920E-02 0.  1.
    10030    2    1    2    0    0  0.00000000000E+00  0.00000000000E+00 -0.19211375922E+04  0.22135474709E+04  0.10995557093E+04 0.  0.
        3    1    3    3  502    0  0.25540253450E+03 -0.82031192512E+02  0.55152306469E+01  0.26830952116E+03  0.10100000352E+00 0. -1.
       -3    1    3    3    0  502 -0.25540253450E+03  0.82031192512E+02 -0.19266528228E+04  0.19452379497E+04  0.10100000352E+00 0.  1.
</event>
<event>
 5   0  0.8921459E-05  0.1099396E+04  0.7818609E-02  0.9205781E-01
       -1   -1    0    0    0  501  0.00000000000E+00  0.00000000000E+00  0.50875748639E+03  0.50875748641E+03  0.50400001928E-02 0. -1.
        1   -1    0    0  501    0  0.00000000000E+00  0.00000000000E+00 -0.59393317421E+03  0.59393317423E+03  0.50400001928E-02 0.  1.
    10030    2    1    2    0    0  0.00000000000E+00  0.00000000000E+00 -0.85175687820E+02  0.11026906606E+04  0.10993961048E+04 0.  0.
        3    1    3    3  502    0 -0.17007210542E+03  0.26822551479E+03  0.40741966628E+03  0.51658517449E+03  0.10100000352E+00 0. -1.
       -3    1    3    3    0  502  0.17007210542E+03 -0.26822551479E+03 -0.49259535410E+03  0.58610548616E+03  0.10100000352E+00 0.  1.
</event>
<event>
 5   0  0.1540772E-04  0.1100326E+04  0.7818609E-02  0.9204874E-01
        2   -1    0    0  501    0  0.00000000000E+00  0.00000000000E+00  0.56291058242E+03  0.56291058243E+03  0.25500000920E-02 0. -1.
       -2   -1    0    0    0  501  0.00000000000E+00  0.00000000000E+00 -0.53770442169E+03  0.53770442169E+03  0.25500000920E-02 0.  1.
    10030    2    1    2    0    0  0.00000000000E+00  0.00000000000E+00  0.25206160735E+02  0.11006150041E+04  0.11003263319E+04 0.  0.
        2    1    3    3  502    0  0.29644785203E+03 -0.38706313862E+03  0.26758230846E+03  0.55614700760E+03  0.25500000920E-02 0. -1.
       -2    1    3    3    0  502 -0.29644785203E+03  0.38706313862E+03 -0.24237614773E+03  0.54446799653E+03  0.25500000920E-02 0.  1.
</event>
<event>
 5   0  0.8657442E-05  0.1100394E+04  0.7818609E-02  0.9204808E-01
       -1   -1    0    0    0  501  0.00000000000E+00  0.00000000000E+00  0.61572089992E+03  0.61572089994E+03  0.50400001928E-02 0. -1.
        1   -1    0    0  501    0  0.00000000000E+00  0.00000000000E+00 -0.49164613982E+03  0.49164613985E+03  0.50400001928E-02 0.  1.
    10030    2    1    2    0    0  0.00000000000E+00  0.00000000000E+00  0.12407476010E+03  0.11073670398E+04  0.11003941179E+04 0.  0.
        1    1    3    3  502    0 -0.12524274649E+03 -0.40230889808E+03 -0.29401049043E+03  0.51379019408E+03  0.50400001928E-02 0.  1.
       -1    1    3    3    0  502  0.12524274649E+03  0.40230889808E+03  0.41808525053E+03  0.59357684571E+03  0.50400001928E-02 0. -1.
</event>
<event>
 5   0  0.8657442E-05  0.1102080E+04  0.7818609E-02  0.9203167E-01
        1   -1    0    0  501    0  0.00000000000E+00  0.00000000000E+00  0.38478518503E+03  0.38478518506E+03  0.50400001928E-02 0.  1.
       -1   -1    0    0    0  501  0.00000000000E+00  0.00000000000E+00 -0.78912866217E+03  0.78912866219E+03  0.50400001928E-02 0. -1.
    10030    2    1    2    0    0  0.00000000000E+00  0.00000000000E+00 -0.40434347714E+03  0.11739138472E+04  0.11020798851E+04 0.  0.
        1    1    3    3  502    0  0.98067830494E+02  0.54217710322E+03 -0.21119172534E+03  0.59006377241E+03  0.50400001928E-02 0.  1.
       -1    1    3    3    0  502 -0.98067830494E+02 -0.54217710322E+03 -0.19315175180E+03  0.58385007483E+03  0.50400001928E-02 0. -1.
</event>
<event>
 5   0  0.8621738E-05  0.1100608E+04  0.7818609E-02  0.9204600E-01
        1   -1    0    0  501    0  0.00000000000E+00  0.00000000000E+00  0.69723979605E+03  0.69723979607E+03  0.50400001928E-02 0. -1.
       -1   -1    0    0    0  501  0.00000000000E+00  0.00000000000E+00 -0.43433295858E+03  0.43433295861E+03  0.50400001928E-02 0.  1.
    10030    2    1    2    0    0  0.00000000000E+00  0.00000000000E+00  0.26290683747E+03  0.11315727547E+04  0.11006075113E+04 0.  0.
        2    1    3    3  502    0  0.51793002165E+02  0.39449263204E+03 -0.25940989710E+03  0.47497415354E+03  0.25500000920E-02 0.  1.
       -2    1    3    3    0  502 -0.51793002165E+02 -0.39449263204E+03  0.52231673457E+03  0.65659860115E+03  0.25500000920E-02 0. -1.
</event>
<event>
 5   0  0.1574101E-04  0.1100139E+04  0.7818609E-02  0.9205057E-01
       -2   -1    0    0    0  501  0.00000000000E+00  0.00000000000E+00  0.26806243471E+03  0.26806243472E+03  0.25500000920E-02 0.  1.
        2   -1    0    0  501    0  0.00000000000E+00  0.00000000000E+00 -0.11287526990E+04  0.11287526991E+04  0.25500000920E-02 0. -1.
    10030    2    1    2    0    0  0.00000000000E+00  0.00000000000E+00 -0.86069026434E+03  0.13968151338E+04  0.11001385307E+04 0.  0.
        4    1    3    3  502    0  0.44665937616E+03 -0.10982914377E+03 -0.47317368330E+02  0.46239332324E+03  0.12699999809E+01 0.  1.
       -4    1    3    3    0  502 -0.44665937616E+03  0.10982914377E+03 -0.81337289601E+03  0.93442181053E+03  0.12699999809E+01 0. -1.
</event>
<event>
 5   0  0.8921459E-05  0.1101273E+04  0.7818609E-02  0.9203952E-01
       -1   -1    0    0    0  501  0.00000000000E+00  0.00000000000E+00  0.43183528290E+03  0.43183528293E+03  0.50400001928E-02 0.  1.
        1   -1    0    0  501    0  0.00000000000E+00  0.00000000000E+00 -0.70212043623E+03  0.70212043625E+03  0.50400001928E-02 0. -1.
    10030    2    1    2    0    0  0.00000000000E+00  0.00000000000E+00 -0.27028515333E+03  0.11339557192E+04  0.11012726769E+04 0.  0.
        3    1    3    3  502    0 -0.74472260877E+02 -0.29017358318E+03  0.34057906983E+03  0.45358674917E+03  0.10100000352E+00 0.  1.
       -3    1    3    3    0  502  0.74472260877E+02  0.29017358318E+03 -0.61086422316E+03  0.68036897001E+03  0.10100000352E+00 0. -1.
</event>
<event>
 5   0  0.9346836E-05  0.1099929E+04  0.7818609E-02  0.9205261E-01
        1   -1    0    0  501    0  0.00000000000E+00  0.00000000000E+00  0.12214471377E+04  0.12214471377E+04  0.50400001928E-02 0. -1.
       -1   -1    0    0    0  501  0.00000000000E+00  0.00000000000E+00 -0.24762519129E+03  0.24762519134E+03  0.50400001928E-02 0.  1.
    10030    2    1    2    0    0  0.00000000000E+00  0.00000000000E+00  0.97382194642E+03  0.14690723291E+04  0.10999292362E+04 0.  0.
        5    1    3    3  502    0  0.23960580498E+03  0.21055168780E+03 -0.11142874191E+03  0.33790739788E+03  0.46999998093E+01 0. -1.
       -5    1    3    3    0  502 -0.23960580498E+03 -0.21055168780E+03  0.10852506883E+04  0.11311649312E+04  0.46999998093E+01 0.  1.
</event>
<event>
 5   0  0.8621738E-05  0.1099903E+04  0.7818609E-02  0.9205286E-01
       -1   -1    0    0    0  501  0.00000000000E+00  0.00000000000E+00  0.77321282365E+03  0.77321282366E+03  0.50400001928E-02 0.  1.
        1   -1    0    0  501    0  0.00000000000E+00  0.00000000000E+00 -0.39115587086E+03  0.39115587089E+03  0.50400001928E-02 0. -1.
    10030    2    1    2    0    0  0.00000000000E+00  0.00000000000E+00  0.38205695279E+03  0.11643686946E+04  0.10999031510E+04 0.  0.
        2    1    3    3  502    0 -0.22682315501E+03  0.43264811756E+03 -0.76390788518E+02  0.49443775125E+03  0.25500000920E-02 0. -1.
       -2    1    3    3    0  502  0.22682315501E+03 -0.43264811756E+03  0.45844774131E+03  0.66993094331E+03  0.25500000920E-02 0.  1.
</event>
<event>
 5   0  0.1540772E-04  0.1100435E+04  0.7818609E-02  0.9204768E-01
       -2   -1    0    0    0  501  0.00000000000E+00  0.00000000000E+00  0.41202956788E+03  0.41202956788E+03  0.25500000920E-02 0. -1.
        2   -1    0    0  501    0  0.00000000000E+00  0.00000000000E+00 -0.73475119586E+03  0.73475119587E+03  0.25500000920E-02 0.  1.
    10030    2    1    2    0    0  0.00000000000E+00  0.00000000000E+00 -0.32272162799E+03  0.11467807638E+04  0.11004348554E+04 0.  0.
        2    1    3    3  502    0  0.42072565269E+03  0.94367291007E+02 -0.51755105655E+03  0.67362775818E+03  0.25500000920E-02 0.  1.
       -2    1    3    3    0  502 -0.42072565269E+03 -0.94367291007E+02  0.19482942856E+03  0.47315300558E+03  0.25500000920E-02 0. -1.
</event>
<event>
 5   0  0.6010125E-05  0.1099782E+04  0.7818609E-02  0.9205405E-01
       -3   -1    0    0    0  501  0.00000000000E+00  0.00000000000E+00  0.59669239002E+03  0.59669239856E+03  0.10100000352E+00 0.  1.
        3   -1    0    0  501    0  0.00000000000E+00  0.00000000000E+00 -0.50676031953E+03  0.50676032960E+03  0.10100000352E+00 0. -1.
    10030    2    1    2    0    0  0.00000000000E+00  0.00000000000E+00  0.89932070484E+02  0.11034527282E+04  0.10997818629E+04 0.  0.
        4    1    3    3  502    0 -0.26015869635E+03  0.45237071904E+03 -0.12898105542E+03  0.53754957008E+03  0.12699999809E+01 0.  1.
       -4    1    3    3    0  502  0.26015869635E+03 -0.45237071904E+03  0.21891312591E+03  0.56590315808E+03  0.12699999809E+01 0. -1.
</event>
<event>
 5   0  0.1574101E-04  0.1099906E+04  0.7818609E-02  0.9205284E-01
        2   -1    0    0  501    0  0.00000000000E+00  0.00000000000E+00  0.13950051550E+04  0.13950051550E+04  0.25500000920E-02 0.  1.
       -2   -1    0    0    0  501  0.00000000000E+00  0.00000000000E+00 -0.21680787084E+03  0.21680787085E+03  0.25500000920E-02 0. -1.
    10030    2    1    2    0    0  0.00000000000E+00  0.00000000000E+00  0.11781972842E+04  0.16118130259E+04  0.10999056277E+04 0.  0.
        4    1    3    3  502    0 -0.33053141547E+03  0.26906306367E+03  0.79775197911E+02  0.43360309494E+03  0.12699999809E+01 0. -1.
       -4    1    3    3    0  502  0.33053141547E+03 -0.26906306367E+03  0.10984220863E+04  0.11782099310E+04  0.12699999809E+01 0.  1.
</event>
<event>
 5   0  0.1574101E-04  0.1100224E+04  0.7818609E-02  0.9204974E-01
       -2   -1    0    0    0  501  0.00000000000E+00  0.00000000000E+00  0.37488162330E+03  0.37488162331E+03  0.25500000920E-02 0. -1.
        2   -1    0    0  501    0  0.00000000000E+00  0.00000000000E+00 -0.80724948640E+03  0.80724948640E+03  0.25500000920E-02 0.  1.
    10030    2    1    2    0    0  0.00000000000E+00  0.00000000000E+00 -0.43236786310E+03  0.11821311097E+04  0.11002236098E+04 0.  0.
        4    1    3    3  502    0  0.49802907699E+03  0.15497703205E+02  0.34298601916E+02  0.49945084575E+03  0.12699999809E+01 0. -1.
       -4    1    3    3    0  502 -0.49802907699E+03 -0.15497703205E+02 -0.46666646501E+03  0.68268026396E+03  0.12699999809E+01 0.  1.
</event>
<event>
 5   0  0.9016738E-05  0.1100007E+04  0.7818609E-02  0.9205185E-01
       -1   -1    0    0    0  501  0.00000000000E+00  0.00000000000E+00  0.48461964927E+03  0.48461964930E+03  0.50400001928E-02 0.  1.
        1   -1    0    0  501    0  0.00000000000E+00  0.00000000000E+00 -0.62420838535E+03  0.62420838537E+03  0.50400001928E-02 0. -1.
    10030    2    1    2    0    0  0.00000000000E+00  0.00000000000E+00 -0.13958873608E+03  0.11088280347E+04  0.11000066342E+04 0.  0.
        4    1    3    3  502    0 -0.17475828671E+03 -0.50657694525E+03 -0.19464796130E+03  0.57013165320E+03  0.12699999809E+01 0.  1.
       -4    1    3    3    0  502  0.17475828671E+03  0.50657694525E+03  0.55059225224E+02  0.53869638148E+03  0.12699999809E+01 0. -1.
</event>
<event>
 5   0  0.1540772E-04  0.1100213E+04  0.7818609E-02  0.9204984E-01
       -2   -1    0    0    0  501  0.00000000000E+00  0.00000000000E+00  0.18582781869E+03  0.18582781871E+03  0.25500000920E-02 0. -1.
        2   -1    0    0  501    0  0.00000000000E+00  0.00000000000E+00 -0.16284823143E+04  0.16284823143E+04  0.25500000920E-02 0.  1.
    10030    2    1    2    0    0  0.00000000000E+00  0.00000000000E+00 -0.14426544956E+04  0.18143101330E+04  0.11002132816E+04 0.  0.
        2    1    3    3  502    0  0.28450969492E+03  0.31928410835E+02 -0.14959472395E+04  0.15230966264E+04  0.25500000920E-02 0.  1.
       -2    1    3    3    0  502 -0.28450969492E+03 -0.31928410835E+02  0.53292743831E+02  0.29121350668E+03  0.25500000920E-02 0. -1.
</event>
<event>
 5   0  0.6010125E-05  0.1098761E+04  0.7818609E-02  0.9206400E-01
        3   -1    0    0  501    0  0.00000000000E+00  0.00000000000E+00  0.73870047674E+03  0.73870048364E+03  0.10100000352E+00 0.  1.
       -3   -1    0    0    0  501  0.00000000000E+00  0.00000000000E+00 -0.40858093533E+03  0.40858094782E+03  0.10100000352E+00 0. -1.
    10030    2    1    2    0    0  0.00000000000E+00  0.00000000000E+00  0.33011954140E+03  0.11472814315E+04  0.10987610165E+04 0.  0.
        3    1    3    3  502    0 -0.42712200183E+03  0.11366636773E+03  0.50575931182E+03  0.67167383401E+03  0.10100000352E+00 0.  1.
       -3    1    3    3    0  502  0.42712200183E+03 -0.11366636773E+03 -0.17563977041E+03  0.47560759745E+03  0.10100000352E+00 0. -1.
</event>
<event>
 5   0  0.1574101E-04  0.1100251E+04  0.7818609E-02  0.9204947E-01
       -2   -1    0    0    0  501  0.00000000000E+00  0.00000000000E+00  0.31411166690E+03  0.31411166691E+03  0.25500000920E-02 0.  1.
        2   -1    0    0  501    0  0.00000000000E+00  0.00000000000E+00 -0.96347324877E+03  0.96347324877E+03  0.25500000920E-02 0. -1.
    10030    2    1    2    0    0  0.00000000000E+00  0.00000000000E+00 -0.64936158187E+03  0.12775849157E+04  0.11002512226E+04 0.  0.
        4    1    3    3  502    0  0.82946329917E+02  0.54267742945E+03 -0.28350095768E+03  0.61786187129E+03  0.12699999809E+01 0.  1.
       -4    1    3    3    0  502 -0.82946329917E+02 -0.54267742945E+03 -0.36586062419E+03  0.65972304440E+03  0.12699999809E+01 0. -1.
</event>
<event>
 5   0  0.1503277E-04  0.1099430E+04  0.7818609E-02  0.9205747E-01
        2   -1    0    0  501    0  0.00000000000E+00  0.00000000000E+00  0.72490091084E+03  0.72490091085E+03  0.25500000920E-02 0. -1.
       -2   -1    0    0    0  501  0.00000000000E+00  0.00000000000E+00 -0.41686631709E+03  0.41686631710E+03  0.25500000920E-02 0.  1.
    10030    2    1    2    0    0  0.00000000000E+00  0.00000000000E+00  0.30803459375E+03  0.11417672279E+04  0.10994303488E+04 0.  0.
        5    1    3    3  502    0  0.16969109106E+02 -0.47166191946E+03 -0.13863523072E+03  0.49192960282E+03  0.46999998093E+01 0.  1.
       -5    1    3    3    0  502 -0.16969109106E+02  0.47166191946E+03  0.44666982448E+03  0.64983762513E+03  0.46999998093E+01 0. -1.
</event>
<event>
 5   0  0.1503277E-04  0.1099761E+04  0.7818609E-02  0.9205424E-01
       -2   -1    0    0    0  501  0.00000000000E+00  0.00000000000E+00  0.81967900764E+03  0.81967900764E+03  0.25500000920E-02 0.  1.
        2   -1    0    0  501    0  0.00000000000E+00  0.00000000000E+00 -0.36888685198E+03  0.36888685199E+03  0.25500000920E-02 0. -1.
    10030    2    1    2    0    0  0.00000000000E+00  0.00000000000E+00  0.45079215566E+03  0.11885658596E+04  0.10997614446E+04 0.  0.
        5    1    3    3  502    0 -0.31493757301E+03  0.37091998450E+03  0.50215938431E+03  0.69925206260E+03  0.46999998093E+01 0.  1.
       -5    1    3    3    0  502  0.31493757301E+03 -0.37091998450E+03 -0.51367228650E+02  0.48931379703E+03  0.46999998093E+01 0. -1.
</event>
<event>
 5   0  0.1464205E-04  0.1102293E+04  0.7818609E-02  0.9202960E-01
       -2   -1    0    0    0  501  0.00000000000E+00  0.00000000000E+00  0.88058634071E+03  0.88058634071E+03  0.25500000920E-02 0.  1.
        2   -1    0    0  501    0  0.00000000000E+00  0.00000000000E+00 -0.34495464742E+03  0.34495464743E+03  0.25500000920E-02 0. -1.
    10030    2    1    2    0    0  0.00000000000E+00  0.00000000000E+00  0.53563169329E+03  0.12255409881E+04  0.11022927936E+04 0.  0.
        3    1    3    3  502    0 -0.94858560170E+02 -0.29545763445E+03 -0.23860020030E+03  0.39143763996E+03  0.10100000352E+00 0. -1.
       -3    1    3    3    0  502  0.94858560170E+02  0.29545763445E+03  0.77423189359E+03  0.83410334818E+03  0.10100000352E+00 0.  1.
</event>
<event>
 5   0  0.9346836E-05  0.1101244E+04  0.7818609E-02  0.9203980E-01
        1   -1    0    0  501    0  0.00000000000E+00  0.00000000000E+00  0.95327490831E+03  0.95327490833E+03  0.50400001928E-02 0. -1.
       -1   -1    0    0    0  501  0.00000000000E+00  0.00000000000E+00 -0.31804529229E+03  0.31804529233E+03  0.50400001928E-02 0.  1.
    10030    2    1    2    0    0  0.00000000000E+00  0.00000000000E+00  0.63522961603E+03  0.12713202007E+04  0.11012440182E+04 0.  0.
        5    1    3    3  502    0  0.48335776526E+03 -0.23340652853E+03  0.17599380671E+03  0.56489755425E+03  0.46999998093E+01 0. -1.
       -5    1    3    3    0  502 -0.48335776526E+03  0.23340652853E+03  0.45923580931E+03  0.70642264640E+03  0.46999998093E+01 0.  1.
</event>
<event>
 5   0  0.8621738E-05  0.1099973E+04  0.7818609E-02  0.9205218E-01
       -1   -1    0    0    0  501  0.00000000000E+00  0.00000000000E+00  0.16703046267E+03  0.16703046274E+03  0.50400001928E-02 0.  1.
        1   -1    0    0  501    0  0.00000000000E+00  0.00000000000E+00 -0.18109594634E+04  0.18109594634E+04  0.50400001928E-02 0. -1.
    10030    2    1    2    0    0  0.00000000000E+00  0.00000000000E+00 -0.16439290008E+04  0.19779899262E+04  0.10999734490E+04 0.  0.
        2    1    3    3  502    0 -0.17241802438E+03 -0.34361975647E+03 -0.11473070601E+03  0.40120524308E+03  0.25500000920E-02 0.  1.
       -2    1    3    3    0  502  0.17241802438E+03  0.34361975647E+03 -0.15291982948E+04  0.15767846831E+04  0.25500000920E-02 0. -1.
</event>
<event>
 5   0  0.1553937E-04  0.1100095E+04  0.7818609E-02  0.9205100E-01
        2   -1    0    0  501    0  0.00000000000E+00  0.00000000000E+00  0.13288685020E+04  0.13288685020E+04  0.25500000920E-02 0.  1.
       -2   -1    0    0    0  501  0.00000000000E+00  0.00000000000E+00 -0.22767641282E+03  0.22767641283E+03  0.25500000920E-02 0. -1.
    10030    2    1    2    0    0  0.00000000000E+00  0.00000000000E+00  0.11011920892E+04  0.15565449148E+04  0.11000945662E+04 0.  0.
        1    1    3    3  502    0  0.52293826057E+03 -0.16919479519E+03  0.52022598042E+03  0.75678687477E+03  0.50400001928E-02 0.  1.
       -1    1    3    3    0  502 -0.52293826057E+03  0.16919479519E+03  0.58096610874E+03  0.79975804005E+03  0.50400001928E-02 0. -1.
</event>
<event>
 5   0  0.9016738E-05  0.1099956E+04  0.7818609E-02  0.9205235E-01
        1   -1    0    0  501    0  0.00000000000E+00  0.00000000000E+00  0.12427272982E+04  0.12427272982E+04  0.50400001928E-02 0.  1.
       -1   -1    0    0    0  501  0.00000000000E+00  0.00000000000E+00 -0.24339676795E+03  0.24339676800E+03  0.50400001928E-02 0. -1.
    10030    2    1    2    0    0  0.00000000000E+00  0.00000000000E+00  0.99933053021E+03  0.14861240662E+04  0.10999560134E+04 0.  0.
        4    1    3    3  502    0 -0.33140356829E+03  0.19014749244E+03  0.10341345696E+04  0.11024610265E+04  0.12699999809E+01 0.  1.
       -4    1    3    3    0  502  0.33140356829E+03 -0.19014749244E+03 -0.34804039402E+02  0.38366303968E+03  0.12699999809E+01 0. -1.
</event>
<event>
 5   0  0.1464205E-04  0.1100116E+04  0.7818609E-02  0.9205079E-01
        2   -1    0    0  501    0  0.00000000000E+00  0.00000000000E+00  0.14572494708E+04  0.14572494708E+04  0.25500000920E-02 0. -1.
       -2   -1    0    0    0  501  0.00000000000E+00  0.00000000000E+00 -0.20762649008E+03  0.20762649010E+03  0.25500000920E-02 0.  1.
    10030    2    1    2    0    0  0.00000000000E+00  0.00000000000E+00  0.12496229807E+04  0.16648759609E+04  0.11001156172E+04 0.  0.
        3    1    3    3  502    0  0.23560906440E+03 -0.47885204553E+03  0.42317209285E+03  0.68109143520E+03  0.10100000352E+00 0.  1.
       -3    1    3    3    0  502 -0.23560906440E+03  0.47885204553E+03  0.82645088788E+03  0.98378452570E+03  0.10100000352E+00 0. -1.
</event>
<event>
 5   0  0.8921459E-05  0.1099958E+04  0.7818609E-02  0.9205232E-01
       -1   -1    0    0    0  501  0.00000000000E+00  0.00000000000E+00  0.60747955305E+03  0.60747955307E+03  0.50400001928E-02 0. -1.
        1   -1    0    0  501    0  0.00000000000E+00  0.00000000000E+00 -0.49792145255E+03  0.49792145257E+03  0.50400001928E-02 0.  1.
    10030    2    1    2    0    0  0.00000000000E+00  0.00000000000E+00  0.10955810050E+03  0.11054010056E+04  0.10999583655E+04 0.  0.
        3    1    3    3  502    0 -0.32763780631E+03 -0.31013957430E+03  0.37088913269E+03  0.58403068979E+03  0.10100000352E+00 0. -1.
       -3    1    3    3    0  502  0.32763780631E+03  0.31013957430E+03 -0.26133103218E+03  0.52137031586E+03  0.10100000352E+00 0.  1.
</event>
<event>
 5   0  0.8921459E-05  0.1099829E+04  0.7818609E-02  0.9205359E-01
        1   -1    0    0  501    0  0.00000000000E+00  0.00000000000E+00  0.47164303797E+03  0.47164303800E+03  0.50400001928E-02 0. -1.
       -1   -1    0    0    0  501  0.00000000000E+00  0.00000000000E+00 -0.64117536990E+03  0.64117536992E+03  0.50400001928E-02 0.  1.
    10030    2    1    2    0    0  0.00000000000E+00  0.00000000000E+00 -0.16953233193E+03  0.11128184079E+04  0.10998288946E+04 0.  0.
        3    1    3    3  502    0  0.29830716806E+03 -0.26176409002E+03  0.30038462725E+03  0.49773340236E+03  0.10100000352E+00 0. -1.
       -3    1    3    3    0  502 -0.29830716806E+03  0.26176409002E+03 -0.46991695918E+03  0.61508500556E+03  0.10100000352E+00 0.  1.
</event>
<event>
 5   0  0.9346836E-05  0.1099809E+04  0.7818609E-02  0.9205378E-01
        1   -1    0    0  501    0  0.00000000000E+00  0.00000000000E+00  0.57745166151E+03  0.57745166153E+03  0.50400001928E-02 0. -1.
       -1   -1    0    0    0  501  0.00000000000E+00  0.00000000000E+00 -0.52367116355E+03  0.52367116358E+03  0.50400001928E-02 0.  1.
    10030    2    1    2    0    0  0.00000000000E+00  0.00000000000E+00  0.53780497959E+02  0.11011228251E+04  0.10998086806E+04 0.  0.
        5    1    3    3  502    0  0.44143804389E+03  0.22570314301E+03 -0.21122420247E+03  0.53893154395E+03  0.46999998093E+01 0.  1.
       -5    1    3    3    0  502 -0.44143804389E+03 -0.22570314301E+03  0.26500470043E+03  0.56219128116E+03  0.46999998093E+01 0. -1.
</event>
<event>
 5   0  0.1540772E-04  0.1099357E+04  0.7818609E-02  0.9205819E-01
       -2   -1    0    0    0  501  0.00000000000E+00  0.00000000000E+00  0.36764002723E+03  0.36764002724E+03  0.25500000920E-02 0. -1.
        2   -1    0    0  501    0  0.00000000000E+00  0.00000000000E+00 -0.82185345869E+03  0.82185345869E+03  0.25500000920E-02 0.  1.
    10030    2    1    2    0    0  0.00000000000E+00  0.00000000000E+00 -0.45421343146E+03  0.11894934859E+04  0.10993565899E+04 0.  0.
        2    1    3    3  502    0  0.24804203603E+03  0.38033877881E+03  0.10807257605E+03  0.46675702459E+03  0.25500000920E-02 0. -1.
       -2    1    3    3    0  502 -0.24804203603E+03 -0.38033877881E+03 -0.56228600751E+03  0.72273646134E+03  0.25500000920E-02 0.  1.
</event>
<event>
 5   0  0.1503277E-04  0.1098071E+04  0.7818609E-02  0.9207074E-01
       -2   -1    0    0    0  501  0.00000000000E+00  0.00000000000E+00  0.18533157172E+03  0.18533157174E+03  0.25500000920E-02 0.  1.
        2   -1    0    0  501    0  0.00000000000E+00  0.00000000000E+00 -0.16264897338E+04  0.16264897338E+04  0.25500000920E-02 0. -1.
    10030    2    1    2    0    0  0.00000000000E+00  0.00000000000E+00 -0.14411581620E+04  0.18118213055E+04  0.10980708516E+04 0.  0.
        5    1    3    3  502    0  0.22451235543E+03 -0.44200919179E+03 -0.11097838135E+04  0.12154917219E+04  0.46999998093E+01 0. -1.
       -5    1    3    3    0  502 -0.22451235543E+03  0.44200919179E+03 -0.33137434851E+03  0.59632958355E+03  0.46999998093E+01 0.  1.
</event>
<event>
 5   0  0.9016738E-05  0.1099750E+04  0.7818609E-02  0.9205436E-01
        1   -1    0    0  501    0  0.00000000000E+00  0.00000000000E+00  0.89522621491E+03  0.89522621493E+03  0.50400001928E-02 0. -1.
       -1   -1    0    0    0  501  0.00000000000E+00  0.00000000000E+00 -0.33774957910E+03  0.33774957914E+03  0.50400001928E-02 0.  1.
    10030    2    1    2    0    0  0.00000000000E+00  0.00000000000E+00  0.55747663581E+03  0.12329757941E+04  0.10997495666E+04 0.  0.
        4    1    3    3  502    0  0.50631217873E+02 -0.54615283817E+03  0.23511130642E+03  0.59676241685E+03  0.12699999809E+01 0. -1.
       -4    1    3    3    0  502 -0.50631217873E+02  0.54615283817E+03  0.32236532939E+03  0.63621337722E+03  0.12699999809E+01 0.  1.
</event>
<event>
 5   0  0.1574101E-04  0.1100552E+04  0.7818609E-02  0.9204654E-01
       -2   -1    0    0    0  501  0.00000000000E+00  0.00000000000E+00  0.13028967223E+04  0.13028967223E+04  0.25500000920E-02 0.  1.
        2   -1    0    0  501    0  0.00000000000E+00  0.00000000000E+00 -0.23240806886E+03  0.23240806887E+03  0.25500000920E-02 0. -1.
    10030    2    1    2    0    0  0.00000000000E+00  0.00000000000E+00  0.10704886535E+04  0.15353047912E+04  0.11005520636E+04 0.  0.
        4    1    3    3  502    0  0.27868205655E+03  0.34538618193E+03  0.81383323457E+02  0.45119858327E+03  0.12699999809E+01 0. -1.
       -4    1    3    3    0  502 -0.27868205655E+03 -0.34538618193E+03  0.98910533002E+03  0.10841062079E+04  0.12699999809E+01 0.  1.
</event>
<event>
 5   0  0.9346836E-05  0.1099615E+04  0.7818609E-02  0.9205567E-01
       -1   -1    0    0    0  501  0.00000000000E+00  0.00000000000E+00  0.50395593920E+03  0.50395593922E+03  0.50400001928E-02 0. -1.
        1   -1    0    0  501    0  0.00000000000E+00  0.00000000000E+00 -0.59983109604E+03  0.59983109606E+03  0.50400001928E-02 0.  1.
    10030    2    1    2    0    0  0.00000000000E+00  0.00000000000E+00 -0.95875156839E+02  0.11037870353E+04  0.10996152843E+04 0.  0.
        5    1    3    3  502    0 -0.29467929902E+03  0.31319332584E+03  0.29591185407E+03  0.52202668897E+03  0.46999998093E+01 0. -1.
       -5    1    3    3    0  502  0.29467929902E+03 -0.31319332584E+03 -0.39178701091E+03  0.58176034631E+03  0.46999998093E+01 0.  1.
</event>
<event>
 5   0  0.1540772E-04  0.1099963E+04  0.7818609E-02  0.9205228E-01
       -2   -1    0    0    0  501  0.00000000000E+00  0.00000000000E+00  0.26825973500E+03  0.26825973501E+03  0.25500000920E-02 0. -1.
        2   -1    0    0  501    0  0.00000000000E+00  0.00000000000E+00 -0.11275616780E+04  0.11275616780E+04  0.25500000920E-02 0.  1.
    10030    2    1    2    0    0  0.00000000000E+00  0.00000000000E+00 -0.85930194298E+03  0.13958214130E+04  0.10999625393E+04 0.  0.
        2    1    3    3  502    0  0.48889654420E+03 -0.94262470591E+02 -0.13320506194E+03  0.51541132392E+03  0.25500000920E-02 0. -1.
       -2    1    3    3    0  502 -0.48889654420E+03  0.94262470591E+02 -0.72609688105E+03  0.88041008908E+03  0.25500000920E-02 0.  1.
</event>
<event>
 5   0  0.1464205E-04  0.1100093E+04  0.7818609E-02  0.9205101E-01
        2   -1    0    0  501    0  0.00000000000E+00  0.00000000000E+00  0.58026137533E+03  0.58026137534E+03  0.25500000920E-02 0.  1.
       -2   -1    0    0    0  501  0.00000000000E+00  0.00000000000E+00 -0.52140517155E+03  0.52140517156E+03  0.25500000920E-02 0. -1.
    10030    2    1    2    0    0  0.00000000000E+00  0.00000000000E+00  0.58856203779E+02  0.11016665469E+04  0.11000932360E+04 0.  0.
        3    1    3    3  502    0 -0.22113639149E+03 -0.19507942609E+03 -0.43555694627E+03  0.52599158716E+03  0.10100000352E+00 0. -1.
       -3    1    3    3    0  502  0.22113639149E+03  0.19507942609E+03  0.49441315005E+03  0.57567495973E+03  0.10100000352E+00 0.  1.
</event>
<event>
 5   0  0.8621738E-05  0.1099845E+04  0.7818609E-02  0.9205343E-01
        1   -1    0    0  501    0  0.00000000000E+00  0.00000000000E+00  0.68247706464E+03  0.68247706466E+03  0.50400001928E-02 0.  1.
       -1   -1    0    0    0  501  0.00000000000E+00  0.00000000000E+00 -0.44311370660E+03  0.44311370662E+03  0.50400001928E-02 0. -1.
    10030    2    1    2    0    0  0.00000000000E+00  0.00000000000E+00  0.23936335805E+03  0.11255907713E+04  0.10998453379E+04 0.  0.
        2    1    3    3  502    0  0.17001404780E+03  0.24508527234E+03 -0.35313223092E+03  0.46224878549E+03  0.25500000920E-02 0. -1.
       -2    1    3    3    0  502 -0.17001404780E+03 -0.24508527234E+03  0.59249558897E+03  0.66334198580E+03  0.25500000920E-02 0.  1.
</event>
<event>
 5   0  0.9346836E-05  0.1099538E+04  0.7818609E-02  0.9205642E-01
        1   -1    0    0  501    0  0.00000000000E+00  0.00000000000E+00  0.64221524682E+03  0.64221524684E+03  0.50400001928E-02 0.  1.
       -1   -1    0    0    0  501  0.00000000000E+00  0.00000000000E+00 -0.47063039430E+03  0.47063039433E+03  0.50400001928E-02 0. -1.
    10030    2    1    2    0    0  0.00000000000E+00  0.00000000000E+00  0.17158485252E+03  0.11128456412E+04  0.10995381119E+04 0.  0.
        5    1    3    3  502    0  0.16968255847E+02 -0.17417927210E+03 -0.44166522089E+03  0.47509640904E+03  0.46999998093E+01 0. -1.
       -5    1    3    3    0  502 -0.16968255847E+02  0.17417927210E+03  0.61325007342E+03  0.63774923213E+03  0.46999998093E+01 0.  1.
</event>
<event>
 5   0  0.1464205E-04  0.1100539E+04  0.7818609E-02  0.9204667E-01
       -2   -1    0    0    0  501  0.00000000000E+00  0.00000000000E+00  0.36423883372E+03  0.36423883373E+03  0.25500000920E-02 0. -1.
        2   -1    0    0  501    0  0.00000000000E+00  0.00000000000E+00 -0.83131248902E+03  0.83131248902E+03  0.25500000920E-02 0.  1.
    10030    2    1    2    0    0  0.00000000000E+00  0.00000000000E+00 -0.46707365530E+03  0.11955513228E+04  0.11005385799E+04 0.  0.
        3    1    3    3  502    0  0.23523045378E+03  0.42567277702E+03  0.46108151285E+02  0.48852497509E+03  0.10100000352E+00 0. -1.
       -3    1    3    3    0  502 -0.23523045378E+03 -0.42567277702E+03 -0.51318180658E+03  0.70702634766E+03  0.10100000352E+00 0.  1.
</event>
<event>
 5   0  0.1464205E-04  0.1100964E+04  0.7818609E-02  0.9204253E-01
        2   -1    0    0  501    0  0.00000000000E+00  0.00000000000E+00  0.55469385927E+03  0.55469385927E+03  0.25500000920E-02 0. -1.
       -2   -1    0    0    0  501  0.00000000000E+00  0.00000000000E+00 -0.54630168319E+03  0.54630168320E+03  0.25500000920E-02 0.  1.
    10030    2    1    2    0    0  0.00000000000E+00  0.00000000000E+00  0.83921760729E+01  0.11009955425E+04  0.11009635579E+04 0.  0.
        3    1    3    3  502    0  0.27754840195E+03  0.72919421719E+02  0.47397544432E+03  0.55407859506E+03  0.10100000352E+00 0. -1.
       -3    1    3    3    0  502 -0.27754840195E+03 -0.72919421719E+02 -0.46558326824E+03  0.54691694741E+03  0.10100000352E+00 0.  1.
</event>
<event>
 5   0  0.1540772E-04  0.1099598E+04  0.7818609E-02  0.9205584E-01
        2   -1    0    0  501    0  0.00000000000E+00  0.00000000000E+00  0.13600173516E+04  0.13600173516E+04  0.25500000920E-02 0. -1.
       -2   -1    0    0    0  501  0.00000000000E+00  0.00000000000E+00 -0.22226104352E+03  0.22226104354E+03  0.25500000920E-02 0.  1.
    10030    2    1    2    0    0  0.00000000000E+00  0.00000000000E+00  0.11377563080E+04  0.15822783951E+04  0.10995978825E+04 0.  0.
        2    1    3    3  502    0 -0.19625773214E+03  0.70953255779E+02 -0.16305299008E+03  0.26483530639E+03  0.25500000920E-02 0.  1.
       -2    1    3    3    0  502  0.19625773214E+03 -0.70953255779E+02  0.13008092981E+04  0.13174430887E+04  0.25500000920E-02 0. -1.
</event>
<event>
 5   0  0.8657442E-05  0.1099973E+04  0.7818609E-02  0.9205218E-01
       -1   -1    0    0    0  501  0.00000000000E+00  0.00000000000E+00  0.68822846888E+03  0.68822846890E+03  0.50400001928E-02 0.  1.
        1   -1    0    0  501    0  0.00000000000E+00  0.00000000000E+00 -0.43951304063E+03  0.43951304066E+03  0.50400001928E-02 0. -1.
    10030    2    1    2    0    0  0.00000000000E+00  0.00000000000E+00  0.24871542825E+03  0.11277415096E+04  0.10999734306E+04 0.  0.
        1    1    3    3  502    0 -0.21402017559E+03 -0.27540547903E+03  0.56033684629E+03  0.66002287443E+03  0.50400001928E-02 0.  1.
       -1    1    3    3    0  502  0.21402017559E+03  0.27540547903E+03 -0.31162141804E+03  0.46771863513E+03  0.50400001928E-02 0. -1.
</event>
<event>
 5   0  0.1574101E-04  0.1099158E+04  0.7818609E-02  0.9206013E-01
        2   -1    0    0  501    0  0.00000000000E+00  0.00000000000E+00  0.21264112744E+04  0.21264112744E+04  0.25500000920E-02 0.  1.
       -2   -1    0    0    0  501  0.00000000000E+00  0.00000000000E+00 -0.14204066494E+03  0.14204066496E+03  0.25500000920E-02 0. -1.
    10030    2    1    2    0    0  0.00000000000E+00  0.00000000000E+00  0.19843706095E+04  0.22684519394E+04  0.10991576254E+04 0.  0.
        4    1    3    3  502    0 -0.42339020047E+03  0.31282731727E+03  0.66642315071E+03  0.84925945446E+03  0.12699999809E+01 0.  1.
       -4    1    3    3    0  502  0.42339020047E+03 -0.31282731727E+03  0.13179474587E+04  0.14191924849E+04  0.12699999809E+01 0. -1.
</event>
<event>
 5   0  0.1464205E-04  0.1103018E+04  0.7818609E-02  0.9202256E-01
        2   -1    0    0  501    0  0.00000000000E+00  0.00000000000E+00  0.73978694035E+03  0.73978694035E+03  0.25500000920E-02 0. -1.
       -2   -1    0    0    0  501  0.00000000000E+00  0.00000000000E+00 -0.41114806981E+03  0.41114806981E+03  0.25500000920E-02 0.  1.
    10030    2    1    2    0    0  0.00000000000E+00  0.00000000000E+00  0.32863887054E+03  0.11509350102E+04  0.11030176292E+04 0.  0.
        3    1    3    3  502    0  0.13689907750E+03  0.53975795110E+02  0.71892359412E+03  0.73382960438E+03  0.10100000352E+00 0. -1.
       -3    1    3    3    0  502 -0.13689907750E+03 -0.53975795110E+02 -0.39028472358E+03  0.41710540579E+03  0.10100000352E+00 0.  1.
</event>
<event>
 5   0  0.6010125E-05  0.1099880E+04  0.7818609E-02  0.9205309E-01
       -4   -1    0    0    0  501  0.00000000000E+00  0.00000000000E+00  0.43185106165E+03  0.43185292907E+03  0.12699999809E+01 0.  1.
        4   -1    0    0  501    0  0.00000000000E+00  0.00000000000E+00 -0.70031598398E+03  0.70031713553E+03  0.12699999809E+01 0. -1.
    10030    2    1    2    0    0  0.00000000000E+00  0.00000000000E+00 -0.26846492233E+03  0.11321700646E+04  0.10998798301E+04 0.  0.
        3    1    3    3  502    0 -0.35152126136E+03  0.18692493059E+03  0.25628073602E+03  0.47348490231E+03  0.10100000352E+00 0.  1.
       -3    1    3    3    0  502  0.35152126136E+03 -0.18692493059E+03 -0.52474565835E+03  0.65868516229E+03  0.10100000352E+00 0. -1.
</event>
<event>
 5   0  0.9016738E-05  0.1100362E+04  0.7818609E-02  0.9204839E-01
       -1   -1    0    0    0  501  0.00000000000E+00  0.00000000000E+00  0.10644890432E+04  0.10644890433E+04  0.50400001928E-02 0. -1.
        1   -1    0    0  501    0  0.00000000000E+00  0.00000000000E+00 -0.28436096480E+03  0.28436096484E+03  0.50400001928E-02 0.  1.
    10030    2    1    2    0    0  0.00000000000E+00  0.00000000000E+00  0.78012807844E+03  0.13488500081E+04  0.11003619975E+04 0.  0.
        4    1    3    3  502    0  0.36906916369E+03 -0.13586661490E+02 -0.10982698756E+03  0.38530536598E+03  0.12699999809E+01 0.  1.
       -4    1    3    3    0  502 -0.36906916369E+03  0.13586661490E+02  0.88995506600E+03  0.96354464212E+03  0.12699999809E+01 0. -1.
</event>
<event>
 5   0  0.1553937E-04  0.1100055E+04  0.7818609E-02  0.9205138E-01
        2   -1    0    0  501    0  0.00000000000E+00  0.00000000000E+00  0.14697731495E+04  0.14697731495E+04  0.25500000920E-02 0.  1.
       -2   -1    0    0    0  501  0.00000000000E+00  0.00000000000E+00 -0.20583459542E+03  0.20583459544E+03  0.25500000920E-02 0. -1.
    10030    2    1    2    0    0  0.00000000000E+00  0.00000000000E+00  0.12639385541E+04  0.16756077450E+04  0.11000548379E+04 0.  0.
        1    1    3    3  502    0  0.46140310812E+03  0.26201078057E+02  0.17767941729E+03  0.49512553967E+03  0.50400001928E-02 0. -1.
       -1    1    3    3    0  502 -0.46140310812E+03 -0.26201078057E+02  0.10862591368E+04  0.11804822053E+04  0.50400001928E-02 0.  1.
</event>
<event>
 5   0  0.9346836E-05  0.1100151E+04  0.7818609E-02  0.9205044E-01
        1   -1    0    0  501    0  0.00000000000E+00  0.00000000000E+00  0.10174151249E+04  0.10174151249E+04  0.50400001928E-02 0.  1.
       -1   -1    0    0    0  501  0.00000000000E+00  0.00000000000E+00 -0.29740398682E+03  0.29740398686E+03  0.50400001928E-02 0. -1.
    10030    2    1    2    0    0  0.00000000000E+00  0.00000000000E+00  0.72001113805E+03  0.13148191117E+04  0.11001514703E+04 0.  0.
        5    1    3    3  502    0 -0.20692315837E+03 -0.26310829691E+03  0.88165843088E+03  0.94307308736E+03  0.46999998093E+01 0.  1.
       -5    1    3    3    0  502  0.20692315837E+03  0.26310829691E+03 -0.16164729283E+03  0.37174602439E+03  0.46999998093E+01 0. -1.
</event>
<event>
 5   0  0.9016738E-05  0.1099769E+04  0.7818609E-02  0.9205417E-01
        1   -1    0    0  501    0  0.00000000000E+00  0.00000000000E+00  0.65303113394E+03  0.65303113396E+03  0.50400001928E-02 0.  1.
       -1   -1    0    0    0  501  0.00000000000E+00  0.00000000000E+00 -0.46302964302E+03  0.46302964305E+03  0.50400001928E-02 0. -1.
    10030    2    1    2    0    0  0.00000000000E+00  0.00000000000E+00  0.19000149092E+03  0.11160607770E+04  0.10997686536E+04 0.  0.
        4    1    3    3  502    0 -0.10121042061E+03  0.50660421756E+03 -0.96150420826E+02  0.52548824803E+03  0.12699999809E+01 0. -1.
       -4    1    3    3    0  502  0.10121042061E+03 -0.50660421756E+03  0.28615191175E+03  0.59057252898E+03  0.12699999809E+01 0.  1.
</event>
<event>
 5   0  0.1464205E-04  0.1099896E+04  0.7818609E-02  0.9205294E-01
        2   -1    0    0  501    0  0.00000000000E+00  0.00000000000E+00  0.35121693537E+03  0.35121693538E+03  0.25500000920E-02 0. -1.
       -2   -1    0    0    0  501  0.00000000000E+00  0.00000000000E+00 -0.86112760208E+03  0.86112760209E+03  0.25500000920E-02 0.  1.
    10030    2    1    2    0    0  0.00000000000E+00  0.00000000000E+00 -0.50991066671E+03  0.12123445375E+04  0.10998956266E+04 0.  0.
        3    1    3    3  502    0 -0.19734132516E+03 -0.35578154302E+03 -0.66281017561E+03  0.77771552901E+03  0.10100000352E+00 0. -1.
       -3    1    3    3    0  502  0.19734132516E+03  0.35578154302E+03  0.15289950891E+03  0.43462900846E+03  0.10100000352E+00 0.  1.
</event>
<event>
 5   0  0.9016738E-05  0.1099946E+04  0.7818609E-02  0.9205245E-01
       -1   -1    0    0    0  501  0.00000000000E+00  0.00000000000E+00  0.82600456092E+03  0.82600456094E+03  0.50400001928E-02 0.  1.
        1   -1    0    0  501    0  0.00000000000E+00  0.00000000000E+00 -0.36618452685E+03  0.36618452688E+03  0.50400001928E-02 0. -1.
    10030    2    1    2    0    0  0.00000000000E+00  0.00000000000E+00  0.45982003408E+03  0.11921890878E+04  0.10999456156E+04 0.  0.
        4    1    3    3  502    0 -0.17486765130E+03 -0.16252740679E+03  0.76691365800E+03  0.80321356136E+03  0.12699999809E+01 0.  1.
       -4    1    3    3    0  502  0.17486765130E+03  0.16252740679E+03 -0.30709362392E+03  0.38897552646E+03  0.12699999809E+01 0. -1.
</event>
<event>
 5   0  0.8657442E-05  0.1099860E+04  0.7818609E-02  0.9205329E-01
       -1   -1    0    0    0  501  0.00000000000E+00  0.00000000000E+00  0.53111714904E+03  0.53111714906E+03  0.50400001928E-02 0. -1.
        1   -1    0    0  501    0  0.00000000000E+00  0.00000000000E+00 -0.56940877817E+03  0.56940877819E+03  0.50400001928E-02 0.  1.
    10030    2    1    2    0    0  0.00000000000E+00  0.00000000000E+00 -0.38291629131E+02  0.11005259273E+04  0.10998595673E+04 0.  0.
        1    1    3    3  502    0  0.25966488578E+03  0.48030377448E+03  0.46507947558E+02  0.54797861080E+03  0.50400001928E-02 0.  1.
       -1    1    3    3    0  502 -0.25966488578E+03 -0.48030377448E+03 -0.84799576689E+02  0.55254731645E+03  0.50400001928E-02 0. -1.
</event>
<event>
 5   0  0.8621738E-05  0.1102063E+04  0.7818609E-02  0.9203183E-01
        1   -1    0    0  501    0  0.00000000000E+00  0.00000000000E+00  0.72511285669E+03  0.72511285671E+03  0.50400001928E-02 0. -1.
       -1   -1    0    0    0  501  0.00000000000E+00  0.00000000000E+00 -0.41874301601E+03  0.41874301604E+03  0.50400001928E-02 0.  1.
    10030    2    1    2    0    0  0.00000000000E+00  0.00000000000E+00  0.30636984068E+03  0.11438558727E+04  0.11020634185E+04 0.  0.
        2    1    3    3  502    0  0.17492910769E+03 -0.44949081987E+03  0.42973563958E+03  0.64599915619E+03  0.25500000920E-02 0. -1.
       -2    1    3    3    0  502 -0.17492910769E+03  0.44949081987E+03 -0.12336579890E+03  0.49785671655E+03  0.25500000920E-02 0.  1.
</event>
<event>
 5   0  0.1553937E-04  0.1098962E+04  0.7818609E-02  0.9206204E-01
        2   -1    0    0  501    0  0.00000000000E+00  0.00000000000E+00  0.16495775260E+04  0.16495775260E+04  0.25500000920E-02 0. -1.
       -2   -1    0    0    0  501  0.00000000000E+00  0.00000000000E+00 -0.18303438706E+03  0.18303438708E+03  0.25500000920E-02 0.  1.
    10030    2    1    2    0    0  0.00000000000E+00  0.00000000000E+00  0.14665431389E+04  0.18326119131E+04  0.10989620765E+04 0.  0.
        1    1    3    3  502    0  0.50777621322E+03 -0.81908441709E+01  0.38337423633E+03  0.63630148337E+03  0.50400001928E-02 0.  1.
       -1    1    3    3    0  502 -0.50777621322E+03  0.81908441709E+01  0.10831689026E+04  0.11963104297E+04  0.50400001928E-02 0. -1.
</event>
<event>
 5   0  0.9346836E-05  0.1099389E+04  0.7818609E-02  0.9205787E-01
        1   -1    0    0  501    0  0.00000000000E+00  0.00000000000E+00  0.76783386637E+03  0.76783386639E+03  0.50400001928E-02 0. -1.
       -1   -1    0    0    0  501  0.00000000000E+00  0.00000000000E+00 -0.39352796409E+03  0.39352796412E+03  0.50400001928E-02 0.  1.
    10030    2    1    2    0    0  0.00000000000E+00  0.00000000000E+00  0.37430590228E+03  0.11613618305E+04  0.10993890999E+04 0.  0.
        5    1    3    3  502    0  0.15155455113E+03 -0.48695198924E+03  0.40377577630E+03  0.65049826235E+03  0.46999998093E+01 0. -1.
       -5    1    3    3    0  502 -0.15155455113E+03  0.48695198924E+03 -0.29469874019E+02  0.51086356816E+03  0.46999998093E+01 0.  1.
</event>
<event>
 5   0  0.1464205E-04  0.1100166E+04  0.7818609E-02  0.9205030E-01
       -2   -1    0    0    0  501  0.00000000000E+00  0.00000000000E+00  0.44042030902E+03  0.44042030903E+03  0.25500000920E-02 0.  1.
        2   -1    0    0  501    0  0.00000000000E+00  0.00000000000E+00 -0.68705180282E+03  0.68705180282E+03  0.25500000920E-02 0. -1.
    10030    2    1    2    0    0  0.00000000000E+00  0.00000000000E+00 -0.24663149379E+03  0.11274721119E+04  0.11001664734E+04 0.  0.
        3    1    3    3  502    0 -0.34317718416E+03 -0.27994152382E+03 -0.45768614689E+03  0.63687868213E+03  0.10100000352E+00 0. -1.
       -3    1    3    3    0  502  0.34317718416E+03  0.27994152382E+03  0.21105465310E+03  0.49059342972E+03  0.10100000352E+00 0.  1.
</event>
<event>
 5   0  0.1540772E-04  0.1099882E+04  0.7818609E-02  0.9205307E-01
        2   -1    0    0  501    0  0.00000000000E+00  0.00000000000E+00  0.14308047132E+04  0.14308047132E+04  0.25500000920E-02 0.  1.
       -2   -1    0    0    0  501  0.00000000000E+00  0.00000000000E+00 -0.21137400578E+03  0.21137400580E+03  0.25500000920E-02 0. -1.
    10030    2    1    2    0    0  0.00000000000E+00  0.00000000000E+00  0.12194307074E+04  0.16421787190E+04  0.10998816732E+04 0.  0.
        2    1    3    3  502    0  0.34489925709E+03 -0.32288482148E+03  0.18946791045E+03  0.50902671303E+03  0.25500000920E-02 0. -1.
       -2    1    3    3    0  502 -0.34489925709E+03  0.32288482148E+03  0.10299627970E+04  0.11331520060E+04  0.25500000920E-02 0.  1.
</event>
<event>
 5   0  0.1574101E-04  0.1099093E+04  0.7818609E-02  0.9206076E-01
       -2   -1    0    0    0  501  0.00000000000E+00  0.00000000000E+00  0.26536693587E+03  0.26536693588E+03  0.25500000920E-02 0.  1.
        2   -1    0    0  501    0  0.00000000000E+00  0.00000000000E+00 -0.11380522467E+04  0.11380522467E+04  0.25500000920E-02 0. -1.
    10030    2    1    2    0    0  0.00000000000E+00  0.00000000000E+00 -0.87268531085E+03  0.14034191826E+04  0.10990931491E+04 0.  0.
        4    1    3    3  502    0  0.49249018726E+02 -0.50983788983E+03 -0.18211780265E+03  0.54362546546E+03  0.12699999809E+01 0.  1.
       -4    1    3    3    0  502 -0.49249018726E+02  0.50983788983E+03 -0.69056750820E+03  0.85979371714E+03  0.12699999809E+01 0. -1.
</event>
<event>
 5   0  0.1464205E-04  0.1100258E+04  0.7818609E-02  0.9204940E-01
       -2   -1    0    0    0  501  0.00000000000E+00  0.00000000000E+00  0.28613863515E+03  0.28613863516E+03  0.25500000920E-02 0. -1.
        2   -1    0    0  501    0  0.00000000000E+00  0.00000000000E+00 -0.10576758486E+04  0.10576758486E+04  0.25500000920E-02 0.  1.
    10030    2    1    2    0    0  0.00000000000E+00  0.00000000000E+00 -0.77153721345E+03  0.13438144838E+04  0.11002580129E+04 0.  0.
        3    1    3    3  502    0  0.28146265952E+03  0.15658655148E+02  0.19122104921E+03  0.34063458727E+03  0.10100000352E+00 0. -1.
       -3    1    3    3    0  502 -0.28146265952E+03 -0.15658655148E+02 -0.96275826266E+03  0.10031798965E+04  0.10100000352E+00 0.  1.
</event>
<event>
 5   0  0.8657442E-05  0.1100219E+04  0.7818609E-02  0.9204978E-01
        1   -1    0    0  501    0  0.00000000000E+00  0.00000000000E+00  0.59445474740E+03  0.59445474742E+03  0.50400001928E-02 0. -1.
       -1   -1    0    0    0  501  0.00000000000E+00  0.00000000000E+00 -0.50907259722E+03  0.50907259724E+03  0.50400001928E-02 0.  1.
    10030    2    1    2    0    0  0.00000000000E+00  0.00000000000E+00  0.85382150179E+02  0.11035273447E+04  0.11002192913E+04 0.  0.
        1    1    3    3  502    0  0.21572097799E+03 -0.38217129548E+03  0.37539640685E+03  0.57750575905E+03  0.50400001928E-02 0. -1.
       -1    1    3    3    0  502 -0.21572097799E+03  0.38217129548E+03 -0.29001425668E+03  0.52602158561E+03  0.50400001928E-02 0.  1.
</event>
<event>
 5   0  0.9346836E-05  0.1099927E+04  0.7818609E-02  0.9205263E-01
       -1   -1    0    0    0  501  0.00000000000E+00  0.00000000000E+00  0.10272863957E+04  0.10272863957E+04  0.50400001928E-02 0.  1.
        1   -1    0    0  501    0  0.00000000000E+00  0.00000000000E+00 -0.29442580901E+03  0.29442580906E+03  0.50400001928E-02 0. -1.
    10030    2    1    2    0    0  0.00000000000E+00  0.00000000000E+00  0.73286058671E+03  0.13217122048E+04  0.10999265943E+04 0.  0.
        5    1    3    3  502    0 -0.51514571890E+03  0.34949073636E+02  0.59392075324E+03  0.78699460009E+03  0.46999998093E+01 0.  1.
       -5    1    3    3    0  502  0.51514571890E+03 -0.34949073636E+02  0.13893983347E+03  0.53471760470E+03  0.46999998093E+01 0. -1.
</event>
<event>
 5   0  0.9346836E-05  0.1099545E+04  0.7818609E-02  0.9205636E-01
       -1   -1    0    0    0  501  0.00000000000E+00  0.00000000000E+00  0.80922349963E+03  0.80922349965E+03  0.50400001928E-02 0. -1.
        1   -1    0    0  501    0  0.00000000000E+00  0.00000000000E+00 -0.37350568919E+03  0.37350568922E+03  0.50400001928E-02 0.  1.
    10030    2    1    2    0    0  0.00000000000E+00  0.00000000000E+00  0.43571781044E+03  0.11827291889E+04  0.10995445984E+04 0.  0.
        5    1    3    3  502    0 -0.33708165574E+03 -0.41759457329E+03  0.34612004388E+03  0.63861603883E+03  0.46999998093E+01 0. -1.
       -5    1    3    3    0  502  0.33708165574E+03  0.41759457329E+03  0.89597766559E+02  0.54411315004E+03  0.46999998093E+01 0.  1.
</event>
<event>
 5   0  0.1574101E-04  0.1099299E+04  0.7818609E-02  0.9205875E-01
       -2   -1    0    0    0  501  0.00000000000E+00  0.00000000000E+00  0.39881215843E+03  0.39881215844E+03  0.25500000920E-02 0. -1.
        2   -1    0    0  501    0  0.00000000000E+00  0.00000000000E+00 -0.75753615917E+03  0.75753615918E+03  0.25500000920E-02 0.  1.
    10030    2    1    2    0    0  0.00000000000E+00  0.00000000000E+00 -0.35872400074E+03  0.11563483176E+04  0.10992991053E+04 0.  0.
        4    1    3    3  502    0 -0.50071754365E+03  0.12059401953E+03 -0.38129326994E+03  0.64081756114E+03  0.12699999809E+01 0.  1.
       -4    1    3    3    0  502  0.50071754365E+03 -0.12059401953E+03  0.22569269202E+02  0.51553075648E+03  0.12699999809E+01 0. -1.
</event>
<event>
 5   0  0.1540772E-04  0.1100093E+04  0.7818609E-02  0.9205101E-01
        2   -1    0    0  501    0  0.00000000000E+00  0.00000000000E+00  0.11024538860E+04  0.11024538860E+04  0.25500000920E-02 0.  1.
       -2   -1    0    0    0  501  0.00000000000E+00  0.00000000000E+00 -0.27443424835E+03  0.27443424836E+03  0.25500000920E-02 0. -1.
    10030    2    1    2    0    0  0.00000000000E+00  0.00000000000E+00  0.82801963769E+03  0.13768881344E+04  0.11000929116E+04 0.  0.
        2    1    3    3  502    0  0.49210332502E+03  0.23007085661E+03  0.30595860122E+03  0.62346527347E+03  0.25500000920E-02 0. -1.
       -2    1    3    3    0  502 -0.49210332502E+03 -0.23007085661E+03  0.52206103647E+03  0.75342286092E+03  0.25500000920E-02 0.  1.
</event>
<event>
 5   0  0.8621738E-05  0.1099996E+04  0.7818609E-02  0.9205196E-01
        1   -1    0    0  501    0  0.00000000000E+00  0.00000000000E+00  0.19479411025E+04  0.19479411025E+04  0.50400001928E-02 0.  1.
       -1   -1    0    0    0  501  0.00000000000E+00  0.00000000000E+00 -0.15529090103E+03  0.15529090112E+03  0.50400001928E-02 0. -1.
    10030    2    1    2    0    0  0.00000000000E+00  0.00000000000E+00  0.17926502014E+04  0.21032320036E+04  0.10999955074E+04 0.  0.
        2    1    3    3  502    0  0.11041509832E+03 -0.24420601541E+03 -0.21989135248E+02  0.26890815156E+03  0.25500000920E-02 0. -1.
       -2    1    3    3    0  502 -0.11041509832E+03  0.24420601541E+03  0.18146393367E+04  0.18343238520E+04  0.25500000920E-02 0.  1.
</event>
<event>
 5   0  0.6010125E-05  0.1099980E+04  0.7818609E-02  0.9205212E-01
       -4   -1    0    0    0  501  0.00000000000E+00  0.00000000000E+00  0.27571219456E+03  0.27571511951E+03  0.12699999809E+01 0.  1.
        4   -1    0    0  501    0  0.00000000000E+00  0.00000000000E+00 -0.10971086371E+04  0.10971093721E+04  0.12699999809E+01 0. -1.
    10030    2    1    2    0    0  0.00000000000E+00  0.00000000000E+00 -0.82139644251E+03  0.13728244916E+04  0.10999795312E+04 0.  0.
        2    1    3    3  502    0 -0.24508347359E+03 -0.22399821910E+02 -0.10245553055E+04  0.10536988351E+04  0.25500000920E-02 0. -1.
       -2    1    3    3    0  502  0.24508347359E+03  0.22399821910E+02  0.20315886299E+03  0.31912565655E+03  0.25500000920E-02 0.  1.
</event>
<event>
 5   0  0.1553937E-04  0.1099754E+04  0.7818609E-02  0.9205431E-01
        2   -1    0    0  501    0  0.00000000000E+00  0.00000000000E+00  0.19305358018E+04  0.19305358018E+04  0.25500000920E-02 0. -1.
       -2   -1    0    0    0  501  0.00000000000E+00  0.00000000000E+00 -0.15662225546E+03  0.15662225548E+03  0.25500000920E-02 0.  1.
    10030    2    1    2    0    0  0.00000000000E+00  0.00000000000E+00  0.17739135464E+04  0.20871580573E+04  0.10997542845E+04 0.  0.
        1    1    3    3  502    0  0.17144674005E+03 -0.52618669341E+02 -0.99559120220E+02  0.20512125068E+03  0.50400001928E-02 0.  1.
       -1    1    3    3    0  502 -0.17144674005E+03  0.52618669341E+02  0.18734726666E+04  0.18820368066E+04  0.50400001928E-02 0. -1.
</event>
<event>
 5   0  0.9016738E-05  0.1101632E+04  0.7818609E-02  0.9203603E-01
        1   -1    0    0  501    0  0.00000000000E+00  0.00000000000E+00  0.72548360813E+03  0.72548360815E+03  0.50400001928E-02 0. -1.
       -1   -1    0    0    0  501  0.00000000000E+00  0.00000000000E+00 -0.41820110178E+03  0.41820110181E+03  0.50400001928E-02 0.  1.
    10030    2    1    2    0    0  0.00000000000E+00  0.00000000000E+00  0.30728250636E+03  0.11436847100E+04  0.11016315977E+04 0.  0.
        4    1    3    3  502    0  0.32858752194E+03  0.44035067031E+03  0.19408952255E+03  0.58270990045E+03  0.12699999809E+01 0.  1.
       -4    1    3    3    0  502 -0.32858752194E+03 -0.44035067031E+03  0.11319298380E+03  0.56097480951E+03  0.12699999809E+01 0. -1.
</event>
<event>
 5   0  0.9346836E-05  0.1100327E+04  0.7818609E-02  0.9204873E-01
       -1   -1    0    0    0  501  0.00000000000E+00  0.00000000000E+00  0.28544115935E+03  0.28544115939E+03  0.50400001928E-02 0.  1.
        1   -1    0    0  501    0  0.00000000000E+00  0.00000000000E+00 -0.10603940646E+04  0.10603940646E+04  0.50400001928E-02 0. -1.
    10030    2    1    2    0    0  0.00000000000E+00  0.00000000000E+00 -0.77495290529E+03  0.13458352240E+04  0.11003274262E+04 0.  0.
        5    1    3    3  502    0 -0.33541932035E+03  0.31315676067E+03 -0.16314205718E+02  0.45919660335E+03  0.46999998093E+01 0.  1.
       -5    1    3    3    0  502  0.33541932035E+03 -0.31315676067E+03 -0.75863869957E+03  0.88663862069E+03  0.46999998093E+01 0. -1.
</event>
<event>
 5   0  0.8657442E-05  0.1101023E+04  0.7818609E-02  0.9204195E-01
       -1   -1    0    0    0  501  0.00000000000E+00  0.00000000000E+00  0.27803141308E+03  0.27803141313E+03  0.50400001928E-02 0. -1.
        1   -1    0    0  501    0  0.00000000000E+00  0.00000000000E+00 -0.10900313282E+04  0.10900313282E+04  0.50400001928E-02 0.  1.
    10030    2    1    2    0    0  0.00000000000E+00  0.00000000000E+00 -0.81199991513E+03  0.13680627414E+04  0.11010230706E+04 0.  0.
        1    1    3    3  502    0 -0.54825465142E+03 -0.29457251777E+02 -0.35611151699E+03  0.65442058728E+03  0.50400001928E-02 0.  1.
       -1    1    3    3    0  502  0.54825465142E+03  0.29457251777E+02 -0.45588839814E+03  0.71364215407E+03  0.50400001928E-02 0. -1.
</event>
<event>
 5   0  0.8921459E-05  0.1100741E+04  0.7818609E-02  0.9204470E-01
       -1   -1    0    0    0  501  0.00000000000E+00  0.00000000000E+00  0.16890122476E+03  0.16890122483E+03  0.50400001928E-02 0. -1.
        1   -1    0    0  501    0  0.00000000000E+00  0.00000000000E+00 -0.17934022881E+04  0.17934022881E+04  0.50400001928E-02 0.  1.
    10030    2    1    2    0    0  0.00000000000E+00  0.00000000000E+00 -0.16245010634E+04  0.19623035130E+04  0.11007412830E+04 0.  0.
        3    1    3    3  502    0  0.24765752834E+03 -0.47530202601E+01 -0.16884143961E+04  0.17064876283E+04  0.10100000352E+00 0.  1.
       -3    1    3    3    0  502 -0.24765752834E+03  0.47530202601E+01  0.63913332698E+02  0.25581588465E+03  0.10100000352E+00 0. -1.
</event>
<event>
 5   0  0.1464205E-04  0.1099948E+04  0.7818609E-02  0.9205242E-01
       -2   -1    0    0    0  501  0.00000000000E+00  0.00000000000E+00  0.33419405296E+03  0.33419405297E+03  0.25500000920E-02 0.  1.
        2   -1    0    0  501    0  0.00000000000E+00  0.00000000000E+00 -0.90507731706E+03  0.90507731706E+03  0.25500000920E-02 0. -1.
    10030    2    1    2    0    0  0.00000000000E+00  0.00000000000E+00 -0.57088326409E+03  0.12392713700E+04  0.10999481021E+04 0.  0.
        3    1    3    3  502    0 -0.38878808794E+03  0.33135475858E+03 -0.55869483792E+02  0.51388088384E+03  0.10100000352E+00 0.  1.
       -3    1    3    3    0  502  0.38878808794E+03 -0.33135475858E+03 -0.51501378030E+03  0.72539048619E+03  0.10100000352E+00 0. -1.
</event>
<event>
 5   0  0.1553937E-04  0.1099384E+04  0.7818609E-02  0.9205792E-01
        2   -1    0    0  501    0  0.00000000000E+00  0.00000000000E+00  0.25075718288E+04  0.25075718288E+04  0.25500000920E-02 0. -1.
       -2   -1    0    0    0  501  0.00000000000E+00  0.00000000000E+00 -0.12049965808E+03  0.12049965811E+03  0.25500000920E-02 0.  1.
    10030    2    1    2    0    0  0.00000000000E+00  0.00000000000E+00  0.23870721707E+04  0.26280714869E+04  0.10993844605E+04 0.  0.
        1    1    3    3  502    0  0.17744665371E+03  0.35627575592E+03  0.20998510445E+04  0.21372398411E+04  0.50400001928E-02 0. -1.
       -1    1    3    3    0  502 -0.17744665371E+03 -0.35627575592E+03  0.28722112618E+03  0.49083164580E+03  0.50400001928E-02 0.  1.
</event>
<event>
 5   0  0.9346836E-05  0.1100129E+04  0.7818609E-02  0.9205066E-01
       -1   -1    0    0    0  501  0.00000000000E+00  0.00000000000E+00  0.38082259074E+03  0.38082259077E+03  0.50400001928E-02 0.  1.
        1   -1    0    0  501    0  0.00000000000E+00  0.00000000000E+00 -0.79451950655E+03  0.79451950657E+03  0.50400001928E-02 0. -1.
    10030    2    1    2    0    0  0.00000000000E+00  0.00000000000E+00 -0.41369691581E+03  0.11753420973E+04  0.11001290413E+04 0.  0.
        5    1    3    3  502    0  0.22996209963E+03 -0.20552683766E+03 -0.69342509447E+03  0.75893629502E+03  0.46999998093E+01 0. -1.
       -5    1    3    3    0  502 -0.22996209963E+03  0.20552683766E+03  0.27972817865E+03  0.41640580231E+03  0.46999998093E+01 0.  1.
</event>
<event>
 5   0  0.1574101E-04  0.1099047E+04  0.7818609E-02  0.9206121E-01
        2   -1    0    0  501    0  0.00000000000E+00  0.00000000000E+00  0.71690384019E+03  0.71690384020E+03  0.25500000920E-02 0.  1.
       -2   -1    0    0    0  501  0.00000000000E+00  0.00000000000E+00 -0.42122270326E+03  0.42122270326E+03  0.25500000920E-02 0. -1.
    10030    2    1    2    0    0  0.00000000000E+00  0.00000000000E+00  0.29568113694E+03  0.11381265435E+04  0.10990471756E+04 0.  0.
        4    1    3    3  502    0  0.17132096871E+02 -0.40871170091E+03  0.52781510250E+03  0.66777927381E+03  0.12699999809E+01 0. -1.
       -4    1    3    3    0  502 -0.17132096871E+02  0.40871170091E+03 -0.23213396556E+03  0.47034726965E+03  0.12699999809E+01 0.  1.
</event>
<event>
 5   0  0.8621738E-05  0.1100034E+04  0.7818609E-02  0.9205158E-01
        1   -1    0    0  501    0  0.00000000000E+00  0.00000000000E+00  0.10651143221E+04  0.10651143221E+04  0.50400001928E-02 0. -1.
       -1   -1    0    0    0  501  0.00000000000E+00  0.00000000000E+00 -0.28402484695E+03  0.28402484699E+03  0.50400001928E-02 0.  1.
    10030    2    1    2    0    0  0.00000000000E+00  0.00000000000E+00  0.78108947518E+03  0.13491391691E+04  0.11000344219E+04 0.  0.
        2    1    3    3  502    0  0.18675807835E+03 -0.16307175651E+03  0.99269128632E+03  0.10231847182E+04  0.25500000920E-02 0. -1.
       -2    1    3    3    0  502 -0.18675807835E+03  0.16307175651E+03 -0.21160181114E+03  0.32595445094E+03  0.25500000920E-02 0.  1.
</event>
<event>
 5   0  0.1503277E-04  0.1099603E+04  0.7818609E-02  0.9205579E-01
       -2   -1    0    0    0  501  0.00000000000E+00  0.00000000000E+00  0.28776101154E+03  0.28776101155E+03  0.25500000920E-02 0.  1.
        2   -1    0    0  501    0  0.00000000000E+00  0.00000000000E+00 -0.10504604670E+04  0.10504604670E+04  0.25500000920E-02 0. -1.
    10030    2    1    2    0    0  0.00000000000E+00  0.00000000000E+00 -0.76269945545E+03  0.13382214785E+04  0.10996027766E+04 0.  0.
        5    1    3    3  502    0 -0.46268998185E+03 -0.27770863872E+03 -0.50931107222E+03  0.74204040700E+03  0.46999998093E+01 0. -1.
       -5    1    3    3    0  502  0.46268998185E+03  0.27770863872E+03 -0.25338838323E+03  0.59618107155E+03  0.46999998093E+01 0.  1.
</event>
<event>
 5   0  0.1503277E-04  0.1100015E+04  0.7818609E-02  0.9205177E-01
        2   -1    0    0  501    0  0.00000000000E+00  0.00000000000E+00  0.25449450612E+03  0.25449450614E+03  0.25500000920E-02 0. -1.
       -2   -1    0    0    0  501  0.00000000000E+00  0.00000000000E+00 -0.11886633106E+04  0.11886633106E+04  0.25500000920E-02 0.  1.
    10030    2    1    2    0    0  0.00000000000E+00  0.00000000000E+00 -0.93416880447E+03  0.14431578167E+04  0.11000150584E+04 0.  0.
        5    1    3    3  502    0  0.43940560168E+03  0.10114431947E+03 -0.88025031150E+03  0.98902485158E+03  0.46999998093E+01 0. -1.
       -5    1    3    3    0  502 -0.43940560168E+03 -0.10114431947E+03 -0.53918492971E+02  0.45413296515E+03  0.46999998093E+01 0.  1.
</event>
<event>
 5   0  0.1464205E-04  0.1099756E+04  0.7818609E-02  0.9205429E-01
        2   -1    0    0  501    0  0.00000000000E+00  0.00000000000E+00  0.67663396280E+03  0.67663396281E+03  0.25500000920E-02 0. -1.
       -2   -1    0    0    0  501  0.00000000000E+00  0.00000000000E+00 -0.44686795033E+03  0.44686795034E+03  0.25500000920E-02 0.  1.
    10030    2    1    2    0    0  0.00000000000E+00  0.00000000000E+00  0.22976601247E+03  0.11235019131E+04  0.10997563950E+04 0.  0.
        3    1    3    3  502    0  0.10583842273E+03 -0.20939414163E+03 -0.39316585803E+03  0.45785050005E+03  0.10100000352E+00 0.  1.
       -3    1    3    3    0  502 -0.10583842273E+03  0.20939414163E+03  0.62293187050E+03  0.66565141310E+03  0.10100000352E+00 0. -1.
</event>
<event>
 5   0  0.1503277E-04  0.1099871E+04  0.7818609E-02  0.9205318E-01
        2   -1    0    0  501    0  0.00000000000E+00  0.00000000000E+00  0.20850251964E+04  0.20850251964E+04  0.25500000920E-02 0. -1.
       -2   -1    0    0    0  501  0.00000000000E+00  0.00000000000E+00 -0.14504804982E+03  0.14504804984E+03  0.25500000920E-02 0.  1.
    10030    2    1    2    0    0  0.00000000000E+00  0.00000000000E+00  0.19399771466E+04  0.22300732463E+04  0.10998706080E+04 0.  0.
        5    1    3    3  502    0 -0.10804306779E+02  0.39499396936E+03  0.17454404204E+04  0.17896148524E+04  0.46999998093E+01 0. -1.
       -5    1    3    3    0  502  0.10804306779E+02 -0.39499396936E+03  0.19453672623E+03  0.44045839387E+03  0.46999998093E+01 0.  1.
</event>
<event>
 5   0  0.1540772E-04  0.1097142E+04  0.7818609E-02  0.9207982E-01
       -2   -1    0    0    0  501  0.00000000000E+00  0.00000000000E+00  0.46548566277E+03  0.46548566277E+03  0.25500000920E-02 0. -1.
        2   -1    0    0  501    0  0.00000000000E+00  0.00000000000E+00 -0.64648691020E+03  0.64648691021E+03  0.25500000920E-02 0.  1.
    10030    2    1    2    0    0  0.00000000000E+00  0.00000000000E+00 -0.18100124743E+03  0.11119725730E+04  0.10971424481E+04 0.  0.
        2    1    3    3  502    0 -0.10165517388E+03  0.34234585337E+03  0.33153635681E+03  0.48728925044E+03  0.25500000920E-02 0. -1.
       -2    1    3    3    0  502  0.10165517388E+03 -0.34234585337E+03 -0.51253760424E+03  0.62468332255E+03  0.25500000920E-02 0.  1.
</event>
<event>
 5   0  0.1503277E-04  0.1099969E+04  0.7818609E-02  0.9205222E-01
       -2   -1    0    0    0  501  0.00000000000E+00  0.00000000000E+00  0.33239383856E+03  0.33239383857E+03  0.25500000920E-02 0. -1.
        2   -1    0    0  501    0  0.00000000000E+00  0.00000000000E+00 -0.91001314546E+03  0.91001314546E+03  0.25500000920E-02 0.  1.
    10030    2    1    2    0    0  0.00000000000E+00  0.00000000000E+00 -0.57761930689E+03  0.12424069840E+04  0.10999686588E+04 0.  0.
        5    1    3    3  502    0  0.15463780797E+03 -0.52723196824E+03 -0.26174249827E+03  0.60861944218E+03  0.46999998093E+01 0. -1.
       -5    1    3    3    0  502 -0.15463780797E+03  0.52723196824E+03 -0.31587680862E+03  0.63378754186E+03  0.46999998093E+01 0.  1.
</event>
<event>
 5   0  0.1540772E-04  0.1100696E+04  0.7818609E-02  0.9204513E-01
        2   -1    0    0  501    0  0.00000000000E+00  0.00000000000E+00  0.19488423502E+04  0.19488423502E+04  0.25500000920E-02 0.  1.
       -2   -1    0    0    0  501  0.00000000000E+00  0.00000000000E+00 -0.15541697837E+03  0.15541697839E+03  0.25500000920E-02 0. -1.
    10030    2    1    2    0    0  0.00000000000E+00  0.00000000000E+00  0.17934253719E+04  0.21042593286E+04  0.11006964875E+04 0.  0.
        2    1    3    3  502    0  0.83884409559E+02 -0.22944774805E+02 -0.14219798710E+03  0.16668330570E+03  0.25500000920E-02 0. -1.
       -2    1    3    3    0  502 -0.83884409559E+02  0.22944774805E+02  0.19356233590E+04  0.19375760229E+04  0.25500000920E-02 0.  1.
</event>
<event>
 5   0  0.1574101E-04  0.1101038E+04  0.7818609E-02  0.9204180E-01
       -2   -1    0    0    0  501  0.00000000000E+00  0.00000000000E+00  0.15060885485E+04  0.15060885485E+04  0.25500000920E-02 0.  1.
        2   -1    0    0  501    0  0.00000000000E+00  0.00000000000E+00 -0.20123082692E+03  0.20123082694E+03  0.25500000920E-02 0. -1.
    10030    2    1    2    0    0  0.00000000000E+00  0.00000000000E+00  0.13048577216E+04  0.17073193754E+04  0.11010384990E+04 0.  0.
        4    1    3    3  502    0 -0.28990133194E+03 -0.37770005877E+03  0.22390713267E+03  0.52615219624E+03  0.12699999809E+01 0. -1.
       -4    1    3    3    0  502  0.28990133194E+03  0.37770005877E+03  0.10809505889E+04  0.11811671792E+04  0.12699999809E+01 0.  1.
</event>
<event>
 5   0  0.1553937E-04  0.1101050E+04  0.7818609E-02  0.9204169E-01
        2   -1    0    0  501    0  0.00000000000E+00  0.00000000000E+00  0.44473420245E+03  0.44473420246E+03  0.25500000920E-02 0.  1.
       -2   -1    0    0    0  501  0.00000000000E+00  0.00000000000E+00 -0.68148122086E+03  0.68148122086E+03  0.25500000920E-02 0. -1.
    10030    2    1    2    0    0  0.00000000000E+00  0.00000000000E+00 -0.23674701841E+03  0.11262154233E+04  0.11010504207E+04 0.  0.
        1    1    3    3  502    0  0.19045401710E+03  0.98248142124E+02  0.40031867503E+03  0.45407099848E+03  0.50400001928E-02 0.  1.
       -1    1    3    3    0  502 -0.19045401710E+03 -0.98248142124E+02 -0.63706569344E+03  0.67214442484E+03  0.50400001928E-02 0. -1.
</event>
<event>
 5   0  0.8657442E-05  0.1099869E+04  0.7818609E-02  0.9205320E-01
       -1   -1    0    0    0  501  0.00000000000E+00  0.00000000000E+00  0.26575478050E+03  0.26575478055E+03  0.50400001928E-02 0.  1.
        1   -1    0    0  501    0  0.00000000000E+00  0.00000000000E+00 -0.11379961946E+04  0.11379961946E+04  0.50400001928E-02 0. -1.
    10030    2    1    2    0    0  0.00000000000E+00  0.00000000000E+00 -0.87224141408E+03  0.14037509751E+04  0.10998689539E+04 0.  0.
        1    1    3    3  502    0  0.33145040823E+03  0.50745865806E+02 -0.99243267072E+03  0.10475481478E+04  0.50400001928E-02 0. -1.
       -1    1    3    3    0  502 -0.33145040823E+03 -0.50745865806E+02  0.12019125664E+03  0.35620282735E+03  0.50400001928E-02 0.  1.
</event>
<event>
 5   0  0.9346836E-05  0.1099468E+04  0.7818609E-02  0.9205711E-01
       -1   -1    0    0    0  501  0.00000000000E+00  0.00000000000E+00  0.55575063752E+03  0.55575063755E+03  0.50400001928E-02 0. -1.
        1   -1    0    0  501    0  0.00000000000E+00  0.00000000000E+00 -0.54378240803E+03  0.54378240805E+03  0.50400001928E-02 0.  1.
    10030    2    1    2    0    0  0.00000000000E+00  0.00000000000E+00  0.11968229497E+02  0.10995330456E+04  0.10994679076E+04 0.  0.
        5    1    3    3  502    0  0.18624997298E+03  0.23348013148E+03  0.46751260020E+03  0.55479018157E+03  0.46999998093E+01 0. -1.
       -5    1    3    3    0  502 -0.18624997298E+03 -0.23348013148E+03 -0.45554437070E+03  0.54474286402E+03  0.46999998093E+01 0.  1.
</event>
<event>
 5   0  0.8621738E-05  0.1098936E+04  0.7818609E-02  0.9206230E-01
        1   -1    0    0  501    0  0.00000000000E+00  0.00000000000E+00  0.65212865281E+03  0.65212865283E+03  0.50400001928E-02 0. -1.
       -1   -1    0    0    0  501  0.00000000000E+00  0.00000000000E+00 -0.46296859220E+03  0.46296859222E+03  0.50400001928E-02 0.  1.
    10030    2    1    2    0    0  0.00000000000E+00  0.00000000000E+00  0.18916006062E+03  0.11150972451E+04  0.10989360024E+04 0.  0.
        2    1    3    3  502    0 -0.17107851241E+03 -0.30207378719E+03  0.52675277211E+03  0.63086045466E+03  0.25500000920E-02 0. -1.
       -2    1    3    3    0  502  0.17107851241E+03  0.30207378719E+03 -0.33759271149E+03  0.48423679040E+03  0.25500000920E-02 0.  1.
</event>
<event>
 5   0  0.9346836E-05  0.1099877E+04  0.7818609E-02  0.9205312E-01
       -1   -1    0    0    0  501  0.00000000000E+00  0.00000000000E+00  0.55026548846E+03  0.55026548848E+03  0.50400001928E-02 0.  1.
        1   -1    0    0  501    0  0.00000000000E+00  0.00000000000E+00 -0.54961168891E+03  0.54961168893E+03  0.50400001928E-02 0. -1.
    10030    2    1    2    0    0  0.00000000000E+00  0.00000000000E+00  0.65379955212E+00  0.10998771774E+04  0.10998769831E+04 0.  0.
        5    1    3    3  502    0  0.28420715695E+03 -0.28052386402E+03  0.37840487936E+03  0.55016332945E+03  0.46999998093E+01 0.  1.
       -5    1    3    3    0  502 -0.28420715695E+03  0.28052386402E+03 -0.37775107981E+03  0.54971384797E+03  0.46999998093E+01 0. -1.
</event>
<event>
 5   0  0.1553937E-04  0.1099974E+04  0.7818609E-02  0.9205218E-01
        2   -1    0    0  501    0  0.00000000000E+00  0.00000000000E+00  0.37645473560E+03  0.37645473561E+03  0.25500000920E-02 0.  1.
       -2   -1    0    0    0  501  0.00000000000E+00  0.00000000000E+00 -0.80351082196E+03  0.80351082196E+03  0.25500000920E-02 0. -1.
    10030    2    1    2    0    0  0.00000000000E+00  0.00000000000E+00 -0.42705608636E+03  0.11799655576E+04  0.10999735525E+04 0.  0.
        1    1    3    3  502    0 -0.61268019409E+02  0.51378916405E+03 -0.13551362406E+02  0.51760671822E+03  0.50400001928E-02 0.  1.
       -1    1    3    3    0  502  0.61268019409E+02 -0.51378916405E+03 -0.41350472395E+03  0.66235883934E+03  0.50400001928E-02 0. -1.
</event>
<event>
 5   0  0.1574101E-04  0.1100113E+04  0.7818609E-02  0.9205082E-01
        2   -1    0    0  501    0  0.00000000000E+00  0.00000000000E+00  0.77062353646E+03  0.77062353647E+03  0.25500000920E-02 0. -1.
       -2   -1    0    0    0  501  0.00000000000E+00  0.00000000000E+00 -0.39262007080E+03  0.39262007081E+03  0.25500000920E-02 0.  1.
    10030    2    1    2    0    0  0.00000000000E+00  0.00000000000E+00  0.37800346567E+03  0.11632436073E+04  0.11001132077E+04 0.  0.
        4    1    3    3  502    0 -0.38051192281E+03  0.16076002199E+03 -0.19506000137E+03  0.45681848157E+03  0.12699999809E+01 0.  1.
       -4    1    3    3    0  502  0.38051192281E+03 -0.16076002199E+03  0.57306346704E+03  0.70642512570E+03  0.12699999809E+01 0. -1.
</event>
<event>
 5   0  0.9016738E-05  0.1099790E+04  0.7818609E-02  0.9205397E-01
       -1   -1    0    0    0  501  0.00000000000E+00  0.00000000000E+00  0.17810634054E+03  0.17810634061E+03  0.50400001928E-02 0.  1.
        1   -1    0    0  501    0  0.00000000000E+00  0.00000000000E+00 -0.16977747865E+04  0.16977747865E+04  0.50400001928E-02 0. -1.
    10030    2    1    2    0    0  0.00000000000E+00  0.00000000000E+00 -0.15196684459E+04  0.18758811271E+04  0.10997898970E+04 0.  0.
        4    1    3    3  502    0 -0.39466269846E+03 -0.19403053374E+03 -0.19676509955E+03  0.48179312042E+03  0.12699999809E+01 0.  1.
       -4    1    3    3    0  502  0.39466269846E+03  0.19403053374E+03 -0.13229033464E+04  0.13940880067E+04  0.12699999809E+01 0. -1.
</event>
<event>
 5   0  0.8621738E-05  0.1099788E+04  0.7818609E-02  0.9205398E-01
        1   -1    0    0  501    0  0.00000000000E+00  0.00000000000E+00  0.11815839765E+04  0.11815839765E+04  0.50400001928E-02 0.  1.
       -1   -1    0    0    0  501  0.00000000000E+00  0.00000000000E+00 -0.25591380287E+03  0.25591380292E+03  0.50400001928E-02 0. -1.
    10030    2    1    2    0    0  0.00000000000E+00  0.00000000000E+00  0.92567017360E+03  0.14374977794E+04  0.10997884322E+04 0.  0.
        2    1    3    3  502    0 -0.56376485147E+02 -0.26347669517E+03 -0.16371994798E+03  0.31528161753E+03  0.25500000920E-02 0. -1.
       -2    1    3    3    0  502  0.56376485147E+02  0.26347669517E+03  0.10893901216E+04  0.11222161619E+04  0.25500000920E-02 0.  1.
</event>
<event>
 5   0  0.8621738E-05  0.1100137E+04  0.7818609E-02  0.9205058E-01
       -1   -1    0    0    0  501  0.00000000000E+00  0.00000000000E+00  0.31754639792E+03  0.31754639796E+03  0.50400001928E-02 0.  1.
        1   -1    0    0  501    0  0.00000000000E+00  0.00000000000E+00 -0.95285424473E+03  0.95285424474E+03  0.50400001928E-02 0. -1.
    10030    2    1    2    0    0  0.00000000000E+00  0.00000000000E+00 -0.63530784680E+03  0.12704006427E+04  0.11001371427E+04 0.  0.
        2    1    3    3  502    0 -0.14323586657E+01  0.27693140275E+03  0.23117255315E+03  0.36074063095E+03  0.25500000920E-02 0.  1.
       -2    1    3    3    0  502  0.14323586657E+01 -0.27693140275E+03 -0.86648039995E+03  0.90966001176E+03  0.25500000920E-02 0. -1.
</event>
<event>
 5   0  0.1540772E-04  0.1100062E+04  0.7818609E-02  0.9205131E-01
       -2   -1    0    0    0  501  0.00000000000E+00  0.00000000000E+00  0.30894462096E+03  0.30894462097E+03  0.25500000920E-02 0.  1.
        2   -1    0    0  501    0  0.00000000000E+00  0.00000000000E+00 -0.97925108862E+03  0.97925108863E+03  0.25500000920E-02 0. -1.
    10030    2    1    2    0    0  0.00000000000E+00  0.00000000000E+00 -0.67030646767E+03  0.12881957096E+04  0.11000624644E+04 0.  0.
        2    1    3    3  502    0  0.70685336355E+02  0.27920971842E+03  0.21357937180E+03  0.35856747161E+03  0.25500000920E-02 0.  1.
       -2    1    3    3    0  502 -0.70685336355E+02 -0.27920971842E+03 -0.88388583947E+03  0.92962823798E+03  0.25500000920E-02 0. -1.
</event>
<event>
 5   0  0.9016738E-05  0.1100611E+04  0.7818609E-02  0.9204596E-01
       -1   -1    0    0    0  501  0.00000000000E+00  0.00000000000E+00  0.37591110621E+03  0.37591110624E+03  0.50400001928E-02 0.  1.
        1   -1    0    0  501    0  0.00000000000E+00  0.00000000000E+00 -0.80560632186E+03  0.80560632188E+03  0.50400001928E-02 0. -1.
    10030    2    1    2    0    0  0.00000000000E+00  0.00000000000E+00 -0.42969521565E+03  0.11815174281E+04  0.11006114004E+04 0.  0.
        4    1    3    3  502    0 -0.38397324485E+03 -0.39416375342E+03 -0.20856656682E+03  0.58847441998E+03  0.12699999809E+01 0.  1.
       -4    1    3    3    0  502  0.38397324485E+03  0.39416375342E+03 -0.22112864883E+03  0.59304300814E+03  0.12699999809E+01 0. -1.
</event>
<event>
 5   0  0.8621738E-05  0.1100071E+04  0.7818609E-02  0.9205122E-01
        1   -1    0    0  501    0  0.00000000000E+00  0.00000000000E+00  0.14963260300E+04  0.14963260300E+04  0.50400001928E-02 0.  1.
       -1   -1    0    0    0  501  0.00000000000E+00  0.00000000000E+00 -0.20218805824E+03  0.20218805830E+03  0.50400001928E-02 0. -1.
    10030    2    1    2    0    0  0.00000000000E+00  0.00000000000E+00  0.12941379717E+04  0.16985140883E+04  0.11000713696E+04 0.  0.
        2    1    3    3  502    0 -0.44761757026E+02  0.13015213214E+03 -0.17517061526E+03  0.22277328576E+03  0.25500000920E-02 0. -1.
       -2    1    3    3    0  502  0.44761757026E+02 -0.13015213214E+03  0.14693085870E+04  0.14757408025E+04  0.25500000920E-02 0.  1.
</event>
<event>
 5   0  0.8921459E-05  0.1100242E+04  0.7818609E-02  0.9204956E-01
       -1   -1    0    0    0  501  0.00000000000E+00  0.00000000000E+00  0.55043704885E+03  0.55043704887E+03  0.50400001928E-02 0. -1.
        1   -1    0    0  501    0  0.00000000000E+00  0.00000000000E+00 -0.54980522661E+03  0.54980522663E+03  0.50400001928E-02 0.  1.
    10030    2    1    2    0    0  0.00000000000E+00  0.00000000000E+00  0.63182223558E+00  0.11002422755E+04  0.11002420941E+04 0.  0.
        3    1    3    3  502    0 -0.14333361240E+03  0.40647685678E+03  0.34217148764E+03  0.55031745084E+03  0.10100000352E+00 0. -1.
       -3    1    3    3    0  502  0.14333361240E+03 -0.40647685678E+03 -0.34153966540E+03  0.54992482467E+03  0.10100000352E+00 0.  1.
</event>
<event>
 5   0  0.9016738E-05  0.1099590E+04  0.7818609E-02  0.9205591E-01
       -1   -1    0    0    0  501  0.00000000000E+00  0.00000000000E+00  0.78981516697E+03  0.78981516699E+03  0.50400001928E-02 0. -1.
        1   -1    0    0  501    0  0.00000000000E+00  0.00000000000E+00 -0.38271582888E+03  0.38271582891E+03  0.50400001928E-02 0.  1.
    10030    2    1    2    0    0  0.00000000000E+00  0.00000000000E+00  0.40709933810E+03  0.11725309959E+04  0.10995904080E+04 0.  0.
        4    1    3    3  502    0  0.36133227823E+03  0.77062868737E+02 -0.23061140254E+03  0.43552604160E+03  0.12699999809E+01 0.  1.
       -4    1    3    3    0  502 -0.36133227823E+03 -0.77062868737E+02  0.63771074064E+03  0.73700495430E+03  0.12699999809E+01 0. -1.
</event>
<event>
 5   0  0.1574101E-04  0.1099953E+04  0.7818609E-02  0.9205237E-01
        2   -1    0    0  501    0  0.00000000000E+00  0.00000000000E+00  0.54075034613E+03  0.54075034614E+03  0.25500000920E-02 0.  1.
       -2   -1    0    0    0  501  0.00000000000E+00  0.00000000000E+00 -0.55936054346E+03  0.55936054347E+03  0.25500000920E-02 0. -1.
    10030    2    1    2    0    0  0.00000000000E+00  0.00000000000E+00 -0.18610197333E+02  0.11001108896E+04  0.10999534672E+04 0.  0.
        4    1    3    3  502    0  0.16367002931E+03 -0.38594723709E+03  0.34673692595E+03  0.54403240440E+03  0.12699999809E+01 0.  1.
       -4    1    3    3    0  502 -0.16367002931E+03  0.38594723709E+03 -0.36534712329E+03  0.55607848521E+03  0.12699999809E+01 0. -1.
</event>
<event>
 5   0  0.1540772E-04  0.1100229E+04  0.7818609E-02  0.9204968E-01
        2   -1    0    0  501    0  0.00000000000E+00  0.00000000000E+00  0.20015383241E+04  0.20015383241E+04  0.25500000920E-02 0.  1.
       -2   -1    0    0    0  501  0.00000000000E+00  0.00000000000E+00 -0.15119680874E+03  0.15119680876E+03  0.25500000920E-02 0. -1.
    10030    2    1    2    0    0  0.00000000000E+00  0.00000000000E+00  0.18503415153E+04  0.21527351328E+04  0.11002294437E+04 0.  0.
        2    1    3    3  502    0 -0.29719835228E+03 -0.41131749634E+03  0.13407737944E+04  0.14335910543E+04  0.25500000920E-02 0. -1.
       -2    1    3    3    0  502  0.29719835228E+03  0.41131749634E+03  0.50956772095E+03  0.71914407849E+03  0.25500000920E-02 0.  1.
</event>
<event>
 5   0  0.1503277E-04  0.1099909E+04  0.7818609E-02  0.9205280E-01
       -2   -1    0    0    0  501  0.00000000000E+00  0.00000000000E+00  0.30673042368E+03  0.30673042369E+03  0.25500000920E-02 0. -1.
        2   -1    0    0  501    0  0.00000000000E+00  0.00000000000E+00 -0.98604546084E+03  0.98604546084E+03  0.25500000920E-02 0.  1.
    10030    2    1    2    0    0  0.00000000000E+00  0.00000000000E+00 -0.67931503716E+03  0.12927758845E+04  0.10999093453E+04 0.  0.
        5    1    3    3  502    0  0.49571814605E+03 -0.14792799069E+03 -0.12037127770E+03  0.53115958548E+03  0.46999998093E+01 0. -1.
       -5    1    3    3    0  502 -0.49571814605E+03  0.14792799069E+03 -0.55894375946E+03  0.76161629906E+03  0.46999998093E+01 0.  1.
</event>
<event>
 5   0  0.1464205E-04  0.1092667E+04  0.7818609E-02  0.9212369E-01
        2   -1    0    0  501    0  0.00000000000E+00  0.00000000000E+00  0.56524298739E+03  0.56524298740E+03  0.25500000920E-02 0.  1.
       -2   -1    0    0    0  501  0.00000000000E+00  0.00000000000E+00 -0.52805638640E+03  0.52805638641E+03  0.25500000920E-02 0. -1.
    10030    2    1    2    0    0  0.00000000000E+00  0.00000000000E+00  0.37186600991E+02  0.10932993738E+04  0.10926667733E+04 0.  0.
        3    1    3    3  502    0  0.34564991074E+03  0.22459958057E+03  0.37735538222E+03  0.55885233030E+03  0.10100000352E+00 0.  1.
       -3    1    3    3    0  502 -0.34564991074E+03 -0.22459958057E+03 -0.34016878123E+03  0.53444704350E+03  0.10100000352E+00 0. -1.
</event>
<event>
 5   0  0.1553937E-04  0.1099902E+04  0.7818609E-02  0.9205287E-01
        2   -1    0    0  501    0  0.00000000000E+00  0.00000000000E+00  0.20594835790E+04  0.20594835790E+04  0.25500000920E-02 0. -1.
       -2   -1    0    0    0  501  0.00000000000E+00  0.00000000000E+00 -0.14685543718E+03  0.14685543720E+03  0.25500000920E-02 0.  1.
    10030    2    1    2    0    0  0.00000000000E+00  0.00000000000E+00  0.19126281418E+04  0.22063390162E+04  0.10999024709E+04 0.  0.
        1    1    3    3  502    0  0.49573321432E+03 -0.23620387323E+03  0.10165815486E+04  0.11554140966E+04  0.50400001928E-02 0.  1.
       -1    1    3    3    0  502 -0.49573321432E+03  0.23620387323E+03  0.89604659316E+03  0.10509249196E+04  0.50400001928E-02 0. -1.
</event>
<event>
 5   0  0.8921459E-05  0.1100743E+04  0.7818609E-02  0.9204468E-01
        1   -1    0    0  501    0  0.00000000000E+00  0.00000000000E+00  0.18551945665E+04  0.18551945665E+04  0.50400001928E-02 0.  1.
       -1   -1    0    0    0  501  0.00000000000E+00  0.00000000000E+00 -0.16327604304E+03  0.16327604312E+03  0.50400001928E-02 0. -1.
    10030    2    1    2    0    0  0.00000000000E+00  0.00000000000E+00  0.16919185234E+04  0.20184706096E+04  0.11007430726E+04 0.  0.
        3    1    3    3  502    0 -0.11152810258E+01 -0.45946779541E+02  0.18516694157E+04  0.18522397214E+04  0.10100000352E+00 0.  1.
       -3    1    3    3    0  502  0.11152810258E+01  0.45946779541E+02 -0.15975089227E+03  0.16623088817E+03  0.10100000352E+00 0. -1.
</event>
<event>
 5   0  0.8657442E-05  0.1100785E+04  0.7818609E-02  0.9204427E-01
        1   -1    0    0  501    0  0.00000000000E+00  0.00000000000E+00  0.49673250381E+03  0.49673250384E+03  0.50400001928E-02 0. -1.
       -1   -1    0    0    0  501  0.00000000000E+00  0.00000000000E+00 -0.60984933336E+03  0.60984933338E+03  0.50400001928E-02 0.  1.
    10030    2    1    2    0    0  0.00000000000E+00  0.00000000000E+00 -0.11311682954E+03  0.11065818372E+04  0.11007851495E+04 0.  0.
        1    1    3    3  502    0 -0.42405875807E+03  0.21304428026E+03  0.22368963291E+03  0.52464344801E+03  0.50400001928E-02 0. -1.
       -1    1    3    3    0  502  0.42405875807E+03 -0.21304428026E+03 -0.33680646245E+03  0.58193838920E+03  0.50400001928E-02 0.  1.
</event>
<event>
 5   0  0.1464205E-04  0.1099680E+04  0.7818609E-02  0.9205504E-01
        2   -1    0    0  501    0  0.00000000000E+00  0.00000000000E+00  0.91014226038E+03  0.91014226038E+03  0.25500000920E-02 0.  1.
       -2   -1    0    0    0  501  0.00000000000E+00  0.00000000000E+00 -0.33217226362E+03  0.33217226363E+03  0.25500000920E-02 0. -1.
    10030    2    1    2    0    0  0.00000000000E+00  0.00000000000E+00  0.57796999676E+03  0.12423145240E+04  0.10996799805E+04 0.  0.
        3    1    3    3  502    0 -0.34949788393E+03  0.11845375121E+03  0.74946152865E+03  0.83538772745E+03  0.10100000352E+00 0.  1.
       -3    1    3    3    0  502  0.34949788393E+03 -0.11845375121E+03 -0.17149153189E+03  0.40692679656E+03  0.10100000352E+00 0. -1.
</event>
<event>
 5   0  0.8621738E-05  0.1098539E+04  0.7818609E-02  0.9206617E-01
       -1   -1    0    0    0  501  0.00000000000E+00  0.00000000000E+00  0.69105487836E+03  0.69105487837E+03  0.50400001928E-02 0. -1.
        1   -1    0    0  501    0  0.00000000000E+00  0.00000000000E+00 -0.43657447689E+03  0.43657447692E+03  0.50400001928E-02 0.  1.
    10030    2    1    2    0    0  0.00000000000E+00  0.00000000000E+00  0.25448040147E+03  0.11276293553E+04  0.10985388879E+04 0.  0.
        2    1    3    3  502    0  0.25564202572E+03  0.48110041482E+03  0.55485815380E+02  0.54762133831E+03  0.25500000920E-02 0.  1.
       -2    1    3    3    0  502 -0.25564202572E+03 -0.48110041482E+03  0.19899458609E+03  0.58000801698E+03  0.25500000920E-02 0. -1.
</event>
<event>
 5   0  0.1553937E-04  0.1100238E+04  0.7818609E-02  0.9204960E-01
       -2   -1    0    0    0  501  0.00000000000E+00  0.00000000000E+00  0.86074367577E+03  0.86074367577E+03  0.25500000920E-02 0.  1.
        2   -1    0    0  501    0  0.00000000000E+00  0.00000000000E+00 -0.35159209437E+03  0.35159209438E+03  0.25500000920E-02 0. -1.
    10030    2    1    2    0    0  0.00000000000E+00  0.00000000000E+00  0.50915158140E+03  0.12123357702E+04  0.11002375592E+04 0.  0.
        1    1    3    3  502    0 -0.48930828430E+03 -0.20361170364E+03  0.41708185218E+03  0.67441648437E+03  0.50400001928E-02 0.  1.
       -1    1    3    3    0  502  0.48930828430E+03  0.20361170364E+03  0.92069729215E+02  0.53791928578E+03  0.50400001928E-02 0. -1.
</event>
<event>
 5   0  0.1464205E-04  0.1100175E+04  0.7818609E-02  0.9205021E-01
        2   -1    0    0  501    0  0.00000000000E+00  0.00000000000E+00  0.52965432143E+03  0.52965432143E+03  0.25500000920E-02 0.  1.
       -2   -1    0    0    0  501  0.00000000000E+00  0.00000000000E+00 -0.57130881099E+03  0.57130881100E+03  0.25500000920E-02 0. -1.
    10030    2    1    2    0    0  0.00000000000E+00  0.00000000000E+00 -0.41654489566E+02  0.11009631324E+04  0.11001748599E+04 0.  0.
        3    1    3    3  502    0 -0.18769208776E+03 -0.21620818311E+03  0.44921332309E+03  0.53269777368E+03  0.10100000352E+00 0.  1.
       -3    1    3    3    0  502  0.18769208776E+03  0.21620818311E+03 -0.49086781265E+03  0.56826535874E+03  0.10100000352E+00 0. -1.
</event>
<event>
 5   0  0.6010125E-05  0.1099311E+04  0.7818609E-02  0.9205864E-01
       -3   -1    0    0    0  501  0.00000000000E+00  0.00000000000E+00  0.19749897954E+04  0.19749897980E+04  0.10100000352E+00 0. -1.
        3   -1    0    0  501    0  0.00000000000E+00  0.00000000000E+00 -0.15297344502E+03  0.15297347836E+03  0.10100000352E+00 0.  1.
    10030    2    1    2    0    0  0.00000000000E+00  0.00000000000E+00  0.18220163504E+04  0.21279632764E+04  0.10993107497E+04 0.  0.
        3    1    3    3  502    0 -0.24009912523E+03 -0.31667104956E+03  0.16460559346E+04  0.16933482494E+04  0.10100000352E+00 0. -1.
       -3    1    3    3    0  502  0.24009912523E+03  0.31667104956E+03  0.17596041580E+03  0.43461502700E+03  0.10100000352E+00 0.  1.
</event>
<event>
 5   0  0.8657442E-05  0.1098993E+04  0.7818609E-02  0.9206174E-01
       -1   -1    0    0    0  501  0.00000000000E+00  0.00000000000E+00  0.63335312871E+03  0.63335312873E+03  0.50400001928E-02 0. -1.
        1   -1    0    0  501    0  0.00000000000E+00  0.00000000000E+00 -0.47674290781E+03  0.47674290784E+03  0.50400001928E-02 0.  1.
    10030    2    1    2    0    0  0.00000000000E+00  0.00000000000E+00  0.15661022090E+03  0.11100960366E+04  0.10989933799E+04 0.  0.
        1    1    3    3  502    0  0.32092710111E+03  0.12234346357E+03  0.51157257372E+03  0.61617256148E+03  0.50400001928E-02 0. -1.
       -1    1    3    3    0  502 -0.32092710111E+03 -0.12234346357E+03 -0.35496235282E+03  0.49392347510E+03  0.50400001928E-02 0.  1.
</event>
<event>
 5   0  0.1464205E-04  0.1099783E+04  0.7818609E-02  0.9205404E-01
        2   -1    0    0  501    0  0.00000000000E+00  0.00000000000E+00  0.71332324450E+03  0.71332324450E+03  0.25500000920E-02 0.  1.
       -2   -1    0    0    0  501  0.00000000000E+00  0.00000000000E+00 -0.42390390372E+03  0.42390390373E+03  0.25500000920E-02 0. -1.
    10030    2    1    2    0    0  0.00000000000E+00  0.00000000000E+00  0.28941934078E+03  0.11372271482E+04  0.10997827203E+04 0.  0.
        3    1    3    3  502    0  0.50151640211E+03 -0.13775905538E+03  0.32935075975E+03  0.61560392468E+03  0.10100000352E+00 0. -1.
       -3    1    3    3    0  502 -0.50151640211E+03  0.13775905538E+03 -0.39931418972E+02  0.52162322355E+03  0.10100000352E+00 0.  1.
</event>
<event>
 5   0  0.1553937E-04  0.1099653E+04  0.7818609E-02  0.9205530E-01
       -2   -1    0    0    0  501  0.00000000000E+00  0.00000000000E+00  0.92883028785E+03  0.92883028785E+03  0.25500000920E-02 0.  1.
        2   -1    0    0  501    0  0.00000000000E+00  0.00000000000E+00 -0.32547318697E+03  0.32547318698E+03  0.25500000920E-02 0. -1.
    10030    2    1    2    0    0  0.00000000000E+00  0.00000000000E+00  0.60335710088E+03  0.12543034748E+04  0.10996533162E+04 0.  0.
        1    1    3    3  502    0 -0.52270583341E+03 -0.16927388569E+03  0.27790738981E+03  0.61571710549E+03  0.50400001928E-02 0.  1.
       -1    1    3    3    0  502  0.52270583341E+03  0.16927388569E+03  0.32544971106E+03  0.63858636935E+03  0.50400001928E-02 0. -1.
</event>
<event>
 5   0  0.8621738E-05  0.1100049E+04  0.7818609E-02  0.9205144E-01
        1   -1    0    0  501    0  0.00000000000E+00  0.00000000000E+00  0.14837925128E+04  0.14837925128E+04  0.50400001928E-02 0. -1.
       -1   -1    0    0    0  501  0.00000000000E+00  0.00000000000E+00 -0.20388779555E+03  0.20388779561E+03  0.50400001928E-02 0.  1.
    10030    2    1    2    0    0  0.00000000000E+00  0.00000000000E+00  0.12799047172E+04  0.16876803084E+04  0.11000494253E+04 0.  0.
        2    1    3    3  502    0  0.49351050041E+03 -0.23893894145E+03  0.70652175712E+03  0.89432512267E+03  0.25500000920E-02 0.  1.
       -2    1    3    3    0  502 -0.49351050041E+03  0.23893894145E+03  0.57338296010E+03  0.79335518571E+03  0.25500000920E-02 0. -1.
</event>
<event>
 5   0  0.1574101E-04  0.1100034E+04  0.7818609E-02  0.9205159E-01
       -2   -1    0    0    0  501  0.00000000000E+00  0.00000000000E+00  0.18520669427E+03  0.18520669429E+03  0.25500000920E-02 0. -1.
        2   -1    0    0  501    0  0.00000000000E+00  0.00000000000E+00 -0.16334115296E+04  0.16334115296E+04  0.25500000920E-02 0.  1.
    10030    2    1    2    0    0  0.00000000000E+00  0.00000000000E+00 -0.14482048353E+04  0.18186182238E+04  0.11000340900E+04 0.  0.
        4    1    3    3  502    0 -0.42605318251E+03 -0.26579807147E+03 -0.35314582867E+03  0.61390839572E+03  0.12699999809E+01 0.  1.
       -4    1    3    3    0  502  0.42605318251E+03  0.26579807147E+03 -0.10950590066E+04  0.12047098281E+04  0.12699999809E+01 0. -1.
</event>
<event>
 5   0  0.1540772E-04  0.1099547E+04  0.7818609E-02  0.9205633E-01
       -2   -1    0    0    0  501  0.00000000000E+00  0.00000000000E+00  0.27367111887E+03  0.27367111888E+03  0.25500000920E-02 0. -1.
        2   -1    0    0  501    0  0.00000000000E+00  0.00000000000E+00 -0.11044312833E+04  0.11044312833E+04  0.25500000920E-02 0.  1.
    10030    2    1    2    0    0  0.00000000000E+00  0.00000000000E+00 -0.83076016446E+03  0.13781024022E+04  0.10995470795E+04 0.  0.
        2    1    3    3  502    0  0.22655069387E+03  0.83420872418E+02 -0.10344403396E+04  0.10622387091E+04  0.25500000920E-02 0.  1.
       -2    1    3    3    0  502 -0.22655069387E+03 -0.83420872418E+02  0.20368017519E+03  0.31586369310E+03  0.25500000920E-02 0. -1.
</event>
<event>
 5   0  0.8921459E-05  0.1100163E+04  0.7818609E-02  0.9205033E-01
        1   -1    0    0  501    0  0.00000000000E+00  0.00000000000E+00  0.22352436029E+03  0.22352436035E+03  0.50400001928E-02 0.  1.
       -1   -1    0    0    0  501  0.00000000000E+00  0.00000000000E+00 -0.13537214585E+04  0.13537214585E+04  0.50400001928E-02 0. -1.
    10030    2    1    2    0    0  0.00000000000E+00  0.00000000000E+00 -0.11301970982E+04  0.15772458188E+04  0.11001631208E+04 0.  0.
        3    1    3    3  502    0  0.60726563155E+02 -0.39465891385E+03 -0.11075144658E+04  0.11772984651E+04  0.10100000352E+00 0. -1.
       -3    1    3    3    0  502 -0.60726563155E+02  0.39465891385E+03 -0.22682632400E+02  0.39994735375E+03  0.10100000352E+00 0.  1.
</event>
<event>
 5   0  0.9016738E-05  0.1101616E+04  0.7818609E-02  0.9203618E-01
       -1   -1    0    0    0  501  0.00000000000E+00  0.00000000000E+00  0.32095584350E+03  0.32095584354E+03  0.50400001928E-02 0. -1.
        1   -1    0    0  501    0  0.00000000000E+00  0.00000000000E+00 -0.94526931613E+03  0.94526931614E+03  0.50400001928E-02 0.  1.
    10030    2    1    2    0    0  0.00000000000E+00  0.00000000000E+00 -0.62431347263E+03  0.12662251597E+04  0.11016164682E+04 0.  0.
        4    1    3    3  502    0  0.47313002397E+03 -0.11962721264E+03 -0.60571135786E+03  0.77784995437E+03  0.12699999809E+01 0. -1.
       -4    1    3    3    0  502 -0.47313002397E+03  0.11962721264E+03 -0.18602114770E+02  0.48837520531E+03  0.12699999809E+01 0.  1.
</event>
<event>
 5   0  0.9346836E-05  0.1099929E+04  0.7818609E-02  0.9205261E-01
       -1   -1    0    0    0  501  0.00000000000E+00  0.00000000000E+00  0.71360199623E+03  0.71360199624E+03  0.50400001928E-02 0.  1.
        1   -1    0    0  501    0  0.00000000000E+00  0.00000000000E+00 -0.42385120696E+03  0.42385120699E+03  0.50400001928E-02 0. -1.
    10030    2    1    2    0    0  0.00000000000E+00  0.00000000000E+00  0.28975078927E+03  0.11374532032E+04  0.10999292112E+04 0.  0.
        5    1    3    3  502    0  0.48390448548E+03  0.47466644242E+01 -0.12528976528E+03  0.49990568828E+03  0.46999998093E+01 0. -1.
       -5    1    3    3    0  502 -0.48390448548E+03 -0.47466644242E+01  0.41504055455E+03  0.63754751495E+03  0.46999998093E+01 0.  1.
</event>
<event>
 5   0  0.9016738E-05  0.1099956E+04  0.7818609E-02  0.9205235E-01
       -1   -1    0    0    0  501  0.00000000000E+00  0.00000000000E+00  0.62701881484E+03  0.62701881486E+03  0.50400001928E-02 0. -1.
        1   -1    0    0  501    0  0.00000000000E+00  0.00000000000E+00 -0.48240288904E+03  0.48240288906E+03  0.50400001928E-02 0.  1.
    10030    2    1    2    0    0  0.00000000000E+00  0.00000000000E+00  0.14461592581E+03  0.11094217039E+04  0.10999557951E+04 0.  0.
        4    1    3    3  502    0  0.86891744628E+02 -0.12984484483E+03  0.60416385789E+03  0.62403961341E+03  0.12699999809E+01 0. -1.
       -4    1    3    3    0  502 -0.86891744628E+02  0.12984484483E+03 -0.45954793209E+03  0.48538209052E+03  0.12699999809E+01 0.  1.
</event>
<event>
 5   0  0.8657442E-05  0.1099880E+04  0.7818609E-02  0.9205309E-01
        1   -1    0    0  501    0  0.00000000000E+00  0.00000000000E+00  0.20107913273E+04  0.20107913273E+04  0.50400001928E-02 0.  1.
       -1   -1    0    0    0  501  0.00000000000E+00  0.00000000000E+00 -0.15040553214E+03  0.15040553223E+03  0.50400001928E-02 0. -1.
    10030    2    1    2    0    0  0.00000000000E+00  0.00000000000E+00  0.18603857951E+04  0.21611968595E+04  0.10998802475E+04 0.  0.
        1    1    3    3  502    0 -0.25262717081E+03  0.10943845391E+03 -0.52433911902E+01  0.27536295285E+03  0.50400001928E-02 0. -1.
       -1    1    3    3    0  502  0.25262717081E+03 -0.10943845391E+03  0.18656291863E+04  0.18858339066E+04  0.50400001928E-02 0.  1.
</event>
<event>
 5   0  0.1503277E-04  0.1099807E+04  0.7818609E-02  0.9205380E-01
       -2   -1    0    0    0  501  0.00000000000E+00  0.00000000000E+00  0.55871434600E+03  0.55871434601E+03  0.25500000920E-02 0.  1.
        2   -1    0    0  501    0  0.00000000000E+00  0.00000000000E+00 -0.54123193836E+03  0.54123193836E+03  0.25500000920E-02 0. -1.
    10030    2    1    2    0    0  0.00000000000E+00  0.00000000000E+00  0.17482407645E+02  0.10999462844E+04  0.10998073440E+04 0.  0.
        5    1    3    3  502    0 -0.40625883096E+03 -0.23995230284E+03  0.29117484898E+03  0.55446210695E+03  0.46999998093E+01 0.  1.
       -5    1    3    3    0  502  0.40625883096E+03  0.23995230284E+03 -0.27369244134E+03  0.54548417742E+03  0.46999998093E+01 0. -1.
</event>
<event>
 5   0  0.9016738E-05  0.1099747E+04  0.7818609E-02  0.9205438E-01
        1   -1    0    0  501    0  0.00000000000E+00  0.00000000000E+00  0.11592324637E+04  0.11592324637E+04  0.50400001928E-02 0. -1.
       -1   -1    0    0    0  501  0.00000000000E+00  0.00000000000E+00 -0.26082873752E+03  0.26082873757E+03  0.50400001928E-02 0.  1.
    10030    2    1    2    0    0  0.00000000000E+00  0.00000000000E+00  0.89840372615E+03  0.14200612012E+04  0.10997474984E+04 0.  0.
        4    1    3    3  502    0 -0.13315997896E+03 -0.24913060332E+02  0.11373450594E+04  0.11453853665E+04  0.12699999809E+01 0. -1.
       -4    1    3    3    0  502  0.13315997896E+03  0.24913060332E+02 -0.23894133328E+03  0.27467583480E+03  0.12699999809E+01 0.  1.
</event>
<event>
 5   0  0.1503277E-04  0.1099931E+04  0.7818609E-02  0.9205259E-01
        2   -1    0    0  501    0  0.00000000000E+00  0.00000000000E+00  0.48420849640E+03  0.48420849641E+03  0.25500000920E-02 0.  1.
       -2   -1    0    0    0  501  0.00000000000E+00  0.00000000000E+00 -0.62465271275E+03  0.62465271275E+03  0.25500000920E-02 0. -1.
    10030    2    1    2    0    0  0.00000000000E+00  0.00000000000E+00 -0.14044421635E+03  0.11088612092E+04  0.10999311812E+04 0.  0.
        5    1    3    3  502    0 -0.41721986840E+03  0.12052217903E+02  0.29076658963E+03  0.50870912532E+03  0.46999998093E+01 0.  1.
       -5    1    3    3    0  502  0.41721986840E+03 -0.12052217903E+02 -0.43121080598E+03  0.60015208384E+03  0.46999998093E+01 0. -1.
</event>
<event>
 5   0  0.1464205E-04  0.1100550E+04  0.7818609E-02  0.9204656E-01
        2   -1    0    0  501    0  0.00000000000E+00  0.00000000000E+00  0.13455461498E+04  0.13455461498E+04  0.25500000920E-02 0.  1.
       -2   -1    0    0    0  501  0.00000000000E+00  0.00000000000E+00 -0.22504070900E+03  0.22504070901E+03  0.25500000920E-02 0. -1.
    10030    2    1    2    0    0  0.00000000000E+00  0.00000000000E+00  0.11205054408E+04  0.15705868588E+04  0.11005501525E+04 0.  0.
        3    1    3    3  502    0  0.12834799019E+03  0.40260961446E+03  0.57245753515E+02  0.42643263798E+03  0.10100000352E+00 0. -1.
       -3    1    3    3    0  502 -0.12834799019E+03 -0.40260961446E+03  0.10632596873E+04  0.11441542209E+04  0.10100000352E+00 0.  1.
</event>
<event>
 5   0  0.1464205E-04  0.1099865E+04  0.7818609E-02  0.9205323E-01
       -2   -1    0    0    0  501  0.00000000000E+00  0.00000000000E+00  0.30036374783E+03  0.30036374784E+03  0.25500000920E-02 0.  1.
        2   -1    0    0  501    0  0.00000000000E+00  0.00000000000E+00 -0.10068656644E+04  0.10068656644E+04  0.25500000920E-02 0. -1.
    10030    2    1    2    0    0  0.00000000000E+00  0.00000000000E+00 -0.70650191660E+03  0.13072294123E+04  0.10998653455E+04 0.  0.
        3    1    3    3  502    0  0.27701942422E+03 -0.43064290805E+03 -0.11485288661E+03  0.52477068459E+03  0.10100000352E+00 0.  1.
       -3    1    3    3    0  502 -0.27701942422E+03  0.43064290805E+03 -0.59164902999E+03  0.78245872768E+03  0.10100000352E+00 0. -1.
</event>
<event>
 5   0  0.9346836E-05  0.1098766E+04  0.7818609E-02  0.9206395E-01
        1   -1    0    0  501    0  0.00000000000E+00  0.00000000000E+00  0.17818512760E+04  0.17818512761E+04  0.50400001928E-02 0.  1.
       -1   -1    0    0    0  501  0.00000000000E+00  0.00000000000E+00 -0.16938665334E+03  0.16938665341E+03  0.50400001928E-02 0. -1.
    10030    2    1    2    0    0  0.00000000000E+00  0.00000000000E+00  0.16124646227E+04  0.19512379295E+04  0.10987662617E+04 0.  0.
        5    1    3    3  502    0  0.24224143379E+03  0.31646206215E+03  0.14777048588E+04  0.15305106627E+04  0.46999998093E+01 0.  1.
       -5    1    3    3    0  502 -0.24224143379E+03 -0.31646206215E+03  0.13475976394E+03  0.42072726677E+03  0.46999998093E+01 0. -1.
</event>
<event>
 5   0  0.1503277E-04  0.1100100E+04  0.7818609E-02  0.9205095E-01
        2   -1    0    0  501    0  0.00000000000E+00  0.00000000000E+00  0.10583417503E+04  0.10583417503E+04  0.25500000920E-02 0. -1.
       -2   -1    0    0    0  501  0.00000000000E+00  0.00000000000E+00 -0.28587638531E+03  0.28587638533E+03  0.25500000920E-02 0.  1.
    10030    2    1    2    0    0  0.00000000000E+00  0.00000000000E+00  0.77246536499E+03  0.13442181356E+04  0.11000998391E+04 0.  0.
        5    1    3    3  502    0 -0.61823603643E+02  0.26953183196E+03  0.96720125522E+03  0.10059671588E+04  0.46999998093E+01 0. -1.
       -5    1    3    3    0  502  0.61823603643E+02 -0.26953183196E+03 -0.19473589023E+03  0.33825097687E+03  0.46999998093E+01 0.  1.
</event>
<event>
 5   0  0.1464205E-04  0.1099976E+04  0.7818609E-02  0.9205216E-01
       -2   -1    0    0    0  501  0.00000000000E+00  0.00000000000E+00  0.30898653105E+03  0.30898653106E+03  0.25500000920E-02 0. -1.
        2   -1    0    0  501    0  0.00000000000E+00  0.00000000000E+00 -0.97896385330E+03  0.97896385330E+03  0.25500000920E-02 0.  1.
    10030    2    1    2    0    0  0.00000000000E+00  0.00000000000E+00 -0.66997732224E+03  0.12879503844E+04  0.10999757180E+04 0.  0.
        3    1    3    3  502    0 -0.12258231424E+03 -0.52041608023E+03 -0.18400599465E+03  0.56543570509E+03  0.10100000352E+00 0. -1.
       -3    1    3    3    0  502  0.12258231424E+03  0.52041608023E+03 -0.48597132759E+03  0.72251467927E+03  0.10100000352E+00 0.  1.
</event>
<event>
 5   0  0.8657442E-05  0.1099765E+04  0.7818609E-02  0.9205421E-01
        1   -1    0    0  501    0  0.00000000000E+00  0.00000000000E+00  0.47308525107E+03  0.47308525109E+03  0.50400001928E-02 0. -1.
       -1   -1    0    0    0  501  0.00000000000E+00  0.00000000000E+00 -0.63914697281E+03  0.63914697283E+03  0.50400001928E-02 0.  1.
    10030    2    1    2    0    0  0.00000000000E+00  0.00000000000E+00 -0.16606172175E+03  0.11122322239E+04  0.10997654407E+04 0.  0.
        1    1    3    3  502    0  0.15068884552E+03 -0.50760606333E+03  0.66974359944E+02  0.53371959736E+03  0.50400001928E-02 0. -1.
       -1    1    3    3    0  502 -0.15068884552E+03  0.50760606333E+03 -0.23303608169E+03  0.57851262656E+03  0.50400001928E-02 0.  1.
</event>
<event>
 5   0  0.8921459E-05  0.1096664E+04  0.7818609E-02  0.9208449E-01
        1   -1    0    0  501    0  0.00000000000E+00  0.00000000000E+00  0.82831378448E+03  0.82831378449E+03  0.50400001928E-02 0.  1.
       -1   -1    0    0    0  501  0.00000000000E+00  0.00000000000E+00 -0.36298825207E+03  0.36298825210E+03  0.50400001928E-02 0. -1.
    10030    2    1    2    0    0  0.00000000000E+00  0.00000000000E+00  0.46532553241E+03  0.11913020366E+04  0.10966643476E+04 0.  0.
        3    1    3    3  502    0 -0.20647400472E+03 -0.49622236802E+03  0.35066475783E+03  0.64174288912E+03  0.10100000352E+00 0.  1.
       -3    1    3    3    0  502  0.20647400472E+03  0.49622236802E+03  0.11466077458E+03  0.54955914748E+03  0.10100000352E+00 0. -1.
</event>
<event>
 5   0  0.8621738E-05  0.1100299E+04  0.7818609E-02  0.9204900E-01
        1   -1    0    0  501    0  0.00000000000E+00  0.00000000000E+00  0.22691437432E+03  0.22691437437E+03  0.50400001928E-02 0. -1.
       -1   -1    0    0    0  501  0.00000000000E+00  0.00000000000E+00 -0.13338273929E+04  0.13338273929E+04  0.50400001928E-02 0.  1.
    10030    2    1    2    0    0  0.00000000000E+00  0.00000000000E+00 -0.11069130186E+04  0.15607417673E+04  0.11002992472E+04 0.  0.
        2    1    3    3  502    0  0.54605291200E+03  0.48197262071E+02 -0.48741229042E+03  0.73353084437E+03  0.25500000920E-02 0.  1.
       -2    1    3    3    0  502 -0.54605291200E+03 -0.48197262071E+02 -0.61950072814E+03  0.82721092289E+03  0.25500000920E-02 0. -1.
</event>
<event>
 5   0  0.6010125E-05  0.1099847E+04  0.7818609E-02  0.9205341E-01
       -3   -1    0    0    0  501  0.00000000000E+00  0.00000000000E+00  0.65830977069E+03  0.65830977844E+03  0.10100000352E+00 0.  1.
        3   -1    0    0  501    0  0.00000000000E+00  0.00000000000E+00 -0.45938234719E+03  0.45938235829E+03  0.10100000352E+00 0. -1.
    10030    2    1    2    0    0  0.00000000000E+00  0.00000000000E+00  0.19892742350E+03  0.11176921367E+04  0.10998470769E+04 0.  0.
        3    1    3    3  502    0  0.13944348070E+03  0.48769481263E+03  0.31533721155E+03  0.59726734530E+03  0.10100000352E+00 0.  1.
       -3    1    3    3    0  502 -0.13944348070E+03 -0.48769481263E+03 -0.11640978805E+03  0.52042479142E+03  0.10100000352E+00 0. -1.
</event>
<event>
 5   0  0.1553937E-04  0.1100033E+04  0.7818609E-02  0.9205160E-01
        2   -1    0    0  501    0  0.00000000000E+00  0.00000000000E+00  0.37076074106E+03  0.37076074107E+03  0.25500000920E-02 0. -1.
       -2   -1    0    0    0  501  0.00000000000E+00  0.00000000000E+00 -0.81593859881E+03  0.81593859881E+03  0.25500000920E-02 0.  1.
    10030    2    1    2    0    0  0.00000000000E+00  0.00000000000E+00 -0.44517785774E+03  0.11866993399E+04  0.11000327260E+04 0.  0.
        1    1    3    3  502    0  0.68617390213E+02  0.46594152038E+03  0.83885185806E+02  0.47837910812E+03  0.50400001928E-02 0. -1.
       -1    1    3    3    0  502 -0.68617390213E+02 -0.46594152038E+03 -0.52906304355E+03  0.70832023177E+03  0.50400001928E-02 0.  1.
</event>
<event>
 5   0  0.1503277E-04  0.1100207E+04  0.7818609E-02  0.9204990E-01
        2   -1    0    0  501    0  0.00000000000E+00  0.00000000000E+00  0.62175743984E+03  0.62175743984E+03  0.25500000920E-02 0.  1.
       -2   -1    0    0    0  501  0.00000000000E+00  0.00000000000E+00 -0.48670695861E+03  0.48670695862E+03  0.25500000920E-02 0. -1.
    10030    2    1    2    0    0  0.00000000000E+00  0.00000000000E+00  0.13505048123E+03  0.11084643985E+04  0.11002066579E+04 0.  0.
        5    1    3    3  502    0  0.22446475236E+03  0.18086043170E+03 -0.40449588921E+03  0.49672319775E+03  0.46999998093E+01 0. -1.
       -5    1    3    3    0  502 -0.22446475236E+03 -0.18086043170E+03  0.53954637043E+03  0.61174120071E+03  0.46999998093E+01 0.  1.
</event>
<event>
 5   0  0.1540772E-04  0.1100681E+04  0.7818609E-02  0.9204528E-01
       -2   -1    0    0    0  501  0.00000000000E+00  0.00000000000E+00  0.14139578168E+04  0.14139578168E+04  0.25500000920E-02 0. -1.
        2   -1    0    0  501    0  0.00000000000E+00  0.00000000000E+00 -0.21420365812E+03  0.21420365814E+03  0.25500000920E-02 0.  1.
    10030    2    1    2    0    0  0.00000000000E+00  0.00000000000E+00  0.11997541587E+04  0.16281614750E+04  0.11006814922E+04 0.  0.
        2    1    3    3  502    0 -0.17184888660E+03  0.83542553824E+01 -0.17339842850E+03  0.24427207868E+03  0.25500000920E-02 0.  1.
       -2    1    3    3    0  502  0.17184888660E+03 -0.83542553824E+01  0.13731525872E+04  0.13838893963E+04  0.25500000920E-02 0. -1.
</event>
<event>
 5   0  0.1464205E-04  0.1101503E+04  0.7818609E-02  0.9203728E-01
        2   -1    0    0  501    0  0.00000000000E+00  0.00000000000E+00  0.90628313148E+03  0.90628313148E+03  0.25500000920E-02 0.  1.
       -2   -1    0    0    0  501  0.00000000000E+00  0.00000000000E+00 -0.33469363658E+03  0.33469363659E+03  0.25500000920E-02 0. -1.
    10030    2    1    2    0    0  0.00000000000E+00  0.00000000000E+00  0.57158949489E+03  0.12409767681E+04  0.11015029679E+04 0.  0.
        3    1    3    3  502    0  0.46114129376E+03  0.15280712856E+03  0.57812178435E+03  0.75513317970E+03  0.10100000352E+00 0.  1.
       -3    1    3    3    0  502 -0.46114129376E+03 -0.15280712856E+03 -0.65322894517E+01  0.48584358837E+03  0.10100000352E+00 0. -1.
</event>
<event>
 5   0  0.8621738E-05  0.1099083E+04  0.7818609E-02  0.9206087E-01
        1   -1    0    0  501    0  0.00000000000E+00  0.00000000000E+00  0.37459192873E+03  0.37459192877E+03  0.50400001928E-02 0. -1.
       -1   -1    0    0    0  501  0.00000000000E+00  0.00000000000E+00 -0.80619893170E+03  0.80619893171E+03  0.50400001928E-02 0.  1.
    10030    2    1    2    0    0  0.00000000000E+00  0.00000000000E+00 -0.43160700296E+03  0.11807908605E+04  0.10990825498E+04 0.  0.
        2    1    3    3  502    0 -0.22389441154E+03 -0.21297871954E+03  0.27241027244E+03  0.41194174228E+03  0.25500000920E-02 0. -1.
       -2    1    3    3    0  502  0.22389441154E+03  0.21297871954E+03 -0.70401727540E+03  0.76884911820E+03  0.25500000920E-02 0.  1.
</event>
<event>
 5   0  0.8657442E-05  0.1099697E+04  0.7818609E-02  0.9205487E-01
       -1   -1    0    0    0  501  0.00000000000E+00  0.00000000000E+00  0.29319531170E+03  0.29319531174E+03  0.50400001928E-02 0.  1.
        1   -1    0    0  501    0  0.00000000000E+00  0.00000000000E+00 -0.10311672624E+04  0.10311672624E+04  0.50400001928E-02 0. -1.
    10030    2    1    2    0    0  0.00000000000E+00  0.00000000000E+00 -0.73797195068E+03  0.13243625741E+04  0.10996970618E+04 0.  0.
        1    1    3    3  502    0 -0.53210522875E+03  0.13820201115E+03 -0.35708616336E+03  0.65555037826E+03  0.50400001928E-02 0.  1.
       -1    1    3    3    0  502  0.53210522875E+03 -0.13820201115E+03 -0.38088578732E+03  0.66881219588E+03  0.50400001928E-02 0. -1.
</event>
<event>
 5   0  0.1464205E-04  0.1100011E+04  0.7818609E-02  0.9205181E-01
       -2   -1    0    0    0  501  0.00000000000E+00  0.00000000000E+00  0.48768933136E+03  0.48768933137E+03  0.25500000920E-02 0.  1.
        2   -1    0    0  501    0  0.00000000000E+00  0.00000000000E+00 -0.62028444871E+03  0.62028444872E+03  0.25500000920E-02 0. -1.
    10030    2    1    2    0    0  0.00000000000E+00  0.00000000000E+00 -0.13259511735E+03  0.11079737801E+04  0.11000111055E+04 0.  0.
        3    1    3    3  502    0  0.20838642963E+03 -0.27855809201E+03  0.36279864820E+03  0.50263543848E+03  0.10100000352E+00 0.  1.
       -3    1    3    3    0  502 -0.20838642963E+03  0.27855809201E+03 -0.49539376555E+03  0.60533834161E+03  0.10100000352E+00 0. -1.
</event>
<event>
 5   0  0.1503277E-04  0.1099643E+04  0.7818609E-02  0.9205540E-01
        2   -1    0    0  501    0  0.00000000000E+00  0.00000000000E+00  0.63395340078E+03  0.63395340079E+03  0.25500000920E-02 0. -1.
       -2   -1    0    0    0  501  0.00000000000E+00  0.00000000000E+00 -0.47685438487E+03  0.47685438488E+03  0.25500000920E-02 0.  1.
    10030    2    1    2    0    0  0.00000000000E+00  0.00000000000E+00  0.15709901591E+03  0.11108077857E+04  0.10996425946E+04 0.  0.
        5    1    3    3  502    0  0.88771513012E+02 -0.25700921965E+03  0.56125834833E+03  0.62367230504E+03  0.46999998093E+01 0. -1.
       -5    1    3    3    0  502 -0.88771513012E+02  0.25700921965E+03 -0.40415933241E+03  0.48713548063E+03  0.46999998093E+01 0.  1.
</event>
<event>
 5   0  0.8921459E-05  0.1100101E+04  0.7818609E-02  0.9205094E-01
       -1   -1    0    0    0  501  0.00000000000E+00  0.00000000000E+00  0.45997876774E+03  0.45997876776E+03  0.50400001928E-02 0. -1.
        1   -1    0    0  501    0  0.00000000000E+00  0.00000000000E+00 -0.65775950443E+03  0.65775950445E+03  0.50400001928E-02 0.  1.
    10030    2    1    2    0    0  0.00000000000E+00  0.00000000000E+00 -0.19778073670E+03  0.11177382722E+04  0.11001007342E+04 0.  0.
        3    1    3    3  502    0 -0.22335041451E+02 -0.21122694307E+03 -0.61441028074E+03  0.65008897763E+03  0.10100000352E+00 0.  1.
       -3    1    3    3    0  502  0.22335041451E+02  0.21122694307E+03  0.41662954404E+03  0.46764929459E+03  0.10100000352E+00 0. -1.
</event>
<event>
 5   0  0.8621738E-05  0.1100025E+04  0.7818609E-02  0.9205167E-01
       -1   -1    0    0    0  501  0.00000000000E+00  0.00000000000E+00  0.28352287647E+03  0.28352287651E+03  0.50400001928E-02 0.  1.
        1   -1    0    0  501    0  0.00000000000E+00  0.00000000000E+00 -0.10669818253E+04  0.10669818253E+04  0.50400001928E-02 0. -1.
    10030    2    1    2    0    0  0.00000000000E+00  0.00000000000E+00 -0.78345894880E+03  0.13505047018E+04  0.11000250111E+04 0.  0.
        2    1    3    3  502    0 -0.34037103314E+03 -0.43106566276E+03 -0.35606874205E+03  0.65456473696E+03  0.25500000920E-02 0. -1.
       -2    1    3    3    0  502  0.34037103314E+03  0.43106566276E+03 -0.42739020676E+03  0.69593996483E+03  0.25500000920E-02 0.  1.
</event>
<event>
 5   0  0.8621738E-05  0.1100052E+04  0.7818609E-02  0.9205141E-01
        1   -1    0    0  501    0  0.00000000000E+00  0.00000000000E+00  0.13761989518E+04  0.13761989518E+04  0.50400001928E-02 0.  1.
       -1   -1    0    0    0  501  0.00000000000E+00  0.00000000000E+00 -0.21982912128E+03  0.21982912134E+03  0.50400001928E-02 0. -1.
    10030    2    1    2    0    0  0.00000000000E+00  0.00000000000E+00  0.11563698305E+04  0.15960280731E+04  0.11000520103E+04 0.  0.
        2    1    3    3  502    0 -0.25403997303E+03 -0.37804784541E+03  0.13082825490E+03  0.47389082456E+03  0.25500000920E-02 0. -1.
       -2    1    3    3    0  502  0.25403997303E+03  0.37804784541E+03  0.10255415756E+04  0.11221372486E+04  0.25500000920E-02 0.  1.
</event>
<event>
 5   0  0.1574101E-04  0.1099706E+04  0.7818609E-02  0.9205479E-01
       -2   -1    0    0    0  501  0.00000000000E+00  0.00000000000E+00  0.12087093758E+03  0.12087093761E+03  0.25500000920E-02 0. -1.
        2   -1    0    0  501    0  0.00000000000E+00  0.00000000000E+00 -0.25013302830E+04  0.25013302830E+04  0.25500000920E-02 0.  1.
    10030    2    1    2    0    0  0.00000000000E+00  0.00000000000E+00 -0.23804593455E+04  0.26222012207E+04  0.10997056634E+04 0.  0.
        4    1    3    3  502    0  0.40044248279E+03 -0.20840817506E+03 -0.19387684191E+04  0.19906312429E+04  0.12699999809E+01 0.  1.
       -4    1    3    3    0  502 -0.40044248279E+03  0.20840817506E+03 -0.44169092636E+03  0.63156997774E+03  0.12699999809E+01 0. -1.
</event>
<event>
 5   0  0.9346836E-05  0.1101314E+04  0.7818609E-02  0.9203912E-01
       -1   -1    0    0    0  501  0.00000000000E+00  0.00000000000E+00  0.28657182348E+03  0.28657182353E+03  0.50400001928E-02 0.  1.
        1   -1    0    0  501    0  0.00000000000E+00  0.00000000000E+00 -0.10581048439E+04  0.10581048440E+04  0.50400001928E-02 0. -1.
    10030    2    1    2    0    0  0.00000000000E+00  0.00000000000E+00 -0.77153302046E+03  0.13446766675E+04  0.11013138238E+04 0.  0.
        5    1    3    3  502    0  0.22163133764E+03 -0.12423920839E+02 -0.10010290656E+04  0.10253565642E+04  0.46999998093E+01 0. -1.
       -5    1    3    3    0  502 -0.22163133764E+03  0.12423920839E+02  0.22949604512E+03  0.31932010328E+03  0.46999998093E+01 0.  1.
</event>
<event>
 5   0  0.1503277E-04  0.1100327E+04  0.7818609E-02  0.9204873E-01
        2   -1    0    0  501    0  0.00000000000E+00  0.00000000000E+00  0.53122590841E+03  0.53122590842E+03  0.25500000920E-02 0.  1.
       -2   -1    0    0    0  501  0.00000000000E+00  0.00000000000E+00 -0.56977658554E+03  0.56977658555E+03  0.25500000920E-02 0. -1.
    10030    2    1    2    0    0  0.00000000000E+00  0.00000000000E+00 -0.38550677133E+02  0.11010024940E+04  0.11003273772E+04 0.  0.
        5    1    3    3  502    0  0.15226224827E+03  0.99919447623E+02 -0.53871840988E+03  0.56868910963E+03  0.46999998093E+01 0. -1.
       -5    1    3    3    0  502 -0.15226224827E+03 -0.99919447623E+02  0.50016773275E+03  0.53231338434E+03  0.46999998093E+01 0.  1.
</event>
<event>
 5   0  0.8621738E-05  0.1098915E+04  0.7818609E-02  0.9206250E-01
        1   -1    0    0  501    0  0.00000000000E+00  0.00000000000E+00  0.41025064185E+03  0.41025064188E+03  0.50400001928E-02 0. -1.
       -1   -1    0    0    0  501  0.00000000000E+00  0.00000000000E+00 -0.73590084447E+03  0.73590084449E+03  0.50400001928E-02 0.  1.
    10030    2    1    2    0    0  0.00000000000E+00  0.00000000000E+00 -0.32565020262E+03  0.11461514864E+04  0.10989154541E+04 0.  0.
        2    1    3    3  502    0  0.19602357284E+03 -0.35600830534E+03  0.22284874736E+03  0.46349619069E+03  0.25500000920E-02 0. -1.
       -2    1    3    3    0  502 -0.19602357284E+03  0.35600830534E+03 -0.54849894998E+03  0.68265529568E+03  0.25500000920E-02 0.  1.
</event>
<event>
 5   0  0.6010125E-05  0.1100611E+04  0.7818609E-02  0.9204597E-01
       -3   -1    0    0    0  501  0.00000000000E+00  0.00000000000E+00  0.26978653070E+03  0.26978654960E+03  0.10100000352E+00 0.  1.
        3   -1    0    0  501    0  0.00000000000E+00  0.00000000000E+00 -0.11225026839E+04  0.11225026885E+04  0.10100000352E+00 0. -1.
    10030    2    1    2    0    0  0.00000000000E+00  0.00000000000E+00 -0.85271615322E+03  0.13922892381E+04  0.11006109596E+04 0.  0.
        5    1    3    3  502    0  0.35539926828E+03 -0.41518931995E+03 -0.50758759491E+03  0.74589413980E+03  0.46999998093E+01 0.  1.
       -5    1    3    3    0  502 -0.35539926828E+03  0.41518931995E+03 -0.34512855831E+03  0.64639509826E+03  0.46999998093E+01 0. -1.
</event>
<event>
 5   0  0.1553937E-04  0.1100975E+04  0.7818609E-02  0.9204242E-01
        2   -1    0    0  501    0  0.00000000000E+00  0.00000000000E+00  0.12054710747E+04  0.12054710747E+04  0.25500000920E-02 0.  1.
       -2   -1    0    0    0  501  0.00000000000E+00  0.00000000000E+00 -0.25138451422E+03  0.25138451423E+03  0.25500000920E-02 0. -1.
    10030    2    1    2    0    0  0.00000000000E+00  0.00000000000E+00  0.95408656048E+03  0.14568555889E+04  0.11009754957E+04 0.  0.
        1    1    3    3  502    0 -0.33840265332E+03  0.42942149816E+03  0.56195349929E+03  0.78403502106E+03  0.50400001928E-02 0.  1.
       -1    1    3    3    0  502  0.33840265332E+03 -0.42942149816E+03  0.39213306119E+03  0.67282056788E+03  0.50400001928E-02 0. -1.
</event>
<event>
 5   0  0.8921459E-05  0.1100286E+04  0.7818609E-02  0.9204914E-01
       -1   -1    0    0    0  501  0.00000000000E+00  0.00000000000E+00  0.13371749132E+04  0.13371749132E+04  0.50400001928E-02 0. -1.
        1   -1    0    0  501    0  0.00000000000E+00  0.00000000000E+00 -0.22634067397E+03  0.22634067403E+03  0.50400001928E-02 0.  1.
    10030    2    1    2    0    0  0.00000000000E+00  0.00000000000E+00  0.11108342393E+04  0.15635155873E+04  0.11002855468E+04 0.  0.
        3    1    3    3  502    0  0.37300785486E+03 -0.14751304687E+02 -0.18826285669E+02  0.37377386212E+03  0.10100000352E+00 0.  1.
       -3    1    3    3    0  502 -0.37300785486E+03  0.14751304687E+02  0.11296605249E+04  0.11897417251E+04  0.10100000352E+00 0. -1.
</event>
<event>
 5   0  0.6010125E-05  0.1099315E+04  0.7818609E-02  0.9205859E-01
       -4   -1    0    0    0  501  0.00000000000E+00  0.00000000000E+00  0.21999131952E+03  0.21999498531E+03  0.12699999809E+01 0. -1.
        4   -1    0    0  501    0  0.00000000000E+00  0.00000000000E+00 -0.13733279040E+04  0.13733284912E+04  0.12699999809E+01 0.  1.
    10030    2    1    2    0    0  0.00000000000E+00  0.00000000000E+00 -0.11533365845E+04  0.15933234765E+04  0.10993154342E+04 0.  0.
        4    1    3    3  502    0 -0.87666026739E+02 -0.36691350433E+03 -0.11560771845E+04  0.12160702781E+04  0.12699999809E+01 0.  1.
       -4    1    3    3    0  502  0.87666026739E+02  0.36691350433E+03  0.27406000555E+01  0.37725319838E+03  0.12699999809E+01 0. -1.
</event>
<event>
 5   0  0.1540772E-04  0.1100025E+04  0.7818609E-02  0.9205167E-01
        2   -1    0    0  501    0  0.00000000000E+00  0.00000000000E+00  0.12713898449E+04  0.12713898449E+04  0.25500000920E-02 0.  1.
       -2   -1    0    0    0  501  0.00000000000E+00  0.00000000000E+00 -0.23793956508E+03  0.23793956509E+03  0.25500000920E-02 0. -1.
    10030    2    1    2    0    0  0.00000000000E+00  0.00000000000E+00  0.10334502798E+04  0.15093294100E+04  0.11000253574E+04 0.  0.
        2    1    3    3  502    0 -0.18412381646E+03  0.51223737293E+03  0.62498299378E+03  0.82878974929E+03  0.25500000920E-02 0.  1.
       -2    1    3    3    0  502  0.18412381646E+03 -0.51223737293E+03  0.40846728604E+03  0.68053966070E+03  0.25500000920E-02 0. -1.
</event>
<event>
 5   0  0.1540772E-04  0.1100689E+04  0.7818609E-02  0.9204521E-01
       -2   -1    0    0    0  501  0.00000000000E+00  0.00000000000E+00  0.32737791217E+03  0.32737791218E+03  0.25500000920E-02 0.  1.
        2   -1    0    0  501    0  0.00000000000E+00  0.00000000000E+00 -0.92516654250E+03  0.92516654251E+03  0.25500000920E-02 0. -1.
    10030    2    1    2    0    0  0.00000000000E+00  0.00000000000E+00 -0.59778863033E+03  0.12525444547E+04  0.11006890407E+04 0.  0.
        2    1    3    3  502    0  0.10916155483E+02  0.30401806337E+03 -0.82078814021E+03  0.87535096757E+03  0.25500000920E-02 0. -1.
       -2    1    3    3    0  502 -0.10916155483E+02 -0.30401806337E+03  0.22299950988E+03  0.37719348711E+03  0.25500000920E-02 0.  1.
</event>
<event>
 5   0  0.1574101E-04  0.1100299E+04  0.7818609E-02  0.9204901E-01
       -2   -1    0    0    0  501  0.00000000000E+00  0.00000000000E+00  0.27180920466E+03  0.27180920468E+03  0.25500000920E-02 0.  1.
        2   -1    0    0  501    0  0.00000000000E+00  0.00000000000E+00 -0.11135173487E+04  0.11135173487E+04  0.25500000920E-02 0. -1.
    10030    2    1    2    0    0  0.00000000000E+00  0.00000000000E+00 -0.84170814407E+03  0.13853265534E+04  0.11002986230E+04 0.  0.
        4    1    3    3  502    0  0.14994826782E+03  0.30793273962E+03 -0.96291042826E+03  0.10220103526E+04  0.12699999809E+01 0. -1.
       -4    1    3    3    0  502 -0.14994826782E+03 -0.30793273962E+03  0.12120228419E+03  0.36331620077E+03  0.12699999809E+01 0.  1.
</event>
<event>
 5   0  0.1540772E-04  0.1100415E+04  0.7818609E-02  0.9204788E-01
       -2   -1    0    0    0  501  0.00000000000E+00  0.00000000000E+00  0.36365730570E+03  0.36365730571E+03  0.25500000920E-02 0.  1.
        2   -1    0    0  501    0  0.00000000000E+00  0.00000000000E+00 -0.83245452212E+03  0.83245452213E+03  0.25500000920E-02 0. -1.
    10030    2    1    2    0    0  0.00000000000E+00  0.00000000000E+00 -0.46879721642E+03  0.11961118278E+04  0.11004147739E+04 0.  0.
        2    1    3    3  502    0  0.38538589102E+03  0.41394277692E+02 -0.65886124597E+03  0.76441736811E+03  0.25500000920E-02 0. -1.
       -2    1    3    3    0  502 -0.38538589102E+03 -0.41394277692E+02  0.19006402955E+03  0.43169445972E+03  0.25500000920E-02 0.  1.
</event>
<event>
 5   0  0.1540772E-04  0.1100135E+04  0.7818609E-02  0.9205060E-01
       -2   -1    0    0    0  501  0.00000000000E+00  0.00000000000E+00  0.81581376681E+03  0.81581376681E+03  0.25500000920E-02 0.  1.
        2   -1    0    0  501    0  0.00000000000E+00  0.00000000000E+00 -0.37088656793E+03  0.37088656794E+03  0.25500000920E-02 0. -1.
    10030    2    1    2    0    0  0.00000000000E+00  0.00000000000E+00  0.44492719888E+03  0.11867003348E+04  0.11001352063E+04 0.  0.
        2    1    3    3  502    0 -0.46238227582E+03  0.56972884134E+02  0.53793282808E+03  0.71162841853E+03  0.25500000920E-02 0.  1.
       -2    1    3    3    0  502  0.46238227582E+03 -0.56972884134E+02 -0.93005629204E+02  0.47507191623E+03  0.25500000920E-02 0. -1.
</event>
<event>
 5   0  0.1464205E-04  0.1102778E+04  0.7818609E-02  0.9202489E-01
        2   -1    0    0  501    0  0.00000000000E+00  0.00000000000E+00  0.80023479839E+03  0.80023479840E+03  0.25500000920E-02 0.  1.
       -2   -1    0    0    0  501  0.00000000000E+00  0.00000000000E+00 -0.37992566912E+03  0.37992566913E+03  0.25500000920E-02 0. -1.
    10030    2    1    2    0    0  0.00000000000E+00  0.00000000000E+00  0.42030912927E+03  0.11801604675E+04  0.11027778403E+04 0.  0.
        3    1    3    3  502    0  0.35637748196E+03 -0.38444161570E+03  0.27191481890E+02  0.52491871029E+03  0.10100000352E+00 0. -1.
       -3    1    3    3    0  502 -0.35637748196E+03  0.38444161570E+03  0.39311764738E+03  0.65524175723E+03  0.10100000352E+00 0.  1.
</event>
<event>
 5   0  0.8621738E-05  0.1099943E+04  0.7818609E-02  0.9205247E-01
        1   -1    0    0  501    0  0.00000000000E+00  0.00000000000E+00  0.87709042546E+03  0.87709042547E+03  0.50400001928E-02 0.  1.
       -1   -1    0    0    0  501  0.00000000000E+00  0.00000000000E+00 -0.34485481633E+03  0.34485481636E+03  0.50400001928E-02 0. -1.
    10030    2    1    2    0    0  0.00000000000E+00  0.00000000000E+00  0.53223560913E+03  0.12219452418E+04  0.10999433760E+04 0.  0.
        2    1    3    3  502    0 -0.24864960345E+03  0.44305659337E+03  0.50005236090E+03  0.71286614022E+03  0.25500000920E-02 0. -1.
       -2    1    3    3    0  502  0.24864960345E+03 -0.44305659337E+03  0.32183248229E+02  0.50907910161E+03  0.25500000920E-02 0.  1.
</event>
<event>
 5   0  0.8657442E-05  0.1099827E+04  0.7818609E-02  0.9205360E-01
       -1   -1    0    0    0  501  0.00000000000E+00  0.00000000000E+00  0.53138195053E+03  0.53138195056E+03  0.50400001928E-02 0.  1.
        1   -1    0    0  501    0  0.00000000000E+00  0.00000000000E+00 -0.56909156263E+03  0.56909156266E+03  0.50400001928E-02 0. -1.
    10030    2    1    2    0    0  0.00000000000E+00  0.00000000000E+00 -0.37709612099E+02  0.11004735132E+04  0.10998272312E+04 0.  0.
        1    1    3    3  502    0 -0.71129342704E+02  0.46217970717E+03 -0.30839574953E+03  0.56015837356E+03  0.50400001928E-02 0. -1.
       -1    1    3    3    0  502  0.71129342704E+02 -0.46217970717E+03  0.27068613743E+03  0.54031513965E+03  0.50400001928E-02 0.  1.
</event>
<event>
 5   0  0.8921459E-05  0.1099742E+04  0.7818609E-02  0.9205443E-01
        1   -1    0    0  501    0  0.00000000000E+00  0.00000000000E+00  0.50261538622E+03  0.50261538625E+03  0.50400001928E-02 0.  1.
       -1   -1    0    0    0  501  0.00000000000E+00  0.00000000000E+00 -0.60157001794E+03  0.60157001796E+03  0.50400001928E-02 0. -1.
    10030    2    1    2    0    0  0.00000000000E+00  0.00000000000E+00 -0.98954631717E+02  0.11041854042E+04  0.10997424188E+04 0.  0.
        3    1    3    3  502    0  0.93197618632E+02  0.50244668894E+03  0.15436967734E+03  0.53382438950E+03  0.10100000352E+00 0.  1.
       -3    1    3    3    0  502 -0.93197618632E+02 -0.50244668894E+03 -0.25332430906E+03  0.57036101471E+03  0.10100000352E+00 0. -1.
</event>
<event>
 5   0  0.6010125E-05  0.1099830E+04  0.7818609E-02  0.9205357E-01
        3   -1    0    0  501    0  0.00000000000E+00  0.00000000000E+00  0.33456183600E+03  0.33456185125E+03  0.10100000352E+00 0. -1.
       -3   -1    0    0    0  501  0.00000000000E+00  0.00000000000E+00 -0.90388896888E+03  0.90388897453E+03  0.10100000352E+00 0.  1.
    10030    2    1    2    0    0  0.00000000000E+00  0.00000000000E+00 -0.56932713288E+03  0.12384508258E+04  0.10998304704E+04 0.  0.
        3    1    3    3  502    0 -0.48619713371E+03 -0.10643640059E+03 -0.54799854606E+03  0.74028290327E+03  0.10100000352E+00 0.  1.
       -3    1    3    3    0  502  0.48619713371E+03  0.10643640059E+03 -0.21328586827E+02  0.49816792250E+03  0.10100000352E+00 0. -1.
</event>
<event>
 5   0  0.8621738E-05  0.1099193E+04  0.7818609E-02  0.9205979E-01
        1   -1    0    0  501    0  0.00000000000E+00  0.00000000000E+00  0.73842034352E+03  0.73842034354E+03  0.50400001928E-02 0.  1.
       -1   -1    0    0    0  501  0.00000000000E+00  0.00000000000E+00 -0.40905732848E+03  0.40905732851E+03  0.50400001928E-02 0. -1.
    10030    2    1    2    0    0  0.00000000000E+00  0.00000000000E+00  0.32936301504E+03  0.11474776721E+04  0.10991928913E+04 0.  0.
        2    1    3    3  502    0  0.32243672624E+03  0.56474480342E+02 -0.29618787879E+03  0.44145449245E+03  0.25500000920E-02 0.  1.
       -2    1    3    3    0  502 -0.32243672624E+03 -0.56474480342E+02  0.62555089383E+03  0.70602317960E+03  0.25500000920E-02 0. -1.
</event>
<event>
 5   0  0.8657442E-05  0.1099969E+04  0.7818609E-02  0.9205222E-01
        1   -1    0    0  501    0  0.00000000000E+00  0.00000000000E+00  0.15328969892E+04  0.15328969893E+04  0.50400001928E-02 0.  1.
       -1   -1    0    0    0  501  0.00000000000E+00  0.00000000000E+00 -0.19732778251E+03  0.19732778257E+03  0.50400001928E-02 0. -1.
    10030    2    1    2    0    0  0.00000000000E+00  0.00000000000E+00  0.13355692067E+04  0.17302247718E+04  0.10999693882E+04 0.  0.
        1    1    3    3  502    0 -0.49607229033E+03  0.15873719945E+03  0.94561831547E+03  0.10795736262E+04  0.50400001928E-02 0.  1.
       -1    1    3    3    0  502  0.49607229033E+03 -0.15873719945E+03  0.38995089126E+03  0.65065114566E+03  0.50400001928E-02 0. -1.
</event>
<event>
 5   0  0.1574101E-04  0.1099913E+04  0.7818609E-02  0.9205277E-01
        2   -1    0    0  501    0  0.00000000000E+00  0.00000000000E+00  0.11112989985E+04  0.11112989985E+04  0.25500000920E-02 0.  1.
       -2   -1    0    0    0  501  0.00000000000E+00  0.00000000000E+00 -0.27216069666E+03  0.27216069667E+03  0.25500000920E-02 0. -1.
    10030    2    1    2    0    0  0.00000000000E+00  0.00000000000E+00  0.83913830180E+03  0.13834596951E+04  0.10999125595E+04 0.  0.
        4    1    3    3  502    0  0.45114153505E+03  0.31313734605E+03  0.38254191016E+03  0.66927095265E+03  0.12699999809E+01 0.  1.
       -4    1    3    3    0  502 -0.45114153505E+03 -0.31313734605E+03  0.45659639164E+03  0.71418874248E+03  0.12699999809E+01 0. -1.
</event>
<event>
 5   0  0.1574101E-04  0.1099776E+04  0.7818609E-02  0.9205410E-01
        2   -1    0    0  501    0  0.00000000000E+00  0.00000000000E+00  0.99719428478E+03  0.99719428478E+03  0.25500000920E-02 0. -1.
       -2   -1    0    0    0  501  0.00000000000E+00  0.00000000000E+00 -0.30322785831E+03  0.30322785832E+03  0.25500000920E-02 0.  1.
    10030    2    1    2    0    0  0.00000000000E+00  0.00000000000E+00  0.69396642646E+03  0.13004221431E+04  0.10997764997E+04 0.  0.
        4    1    3    3  502    0 -0.32061012004E+03  0.44653919745E+03  0.36316887636E+03  0.65884850276E+03  0.12699999809E+01 0.  1.
       -4    1    3    3    0  502  0.32061012004E+03 -0.44653919745E+03  0.33079755010E+03  0.64157364034E+03  0.12699999809E+01 0. -1.
</event>
<event>
 5   0  0.1540772E-04  0.1099856E+04  0.7818609E-02  0.9205332E-01
       -2   -1    0    0    0  501  0.00000000000E+00  0.00000000000E+00  0.34824742423E+03  0.34824742424E+03  0.25500000920E-02 0. -1.
        2   -1    0    0  501    0  0.00000000000E+00  0.00000000000E+00 -0.86840747835E+03  0.86840747835E+03  0.25500000920E-02 0.  1.
    10030    2    1    2    0    0  0.00000000000E+00  0.00000000000E+00 -0.52016005412E+03  0.12166549026E+04  0.10998557497E+04 0.  0.
        2    1    3    3  502    0  0.22809679077E+03 -0.77447979261E+02 -0.80694139665E+03  0.84212870340E+03  0.25500000920E-02 0.  1.
       -2    1    3    3    0  502 -0.22809679077E+03  0.77447979261E+02  0.28678134253E+03  0.37452619919E+03  0.25500000920E-02 0. -1.
</event>
<event>
 5   0  0.9346836E-05  0.1099577E+04  0.7818609E-02  0.9205605E-01
       -1   -1    0    0    0  501  0.00000000000E+00  0.00000000000E+00  0.41872526257E+03  0.41872526260E+03  0.50400001928E-02 0.  1.
        1   -1    0    0  501    0  0.00000000000E+00  0.00000000000E+00 -0.72187487181E+03  0.72187487183E+03  0.50400001928E-02 0. -1.
    10030    2    1    2    0    0  0.00000000000E+00  0.00000000000E+00 -0.30314960925E+03  0.11406001344E+04  0.10995767281E+04 0.  0.
        5    1    3    3  502    0 -0.25775027748E+03  0.30668867115E+03 -0.54212107042E+03  0.67409976379E+03  0.46999998093E+01 0. -1.
       -5    1    3    3    0  502  0.25775027748E+03 -0.30668867115E+03  0.23897146117E+03  0.46650037064E+03  0.46999998093E+01 0.  1.
</event>
<event>
 5   0  0.9016738E-05  0.1100211E+04  0.7818609E-02  0.9204987E-01
        1   -1    0    0  501    0  0.00000000000E+00  0.00000000000E+00  0.53264639786E+03  0.53264639788E+03  0.50400001928E-02 0. -1.
       -1   -1    0    0    0  501  0.00000000000E+00  0.00000000000E+00 -0.56813655747E+03  0.56813655749E+03  0.50400001928E-02 0.  1.
    10030    2    1    2    0    0  0.00000000000E+00  0.00000000000E+00 -0.35490159605E+02  0.11007829554E+04  0.11002106905E+04 0.  0.
        4    1    3    3  502    0 -0.30178746599E+03  0.38054820828E+03 -0.27618480570E+03  0.55872378977E+03  0.12699999809E+01 0.  1.
       -4    1    3    3    0  502  0.30178746599E+03 -0.38054820828E+03  0.24069464610E+03  0.54205916560E+03  0.12699999809E+01 0. -1.
</event>
<event>
 5   0  0.8921459E-05  0.1100100E+04  0.7818609E-02  0.9205094E-01
       -1   -1    0    0    0  501  0.00000000000E+00  0.00000000000E+00  0.39462823948E+03  0.39462823951E+03  0.50400001928E-02 0.  1.
        1   -1    0    0  501    0  0.00000000000E+00  0.00000000000E+00 -0.76668361675E+03  0.76668361676E+03  0.50400001928E-02 0. -1.
    10030    2    1    2    0    0  0.00000000000E+00  0.00000000000E+00 -0.37205537727E+03  0.11613118563E+04  0.11001000063E+04 0.  0.
        3    1    3    3  502    0  0.37168639445E+03 -0.40418572730E+03 -0.15201507499E+03  0.56975913437E+03  0.10100000352E+00 0.  1.
       -3    1    3    3    0  502 -0.37168639445E+03  0.40418572730E+03 -0.22004030227E+03  0.59155272191E+03  0.10100000352E+00 0. -1.
</event>
<event>
 5   0  0.6010125E-05  0.1099576E+04  0.7818609E-02  0.9205605E-01
       -3   -1    0    0    0  501  0.00000000000E+00  0.00000000000E+00  0.19681680083E+03  0.19681682675E+03  0.10100000352E+00 0. -1.
        3   -1    0    0  501    0  0.00000000000E+00  0.00000000000E+00 -0.15357781169E+04  0.15357781202E+04  0.10100000352E+00 0.  1.
    10030    2    1    2    0    0  0.00000000000E+00  0.00000000000E+00 -0.13389613161E+04  0.17325949470E+04  0.10995762113E+04 0.  0.
        4    1    3    3  502    0  0.30305232962E+03 -0.15516973325E+03  0.10713497764E+02  0.34063874199E+03  0.12699999809E+01 0. -1.
       -4    1    3    3    0  502 -0.30305232962E+03  0.15516973325E+03 -0.13496748139E+04  0.13919562050E+04  0.12699999809E+01 0.  1.
</event>
<event>
 5   0  0.9016738E-05  0.1100146E+04  0.7818609E-02  0.9205050E-01
       -1   -1    0    0    0  501  0.00000000000E+00  0.00000000000E+00  0.19822900050E+03  0.19822900056E+03  0.50400001928E-02 0. -1.
        1   -1    0    0  501    0  0.00000000000E+00  0.00000000000E+00 -0.15264167405E+04  0.15264167405E+04  0.50400001928E-02 0.  1.
    10030    2    1    2    0    0  0.00000000000E+00  0.00000000000E+00 -0.13281877400E+04  0.17246457410E+04  0.11001455629E+04 0.  0.
        4    1    3    3  502    0 -0.48595533334E+03  0.37397774832E+02 -0.10638521958E+04  0.11701855780E+04  0.12699999809E+01 0.  1.
       -4    1    3    3    0  502  0.48595533334E+03 -0.37397774832E+02 -0.26433554413E+03  0.55446016300E+03  0.12699999809E+01 0. -1.
</event>
<event>
 5   0  0.8621738E-05  0.1099685E+04  0.7818609E-02  0.9205499E-01
        1   -1    0    0  501    0  0.00000000000E+00  0.00000000000E+00  0.12349653866E+04  0.12349653866E+04  0.50400001928E-02 0.  1.
       -1   -1    0    0    0  501  0.00000000000E+00  0.00000000000E+00 -0.24480580528E+03  0.24480580533E+03  0.50400001928E-02 0. -1.
    10030    2    1    2    0    0  0.00000000000E+00  0.00000000000E+00  0.99015958133E+03  0.14797711920E+04  0.10996848567E+04 0.  0.
        2    1    3    3  502    0 -0.26758590074E+03  0.40941230897E+03  0.83311489098E+03  0.96607508745E+03  0.25500000920E-02 0.  1.
       -2    1    3    3    0  502  0.26758590074E+03 -0.40941230897E+03  0.15704469036E+03  0.51369610451E+03  0.25500000920E-02 0. -1.
</event>
<event>
 5   0  0.1553937E-04  0.1100223E+04  0.7818609E-02  0.9204975E-01
        2   -1    0    0  501    0  0.00000000000E+00  0.00000000000E+00  0.14473571524E+04  0.14473571524E+04  0.25500000920E-02 0.  1.
       -2   -1    0    0    0  501  0.00000000000E+00  0.00000000000E+00 -0.20908619240E+03  0.20908619241E+03  0.25500000920E-02 0. -1.
    10030    2    1    2    0    0  0.00000000000E+00  0.00000000000E+00  0.12382709600E+04  0.16564433448E+04  0.11002225158E+04 0.  0.
        1    1    3    3  502    0 -0.26878634910E+03 -0.36383268349E+03  0.14781784587E+03  0.47588910329E+03  0.50400001928E-02 0. -1.
       -1    1    3    3    0  502  0.26878634910E+03  0.36383268349E+03  0.10904531141E+04  0.11805542415E+04  0.50400001928E-02 0.  1.
</event>
<event>
 5   0  0.1540772E-04  0.1099621E+04  0.7818609E-02  0.9205561E-01
        2   -1    0    0  501    0  0.00000000000E+00  0.00000000000E+00  0.14396204583E+04  0.14396204583E+04  0.25500000920E-02 0. -1.
       -2   -1    0    0    0  501  0.00000000000E+00  0.00000000000E+00 -0.20998010495E+03  0.20998010497E+03  0.25500000920E-02 0.  1.
    10030    2    1    2    0    0  0.00000000000E+00  0.00000000000E+00  0.12296403533E+04  0.16496005632E+04  0.10996211255E+04 0.  0.
        2    1    3    3  502    0 -0.33523433509E+03 -0.30281603363E+03  0.10849503215E+04  0.11752432981E+04  0.25500000920E-02 0. -1.
       -2    1    3    3    0  502  0.33523433509E+03  0.30281603363E+03  0.14469003180E+03  0.47435726510E+03  0.25500000920E-02 0.  1.
</event>
<event>
 5   0  0.1464205E-04  0.1100658E+04  0.7818609E-02  0.9204551E-01
       -2   -1    0    0    0  501  0.00000000000E+00  0.00000000000E+00  0.74292720289E+03  0.74292720289E+03  0.25500000920E-02 0. -1.
        2   -1    0    0  501    0  0.00000000000E+00  0.00000000000E+00 -0.40766027123E+03  0.40766027124E+03  0.25500000920E-02 0.  1.
    10030    2    1    2    0    0  0.00000000000E+00  0.00000000000E+00  0.33526693166E+03  0.11505874741E+04  0.11006578125E+04 0.  0.
        3    1    3    3  502    0 -0.13490426449E+03 -0.22582170148E+02  0.72487473891E+03  0.73766693860E+03  0.10100000352E+00 0. -1.
       -3    1    3    3    0  502  0.13490426449E+03  0.22582170148E+02 -0.38960780725E+03  0.41292053553E+03  0.10100000352E+00 0.  1.
</event>
<event>
 5   0  0.1503277E-04  0.1098431E+04  0.7818609E-02  0.9206722E-01
       -2   -1    0    0    0  501  0.00000000000E+00  0.00000000000E+00  0.76945479666E+03  0.76945479666E+03  0.25500000920E-02 0. -1.
        2   -1    0    0  501    0  0.00000000000E+00  0.00000000000E+00 -0.39201514678E+03  0.39201514679E+03  0.25500000920E-02 0.  1.
    10030    2    1    2    0    0  0.00000000000E+00  0.00000000000E+00  0.37743964988E+03  0.11614699435E+04  0.10984314909E+04 0.  0.
        5    1    3    3  502    0 -0.26607669174E+03  0.36043621598E+03 -0.14716536579E+03  0.47158329759E+03  0.46999998093E+01 0.  1.
       -5    1    3    3    0  502  0.26607669174E+03 -0.36043621598E+03  0.52460501567E+03  0.68988664587E+03  0.46999998093E+01 0. -1.
</event>
<event>
 5   0  0.6010125E-05  0.1100284E+04  0.7818609E-02  0.9204915E-01
       -3   -1    0    0    0  501  0.00000000000E+00  0.00000000000E+00  0.50112773650E+03  0.50112774668E+03  0.10100000352E+00 0.  1.
        3   -1    0    0  501    0  0.00000000000E+00  0.00000000000E+00 -0.60394998562E+03  0.60394999407E+03  0.10100000352E+00 0. -1.
    10030    2    1    2    0    0  0.00000000000E+00  0.00000000000E+00 -0.10282224913E+03  0.11050777407E+04  0.11002837807E+04 0.  0.
        5    1    3    3  502    0  0.62533015101E+02 -0.51284374765E+03  0.13839620254E+03  0.53487819768E+03  0.46999998093E+01 0.  1.
       -5    1    3    3    0  502 -0.62533015101E+02  0.51284374765E+03 -0.24121845166E+03  0.57019954306E+03  0.46999998093E+01 0. -1.
</event>
<event>
 5   0  0.8921459E-05  0.1099250E+04  0.7818609E-02  0.9205923E-01
        1   -1    0    0  501    0  0.00000000000E+00  0.00000000000E+00  0.10035702060E+04  0.10035702060E+04  0.50400001928E-02 0. -1.
       -1   -1    0    0    0  501  0.00000000000E+00  0.00000000000E+00 -0.30101280246E+03  0.30101280250E+03  0.50400001928E-02 0.  1.
    10030    2    1    2    0    0  0.00000000000E+00  0.00000000000E+00  0.70255740357E+03  0.13045830085E+04  0.10992497081E+04 0.  0.
        3    1    3    3  502    0 -0.54517682176E+03 -0.69172298757E+02  0.34034368956E+03  0.64640266949E+03  0.10100000352E+00 0.  1.
       -3    1    3    3    0  502  0.54517682176E+03  0.69172298757E+02  0.36221371400E+03  0.65818033905E+03  0.10100000352E+00 0. -1.
</event>
<event>
 5   0  0.8621738E-05  0.1100274E+04  0.7818609E-02  0.9204925E-01
       -1   -1    0    0    0  501  0.00000000000E+00  0.00000000000E+00  0.34085015008E+03  0.34085015012E+03  0.50400001928E-02 0. -1.
        1   -1    0    0  501    0  0.00000000000E+00  0.00000000000E+00 -0.88792823735E+03  0.88792823737E+03  0.50400001928E-02 0.  1.
    10030    2    1    2    0    0  0.00000000000E+00  0.00000000000E+00 -0.54707808728E+03  0.12287783875E+04  0.11002735532E+04 0.  0.
        2    1    3    3  502    0 -0.43413639303E+03  0.10248468206E+03 -0.63312740697E+03  0.77448552683E+03  0.25500000920E-02 0.  1.
       -2    1    3    3    0  502  0.43413639303E+03 -0.10248468206E+03  0.86049319698E+02  0.45429286065E+03  0.25500000920E-02 0. -1.
</event>
<event>
 5   0  0.8921459E-05  0.1099980E+04  0.7818609E-02  0.9205211E-01
       -1   -1    0    0    0  501  0.00000000000E+00  0.00000000000E+00  0.45191698471E+03  0.45191698474E+03  0.50400001928E-02 0.  1.
        1   -1    0    0  501    0  0.00000000000E+00  0.00000000000E+00 -0.66934652456E+03  0.66934652458E+03  0.50400001928E-02 0. -1.
    10030    2    1    2    0    0  0.00000000000E+00  0.00000000000E+00 -0.21742953985E+03  0.11212635093E+04  0.10999801146E+04 0.  0.
        3    1    3    3  502    0  0.23581737812E+03  0.18299572857E+03  0.36216680575E+03  0.46932086880E+03  0.10100000352E+00 0. -1.
       -3    1    3    3    0  502 -0.23581737812E+03 -0.18299572857E+03 -0.57959634560E+03  0.65194264053E+03  0.10100000352E+00 0.  1.
</event>
<event>
 5   0  0.1540772E-04  0.1099815E+04  0.7818609E-02  0.9205372E-01
       -2   -1    0    0    0  501  0.00000000000E+00  0.00000000000E+00  0.59848628604E+03  0.59848628604E+03  0.25500000920E-02 0. -1.
        2   -1    0    0  501    0  0.00000000000E+00  0.00000000000E+00 -0.50527226828E+03  0.50527226829E+03  0.25500000920E-02 0.  1.
    10030    2    1    2    0    0  0.00000000000E+00  0.00000000000E+00  0.93214017753E+02  0.11037585543E+04  0.10998154814E+04 0.  0.
        2    1    3    3  502    0  0.44142738671E+03 -0.32286811398E+03 -0.11014572848E+02  0.54701305065E+03  0.25500000920E-02 0. -1.
       -2    1    3    3    0  502 -0.44142738671E+03  0.32286811398E+03  0.10422859060E+03  0.55674550368E+03  0.25500000920E-02 0.  1.
</event>
<event>
 5   0  0.1553937E-04  0.1100838E+04  0.7818609E-02  0.9204375E-01
        2   -1    0    0  501    0  0.00000000000E+00  0.00000000000E+00  0.51170776723E+03  0.51170776723E+03  0.25500000920E-02 0. -1.
       -2   -1    0    0    0  501  0.00000000000E+00  0.00000000000E+00 -0.59205918687E+03  0.59205918688E+03  0.25500000920E-02 0.  1.
    10030    2    1    2    0    0  0.00000000000E+00  0.00000000000E+00 -0.80351419645E+02  0.11037669541E+04  0.11008383798E+04 0.  0.
        1    1    3    3  502    0 -0.72290525061E+02  0.54192010904E+03  0.23695876733E+02  0.54723378843E+03  0.50400001928E-02 0. -1.
       -1    1    3    3    0  502  0.72290525061E+02 -0.54192010904E+03 -0.10404729638E+03  0.55653316568E+03  0.50400001928E-02 0.  1.
</event>
<event>
 5   0  0.1553937E-04  0.1099451E+04  0.7818609E-02  0.9205727E-01
        2   -1    0    0  501    0  0.00000000000E+00  0.00000000000E+00  0.11669219543E+04  0.11669219543E+04  0.25500000920E-02 0.  1.
       -2   -1    0    0    0  501  0.00000000000E+00  0.00000000000E+00 -0.25897020448E+03  0.25897020449E+03  0.25500000920E-02 0. -1.
    10030    2    1    2    0    0  0.00000000000E+00  0.00000000000E+00  0.90795174980E+03  0.14258921588E+04  0.10994508031E+04 0.  0.
        1    1    3    3  502    0  0.81088872861E+02  0.15267675727E+03  0.11307513376E+04  0.11438899357E+04  0.50400001928E-02 0.  1.
       -1    1    3    3    0  502 -0.81088872861E+02 -0.15267675727E+03 -0.22279958775E+03  0.28200222311E+03  0.50400001928E-02 0. -1.
</event>
<event>
 5   0  0.1464205E-04  0.1100755E+04  0.7818609E-02  0.9204456E-01
       -2   -1    0    0    0  501  0.00000000000E+00  0.00000000000E+00  0.38239077439E+03  0.38239077440E+03  0.25500000920E-02 0.  1.
        2   -1    0    0  501    0  0.00000000000E+00  0.00000000000E+00 -0.79216208174E+03  0.79216208175E+03  0.25500000920E-02 0. -1.
    10030    2    1    2    0    0  0.00000000000E+00  0.00000000000E+00 -0.40977130735E+03  0.11745528561E+04  0.11007551442E+04 0.  0.
        3    1    3    3  502    0 -0.39300261214E+03 -0.32919167344E+03  0.87821763207E+01  0.51273321312E+03  0.10100000352E+00 0. -1.
       -3    1    3    3    0  502  0.39300261214E+03  0.32919167344E+03 -0.41855348367E+03  0.66181964303E+03  0.10100000352E+00 0.  1.
</event>
<event>
 5   0  0.9016738E-05  0.1100893E+04  0.7818609E-02  0.9204322E-01
       -1   -1    0    0    0  501  0.00000000000E+00  0.00000000000E+00  0.38362019269E+03  0.38362019273E+03  0.50400001928E-02 0. -1.
        1   -1    0    0  501    0  0.00000000000E+00  0.00000000000E+00 -0.78982127226E+03  0.78982127228E+03  0.50400001928E-02 0.  1.
    10030    2    1    2    0    0  0.00000000000E+00  0.00000000000E+00 -0.40620107957E+03  0.11734414650E+04  0.11008930714E+04 0.  0.
        4    1    3    3  502    0  0.25088261726E+03 -0.21038257881E+03 -0.67473774934E+03  0.74998370675E+03  0.12699999809E+01 0.  1.
       -4    1    3    3    0  502 -0.25088261726E+03  0.21038257881E+03  0.26853666977E+03  0.42345775825E+03  0.12699999809E+01 0. -1.
</event>
<event>
 5   0  0.1464205E-04  0.1100397E+04  0.7818609E-02  0.9204805E-01
        2   -1    0    0  501    0  0.00000000000E+00  0.00000000000E+00  0.72134579159E+03  0.72134579160E+03  0.25500000920E-02 0. -1.
       -2   -1    0    0    0  501  0.00000000000E+00  0.00000000000E+00 -0.41965789026E+03  0.41965789026E+03  0.25500000920E-02 0.  1.
    10030    2    1    2    0    0  0.00000000000E+00  0.00000000000E+00  0.30168790134E+03  0.11410036819E+04  0.11003971157E+04 0.  0.
        3    1    3    3  502    0  0.10432686472E+03  0.25271395213E+03  0.64592517732E+03  0.70140414969E+03  0.10100000352E+00 0. -1.
       -3    1    3    3    0  502 -0.10432686472E+03 -0.25271395213E+03 -0.34423727599E+03  0.43959953217E+03  0.10100000352E+00 0.  1.
</event>
<event>
 5   0  0.8621738E-05  0.1099073E+04  0.7818609E-02  0.9206096E-01
       -1   -1    0    0    0  501  0.00000000000E+00  0.00000000000E+00  0.18287477832E+03  0.18287477839E+03  0.50400001928E-02 0. -1.
        1   -1    0    0  501    0  0.00000000000E+00  0.00000000000E+00 -0.16513494909E+04  0.16513494909E+04  0.50400001928E-02 0.  1.
    10030    2    1    2    0    0  0.00000000000E+00  0.00000000000E+00 -0.14684747125E+04  0.18342242693E+04  0.10990726494E+04 0.  0.
        2    1    3    3  502    0 -0.23240180627E+03 -0.19319325777E+03  0.31734631595E+02  0.30387714829E+03  0.25500000920E-02 0. -1.
       -2    1    3    3    0  502  0.23240180627E+03  0.19319325777E+03 -0.15002093441E+04  0.15303471210E+04  0.25500000920E-02 0.  1.
</event>
<event>
 5   0  0.1503277E-04  0.1100427E+04  0.7818609E-02  0.9204776E-01
       -2   -1    0    0    0  501  0.00000000000E+00  0.00000000000E+00  0.21042349782E+03  0.21042349784E+03  0.25500000920E-02 0. -1.
        2   -1    0    0  501    0  0.00000000000E+00  0.00000000000E+00 -0.14386928612E+04  0.14386928612E+04  0.25500000920E-02 0.  1.
    10030    2    1    2    0    0  0.00000000000E+00  0.00000000000E+00 -0.12282693634E+04  0.16491163591E+04  0.11004267975E+04 0.  0.
        5    1    3    3  502    0 -0.17890706139E+03 -0.47728156688E+03 -0.92455886746E+03  0.10557635247E+04  0.46999998093E+01 0. -1.
       -5    1    3    3    0  502  0.17890706139E+03  0.47728156688E+03 -0.30371049594E+03  0.59335283436E+03  0.46999998093E+01 0.  1.
</event>
<event>
 5   0  0.1464205E-04  0.1100194E+04  0.7818609E-02  0.9205003E-01
       -2   -1    0    0    0  501  0.00000000000E+00  0.00000000000E+00  0.33493348768E+03  0.33493348769E+03  0.25500000920E-02 0.  1.
        2   -1    0    0  501    0  0.00000000000E+00  0.00000000000E+00 -0.90348344866E+03  0.90348344866E+03  0.25500000920E-02 0. -1.
    10030    2    1    2    0    0  0.00000000000E+00  0.00000000000E+00 -0.56854996097E+03  0.12384169364E+04  0.11001942784E+04 0.  0.
        3    1    3    3  502    0 -0.83934300627E+02  0.54173979084E+03 -0.23293956131E+03  0.59564067795E+03  0.10100000352E+00 0. -1.
       -3    1    3    3    0  502  0.83934300627E+02 -0.54173979084E+03 -0.33561039966E+03  0.64277625840E+03  0.10100000352E+00 0.  1.
</event>
<event>
 5   0  0.8621738E-05  0.1099870E+04  0.7818609E-02  0.9205319E-01
        1   -1    0    0  501    0  0.00000000000E+00  0.00000000000E+00  0.56841648639E+03  0.56841648641E+03  0.50400001928E-02 0.  1.
       -1   -1    0    0    0  501  0.00000000000E+00  0.00000000000E+00 -0.53205415701E+03  0.53205415703E+03  0.50400001928E-02 0. -1.
    10030    2    1    2    0    0  0.00000000000E+00  0.00000000000E+00  0.36362329380E+02  0.11004706434E+04  0.10998697278E+04 0.  0.
        2    1    3    3  502    0 -0.33662756165E+03  0.13131382582E+03  0.43297601671E+03  0.56394119123E+03  0.25500000920E-02 0.  1.
       -2    1    3    3    0  502  0.33662756165E+03 -0.13131382582E+03 -0.39661368733E+03  0.53652945222E+03  0.25500000920E-02 0. -1.
</event>
<event>
 5   0  0.8621738E-05  0.1105184E+04  0.7818609E-02  0.9200153E-01
       -1   -1    0    0    0  501  0.00000000000E+00  0.00000000000E+00  0.48432630492E+03  0.48432630495E+03  0.50400001928E-02 0. -1.
        1   -1    0    0  501    0  0.00000000000E+00  0.00000000000E+00 -0.63048024006E+03  0.63048024008E+03  0.50400001928E-02 0.  1.
    10030    2    1    2    0    0  0.00000000000E+00  0.00000000000E+00 -0.14615393514E+03  0.11148065450E+04  0.11051844462E+04 0.  0.
        2    1    3    3  502    0  0.71846014321E+02 -0.52391800893E+03  0.88650573542E+02  0.53620038610E+03  0.25500000920E-02 0. -1.
       -2    1    3    3    0  502 -0.71846014321E+02  0.52391800893E+03 -0.23480450868E+03  0.57860615893E+03  0.25500000920E-02 0.  1.
</event>
<event>
 5   0  0.6010125E-05  0.1100064E+04  0.7818609E-02  0.9205130E-01
        3   -1    0    0  501    0  0.00000000000E+00  0.00000000000E+00  0.72600193592E+03  0.72600194295E+03  0.10100000352E+00 0. -1.
       -3   -1    0    0    0  501  0.00000000000E+00  0.00000000000E+00 -0.41671381234E+03  0.41671382458E+03  0.10100000352E+00 0.  1.
    10030    2    1    2    0    0  0.00000000000E+00  0.00000000000E+00  0.30928812358E+03  0.11427157675E+04  0.11000637172E+04 0.  0.
        3    1    3    3  502    0 -0.39598423164E+03  0.11914478374E+03 -0.22209683509E+03  0.46938897043E+03  0.10100000352E+00 0.  1.
       -3    1    3    3    0  502  0.39598423164E+03 -0.11914478374E+03  0.53138495867E+03  0.67332679711E+03  0.10100000352E+00 0. -1.
</event>
<event>
 5   0  0.9346836E-05  0.1100827E+04  0.7818609E-02  0.9204387E-01
        1   -1    0    0  501    0  0.00000000000E+00  0.00000000000E+00  0.80413788208E+03  0.80413788210E+03  0.50400001928E-02 0. -1.
       -1   -1    0    0    0  501  0.00000000000E+00  0.00000000000E+00 -0.37674478790E+03  0.37674478794E+03  0.50400001928E-02 0.  1.
    10030    2    1    2    0    0  0.00000000000E+00  0.00000000000E+00  0.42739309418E+03  0.11808826700E+04  0.11008265183E+04 0.  0.
        5    1    3    3  502    0  0.17904779331E+03  0.52045004183E+03  0.21100242217E+03  0.58946625899E+03  0.46999998093E+01 0.  1.
       -5    1    3    3    0  502 -0.17904779331E+03 -0.52045004183E+03  0.21639067200E+03  0.59141641105E+03  0.46999998093E+01 0. -1.
</event>
<event>
 5   0  0.1540772E-04  0.1099950E+04  0.7818609E-02  0.9205240E-01
        2   -1    0    0  501    0  0.00000000000E+00  0.00000000000E+00  0.17627447066E+04  0.17627447066E+04  0.25500000920E-02 0. -1.
       -2   -1    0    0    0  501  0.00000000000E+00  0.00000000000E+00 -0.17159192229E+03  0.17159192231E+03  0.25500000920E-02 0.  1.
    10030    2    1    2    0    0  0.00000000000E+00  0.00000000000E+00  0.15911527843E+04  0.19343366289E+04  0.10999504584E+04 0.  0.
        2    1    3    3  502    0 -0.49926722280E+03 -0.48907266478E+01  0.12011199263E+04  0.13007616063E+04  0.25500000920E-02 0. -1.
       -2    1    3    3    0  502  0.49926722280E+03  0.48907266478E+01  0.39003285800E+03  0.63357502263E+03  0.25500000920E-02 0.  1.
</event>
<event>
 5   0  0.1540772E-04  0.1099405E+04  0.7818609E-02  0.9205772E-01
        2   -1    0    0  501    0  0.00000000000E+00  0.00000000000E+00  0.12657077158E+04  0.12657077159E+04  0.25500000920E-02 0. -1.
       -2   -1    0    0    0  501  0.00000000000E+00  0.00000000000E+00 -0.23873843936E+03  0.23873843937E+03  0.25500000920E-02 0.  1.
    10030    2    1    2    0    0  0.00000000000E+00  0.00000000000E+00  0.10269692765E+04  0.15044461552E+04  0.10994054480E+04 0.  0.
        2    1    3    3  502    0  0.45650295553E+03  0.95615035775E+02  0.91158821153E+03  0.10239776613E+04  0.25500000920E-02 0. -1.
       -2    1    3    3    0  502 -0.45650295553E+03 -0.95615035775E+02  0.11538106496E+03  0.48046849391E+03  0.25500000920E-02 0.  1.
</event>
<event>
 5   0  0.8921459E-05  0.1100097E+04  0.7818609E-02  0.9205097E-01
       -1   -1    0    0    0  501  0.00000000000E+00  0.00000000000E+00  0.24720341139E+03  0.24720341144E+03  0.50400001928E-02 0.  1.
        1   -1    0    0  501    0  0.00000000000E+00  0.00000000000E+00 -0.12239043154E+04  0.12239043154E+04  0.50400001928E-02 0. -1.
    10030    2    1    2    0    0  0.00000000000E+00  0.00000000000E+00 -0.97670090405E+03  0.14711077269E+04  0.11000969449E+04 0.  0.
        3    1    3    3  502    0 -0.44685364816E+03 -0.11175179334E+03 -0.86313750876E+02  0.46863282000E+03  0.10100000352E+00 0.  1.
       -3    1    3    3    0  502  0.44685364816E+03  0.11175179334E+03 -0.89038715317E+03  0.10024749069E+04  0.10100000352E+00 0. -1.
</event>
<event>
 5   0  0.1574101E-04  0.1100028E+04  0.7818609E-02  0.9205164E-01
       -2   -1    0    0    0  501  0.00000000000E+00  0.00000000000E+00  0.41769169050E+03  0.41769169051E+03  0.25500000920E-02 0.  1.
        2   -1    0    0  501    0  0.00000000000E+00  0.00000000000E+00 -0.72425544091E+03  0.72425544092E+03  0.25500000920E-02 0. -1.
    10030    2    1    2    0    0  0.00000000000E+00  0.00000000000E+00 -0.30656375041E+03  0.11419471314E+04  0.11000281441E+04 0.  0.
        4    1    3    3  502    0  0.10667980695E+03 -0.10598397622E+03  0.39593538796E+03  0.42353232316E+03  0.12699999809E+01 0.  1.
       -4    1    3    3    0  502 -0.10667980695E+03  0.10598397622E+03 -0.70249913837E+03  0.71841480827E+03  0.12699999809E+01 0. -1.
</event>
<event>
 5   0  0.8657442E-05  0.1100046E+04  0.7818609E-02  0.9205147E-01
       -1   -1    0    0    0  501  0.00000000000E+00  0.00000000000E+00  0.44873318198E+03  0.44873318201E+03  0.50400001928E-02 0.  1.
        1   -1    0    0  501    0  0.00000000000E+00  0.00000000000E+00 -0.67417608580E+03  0.67417608582E+03  0.50400001928E-02 0. -1.
    10030    2    1    2    0    0  0.00000000000E+00  0.00000000000E+00 -0.22544290382E+03  0.11229092678E+04  0.11000457813E+04 0.  0.
        1    1    3    3  502    0  0.17964396816E+02 -0.12628038666E+02  0.44828555968E+03  0.44882304971E+03  0.50400001928E-02 0.  1.
       -1    1    3    3    0  502 -0.17964396816E+02  0.12628038666E+02 -0.67372846350E+03  0.67408621812E+03  0.50400001928E-02 0. -1.
</event>
<event>
 5   0  0.1540772E-04  0.1101255E+04  0.7818609E-02  0.9203969E-01
       -2   -1    0    0    0  501  0.00000000000E+00  0.00000000000E+00  0.32719589245E+03  0.32719589246E+03  0.25500000920E-02 0. -1.
        2   -1    0    0  501    0  0.00000000000E+00  0.00000000000E+00 -0.92663370089E+03  0.92663370089E+03  0.25500000920E-02 0.  1.
    10030    2    1    2    0    0  0.00000000000E+00  0.00000000000E+00 -0.59943780844E+03  0.12538295934E+04  0.11012551761E+04 0.  0.
        2    1    3    3  502    0  0.29156140178E+02 -0.97493588565E+02 -0.91583497129E+03  0.92147098433E+03  0.25500000920E-02 0.  1.
       -2    1    3    3    0  502 -0.29156140178E+02  0.97493588565E+02  0.31639716285E+03  0.33235860902E+03  0.25500000920E-02 0. -1.
</event>
<event>
 5   0  0.8921459E-05  0.1099824E+04  0.7818609E-02  0.9205363E-01
        1   -1    0    0  501    0  0.00000000000E+00  0.00000000000E+00  0.14510476865E+04  0.14510476865E+04  0.50400001928E-02 0. -1.
       -1   -1    0    0    0  501  0.00000000000E+00  0.00000000000E+00 -0.20840345348E+03  0.20840345354E+03  0.50400001928E-02 0.  1.
    10030    2    1    2    0    0  0.00000000000E+00  0.00000000000E+00  0.12426442331E+04  0.16594511401E+04  0.10998242570E+04 0.  0.
        3    1    3    3  502    0  0.44405334253E+03  0.21959386221E+01  0.13190370134E+03  0.46323513445E+03  0.10100000352E+00 0.  1.
       -3    1    3    3    0  502 -0.44405334253E+03 -0.21959386221E+01  0.11107405317E+04  0.11962160056E+04  0.10100000352E+00 0. -1.
</event>
<event>
 5   0  0.6010125E-05  0.1100934E+04  0.7818609E-02  0.9204282E-01
        3   -1    0    0  501    0  0.00000000000E+00  0.00000000000E+00  0.42127019066E+03  0.42127020277E+03  0.10100000352E+00 0. -1.
       -3   -1    0    0    0  501  0.00000000000E+00  0.00000000000E+00 -0.71928676893E+03  0.71928677602E+03  0.10100000352E+00 0.  1.
    10030    2    1    2    0    0  0.00000000000E+00  0.00000000000E+00 -0.29801657827E+03  0.11405569788E+04  0.11009343036E+04 0.  0.
        3    1    3    3  502    0 -0.24760485941E+03 -0.21448607295E+03  0.30929482385E+03  0.45052829008E+03  0.10100000352E+00 0. -1.
       -3    1    3    3    0  502  0.24760485941E+03  0.21448607295E+03 -0.60731140212E+03  0.69002868871E+03  0.10100000352E+00 0.  1.
</event>
<event>
 5   0  0.1553937E-04  0.1100009E+04  0.7818609E-02  0.9205183E-01
       -2   -1    0    0    0  501  0.00000000000E+00  0.00000000000E+00  0.41190539435E+03  0.41190539435E+03  0.25500000920E-02 0. -1.
        2   -1    0    0  501    0  0.00000000000E+00  0.00000000000E+00 -0.73440341118E+03  0.73440341119E+03  0.25500000920E-02 0.  1.
    10030    2    1    2    0    0  0.00000000000E+00  0.00000000000E+00 -0.32249801684E+03  0.11463088055E+04  0.11000085940E+04 0.  0.
        1    1    3    3  502    0 -0.53506995283E+02 -0.25555627988E+03  0.34320550654E+03  0.43123315095E+03  0.50400001928E-02 0. -1.
       -1    1    3    3    0  502  0.53506995283E+02  0.25555627988E+03 -0.66570352338E+03  0.71507565460E+03  0.50400001928E-02 0.  1.
</event>
<event>
 5   0  0.1503277E-04  0.1098136E+04  0.7818609E-02  0.9207011E-01
        2   -1    0    0  501    0  0.00000000000E+00  0.00000000000E+00  0.25527959881E+03  0.25527959883E+03  0.25500000920E-02 0.  1.
       -2   -1    0    0    0  501  0.00000000000E+00  0.00000000000E+00 -0.11809621859E+04  0.11809621859E+04  0.25500000920E-02 0. -1.
    10030    2    1    2    0    0  0.00000000000E+00  0.00000000000E+00 -0.92568258708E+03  0.14362417847E+04  0.10981357895E+04 0.  0.
        5    1    3    3  502    0 -0.13202035609E+03 -0.17373667833E+03 -0.11217894484E+04  0.11428243366E+04  0.46999998093E+01 0. -1.
       -5    1    3    3    0  502  0.13202035609E+03  0.17373667833E+03  0.19610686130E+03  0.29341744813E+03  0.46999998093E+01 0.  1.
</event>
<event>
 5   0  0.8657442E-05  0.1099520E+04  0.7818609E-02  0.9205659E-01
       -1   -1    0    0    0  501  0.00000000000E+00  0.00000000000E+00  0.57021389428E+03  0.57021389431E+03  0.50400001928E-02 0.  1.
        1   -1    0    0  501    0  0.00000000000E+00  0.00000000000E+00 -0.53004012479E+03  0.53004012481E+03  0.50400001928E-02 0. -1.
    10030    2    1    2    0    0  0.00000000000E+00  0.00000000000E+00  0.40173769496E+02  0.11002540191E+04  0.10995203385E+04 0.  0.
        1    1    3    3  502    0 -0.32498880551E+03  0.42994684470E+03  0.12862229769E+03  0.55408998228E+03  0.50400001928E-02 0.  1.
       -1    1    3    3    0  502  0.32498880551E+03 -0.42994684470E+03 -0.88448528196E+02  0.54616403684E+03  0.50400001928E-02 0. -1.
</event>
<event>
 5   0  0.8621738E-05  0.1095788E+04  0.7818609E-02  0.9209306E-01
        1   -1    0    0  501    0  0.00000000000E+00  0.00000000000E+00  0.18620850213E+04  0.18620850213E+04  0.50400001928E-02 0. -1.
       -1   -1    0    0    0  501  0.00000000000E+00  0.00000000000E+00 -0.16121072722E+03  0.16121072730E+03  0.50400001928E-02 0.  1.
    10030    2    1    2    0    0  0.00000000000E+00  0.00000000000E+00  0.17008742941E+04  0.20232957486E+04  0.10957884477E+04 0.  0.
        2    1    3    3  502    0  0.53975274765E+03 -0.85917200822E+02  0.77956489105E+03  0.95206943726E+03  0.25500000920E-02 0. -1.
       -2    1    3    3    0  502 -0.53975274765E+03  0.85917200822E+02  0.92130940303E+03  0.10712263113E+04  0.25500000920E-02 0.  1.
</event>
<event>
 5   0  0.9016738E-05  0.1098328E+04  0.7818609E-02  0.9206823E-01
        1   -1    0    0  501    0  0.00000000000E+00  0.00000000000E+00  0.75255175147E+03  0.75255175149E+03  0.50400001928E-02 0.  1.
       -1   -1    0    0    0  501  0.00000000000E+00  0.00000000000E+00 -0.40074457923E+03  0.40074457926E+03  0.50400001928E-02 0. -1.
    10030    2    1    2    0    0  0.00000000000E+00  0.00000000000E+00  0.35180717224E+03  0.11532963307E+04  0.10983278837E+04 0.  0.
        4    1    3    3  502    0  0.19167097044E+02  0.72794050567E+02 -0.39530006571E+03  0.40240540038E+03  0.12699999809E+01 0. -1.
       -4    1    3    3    0  502 -0.19167097044E+02 -0.72794050567E+02  0.74710723795E+03  0.75089093036E+03  0.12699999809E+01 0.  1.
</event>
<event>
 5   0  0.1540772E-04  0.1099649E+04  0.7818609E-02  0.9205534E-01
       -2   -1    0    0    0  501  0.00000000000E+00  0.00000000000E+00  0.35359175933E+03  0.35359175934E+03  0.25500000920E-02 0.  1.
        2   -1    0    0  501    0  0.00000000000E+00  0.00000000000E+00 -0.85496011469E+03  0.85496011470E+03  0.25500000920E-02 0. -1.
    10030    2    1    2    0    0  0.00000000000E+00  0.00000000000E+00 -0.50136835536E+03  0.12085518740E+04  0.10996487641E+04 0.  0.
        2    1    3    3  502    0  0.22071937424E+03  0.10975068661E+03 -0.79082869007E+03  0.82835516080E+03  0.25500000920E-02 0. -1.
       -2    1    3    3    0  502 -0.22071937424E+03 -0.10975068661E+03  0.28946033471E+03  0.38019671324E+03  0.25500000920E-02 0.  1.
</event>
<event>
 5   0  0.1540772E-04  0.1100143E+04  0.7818609E-02  0.9205053E-01
       -2   -1    0    0    0  501  0.00000000000E+00  0.00000000000E+00  0.44160555577E+03  0.44160555578E+03  0.25500000920E-02 0. -1.
        2   -1    0    0  501    0  0.00000000000E+00  0.00000000000E+00 -0.68517817799E+03  0.68517817799E+03  0.25500000920E-02 0.  1.
    10030    2    1    2    0    0  0.00000000000E+00  0.00000000000E+00 -0.24357262222E+03  0.11267837338E+04  0.11001427000E+04 0.  0.
        2    1    3    3  502    0  0.29876309944E+03  0.65997442203E+02 -0.58998123427E+03  0.66459981099E+03  0.25500000920E-02 0.  1.
       -2    1    3    3    0  502 -0.29876309944E+03 -0.65997442203E+02  0.34640861206E+03  0.46218392279E+03  0.25500000920E-02 0. -1.
</event>
<event>
 5   0  0.1574101E-04  0.1100333E+04  0.7818609E-02  0.9204867E-01
       -2   -1    0    0    0  501  0.00000000000E+00  0.00000000000E+00  0.35548209573E+03  0.35548209574E+03  0.25500000920E-02 0. -1.
        2   -1    0    0  501    0  0.00000000000E+00  0.00000000000E+00 -0.85147222754E+03  0.85147222754E+03  0.25500000920E-02 0.  1.
    10030    2    1    2    0    0  0.00000000000E+00  0.00000000000E+00 -0.49599013180E+03  0.12069543233E+04  0.11003329167E+04 0.  0.
        4    1    3    3  502    0 -0.12906336994E+03  0.35210812896E+03  0.19355834982E+03  0.42202361975E+03  0.12699999809E+01 0. -1.
       -4    1    3    3    0  502  0.12906336994E+03 -0.35210812896E+03 -0.68954848163E+03  0.78493070354E+03  0.12699999809E+01 0.  1.
</event>
<event>
 5   0  0.1503277E-04  0.1100511E+04  0.7818609E-02  0.9204694E-01
        2   -1    0    0  501    0  0.00000000000E+00  0.00000000000E+00  0.18715667546E+04  0.18715667546E+04  0.25500000920E-02 0.  1.
       -2   -1    0    0    0  501  0.00000000000E+00  0.00000000000E+00 -0.16177941428E+03  0.16177941430E+03  0.25500000920E-02 0. -1.
    10030    2    1    2    0    0  0.00000000000E+00  0.00000000000E+00  0.17097873403E+04  0.20333461689E+04  0.11005107421E+04 0.  0.
        5    1    3    3  502    0  0.50845444185E+03  0.60188343638E+01  0.12433231131E+04  0.13432931919E+04  0.46999998093E+01 0.  1.
       -5    1    3    3    0  502 -0.50845444185E+03 -0.60188343638E+01  0.46646422719E+03  0.69005297698E+03  0.46999998093E+01 0. -1.
</event>
<event>
 5   0  0.1540772E-04  0.1100022E+04  0.7818609E-02  0.9205170E-01
        2   -1    0    0  501    0  0.00000000000E+00  0.00000000000E+00  0.10472718337E+04  0.10472718337E+04  0.25500000920E-02 0.  1.
       -2   -1    0    0    0  501  0.00000000000E+00  0.00000000000E+00 -0.28885750807E+03  0.28885750808E+03  0.25500000920E-02 0. -1.
    10030    2    1    2    0    0  0.00000000000E+00  0.00000000000E+00  0.75841432560E+03  0.13361293417E+04  0.11000224219E+04 0.  0.
        2    1    3    3  502    0  0.25103694186E+01 -0.52686941912E+02  0.10441926311E+04  0.10455240154E+04  0.25500000920E-02 0.  1.
       -2    1    3    3    0  502 -0.25103694186E+01  0.52686941912E+02 -0.28577830553E+03  0.29060532638E+03  0.25500000920E-02 0. -1.
</event>
<event>
 5   0  0.1553937E-04  0.1100010E+04  0.7818609E-02  0.9205182E-01
        2   -1    0    0  501    0  0.00000000000E+00  0.00000000000E+00  0.41190342966E+03  0.41190342967E+03  0.25500000920E-02 0. -1.
       -2   -1    0    0    0  501  0.00000000000E+00  0.00000000000E+00 -0.73440901998E+03  0.73440901998E+03  0.25500000920E-02 0.  1.
    10030    2    1    2    0    0  0.00000000000E+00  0.00000000000E+00 -0.32250559032E+03  0.11463124496E+04  0.11000101711E+04 0.  0.
        1    1    3    3  502    0 -0.34166843381E+03  0.43096511660E+03 -0.16762096949E+03  0.57494785835E+03  0.50400001928E-02 0. -1.
       -1    1    3    3    0  502  0.34166843381E+03 -0.43096511660E+03 -0.15488462083E+03  0.57136459129E+03  0.50400001928E-02 0.  1.
</event>
<event>
 5   0  0.1574101E-04  0.1099577E+04  0.7818609E-02  0.9205605E-01
       -2   -1    0    0    0  501  0.00000000000E+00  0.00000000000E+00  0.10900017188E+04  0.10900017188E+04  0.25500000920E-02 0. -1.
        2   -1    0    0  501    0  0.00000000000E+00  0.00000000000E+00 -0.27730892876E+03  0.27730892878E+03  0.25500000920E-02 0.  1.
    10030    2    1    2    0    0  0.00000000000E+00  0.00000000000E+00  0.81269279003E+03  0.13673106476E+04  0.10995766622E+04 0.  0.
        4    1    3    3  502    0  0.47783385424E+03 -0.26494862872E+03  0.33027348806E+03  0.63843962748E+03  0.12699999809E+01 0.  1.
       -4    1    3    3    0  502 -0.47783385424E+03  0.26494862872E+03  0.48241930198E+03  0.72887102010E+03  0.12699999809E+01 0. -1.
</event>
<event>
 5   0  0.1574101E-04  0.1100103E+04  0.7818609E-02  0.9205092E-01
       -2   -1    0    0    0  501  0.00000000000E+00  0.00000000000E+00  0.14133038384E+03  0.14133038386E+03  0.25500000920E-02 0.  1.
        2   -1    0    0  501    0  0.00000000000E+00  0.00000000000E+00 -0.21407751170E+04  0.21407751170E+04  0.25500000920E-02 0. -1.
    10030    2    1    2    0    0  0.00000000000E+00  0.00000000000E+00 -0.19994447331E+04  0.22821055008E+04  0.11001028480E+04 0.  0.
        4    1    3    3  502    0  0.47290916666E+03 -0.28043717784E+03 -0.10336105771E+04  0.11707435794E+04  0.12699999809E+01 0.  1.
       -4    1    3    3    0  502 -0.47290916666E+03  0.28043717784E+03 -0.96583415605E+03  0.11113619215E+04  0.12699999809E+01 0. -1.
</event>
<event>
 5   0  0.1503277E-04  0.1098482E+04  0.7818609E-02  0.9206673E-01
       -2   -1    0    0    0  501  0.00000000000E+00  0.00000000000E+00  0.25343511799E+03  0.25343511801E+03  0.25500000920E-02 0.  1.
        2   -1    0    0  501    0  0.00000000000E+00  0.00000000000E+00 -0.11903072472E+04  0.11903072472E+04  0.25500000920E-02 0. -1.
    10030    2    1    2    0    0  0.00000000000E+00  0.00000000000E+00 -0.93687212920E+03  0.14437423652E+04  0.10984819664E+04 0.  0.
        5    1    3    3  502    0  0.47821347406E+03 -0.20611906408E+03 -0.23901375400E+03  0.57299464216E+03  0.46999998093E+01 0. -1.
       -5    1    3    3    0  502 -0.47821347406E+03  0.20611906408E+03 -0.69785837520E+03  0.87074772304E+03  0.46999998093E+01 0.  1.
</event>
<event>
 5   0  0.8621738E-05  0.1099774E+04  0.7818609E-02  0.9205412E-01
        1   -1    0    0  501    0  0.00000000000E+00  0.00000000000E+00  0.18176694113E+04  0.18176694113E+04  0.50400001928E-02 0. -1.
       -1   -1    0    0    0  501  0.00000000000E+00  0.00000000000E+00 -0.16635357345E+03  0.16635357353E+03  0.50400001928E-02 0.  1.
    10030    2    1    2    0    0  0.00000000000E+00  0.00000000000E+00  0.16513158378E+04  0.19840229848E+04  0.10997741623E+04 0.  0.
        2    1    3    3  502    0 -0.39461421412E+03  0.11887200673E+03  0.16892032076E+03  0.44540431828E+03  0.25500000920E-02 0.  1.
       -2    1    3    3    0  502  0.39461421412E+03 -0.11887200673E+03  0.14823955171E+04  0.15386186665E+04  0.25500000920E-02 0. -1.
</event>
<event>
 5   0  0.1503277E-04  0.1100613E+04  0.7818609E-02  0.9204595E-01
        2   -1    0    0  501    0  0.00000000000E+00  0.00000000000E+00  0.12432314372E+04  0.12432314372E+04  0.25500000920E-02 0. -1.
       -2   -1    0    0    0  501  0.00000000000E+00  0.00000000000E+00 -0.24358867639E+03  0.24358867640E+03  0.25500000920E-02 0.  1.
    10030    2    1    2    0    0  0.00000000000E+00  0.00000000000E+00  0.99964276082E+03  0.14868201136E+04  0.11006127389E+04 0.  0.
        5    1    3    3  502    0  0.48220297364E+03  0.63844992000E+02  0.15219270539E+03  0.50968676691E+03  0.46999998093E+01 0.  1.
       -5    1    3    3    0  502 -0.48220297364E+03 -0.63844992000E+02  0.84745005544E+03  0.97713334671E+03  0.46999998093E+01 0. -1.
</event>
<event>
 5   0  0.1464205E-04  0.1098516E+04  0.7818609E-02  0.9206640E-01
       -2   -1    0    0    0  501  0.00000000000E+00  0.00000000000E+00  0.48513707600E+03  0.48513707601E+03  0.25500000920E-02 0.  1.
        2   -1    0    0  501    0  0.00000000000E+00  0.00000000000E+00 -0.62185345548E+03  0.62185345549E+03  0.25500000920E-02 0. -1.
    10030    2    1    2    0    0  0.00000000000E+00  0.00000000000E+00 -0.13671637948E+03  0.11069905315E+04  0.10985156660E+04 0.  0.
        3    1    3    3  502    0  0.39248644607E+03  0.32248660882E+03 -0.27887397587E+03  0.57949454513E+03  0.10100000352E+00 0.  1.
       -3    1    3    3    0  502 -0.39248644607E+03 -0.32248660882E+03  0.14215759639E+03  0.52749598636E+03  0.10100000352E+00 0. -1.
</event>
<event>
 5   0  0.1503277E-04  0.1099824E+04  0.7818609E-02  0.9205363E-01
        2   -1    0    0  501    0  0.00000000000E+00  0.00000000000E+00  0.12654792630E+04  0.12654792630E+04  0.25500000920E-02 0. -1.
       -2   -1    0    0    0  501  0.00000000000E+00  0.00000000000E+00 -0.23896350806E+03  0.23896350808E+03  0.25500000920E-02 0.  1.
    10030    2    1    2    0    0  0.00000000000E+00  0.00000000000E+00  0.10265157549E+04  0.15044427711E+04  0.10998242843E+04 0.  0.
        5    1    3    3  502    0  0.14433925395E+03 -0.80519674602E+01 -0.21247727447E+03  0.25703567180E+03  0.46999998093E+01 0.  1.
       -5    1    3    3    0  502 -0.14433925395E+03  0.80519674602E+01  0.12389930294E+04  0.12474070993E+04  0.46999998093E+01 0. -1.
</event>
<event>
 5   0  0.9016738E-05  0.1100179E+04  0.7818609E-02  0.9205018E-01
        1   -1    0    0  501    0  0.00000000000E+00  0.00000000000E+00  0.58218180419E+03  0.58218180421E+03  0.50400001928E-02 0. -1.
       -1   -1    0    0    0  501  0.00000000000E+00  0.00000000000E+00 -0.51976608343E+03  0.51976608345E+03  0.50400001928E-02 0.  1.
    10030    2    1    2    0    0  0.00000000000E+00  0.00000000000E+00  0.62415720757E+02  0.11019478877E+04  0.11001788150E+04 0.  0.
        4    1    3    3  502    0  0.13054701230E+03 -0.39074746314E+02  0.56500702102E+03  0.58120900279E+03  0.12699999809E+01 0. -1.
       -4    1    3    3    0  502 -0.13054701230E+03  0.39074746314E+02 -0.50259130026E+03  0.52073888487E+03  0.12699999809E+01 0.  1.
</event>
<event>
 5   0  0.9346836E-05  0.1099709E+04  0.7818609E-02  0.9205476E-01
        1   -1    0    0  501    0  0.00000000000E+00  0.00000000000E+00  0.95210601840E+03  0.95210601841E+03  0.50400001928E-02 0.  1.
       -1   -1    0    0    0  501  0.00000000000E+00  0.00000000000E+00 -0.31754857352E+03  0.31754857356E+03  0.50400001928E-02 0. -1.
    10030    2    1    2    0    0  0.00000000000E+00  0.00000000000E+00  0.63455744488E+03  0.12696545920E+04  0.10997088851E+04 0.  0.
        5    1    3    3  502    0  0.31915487340E+03  0.22611470527E+03  0.76342941129E+03  0.85780781599E+03  0.46999998093E+01 0.  1.
       -5    1    3    3    0  502 -0.31915487340E+03 -0.22611470527E+03 -0.12887196641E+03  0.41184677598E+03  0.46999998093E+01 0. -1.
</event>
<event>
 5   0  0.9346836E-05  0.1100415E+04  0.7818609E-02  0.9204788E-01
        1   -1    0    0  501    0  0.00000000000E+00  0.00000000000E+00  0.24665162344E+04  0.24665162344E+04  0.50400001928E-02 0. -1.
       -1   -1    0    0    0  501  0.00000000000E+00  0.00000000000E+00 -0.12273509628E+03  0.12273509638E+03  0.50400001928E-02 0.  1.
    10030    2    1    2    0    0  0.00000000000E+00  0.00000000000E+00  0.23437811381E+04  0.25892513308E+04  0.11004146630E+04 0.  0.
        5    1    3    3  502    0 -0.58689594651E+02  0.51605612035E+03  0.74479021839E+03  0.90801593999E+03  0.46999998093E+01 0.  1.
       -5    1    3    3    0  502  0.58689594651E+02 -0.51605612035E+03  0.15989909198E+04  0.16812353908E+04  0.46999998093E+01 0. -1.
</event>
<event>
 5   0  0.6010125E-05  0.1099513E+04  0.7818609E-02  0.9205667E-01
        3   -1    0    0  501    0  0.00000000000E+00  0.00000000000E+00  0.42579597723E+03  0.42579598921E+03  0.10100000352E+00 0.  1.
       -3   -1    0    0    0  501  0.00000000000E+00  0.00000000000E+00 -0.70980538431E+03  0.70980539150E+03  0.10100000352E+00 0. -1.
    10030    2    1    2    0    0  0.00000000000E+00  0.00000000000E+00 -0.28400940708E+03  0.11356013807E+04  0.10995131434E+04 0.  0.
        1    1    3    3  502    0 -0.36739951799E+03 -0.36270784821E+03 -0.33713126843E+03  0.61660107132E+03  0.50400001928E-02 0. -1.
       -1    1    3    3    0  502  0.36739951799E+03  0.36270784821E+03  0.53121861349E+02  0.51900030939E+03  0.50400001928E-02 0.  1.
</event>
<event>
 5   0  0.1553937E-04  0.1099075E+04  0.7818609E-02  0.9206094E-01
       -2   -1    0    0    0  501  0.00000000000E+00  0.00000000000E+00  0.42067650479E+03  0.42067650480E+03  0.25500000920E-02 0.  1.
        2   -1    0    0  501    0  0.00000000000E+00  0.00000000000E+00 -0.71787056675E+03  0.71787056675E+03  0.25500000920E-02 0. -1.
    10030    2    1    2    0    0  0.00000000000E+00  0.00000000000E+00 -0.29719406196E+03  0.11385470716E+04  0.10990746670E+04 0.  0.
        1    1    3    3  502    0  0.43317741539E+03 -0.33544156587E+03 -0.10431168520E+03  0.55771376620E+03  0.50400001928E-02 0. -1.
       -1    1    3    3    0  502 -0.43317741539E+03  0.33544156587E+03 -0.19288237676E+03  0.58083330535E+03  0.50400001928E-02 0.  1.
</event>
<event>
 5   0  0.1553937E-04  0.1099646E+04  0.7818609E-02  0.9205537E-01
       -2   -1    0    0    0  501  0.00000000000E+00  0.00000000000E+00  0.67391211204E+03  0.67391211205E+03  0.25500000920E-02 0. -1.
        2   -1    0    0  501    0  0.00000000000E+00  0.00000000000E+00 -0.44858253824E+03  0.44858253825E+03  0.25500000920E-02 0.  1.
    10030    2    1    2    0    0  0.00000000000E+00  0.00000000000E+00  0.22532957380E+03  0.11224946503E+04  0.10996457716E+04 0.  0.
        1    1    3    3  502    0  0.41705621380E+03 -0.10985249565E+02 -0.25289453511E+03  0.48786494759E+03  0.50400001928E-02 0.  1.
       -1    1    3    3    0  502 -0.41705621380E+03  0.10985249565E+02  0.47822410891E+03  0.63462970270E+03  0.50400001928E-02 0. -1.
</event>
<event>
 5   0  0.9016738E-05  0.1099644E+04  0.7818609E-02  0.9205539E-01
       -1   -1    0    0    0  501  0.00000000000E+00  0.00000000000E+00  0.21074034666E+03  0.21074034672E+03  0.50400001928E-02 0. -1.
        1   -1    0    0  501    0  0.00000000000E+00  0.00000000000E+00 -0.14344870783E+04  0.14344870783E+04  0.50400001928E-02 0.  1.
    10030    2    1    2    0    0  0.00000000000E+00  0.00000000000E+00 -0.12237467317E+04  0.16452274251E+04  0.10996441319E+04 0.  0.
        4    1    3    3  502    0  0.35782947954E+01 -0.21011203871E+02  0.21011984439E+03  0.21120188633E+03  0.12699999809E+01 0. -1.
       -4    1    3    3    0  502 -0.35782947954E+01  0.21011203871E+02 -0.14338665761E+04  0.14340255387E+04  0.12699999809E+01 0.  1.
</event>
<event>
 5   0  0.1540772E-04  0.1099505E+04  0.7818609E-02  0.9205675E-01
       -2   -1    0    0    0  501  0.00000000000E+00  0.00000000000E+00  0.38626637028E+03  0.38626637029E+03  0.25500000920E-02 0. -1.
        2   -1    0    0  501    0  0.00000000000E+00  0.00000000000E+00 -0.78243352202E+03  0.78243352203E+03  0.25500000920E-02 0.  1.
    10030    2    1    2    0    0  0.00000000000E+00  0.00000000000E+00 -0.39616715174E+03  0.11686998923E+04  0.10995049005E+04 0.  0.
        2    1    3    3  502    0 -0.23922486429E+03  0.17007139090E+03 -0.69217582153E+03  0.75183786923E+03  0.25500000920E-02 0.  1.
       -2    1    3    3    0  502  0.23922486429E+03 -0.17007139090E+03  0.29600866979E+03  0.41686202309E+03  0.25500000920E-02 0. -1.
</event>
<event>
 5   0  0.9346836E-05  0.1100264E+04  0.7818609E-02  0.9204934E-01
        1   -1    0    0  501    0  0.00000000000E+00  0.00000000000E+00  0.56717320880E+03  0.56717320883E+03  0.50400001928E-02 0. -1.
       -1   -1    0    0    0  501  0.00000000000E+00  0.00000000000E+00 -0.53360292553E+03  0.53360292555E+03  0.50400001928E-02 0.  1.
    10030    2    1    2    0    0  0.00000000000E+00  0.00000000000E+00  0.33570283276E+02  0.11007761344E+04  0.11002641202E+04 0.  0.
        5    1    3    3  502    0  0.54906856878E+03  0.14343630601E+02 -0.13907475008E+02  0.54945203687E+03  0.46999998093E+01 0. -1.
       -5    1    3    3    0  502 -0.54906856878E+03 -0.14343630601E+02  0.47477758284E+02  0.55132409751E+03  0.46999998093E+01 0.  1.
</event>
<event>
 5   0  0.1503277E-04  0.1100472E+04  0.7818609E-02  0.9204732E-01
        2   -1    0    0  501    0  0.00000000000E+00  0.00000000000E+00  0.33572793448E+03  0.33572793449E+03  0.25500000920E-02 0. -1.
       -2   -1    0    0    0  501  0.00000000000E+00  0.00000000000E+00 -0.90180065794E+03  0.90180065794E+03  0.25500000920E-02 0.  1.
    10030    2    1    2    0    0  0.00000000000E+00  0.00000000000E+00 -0.56607272346E+03  0.12375285924E+04  0.11004720300E+04 0.  0.
        5    1    3    3  502    0 -0.60620014243E+02 -0.31193237994E+03  0.22208394619E+03  0.38771118753E+03  0.46999998093E+01 0. -1.
       -5    1    3    3    0  502  0.60620014243E+02  0.31193237994E+03 -0.78815666965E+03  0.84981740491E+03  0.46999998093E+01 0.  1.
</event>
<event>
 5   0  0.1503277E-04  0.1099950E+04  0.7818609E-02  0.9205241E-01
       -2   -1    0    0    0  501  0.00000000000E+00  0.00000000000E+00  0.60968890985E+03  0.60968890986E+03  0.25500000920E-02 0.  1.
        2   -1    0    0  501    0  0.00000000000E+00  0.00000000000E+00 -0.49610945113E+03  0.49610945114E+03  0.25500000920E-02 0. -1.
    10030    2    1    2    0    0  0.00000000000E+00  0.00000000000E+00  0.11357945872E+03  0.11057983610E+04  0.10999498724E+04 0.  0.
        5    1    3    3  502    0  0.26694368201E+03 -0.42293924957E+03  0.28672796330E+03  0.57651674141E+03  0.46999998093E+01 0.  1.
       -5    1    3    3    0  502 -0.26694368201E+03  0.42293924957E+03 -0.17314850458E+03  0.52928161958E+03  0.46999998093E+01 0. -1.
</event>
<event>
 5   0  0.8657442E-05  0.1100097E+04  0.7818609E-02  0.9205097E-01
        1   -1    0    0  501    0  0.00000000000E+00  0.00000000000E+00  0.37273064329E+03  0.37273064332E+03  0.50400001928E-02 0. -1.
       -1   -1    0    0    0  501  0.00000000000E+00  0.00000000000E+00 -0.81172150631E+03  0.81172150633E+03  0.50400001928E-02 0.  1.
    10030    2    1    2    0    0  0.00000000000E+00  0.00000000000E+00 -0.43899086302E+03  0.11844521497E+04  0.11000972307E+04 0.  0.
        1    1    3    3  502    0 -0.49041502904E+03  0.54482347200E+02  0.42202487289E+02  0.49523355785E+03  0.50400001928E-02 0. -1.
       -1    1    3    3    0  502  0.49041502904E+03 -0.54482347200E+02 -0.48119335031E+03  0.68921859180E+03  0.50400001928E-02 0.  1.
</event>
<event>
 5   0  0.9016738E-05  0.1100164E+04  0.7818609E-02  0.9205032E-01
        1   -1    0    0  501    0  0.00000000000E+00  0.00000000000E+00  0.20942502099E+04  0.20942502099E+04  0.50400001928E-02 0.  1.
       -1   -1    0    0    0  501  0.00000000000E+00  0.00000000000E+00 -0.14448607123E+03  0.14448607132E+03  0.50400001928E-02 0. -1.
    10030    2    1    2    0    0  0.00000000000E+00  0.00000000000E+00  0.19497641387E+04  0.22387362812E+04  0.11001635971E+04 0.  0.
        4    1    3    3  502    0  0.50012513336E+03  0.21175025279E+03  0.79719037923E+03  0.96461258141E+03  0.12699999809E+01 0.  1.
       -4    1    3    3    0  502 -0.50012513336E+03 -0.21175025279E+03  0.11525737594E+04  0.12741236998E+04  0.12699999809E+01 0. -1.
</event>
<event>
 5   0  0.1464205E-04  0.1097680E+04  0.7818609E-02  0.9207456E-01
       -2   -1    0    0    0  501  0.00000000000E+00  0.00000000000E+00  0.80451044573E+03  0.80451044573E+03  0.25500000920E-02 0. -1.
        2   -1    0    0  501    0  0.00000000000E+00  0.00000000000E+00 -0.37442037392E+03  0.37442037392E+03  0.25500000920E-02 0.  1.
    10030    2    1    2    0    0  0.00000000000E+00  0.00000000000E+00  0.43009007181E+03  0.11789308197E+04  0.10976795560E+04 0.  0.
        3    1    3    3  502    0  0.32588860443E+03 -0.17020170428E+03  0.65270440012E+03  0.74912952603E+03  0.10100000352E+00 0. -1.
       -3    1    3    3    0  502 -0.32588860443E+03  0.17020170428E+03 -0.22261432830E+03  0.42980129363E+03  0.10100000352E+00 0.  1.
</event>
<event>
 5   0  0.1553937E-04  0.1102356E+04  0.7818609E-02  0.9202898E-01
        2   -1    0    0  501    0  0.00000000000E+00  0.00000000000E+00  0.12704643896E+04  0.12704643896E+04  0.25500000920E-02 0.  1.
       -2   -1    0    0    0  501  0.00000000000E+00  0.00000000000E+00 -0.23912304927E+03  0.23912304928E+03  0.25500000920E-02 0. -1.
    10030    2    1    2    0    0  0.00000000000E+00  0.00000000000E+00  0.10313413404E+04  0.15095874389E+04  0.11023562380E+04 0.  0.
        1    1    3    3  502    0 -0.66480738602E+02 -0.29503536575E+03  0.11466916410E+04  0.11859035691E+04  0.50400001928E-02 0.  1.
       -1    1    3    3    0  502  0.66480738602E+02  0.29503536575E+03 -0.11535030069E+03  0.32368386976E+03  0.50400001928E-02 0. -1.
</event>
<event>
 5   0  0.1503277E-04  0.1100075E+04  0.7818609E-02  0.9205119E-01
       -2   -1    0    0    0  501  0.00000000000E+00  0.00000000000E+00  0.45981686693E+03  0.45981686694E+03  0.25500000920E-02 0. -1.
        2   -1    0    0  501    0  0.00000000000E+00  0.00000000000E+00 -0.65795987904E+03  0.65795987904E+03  0.25500000920E-02 0.  1.
    10030    2    1    2    0    0  0.00000000000E+00  0.00000000000E+00 -0.19814301210E+03  0.11177767460E+04  0.11000746341E+04 0.  0.
        5    1    3    3  502    0  0.24425206929E+03 -0.36750383400E+02 -0.59841551747E+03  0.64740473089E+03  0.46999998093E+01 0.  1.
       -5    1    3    3    0  502 -0.24425206929E+03  0.36750383400E+02  0.40027250536E+03  0.47037201509E+03  0.46999998093E+01 0. -1.
</event>
<event>
 5   0  0.1503277E-04  0.1100004E+04  0.7818609E-02  0.9205188E-01
        2   -1    0    0  501    0  0.00000000000E+00  0.00000000000E+00  0.12447203996E+04  0.12447203996E+04  0.25500000920E-02 0.  1.
       -2   -1    0    0    0  501  0.00000000000E+00  0.00000000000E+00 -0.24302829603E+03  0.24302829605E+03  0.25500000920E-02 0. -1.
    10030    2    1    2    0    0  0.00000000000E+00  0.00000000000E+00  0.10016921036E+04  0.14877486957E+04  0.11000041414E+04 0.  0.
        5    1    3    3  502    0 -0.30117512388E+03  0.45094716803E+03  0.62495446159E+03  0.82743578159E+03  0.46999998093E+01 0.  1.
       -5    1    3    3    0  502  0.30117512388E+03 -0.45094716803E+03  0.37673764198E+03  0.66031291406E+03  0.46999998093E+01 0. -1.
</event>
<event>
 5   0  0.1464205E-04  0.1099771E+04  0.7818609E-02  0.9205415E-01
       -2   -1    0    0    0  501  0.00000000000E+00  0.00000000000E+00  0.59531503183E+03  0.59531503184E+03  0.25500000920E-02 0. -1.
        2   -1    0    0  501    0  0.00000000000E+00  0.00000000000E+00 -0.50792286831E+03  0.50792286832E+03  0.25500000920E-02 0.  1.
    10030    2    1    2    0    0  0.00000000000E+00  0.00000000000E+00  0.87392163519E+02  0.11032379002E+04  0.10997711008E+04 0.  0.
        3    1    3    3  502    0  0.17490480398E+03 -0.37694358443E+03 -0.31757240534E+03  0.52300133760E+03  0.10100000352E+00 0.  1.
       -3    1    3    3    0  502 -0.17490480398E+03  0.37694358443E+03  0.40496456886E+03  0.58023656256E+03  0.10100000352E+00 0. -1.
</event>
<event>
 5   0  0.1574101E-04  0.1100113E+04  0.7818609E-02  0.9205081E-01
       -2   -1    0    0    0  501  0.00000000000E+00  0.00000000000E+00  0.55358586261E+03  0.55358586262E+03  0.25500000920E-02 0. -1.
        2   -1    0    0  501    0  0.00000000000E+00  0.00000000000E+00 -0.54654995885E+03  0.54654995886E+03  0.25500000920E-02 0.  1.
    10030    2    1    2    0    0  0.00000000000E+00  0.00000000000E+00  0.70359037615E+01  0.11001358215E+04  0.11001133222E+04 0.  0.
        4    1    3    3  502    0  0.16578387779E+03 -0.10756807832E+03 -0.50982044561E+03  0.54678486196E+03  0.12699999809E+01 0.  1.
       -4    1    3    3    0  502 -0.16578387779E+03  0.10756807832E+03  0.51685634937E+03  0.55335095951E+03  0.12699999809E+01 0. -1.
</event>
<event>
 5   0  0.9346836E-05  0.1100296E+04  0.7818609E-02  0.9204903E-01
        1   -1    0    0  501    0  0.00000000000E+00  0.00000000000E+00  0.18500807654E+03  0.18500807661E+03  0.50400001928E-02 0.  1.
       -1   -1    0    0    0  501  0.00000000000E+00  0.00000000000E+00 -0.16359440651E+04  0.16359440651E+04  0.50400001928E-02 0. -1.
    10030    2    1    2    0    0  0.00000000000E+00  0.00000000000E+00 -0.14509359885E+04  0.18209521417E+04  0.11002960781E+04 0.  0.
        5    1    3    3  502    0  0.22724699890E+03  0.35268845233E+03 -0.13143438008E+04  0.13796927410E+04  0.46999998093E+01 0. -1.
       -5    1    3    3    0  502 -0.22724699890E+03 -0.35268845233E+03 -0.13659218769E+03  0.44125940064E+03  0.46999998093E+01 0.  1.
</event>
<event>
 5   0  0.1464205E-04  0.1100022E+04  0.7818609E-02  0.9205171E-01
       -2   -1    0    0    0  501  0.00000000000E+00  0.00000000000E+00  0.45623766869E+03  0.45623766870E+03  0.25500000920E-02 0. -1.
        2   -1    0    0  501    0  0.00000000000E+00  0.00000000000E+00 -0.66305754757E+03  0.66305754758E+03  0.25500000920E-02 0.  1.
    10030    2    1    2    0    0  0.00000000000E+00  0.00000000000E+00 -0.20681987889E+03  0.11192952163E+04  0.11000215084E+04 0.  0.
        3    1    3    3  502    0 -0.68023130012E+02 -0.17800553624E+03 -0.62839438703E+03  0.65665259689E+03  0.10100000352E+00 0.  1.
       -3    1    3    3    0  502  0.68023130012E+02  0.17800553624E+03  0.42157450815E+03  0.46264261938E+03  0.10100000352E+00 0. -1.
</event>
<event>
 5   0  0.1574101E-04  0.1101370E+04  0.7818609E-02  0.9203857E-01
        2   -1    0    0  501    0  0.00000000000E+00  0.00000000000E+00  0.17231673959E+04  0.17231673959E+04  0.25500000920E-02 0. -1.
       -2   -1    0    0    0  501  0.00000000000E+00  0.00000000000E+00 -0.17598642202E+03  0.17598642204E+03  0.25500000920E-02 0.  1.
    10030    2    1    2    0    0  0.00000000000E+00  0.00000000000E+00  0.15471809738E+04  0.18991538179E+04  0.11013701731E+04 0.  0.
        4    1    3    3  502    0  0.38233476528E+03  0.39590605763E+03  0.74221989245E+03  0.92402027081E+03  0.12699999809E+01 0. -1.
       -4    1    3    3    0  502 -0.38233476528E+03 -0.39590605763E+03  0.80496108140E+03  0.97513354710E+03  0.12699999809E+01 0.  1.
</event>
<event>
 5   0  0.1553937E-04  0.1101548E+04  0.7818609E-02  0.9203685E-01
        2   -1    0    0  501    0  0.00000000000E+00  0.00000000000E+00  0.15963185630E+04  0.15963185630E+04  0.25500000920E-02 0.  1.
       -2   -1    0    0    0  501  0.00000000000E+00  0.00000000000E+00 -0.19003220160E+03  0.19003220162E+03  0.25500000920E-02 0. -1.
    10030    2    1    2    0    0  0.00000000000E+00  0.00000000000E+00  0.14062863614E+04  0.17863507647E+04  0.11015478764E+04 0.  0.
        1    1    3    3  502    0 -0.42164442328E+03  0.20846751911E+03  0.11678288569E+04  0.12589944262E+04  0.50400001928E-02 0.  1.
       -1    1    3    3    0  502  0.42164442328E+03 -0.20846751911E+03  0.23845750454E+03  0.52735633845E+03  0.50400001928E-02 0. -1.
</event>
<event>
 5   0  0.9016738E-05  0.1099010E+04  0.7818609E-02  0.9206157E-01
       -1   -1    0    0    0  501  0.00000000000E+00  0.00000000000E+00  0.66586570374E+03  0.66586570376E+03  0.50400001928E-02 0. -1.
        1   -1    0    0  501    0  0.00000000000E+00  0.00000000000E+00 -0.45347833062E+03  0.45347833065E+03  0.50400001928E-02 0.  1.
    10030    2    1    2    0    0  0.00000000000E+00  0.00000000000E+00  0.21238737312E+03  0.11193440344E+04  0.10990098594E+04 0.  0.
        4    1    3    3  502    0  0.32492922701E+03  0.82241864378E+02  0.54969421381E+03  0.64382301016E+03  0.12699999809E+01 0. -1.
       -4    1    3    3    0  502 -0.32492922701E+03 -0.82241864378E+02 -0.33730684069E+03  0.47552102425E+03  0.12699999809E+01 0.  1.
</event>
<event>
 5   0  0.1464205E-04  0.1100484E+04  0.7818609E-02  0.9204720E-01
        2   -1    0    0  501    0  0.00000000000E+00  0.00000000000E+00  0.31518451084E+03  0.31518451085E+03  0.25500000920E-02 0. -1.
       -2   -1    0    0    0  501  0.00000000000E+00  0.00000000000E+00 -0.96060066324E+03  0.96060066324E+03  0.25500000920E-02 0.  1.
    10030    2    1    2    0    0  0.00000000000E+00  0.00000000000E+00 -0.64541615239E+03  0.12757851741E+04  0.11004843482E+04 0.  0.
        3    1    3    3  502    0 -0.82589291333E+02 -0.44491559385E+03 -0.68561636498E+03  0.82148687562E+03  0.10100000352E+00 0.  1.
       -3    1    3    3    0  502  0.82589291333E+02  0.44491559385E+03  0.40200212583E+02  0.45429829847E+03  0.10100000352E+00 0. -1.
</event>
<event>
 5   0  0.1503277E-04  0.1100142E+04  0.7818609E-02  0.9205053E-01
        2   -1    0    0  501    0  0.00000000000E+00  0.00000000000E+00  0.12771949849E+04  0.12771949849E+04  0.25500000920E-02 0. -1.
       -2   -1    0    0    0  501  0.00000000000E+00  0.00000000000E+00 -0.23690840292E+03  0.23690840294E+03  0.25500000920E-02 0.  1.
    10030    2    1    2    0    0  0.00000000000E+00  0.00000000000E+00  0.10402865820E+04  0.15141033879E+04  0.11001422165E+04 0.  0.
        5    1    3    3  502    0 -0.17963119456E+03 -0.39717153701E+03  0.58435733790E+02  0.43982885405E+03  0.46999998093E+01 0.  1.
       -5    1    3    3    0  502  0.17963119456E+03  0.39717153701E+03  0.98185084821E+03  0.10742745338E+04  0.46999998093E+01 0. -1.
</event>
<event>
 5   0  0.8657442E-05  0.1100084E+04  0.7818609E-02  0.9205110E-01
       -1   -1    0    0    0  501  0.00000000000E+00  0.00000000000E+00  0.32654138587E+03  0.32654138591E+03  0.50400001928E-02 0.  1.
        1   -1    0    0  501    0  0.00000000000E+00  0.00000000000E+00 -0.92651707520E+03  0.92651707521E+03  0.50400001928E-02 0. -1.
    10030    2    1    2    0    0  0.00000000000E+00  0.00000000000E+00 -0.59997568933E+03  0.12530584611E+04  0.11000839419E+04 0.  0.
        1    1    3    3  502    0 -0.43933382905E+03 -0.27808026822E+03 -0.50439487918E+03  0.72440116171E+03  0.50400001928E-02 0.  1.
       -1    1    3    3    0  502  0.43933382905E+03  0.27808026822E+03 -0.95580810145E+02  0.52865729940E+03  0.50400001928E-02 0. -1.
</event>
<event>
 5   0  0.6010125E-05  0.1098675E+04  0.7818609E-02  0.9206484E-01
        3   -1    0    0  501    0  0.00000000000E+00  0.00000000000E+00  0.72934153136E+03  0.72934153835E+03  0.10100000352E+00 0. -1.
       -3   -1    0    0    0  501  0.00000000000E+00  0.00000000000E+00 -0.41375907669E+03  0.41375908902E+03  0.10100000352E+00 0.  1.
    10030    2    1    2    0    0  0.00000000000E+00  0.00000000000E+00  0.31558245467E+03  0.11431006274E+04  0.10986750014E+04 0.  0.
        4    1    3    3  502    0  0.24770984486E+03 -0.26649461608E+03  0.58600416293E+03  0.68976955537E+03  0.12699999809E+01 0. -1.
       -4    1    3    3    0  502 -0.24770984486E+03  0.26649461608E+03 -0.27042170826E+03  0.45333107200E+03  0.12699999809E+01 0.  1.
</event>
<event>
 5   0  0.9016738E-05  0.1099334E+04  0.7818609E-02  0.9205841E-01
       -1   -1    0    0    0  501  0.00000000000E+00  0.00000000000E+00  0.58825166320E+03  0.58825166322E+03  0.50400001928E-02 0. -1.
        1   -1    0    0  501    0  0.00000000000E+00  0.00000000000E+00 -0.51361295965E+03  0.51361295968E+03  0.50400001928E-02 0.  1.
    10030    2    1    2    0    0  0.00000000000E+00  0.00000000000E+00  0.74638703547E+02  0.11018646229E+04  0.10993337578E+04 0.  0.
        4    1    3    3  502    0 -0.10395810856E+03 -0.29037251524E+03 -0.41871005346E+03  0.52004154422E+03  0.12699999809E+01 0.  1.
       -4    1    3    3    0  502  0.10395810856E+03  0.29037251524E+03  0.49334875701E+03  0.58182307868E+03  0.12699999809E+01 0. -1.
</event>
<event>
 5   0  0.1574101E-04  0.1100179E+04  0.7818609E-02  0.9205018E-01
       -2   -1    0    0    0  501  0.00000000000E+00  0.00000000000E+00  0.85745618690E+03  0.85745618690E+03  0.25500000920E-02 0.  1.
        2   -1    0    0  501    0  0.00000000000E+00  0.00000000000E+00 -0.35290245743E+03  0.35290245744E+03  0.25500000920E-02 0. -1.
    10030    2    1    2    0    0  0.00000000000E+00  0.00000000000E+00  0.50455372947E+03  0.12103586443E+04  0.11001788864E+04 0.  0.
        4    1    3    3  502    0 -0.36061467773E+03  0.11914636536E+02 -0.20453183015E+03  0.41475268149E+03  0.12699999809E+01 0. -1.
       -4    1    3    3    0  502  0.36061467773E+03 -0.11914636536E+02  0.70908555963E+03  0.79560596285E+03  0.12699999809E+01 0.  1.
</event>
<event>
 5   0  0.8921459E-05  0.1099815E+04  0.7818609E-02  0.9205373E-01
        1   -1    0    0  501    0  0.00000000000E+00  0.00000000000E+00  0.72558908525E+03  0.72558908527E+03  0.50400001928E-02 0. -1.
       -1   -1    0    0    0  501  0.00000000000E+00  0.00000000000E+00 -0.41676208427E+03  0.41676208430E+03  0.50400001928E-02 0.  1.
    10030    2    1    2    0    0  0.00000000000E+00  0.00000000000E+00  0.30882700098E+03  0.11423511696E+04  0.10998145653E+04 0.  0.
        3    1    3    3  502    0  0.31982346585E+02 -0.16657756090E+03  0.69773849199E+03  0.71805986359E+03  0.10100000352E+00 0. -1.
       -3    1    3    3    0  502 -0.31982346585E+02  0.16657756090E+03 -0.38891149101E+03  0.42429130598E+03  0.10100000352E+00 0.  1.
</event>
<event>
 5   0  0.1503277E-04  0.1099863E+04  0.7818609E-02  0.9205325E-01
        2   -1    0    0  501    0  0.00000000000E+00  0.00000000000E+00  0.44691826102E+03  0.44691826102E+03  0.25500000920E-02 0. -1.
       -2   -1    0    0    0  501  0.00000000000E+00  0.00000000000E+00 -0.67668899343E+03  0.67668899343E+03  0.25500000920E-02 0.  1.
    10030    2    1    2    0    0  0.00000000000E+00  0.00000000000E+00 -0.22977073241E+03  0.11236072545E+04  0.10998630246E+04 0.  0.
        5    1    3    3  502    0  0.27584641851E+03 -0.11461573374E+03 -0.58656119946E+03  0.65825841714E+03  0.46999998093E+01 0.  1.
       -5    1    3    3    0  502 -0.27584641851E+03  0.11461573374E+03  0.35679046705E+03  0.46534883732E+03  0.46999998093E+01 0. -1.
</event>
<event>
 5   0  0.1540772E-04  0.1099779E+04  0.7818609E-02  0.9205407E-01
        2   -1    0    0  501    0  0.00000000000E+00  0.00000000000E+00  0.62152955901E+03  0.62152955902E+03  0.25500000920E-02 0.  1.
       -2   -1    0    0    0  501  0.00000000000E+00  0.00000000000E+00 -0.48650681180E+03  0.48650681181E+03  0.25500000920E-02 0. -1.
    10030    2    1    2    0    0  0.00000000000E+00  0.00000000000E+00  0.13502274721E+03  0.11080363708E+04  0.10997788218E+04 0.  0.
        2    1    3    3  502    0  0.42822836730E+03  0.33768907163E+03  0.13850262221E+03  0.56266901463E+03  0.25500000920E-02 0.  1.
       -2    1    3    3    0  502 -0.42822836730E+03 -0.33768907163E+03 -0.34798749976E+01  0.54536735619E+03  0.25500000920E-02 0. -1.
</event>
<event>
 5   0  0.1503277E-04  0.1099916E+04  0.7818609E-02  0.9205273E-01
       -2   -1    0    0    0  501  0.00000000000E+00  0.00000000000E+00  0.30155322717E+03  0.30155322718E+03  0.25500000920E-02 0. -1.
        2   -1    0    0  501    0  0.00000000000E+00  0.00000000000E+00 -0.10029873494E+04  0.10029873494E+04  0.25500000920E-02 0.  1.
    10030    2    1    2    0    0  0.00000000000E+00  0.00000000000E+00 -0.70143412223E+03  0.13045405766E+04  0.10999164914E+04 0.  0.
        5    1    3    3  502    0  0.87286961912E+02 -0.20928660042E+03  0.24350010777E+03  0.33276761759E+03  0.46999998093E+01 0. -1.
       -5    1    3    3    0  502 -0.87286961912E+02  0.20928660042E+03 -0.94493422999E+03  0.97177295900E+03  0.46999998093E+01 0.  1.
</event>
<event>
 5   0  0.8921459E-05  0.1100298E+04  0.7818609E-02  0.9204902E-01
        1   -1    0    0  501    0  0.00000000000E+00  0.00000000000E+00  0.68640407441E+03  0.68640407442E+03  0.50400001928E-02 0.  1.
       -1   -1    0    0    0  501  0.00000000000E+00  0.00000000000E+00 -0.44094112241E+03  0.44094112244E+03  0.50400001928E-02 0. -1.
    10030    2    1    2    0    0  0.00000000000E+00  0.00000000000E+00  0.24546295199E+03  0.11273451969E+04  0.11002977470E+04 0.  0.
        3    1    3    3  502    0  0.29761837290E+03  0.42691350435E+03  0.30553233266E+03  0.60347481521E+03  0.10100000352E+00 0.  1.
       -3    1    3    3    0  502 -0.29761837290E+03 -0.42691350435E+03 -0.60069380670E+02  0.52387038166E+03  0.10100000352E+00 0. -1.
</event>
<event>
 5   0  0.8621738E-05  0.1099747E+04  0.7818609E-02  0.9205438E-01
        1   -1    0    0  501    0  0.00000000000E+00  0.00000000000E+00  0.10074327239E+04  0.10074327239E+04  0.50400001928E-02 0.  1.
       -1   -1    0    0    0  501  0.00000000000E+00  0.00000000000E+00 -0.30013020303E+03  0.30013020307E+03  0.50400001928E-02 0. -1.
    10030    2    1    2    0    0  0.00000000000E+00  0.00000000000E+00  0.70730252088E+03  0.13075629270E+04  0.10997472219E+04 0.  0.
        2    1    3    3  502    0 -0.87642256931E+02 -0.14352679185E+03  0.97610675520E+03  0.99048750761E+03  0.25500000920E-02 0.  1.
       -2    1    3    3    0  502  0.87642256931E+02  0.14352679185E+03 -0.26880423432E+03  0.31707541938E+03  0.25500000920E-02 0. -1.
</event>
<event>
 5   0  0.1464205E-04  0.1099741E+04  0.7818609E-02  0.9205445E-01
       -2   -1    0    0    0  501  0.00000000000E+00  0.00000000000E+00  0.36700135204E+03  0.36700135204E+03  0.25500000920E-02 0.  1.
        2   -1    0    0  501    0  0.00000000000E+00  0.00000000000E+00 -0.82385929002E+03  0.82385929003E+03  0.25500000920E-02 0. -1.
    10030    2    1    2    0    0  0.00000000000E+00  0.00000000000E+00 -0.45685793799E+03  0.11908606421E+04  0.10997408301E+04 0.  0.
        3    1    3    3  502    0 -0.14426959951E+03  0.31258309761E+03  0.23585677146E+03  0.41731323619E+03  0.10100000352E+00 0.  1.
       -3    1    3    3    0  502  0.14426959951E+03 -0.31258309761E+03 -0.69271470945E+03  0.77354740588E+03  0.10100000352E+00 0. -1.
</event>
<event>
 5   0  0.8621738E-05  0.1099648E+04  0.7818609E-02  0.9205535E-01
        1   -1    0    0  501    0  0.00000000000E+00  0.00000000000E+00  0.49377372314E+03  0.49377372317E+03  0.50400001928E-02 0.  1.
       -1   -1    0    0    0  501  0.00000000000E+00  0.00000000000E+00 -0.61223642885E+03  0.61223642887E+03  0.50400001928E-02 0. -1.
    10030    2    1    2    0    0  0.00000000000E+00  0.00000000000E+00 -0.11846270570E+03  0.11060101520E+04  0.10996476907E+04 0.  0.
        2    1    3    3  502    0  0.28320794486E+03  0.22639757321E+02 -0.53268519878E+03  0.60371584346E+03  0.25500000920E-02 0. -1.
       -2    1    3    3    0  502 -0.28320794486E+03 -0.22639757321E+02  0.41422249308E+03  0.50229430857E+03  0.25500000920E-02 0.  1.
</event>
<event>
 5   0  0.1574101E-04  0.1099974E+04  0.7818609E-02  0.9205217E-01
       -2   -1    0    0    0  501  0.00000000000E+00  0.00000000000E+00  0.16856783429E+03  0.16856783431E+03  0.25500000920E-02 0.  1.
        2   -1    0    0  501    0  0.00000000000E+00  0.00000000000E+00 -0.17944452234E+04  0.17944452234E+04  0.25500000920E-02 0. -1.
    10030    2    1    2    0    0  0.00000000000E+00  0.00000000000E+00 -0.16258773891E+04  0.19630130577E+04  0.10999740817E+04 0.  0.
        4    1    3    3  502    0 -0.40784727405E+03  0.36882484558E+03 -0.79397095450E+03  0.96579638391E+03  0.12699999809E+01 0.  1.
       -4    1    3    3    0  502  0.40784727405E+03 -0.36882484558E+03 -0.83190643457E+03  0.99721667377E+03  0.12699999809E+01 0. -1.
</event>
<event>
 5   0  0.9016738E-05  0.1099949E+04  0.7818609E-02  0.9205241E-01
        1   -1    0    0  501    0  0.00000000000E+00  0.00000000000E+00  0.71146155033E+03  0.71146155034E+03  0.50400001928E-02 0. -1.
       -1   -1    0    0    0  501  0.00000000000E+00  0.00000000000E+00 -0.42514182393E+03  0.42514182396E+03  0.50400001928E-02 0.  1.
    10030    2    1    2    0    0  0.00000000000E+00  0.00000000000E+00  0.28631972640E+03  0.11366033743E+04  0.10999492010E+04 0.  0.
        4    1    3    3  502    0  0.10178033680E+03 -0.50170061545E+03 -0.64555394325E+02  0.51597650754E+03  0.12699999809E+01 0.  1.
       -4    1    3    3    0  502 -0.10178033680E+03  0.50170061545E+03  0.35087512072E+03  0.62062686676E+03  0.12699999809E+01 0. -1.
</event>
<event>
 5   0  0.8657442E-05  0.1099670E+04  0.7818609E-02  0.9205513E-01
       -1   -1    0    0    0  501  0.00000000000E+00  0.00000000000E+00  0.22784032481E+03  0.22784032486E+03  0.50400001928E-02 0.  1.
        1   -1    0    0  501    0  0.00000000000E+00  0.00000000000E+00 -0.13268883009E+04  0.13268883009E+04  0.50400001928E-02 0. -1.
    10030    2    1    2    0    0  0.00000000000E+00  0.00000000000E+00 -0.10990479761E+04  0.15547286258E+04  0.10996702442E+04 0.  0.
        1    1    3    3  502    0 -0.31554132279E+03 -0.30513467546E+03 -0.10176759672E+04  0.11083040516E+04  0.50400001928E-02 0. -1.
       -1    1    3    3    0  502  0.31554132279E+03  0.30513467546E+03 -0.81372008876E+02  0.44642457416E+03  0.50400001928E-02 0.  1.
</event>
<event>
 5   0  0.8921459E-05  0.1100042E+04  0.7818609E-02  0.9205151E-01
       -1   -1    0    0    0  501  0.00000000000E+00  0.00000000000E+00  0.16733280640E+03  0.16733280647E+03  0.50400001928E-02 0.  1.
        1   -1    0    0  501    0  0.00000000000E+00  0.00000000000E+00 -0.18079137998E+04  0.18079137998E+04  0.50400001928E-02 0. -1.
    10030    2    1    2    0    0  0.00000000000E+00  0.00000000000E+00 -0.16405809934E+04  0.19752466063E+04  0.11000423445E+04 0.  0.
        3    1    3    3  502    0  0.23833109006E+03 -0.43825938701E+03 -0.12361991167E+04  0.13330646140E+04  0.10100000352E+00 0. -1.
       -3    1    3    3    0  502 -0.23833109006E+03  0.43825938701E+03 -0.40438187671E+03  0.64218199227E+03  0.10100000352E+00 0.  1.
</event>
<event>
 5   0  0.8657442E-05  0.1099975E+04  0.7818609E-02  0.9205216E-01
        1   -1    0    0  501    0  0.00000000000E+00  0.00000000000E+00  0.51955508234E+03  0.51955508236E+03  0.50400001928E-02 0. -1.
       -1   -1    0    0    0  501  0.00000000000E+00  0.00000000000E+00 -0.58220264202E+03  0.58220264204E+03  0.50400001928E-02 0.  1.
    10030    2    1    2    0    0  0.00000000000E+00  0.00000000000E+00 -0.62647559685E+02  0.11017577244E+04  0.10999751663E+04 0.  0.
        1    1    3    3  502    0 -0.35182437105E+03 -0.38693434310E+03 -0.20185763486E+03  0.56057566725E+03  0.50400001928E-02 0.  1.
       -1    1    3    3    0  502  0.35182437105E+03  0.38693434310E+03  0.13921007517E+03  0.54118205716E+03  0.50400001928E-02 0. -1.
</event>
<event>
 5   0  0.1540772E-04  0.1099900E+04  0.7818609E-02  0.9205290E-01
       -2   -1    0    0    0  501  0.00000000000E+00  0.00000000000E+00  0.52464496250E+03  0.52464496250E+03  0.25500000920E-02 0.  1.
        2   -1    0    0  501    0  0.00000000000E+00  0.00000000000E+00 -0.57647531473E+03  0.57647531474E+03  0.25500000920E-02 0. -1.
    10030    2    1    2    0    0  0.00000000000E+00  0.00000000000E+00 -0.51830352235E+02  0.11011202772E+04  0.10998997589E+04 0.  0.
        2    1    3    3  502    0 -0.25009101736E+03 -0.25745196202E+03 -0.44305228624E+03  0.57019501757E+03  0.25500000920E-02 0. -1.
       -2    1    3    3    0  502  0.25009101736E+03  0.25745196202E+03  0.39122193400E+03  0.53092525968E+03  0.25500000920E-02 0.  1.
</event>
<event>
 5   0  0.9016738E-05  0.1100907E+04  0.7818609E-02  0.9204308E-01
       -1   -1    0    0    0  501  0.00000000000E+00  0.00000000000E+00  0.23181017925E+03  0.23181017931E+03  0.50400001928E-02 0. -1.
        1   -1    0    0  501    0  0.00000000000E+00  0.00000000000E+00 -0.13070999071E+04  0.13070999071E+04  0.50400001928E-02 0.  1.
    10030    2    1    2    0    0  0.00000000000E+00  0.00000000000E+00 -0.10752897278E+04  0.15389100864E+04  0.11009070148E+04 0.  0.
        4    1    3    3  502    0 -0.12338480958E+03  0.44500946074E+03 -0.11889356136E+03  0.47685901817E+03  0.12699999809E+01 0. -1.
       -4    1    3    3    0  502  0.12338480958E+03 -0.44500946074E+03 -0.95639616646E+03  0.10620510682E+04  0.12699999809E+01 0.  1.
</event>
<event>
 5   0  0.1464205E-04  0.1094887E+04  0.7818609E-02  0.9210190E-01
        2   -1    0    0  501    0  0.00000000000E+00  0.00000000000E+00  0.41596944474E+03  0.41596944474E+03  0.25500000920E-02 0. -1.
       -2   -1    0    0    0  501  0.00000000000E+00  0.00000000000E+00 -0.72047195162E+03  0.72047195163E+03  0.25500000920E-02 0.  1.
    10030    2    1    2    0    0  0.00000000000E+00  0.00000000000E+00 -0.30450250689E+03  0.11364413964E+04  0.10948868757E+04 0.  0.
        3    1    3    3  502    0 -0.45411350821E+03  0.45082116422E+02  0.16162078562E+03  0.48412060905E+03  0.10100000352E+00 0. -1.
       -3    1    3    3    0  502  0.45411350821E+03 -0.45082116422E+02 -0.46612329251E+03  0.65232078733E+03  0.10100000352E+00 0.  1.
</event>
<event>
 5   0  0.6010125E-05  0.1099967E+04  0.7818609E-02  0.9205224E-01
        3   -1    0    0  501    0  0.00000000000E+00  0.00000000000E+00  0.85029529968E+03  0.85029530568E+03  0.10100000352E+00 0. -1.
       -3   -1    0    0    0  501  0.00000000000E+00  0.00000000000E+00 -0.35573767837E+03  0.35573769270E+03  0.10100000352E+00 0.  1.
    10030    2    1    2    0    0  0.00000000000E+00  0.00000000000E+00  0.49455762131E+03  0.12060329984E+04  0.10999674324E+04 0.  0.
        4    1    3    3  502    0 -0.52337701538E+03 -0.16379050853E+03  0.29287806711E+03  0.62171537379E+03  0.12699999809E+01 0.  1.
       -4    1    3    3    0  502  0.52337701538E+03  0.16379050853E+03  0.20167955420E+03  0.58431762459E+03  0.12699999809E+01 0. -1.
</event>
<event>
 5   0  0.1574101E-04  0.1099784E+04  0.7818609E-02  0.9205402E-01
       -2   -1    0    0    0  501  0.00000000000E+00  0.00000000000E+00  0.54366749346E+03  0.54366749346E+03  0.25500000920E-02 0. -1.
        2   -1    0    0  501    0  0.00000000000E+00  0.00000000000E+00 -0.55618812279E+03  0.55618812280E+03  0.25500000920E-02 0.  1.
    10030    2    1    2    0    0  0.00000000000E+00  0.00000000000E+00 -0.12520629334E+02  0.10998556163E+04  0.10997843472E+04 0.  0.
        4    1    3    3  502    0  0.48881429347E+03 -0.24623100516E+03 -0.59279486699E+02  0.55053137226E+03  0.12699999809E+01 0. -1.
       -4    1    3    3    0  502 -0.48881429347E+03  0.24623100516E+03  0.46758857365E+02  0.54932424400E+03  0.12699999809E+01 0.  1.
</event>
<event>
 5   0  0.8657442E-05  0.1100388E+04  0.7818609E-02  0.9204814E-01
       -1   -1    0    0    0  501  0.00000000000E+00  0.00000000000E+00  0.68796446427E+03  0.68796446429E+03  0.50400001928E-02 0. -1.
        1   -1    0    0  501    0  0.00000000000E+00  0.00000000000E+00 -0.44001304620E+03  0.44001304623E+03  0.50400001928E-02 0.  1.
    10030    2    1    2    0    0  0.00000000000E+00  0.00000000000E+00  0.24795141807E+03  0.11279775105E+04  0.11003878219E+04 0.  0.
        1    1    3    3  502    0  0.19866050964E+03  0.46105980004E+03  0.35472228753E+03  0.61471134575E+03  0.50400001928E-02 0. -1.
       -1    1    3    3    0  502 -0.19866050964E+03 -0.46105980004E+03 -0.10677086946E+03  0.51326616477E+03  0.50400001928E-02 0.  1.
</event>
<event>
 5   0  0.1503277E-04  0.1100780E+04  0.7818609E-02  0.9204432E-01
        2   -1    0    0  501    0  0.00000000000E+00  0.00000000000E+00  0.79990802830E+03  0.79990802830E+03  0.25500000920E-02 0. -1.
       -2   -1    0    0    0  501  0.00000000000E+00  0.00000000000E+00 -0.37870504115E+03  0.37870504116E+03  0.25500000920E-02 0.  1.
    10030    2    1    2    0    0  0.00000000000E+00  0.00000000000E+00  0.42120298715E+03  0.11786130695E+04  0.11007800921E+04 0.  0.
        5    1    3    3  502    0  0.46327937188E+03 -0.29653380165E+03  0.23054773100E+03  0.59643475603E+03  0.46999998093E+01 0. -1.
       -5    1    3    3    0  502 -0.46327937188E+03  0.29653380165E+03  0.19065525615E+03  0.58217831343E+03  0.46999998093E+01 0.  1.
</event>
<event>
 5   0  0.6010125E-05  0.1096761E+04  0.7818609E-02  0.9208355E-01
        3   -1    0    0  501    0  0.00000000000E+00  0.00000000000E+00  0.13944938056E+03  0.13944941713E+03  0.10100000352E+00 0. -1.
       -3   -1    0    0    0  501  0.00000000000E+00  0.00000000000E+00 -0.21564885561E+04  0.21564885584E+04  0.10100000352E+00 0.  1.
    10030    2    1    2    0    0  0.00000000000E+00  0.00000000000E+00 -0.20170391755E+04  0.22959379756E+04  0.10967607543E+04 0.  0.
        2    1    3    3  502    0 -0.10308923327E+03 -0.35690718738E+03 -0.18529358405E+04  0.18898098739E+04  0.25500000920E-02 0.  1.
       -2    1    3    3    0  502  0.10308923327E+03  0.35690718738E+03 -0.16410333504E+03  0.40612810171E+03  0.25500000920E-02 0. -1.
</event>
<event>
 5   0  0.1553937E-04  0.1099394E+04  0.7818609E-02  0.9205783E-01
        2   -1    0    0  501    0  0.00000000000E+00  0.00000000000E+00  0.73441837458E+03  0.73441837459E+03  0.25500000920E-02 0.  1.
       -2   -1    0    0    0  501  0.00000000000E+00  0.00000000000E+00 -0.41143663312E+03  0.41143663313E+03  0.25500000920E-02 0. -1.
    10030    2    1    2    0    0  0.00000000000E+00  0.00000000000E+00  0.32298174147E+03  0.11458550077E+04  0.10993936935E+04 0.  0.
        1    1    3    3  502    0 -0.45891479608E+03 -0.69595836754E+00  0.47687312998E+03  0.66182418855E+03  0.50400001928E-02 0.  1.
       -1    1    3    3    0  502  0.45891479608E+03  0.69595836754E+00 -0.15389138852E+03  0.48403081917E+03  0.50400001928E-02 0. -1.
</event>
<event>
 5   0  0.1464205E-04  0.1098668E+04  0.7818609E-02  0.9206491E-01
        2   -1    0    0  501    0  0.00000000000E+00  0.00000000000E+00  0.14779864879E+04  0.14779864879E+04  0.25500000920E-02 0.  1.
       -2   -1    0    0    0  501  0.00000000000E+00  0.00000000000E+00 -0.20417498076E+03  0.20417498077E+03  0.25500000920E-02 0. -1.
    10030    2    1    2    0    0  0.00000000000E+00  0.00000000000E+00  0.12738115071E+04  0.16821614687E+04  0.10986680349E+04 0.  0.
        3    1    3    3  502    0  0.41040011928E+03  0.60381205709E+02  0.11882979806E+04  0.12586207725E+04  0.10100000352E+00 0.  1.
       -3    1    3    3    0  502 -0.41040011928E+03 -0.60381205709E+02  0.85513526477E+02  0.42354069618E+03  0.10100000352E+00 0. -1.
</event>
<event>
 5   0  0.9016738E-05  0.1099908E+04  0.7818609E-02  0.9205281E-01
       -1   -1    0    0    0  501  0.00000000000E+00  0.00000000000E+00  0.13532125254E+03  0.13532125264E+03  0.50400001928E-02 0. -1.
        1   -1    0    0  501    0  0.00000000000E+00  0.00000000000E+00 -0.22350492098E+04  0.22350492098E+04  0.50400001928E-02 0.  1.
    10030    2    1    2    0    0  0.00000000000E+00  0.00000000000E+00 -0.20997279573E+04  0.23703704625E+04  0.10999084665E+04 0.  0.
        4    1    3    3  502    0  0.38358627197E+02 -0.15522278402E+03  0.84121449239E+02  0.18067520051E+03  0.12699999809E+01 0. -1.
       -4    1    3    3    0  502 -0.38358627197E+02  0.15522278402E+03 -0.21838494065E+04  0.21896952620E+04  0.12699999809E+01 0.  1.
</event>
<event>
 5   0  0.6010125E-05  0.1096820E+04  0.7818609E-02  0.9208297E-01
        4   -1    0    0  501    0  0.00000000000E+00  0.00000000000E+00  0.42378506672E+03  0.42378696969E+03  0.12699999809E+01 0. -1.
       -4   -1    0    0    0  501  0.00000000000E+00  0.00000000000E+00 -0.70968035413E+03  0.70968149048E+03  0.12699999809E+01 0.  1.
    10030    2    1    2    0    0  0.00000000000E+00  0.00000000000E+00 -0.28589528740E+03  0.11334684602E+04  0.10968202382E+04 0.  0.
        1    1    3    3  502    0  0.53055056940E+03 -0.11474021455E+03 -0.62206159689E+02  0.54636876727E+03  0.50400001928E-02 0. -1.
       -1    1    3    3    0  502 -0.53055056940E+03  0.11474021455E+03 -0.22368912771E+03  0.58709969290E+03  0.50400001928E-02 0.  1.
</event>
<event>
 5   0  0.1553937E-04  0.1100591E+04  0.7818609E-02  0.9204616E-01
        2   -1    0    0  501    0  0.00000000000E+00  0.00000000000E+00  0.24597058871E+04  0.24597058871E+04  0.25500000920E-02 0. -1.
       -2   -1    0    0    0  501  0.00000000000E+00  0.00000000000E+00 -0.12311438673E+03  0.12311438676E+03  0.25500000920E-02 0.  1.
    10030    2    1    2    0    0  0.00000000000E+00  0.00000000000E+00  0.23365915003E+04  0.25828202738E+04  0.11005910809E+04 0.  0.
        1    1    3    3  502    0 -0.38282029640E+03 -0.17814021812E+03  0.34012022201E+03  0.54218731274E+03  0.50400001928E-02 0.  1.
       -1    1    3    3    0  502  0.38282029640E+03  0.17814021812E+03  0.19964712783E+04  0.20406329611E+04  0.50400001928E-02 0. -1.
</event>
<event>
 5   0  0.1464205E-04  0.1098687E+04  0.7818609E-02  0.9206472E-01
       -2   -1    0    0    0  501  0.00000000000E+00  0.00000000000E+00  0.20976998568E+03  0.20976998570E+03  0.25500000920E-02 0. -1.
        2   -1    0    0  501    0  0.00000000000E+00  0.00000000000E+00 -0.14386156994E+04  0.14386156994E+04  0.25500000920E-02 0.  1.
    10030    2    1    2    0    0  0.00000000000E+00  0.00000000000E+00 -0.12288457137E+04  0.16483856851E+04  0.10986872070E+04 0.  0.
        3    1    3    3  502    0 -0.16913202977E+03 -0.69793594876E+02 -0.13915577231E+04  0.14035347150E+04  0.10100000352E+00 0.  1.
       -3    1    3    3    0  502  0.16913202977E+03  0.69793594876E+02  0.16271200934E+03  0.24485097011E+03  0.10100000352E+00 0. -1.
</event>
<event>
 5   0  0.9346836E-05  0.1102471E+04  0.7818609E-02  0.9202787E-01
       -1   -1    0    0    0  501  0.00000000000E+00  0.00000000000E+00  0.73676562671E+03  0.73676562673E+03  0.50400001928E-02 0. -1.
        1   -1    0    0  501    0  0.00000000000E+00  0.00000000000E+00 -0.41242490501E+03  0.41242490505E+03  0.50400001928E-02 0.  1.
    10030    2    1    2    0    0  0.00000000000E+00  0.00000000000E+00  0.32434072170E+03  0.11491905318E+04  0.11024708498E+04 0.  0.
        5    1    3    3  502    0  0.13825913264E+03  0.20621606203E+03  0.67516163458E+03  0.71937888127E+03  0.46999998093E+01 0. -1.
       -5    1    3    3    0  502 -0.13825913264E+03 -0.20621606203E+03 -0.35082091289E+03  0.42981165051E+03  0.46999998093E+01 0.  1.
</event>
<event>
 5   0  0.1464205E-04  0.1099639E+04  0.7818609E-02  0.9205543E-01
        2   -1    0    0  501    0  0.00000000000E+00  0.00000000000E+00  0.10593721647E+04  0.10593721647E+04  0.25500000920E-02 0.  1.
       -2   -1    0    0    0  501  0.00000000000E+00  0.00000000000E+00 -0.28535934074E+03  0.28535934075E+03  0.25500000920E-02 0. -1.
    10030    2    1    2    0    0  0.00000000000E+00  0.00000000000E+00  0.77401282393E+03  0.13447315054E+04  0.10996394728E+04 0.  0.
        3    1    3    3  502    0 -0.18550155165E+03  0.29737846956E+03 -0.13103610317E+03  0.37418611727E+03  0.10100000352E+00 0. -1.
       -3    1    3    3    0  502  0.18550155165E+03 -0.29737846956E+03  0.90504892710E+03  0.97054538816E+03  0.10100000352E+00 0.  1.
</event>
<event>
 5   0  0.8621738E-05  0.1099552E+04  0.7818609E-02  0.9205629E-01
        1   -1    0    0  501    0  0.00000000000E+00  0.00000000000E+00  0.32154648497E+03  0.32154648501E+03  0.50400001928E-02 0. -1.
       -1   -1    0    0    0  501  0.00000000000E+00  0.00000000000E+00 -0.93999907889E+03  0.93999907890E+03  0.50400001928E-02 0.  1.
    10030    2    1    2    0    0  0.00000000000E+00  0.00000000000E+00 -0.61845259392E+03  0.12615455639E+04  0.10995515444E+04 0.  0.
        2    1    3    3  502    0 -0.28301976616E+03  0.12438062670E+03 -0.83082845671E+03  0.88647992240E+03  0.25500000920E-02 0.  1.
       -2    1    3    3    0  502  0.28301976616E+03 -0.12438062670E+03  0.21237586279E+03  0.37506564151E+03  0.25500000920E-02 0. -1.
</event>
<event>
 5   0  0.9016738E-05  0.1100072E+04  0.7818609E-02  0.9205122E-01
       -1   -1    0    0    0  501  0.00000000000E+00  0.00000000000E+00  0.34699817320E+03  0.34699817323E+03  0.50400001928E-02 0.  1.
        1   -1    0    0  501    0  0.00000000000E+00  0.00000000000E+00 -0.87187649031E+03  0.87187649033E+03  0.50400001928E-02 0. -1.
    10030    2    1    2    0    0  0.00000000000E+00  0.00000000000E+00 -0.52487831712E+03  0.12188746636E+04  0.11000719057E+04 0.  0.
        4    1    3    3  502    0 -0.54688916835E+03  0.87763340156E+01 -0.32679023337E+03  0.63714853529E+03  0.12699999809E+01 0. -1.
       -4    1    3    3    0  502  0.54688916835E+03 -0.87763340156E+01 -0.19808808375E+03  0.58172612827E+03  0.12699999809E+01 0.  1.
</event>
<event>
 5   0  0.1464205E-04  0.1099923E+04  0.7818609E-02  0.9205267E-01
       -2   -1    0    0    0  501  0.00000000000E+00  0.00000000000E+00  0.45992643800E+03  0.45992643801E+03  0.25500000920E-02 0. -1.
        2   -1    0    0  501    0  0.00000000000E+00  0.00000000000E+00 -0.65762227959E+03  0.65762227959E+03  0.25500000920E-02 0.  1.
    10030    2    1    2    0    0  0.00000000000E+00  0.00000000000E+00 -0.19769584158E+03  0.11175487176E+04  0.10999234021E+04 0.  0.
        3    1    3    3  502    0  0.16782941133E+02 -0.43556973439E+03 -0.43956491588E+03  0.61904764445E+03  0.10100000352E+00 0.  1.
       -3    1    3    3    0  502 -0.16782941133E+02  0.43556973439E+03  0.24186907429E+03  0.49850107315E+03  0.10100000352E+00 0. -1.
</event>
<event>
 5   0  0.8921459E-05  0.1099751E+04  0.7818609E-02  0.9205435E-01
       -1   -1    0    0    0  501  0.00000000000E+00  0.00000000000E+00  0.24424729000E+03  0.24424729005E+03  0.50400001928E-02 0. -1.
        1   -1    0    0  501    0  0.00000000000E+00  0.00000000000E+00 -0.12379381692E+04  0.12379381692E+04  0.50400001928E-02 0.  1.
    10030    2    1    2    0    0  0.00000000000E+00  0.00000000000E+00 -0.99369087921E+03  0.14821854593E+04  0.10997509592E+04 0.  0.
        3    1    3    3  502    0 -0.30082894061E+03 -0.45940478575E+03 -0.53525560333E+03  0.76684377794E+03  0.10100000352E+00 0. -1.
       -3    1    3    3    0  502  0.30082894061E+03  0.45940478575E+03 -0.45843527588E+03  0.71534168133E+03  0.10100000352E+00 0.  1.
</event>
<event>
 5   0  0.8657442E-05  0.1097869E+04  0.7818609E-02  0.9207272E-01
        1   -1    0    0  501    0  0.00000000000E+00  0.00000000000E+00  0.11016075503E+04  0.11016075503E+04  0.50400001928E-02 0.  1.
       -1   -1    0    0    0  501  0.00000000000E+00  0.00000000000E+00 -0.27353567248E+03  0.27353567252E+03  0.50400001928E-02 0. -1.
    10030    2    1    2    0    0  0.00000000000E+00  0.00000000000E+00  0.82807187781E+03  0.13751432228E+04  0.10978687756E+04 0.  0.
        1    1    3    3  502    0 -0.54684276636E+03  0.47863706099E+02  0.41277302248E+03  0.68681111930E+03  0.50400001928E-02 0. -1.
       -1    1    3    3    0  502  0.54684276636E+03 -0.47863706099E+02  0.41529885533E+03  0.68833210353E+03  0.50400001928E-02 0.  1.
</event>
<event>
 5   0  0.9016738E-05  0.1100069E+04  0.7818609E-02  0.9205124E-01
        1   -1    0    0  501    0  0.00000000000E+00  0.00000000000E+00  0.15199715608E+04  0.15199715608E+04  0.50400001928E-02 0. -1.
       -1   -1    0    0    0  501  0.00000000000E+00  0.00000000000E+00 -0.19904198938E+03  0.19904198945E+03  0.50400001928E-02 0.  1.
    10030    2    1    2    0    0  0.00000000000E+00  0.00000000000E+00  0.13209295714E+04  0.17190135502E+04  0.11000693857E+04 0.  0.
        4    1    3    3  502    0 -0.37263969351E+03  0.26146189644E+03  0.11428981213E+04  0.12302196524E+04  0.12699999809E+01 0. -1.
       -4    1    3    3    0  502  0.37263969351E+03 -0.26146189644E+03  0.17803145007E+03  0.48879389786E+03  0.12699999809E+01 0.  1.
</event>
<event>
 5   0  0.1540772E-04  0.1100230E+04  0.7818609E-02  0.9204968E-01
        2   -1    0    0  501    0  0.00000000000E+00  0.00000000000E+00  0.12565211719E+04  0.12565211719E+04  0.25500000920E-02 0.  1.
       -2   -1    0    0    0  501  0.00000000000E+00  0.00000000000E+00 -0.24084470236E+03  0.24084470237E+03  0.25500000920E-02 0. -1.
    10030    2    1    2    0    0  0.00000000000E+00  0.00000000000E+00  0.10156764695E+04  0.14973658743E+04  0.11002299172E+04 0.  0.
        2    1    3    3  502    0 -0.48046001075E+03 -0.24894487902E+03  0.64264235794E+03  0.84012176197E+03  0.25500000920E-02 0. -1.
       -2    1    3    3    0  502  0.48046001075E+03  0.24894487902E+03  0.37303411158E+03  0.65724411228E+03  0.25500000920E-02 0.  1.
</event>
<event>
 5   0  0.1540772E-04  0.1105204E+04  0.7818609E-02  0.9200135E-01
        2   -1    0    0  501    0  0.00000000000E+00  0.00000000000E+00  0.89027345068E+03  0.89027345069E+03  0.25500000920E-02 0. -1.
       -2   -1    0    0    0  501  0.00000000000E+00  0.00000000000E+00 -0.34300579536E+03  0.34300579537E+03  0.25500000920E-02 0.  1.
    10030    2    1    2    0    0  0.00000000000E+00  0.00000000000E+00  0.54726765533E+03  0.12332792461E+04  0.11052039686E+04 0.  0.
        2    1    3    3  502    0 -0.93230225482E+02  0.25568043115E+03 -0.26304086692E+03  0.37849023170E+03  0.25500000920E-02 0.  1.
       -2    1    3    3    0  502  0.93230225482E+02 -0.25568043115E+03  0.81030852225E+03  0.85478901435E+03  0.25500000920E-02 0. -1.
</event>
<event>
 5   0  0.1540772E-04  0.1099725E+04  0.7818609E-02  0.9205460E-01
       -2   -1    0    0    0  501  0.00000000000E+00  0.00000000000E+00  0.35882009939E+03  0.35882009940E+03  0.25500000920E-02 0.  1.
        2   -1    0    0  501    0  0.00000000000E+00  0.00000000000E+00 -0.84261970800E+03  0.84261970800E+03  0.25500000920E-02 0. -1.
    10030    2    1    2    0    0  0.00000000000E+00  0.00000000000E+00 -0.48379960861E+03  0.12014398074E+04  0.10997252155E+04 0.  0.
        2    1    3    3  502    0  0.55890874611E+01  0.33442789855E+03  0.23490161973E+03  0.40871998750E+03  0.25500000920E-02 0.  1.
       -2    1    3    3    0  502 -0.55890874611E+01 -0.33442789855E+03 -0.71870122834E+03  0.79271981990E+03  0.25500000920E-02 0. -1.
</event>
<event>
 5   0  0.6010125E-05  0.1099900E+04  0.7818609E-02  0.9205289E-01
       -4   -1    0    0    0  501  0.00000000000E+00  0.00000000000E+00  0.41165213619E+03  0.41165409524E+03  0.12699999809E+01 0.  1.
        4   -1    0    0  501    0  0.00000000000E+00  0.00000000000E+00 -0.73470643611E+03  0.73470753375E+03  0.12699999809E+01 0. -1.
    10030    2    1    2    0    0  0.00000000000E+00  0.00000000000E+00 -0.32305429992E+03  0.11463616290E+04  0.10999004063E+04 0.  0.
        3    1    3    3  502    0  0.51227260265E+03 -0.10235657962E+02  0.46705326278E+02  0.51449916018E+03  0.10100000352E+00 0.  1.
       -3    1    3    3    0  502 -0.51227260265E+03  0.10235657962E+02 -0.36975962620E+03  0.63186246881E+03  0.10100000352E+00 0. -1.
</event>
<event>
 5   0  0.9016738E-05  0.1099842E+04  0.7818609E-02  0.9205346E-01
        1   -1    0    0  501    0  0.00000000000E+00  0.00000000000E+00  0.84441994674E+03  0.84441994675E+03  0.50400001928E-02 0.  1.
       -1   -1    0    0    0  501  0.00000000000E+00  0.00000000000E+00 -0.35813140925E+03  0.35813140928E+03  0.50400001928E-02 0. -1.
    10030    2    1    2    0    0  0.00000000000E+00  0.00000000000E+00  0.48628853749E+03  0.12025513560E+04  0.10998423624E+04 0.  0.
        4    1    3    3  502    0 -0.22438551039E+03  0.31026546722E+03  0.67471737391E+03  0.77579550462E+03  0.12699999809E+01 0.  1.
       -4    1    3    3    0  502  0.22438551039E+03 -0.31026546722E+03 -0.18842883642E+03  0.42675585142E+03  0.12699999809E+01 0. -1.
</event>
<event>
 5   0  0.8921459E-05  0.1100910E+04  0.7818609E-02  0.9204305E-01
        1   -1    0    0  501    0  0.00000000000E+00  0.00000000000E+00  0.37038809419E+03  0.37038809423E+03  0.50400001928E-02 0.  1.
       -1   -1    0    0    0  501  0.00000000000E+00  0.00000000000E+00 -0.81806291301E+03  0.81806291302E+03  0.50400001928E-02 0. -1.
    10030    2    1    2    0    0  0.00000000000E+00  0.00000000000E+00 -0.44767481882E+03  0.11884510073E+04  0.11009101023E+04 0.  0.
        3    1    3    3  502    0  0.51158981310E+03 -0.96803230913E+02 -0.31012156337E+02  0.52159061190E+03  0.10100000352E+00 0.  1.
       -3    1    3    3    0  502 -0.51158981310E+03  0.96803230913E+02 -0.41666266248E+03  0.66686039535E+03  0.10100000352E+00 0. -1.
</event>
<event>
 5   0  0.1503277E-04  0.1099926E+04  0.7818609E-02  0.9205264E-01
       -2   -1    0    0    0  501  0.00000000000E+00  0.00000000000E+00  0.29956013840E+03  0.29956013841E+03  0.25500000920E-02 0.  1.
        2   -1    0    0  501    0  0.00000000000E+00  0.00000000000E+00 -0.10096774405E+04  0.10096774405E+04  0.25500000920E-02 0. -1.
    10030    2    1    2    0    0  0.00000000000E+00  0.00000000000E+00 -0.71011730213E+03  0.13092375789E+04  0.10999256590E+04 0.  0.
        5    1    3    3  502    0  0.30376905402E+03 -0.19708298916E+02  0.19010876542E+03  0.35892546289E+03  0.46999998093E+01 0.  1.
       -5    1    3    3    0  502 -0.30376905402E+03  0.19708298916E+02 -0.90022606755E+03  0.95031211605E+03  0.46999998093E+01 0. -1.
</event>
<event>
 5   0  0.8621738E-05  0.1100490E+04  0.7818609E-02  0.9204714E-01
       -1   -1    0    0    0  501  0.00000000000E+00  0.00000000000E+00  0.77104213323E+03  0.77104213325E+03  0.50400001928E-02 0. -1.
        1   -1    0    0  501    0  0.00000000000E+00  0.00000000000E+00 -0.39267571645E+03  0.39267571649E+03  0.50400001928E-02 0.  1.
    10030    2    1    2    0    0  0.00000000000E+00  0.00000000000E+00  0.37836641678E+03  0.11637178497E+04  0.11004899311E+04 0.  0.
        2    1    3    3  502    0  0.36489848169E+03  0.41082007612E+03  0.15843536694E+03  0.57186169865E+03  0.25500000920E-02 0.  1.
       -2    1    3    3    0  502 -0.36489848169E+03 -0.41082007612E+03  0.21993104984E+03  0.59185615108E+03  0.25500000920E-02 0. -1.
</event>
<event>
 5   0  0.1503277E-04  0.1099976E+04  0.7818609E-02  0.9205215E-01
       -2   -1    0    0    0  501  0.00000000000E+00  0.00000000000E+00  0.24182810179E+03  0.24182810181E+03  0.25500000920E-02 0.  1.
        2   -1    0    0  501    0  0.00000000000E+00  0.00000000000E+00 -0.12508335203E+04  0.12508335203E+04  0.25500000920E-02 0. -1.
    10030    2    1    2    0    0  0.00000000000E+00  0.00000000000E+00 -0.10090054185E+04  0.14926616221E+04  0.10999758104E+04 0.  0.
        5    1    3    3  502    0 -0.34370009707E+03  0.24734171245E+03 -0.98072273379E+03  0.10682447519E+04  0.46999998093E+01 0. -1.
       -5    1    3    3    0  502  0.34370009707E+03 -0.24734171245E+03 -0.28282684714E+02  0.42441687018E+03  0.46999998093E+01 0.  1.
</event>
<event>
 5   0  0.9016738E-05  0.1099505E+04  0.7818609E-02  0.9205674E-01
       -1   -1    0    0    0  501  0.00000000000E+00  0.00000000000E+00  0.31447003698E+03  0.31447003702E+03  0.50400001928E-02 0. -1.
        1   -1    0    0  501    0  0.00000000000E+00  0.00000000000E+00 -0.96107087641E+03  0.96107087643E+03  0.50400001928E-02 0.  1.
    10030    2    1    2    0    0  0.00000000000E+00  0.00000000000E+00 -0.64660083943E+03  0.12755409134E+04  0.10995053326E+04 0.  0.
        4    1    3    3  502    0 -0.31821257173E+03  0.40702019142E+03 -0.54126949854E+03  0.74826396411E+03  0.12699999809E+01 0. -1.
       -4    1    3    3    0  502  0.31821257173E+03 -0.40702019142E+03 -0.10533134089E+03  0.52727694934E+03  0.12699999809E+01 0.  1.
</event>
<event>
 5   0  0.9346836E-05  0.1100459E+04  0.7818609E-02  0.9204745E-01
        1   -1    0    0  501    0  0.00000000000E+00  0.00000000000E+00  0.16516968411E+04  0.16516968411E+04  0.50400001928E-02 0.  1.
       -1   -1    0    0    0  501  0.00000000000E+00  0.00000000000E+00 -0.18329773878E+03  0.18329773885E+03  0.50400001928E-02 0. -1.
    10030    2    1    2    0    0  0.00000000000E+00  0.00000000000E+00  0.14683991023E+04  0.18349945800E+04  0.11004586248E+04 0.  0.
        5    1    3    3  502    0 -0.14564426069E+03  0.45788511005E+03  0.11811940728E+04  0.12751911826E+04  0.46999998093E+01 0.  1.
       -5    1    3    3    0  502  0.14564426069E+03 -0.45788511005E+03  0.28720502954E+03  0.55980339734E+03  0.46999998093E+01 0. -1.
</event>
<event>
 5   0  0.8921459E-05  0.1099228E+04  0.7818609E-02  0.9205945E-01
       -1   -1    0    0    0  501  0.00000000000E+00  0.00000000000E+00  0.79561587096E+03  0.79561587097E+03  0.50400001928E-02 0. -1.
        1   -1    0    0  501    0  0.00000000000E+00  0.00000000000E+00 -0.37967493812E+03  0.37967493815E+03  0.50400001928E-02 0.  1.
    10030    2    1    2    0    0  0.00000000000E+00  0.00000000000E+00  0.41594093284E+03  0.11752908091E+04  0.10992277409E+04 0.  0.
        3    1    3    3  502    0 -0.11582944088E+03  0.27043709072E+03  0.70433893627E+03  0.76331253544E+03  0.10100000352E+00 0. -1.
       -3    1    3    3    0  502  0.11582944088E+03 -0.27043709072E+03 -0.28839800343E+03  0.41197827369E+03  0.10100000352E+00 0.  1.
</event>
<event>
 5   0  0.8657442E-05  0.1101456E+04  0.7818609E-02  0.9203774E-01
       -1   -1    0    0    0  501  0.00000000000E+00  0.00000000000E+00  0.48062825971E+03  0.48062825974E+03  0.50400001928E-02 0.  1.
        1   -1    0    0  501    0  0.00000000000E+00  0.00000000000E+00 -0.63105217960E+03  0.63105217962E+03  0.50400001928E-02 0. -1.
    10030    2    1    2    0    0  0.00000000000E+00  0.00000000000E+00 -0.15042391988E+03  0.11116804394E+04  0.11014563285E+04 0.  0.
        1    1    3    3  502    0 -0.10636838700E+03 -0.35949949129E+03 -0.48237626873E+03  0.61093451584E+03  0.50400001928E-02 0. -1.
       -1    1    3    3    0  502  0.10636838700E+03  0.35949949129E+03  0.33195234884E+03  0.50074592352E+03  0.50400001928E-02 0.  1.
</event>
<event>
 5   0  0.1574101E-04  0.1100115E+04  0.7818609E-02  0.9205080E-01
       -2   -1    0    0    0  501  0.00000000000E+00  0.00000000000E+00  0.19096242876E+03  0.19096242877E+03  0.25500000920E-02 0.  1.
        2   -1    0    0  501    0  0.00000000000E+00  0.00000000000E+00 -0.15844111961E+04  0.15844111961E+04  0.25500000920E-02 0. -1.
    10030    2    1    2    0    0  0.00000000000E+00  0.00000000000E+00 -0.13934487673E+04  0.17753736249E+04  0.11001145580E+04 0.  0.
        4    1    3    3  502    0  0.45692103294E+03  0.30468344031E+03 -0.74653247223E+03  0.92678000310E+03  0.12699999809E+01 0. -1.
       -4    1    3    3    0  502 -0.45692103294E+03 -0.30468344031E+03 -0.64691629512E+03  0.84859362178E+03  0.12699999809E+01 0.  1.
</event>
<event>
 5   0  0.1540772E-04  0.1101855E+04  0.7818609E-02  0.9203385E-01
        2   -1    0    0  501    0  0.00000000000E+00  0.00000000000E+00  0.13380723582E+04  0.13380723582E+04  0.25500000920E-02 0.  1.
       -2   -1    0    0    0  501  0.00000000000E+00  0.00000000000E+00 -0.22683475200E+03  0.22683475201E+03  0.25500000920E-02 0. -1.
    10030    2    1    2    0    0  0.00000000000E+00  0.00000000000E+00  0.11112376062E+04  0.15649071102E+04  0.11018553653E+04 0.  0.
        2    1    3    3  502    0  0.24580534278E+03 -0.45943378762E+03  0.30147135289E+03  0.60198392700E+03  0.25500000920E-02 0.  1.
       -2    1    3    3    0  502 -0.24580534278E+03  0.45943378762E+03  0.80976625327E+03  0.96292318317E+03  0.25500000920E-02 0. -1.
</event>
<event>
 5   0  0.8921459E-05  0.1099584E+04  0.7818609E-02  0.9205597E-01
        1   -1    0    0  501    0  0.00000000000E+00  0.00000000000E+00  0.42531512107E+03  0.42531512110E+03  0.50400001928E-02 0. -1.
       -1   -1    0    0    0  501  0.00000000000E+00  0.00000000000E+00 -0.71069981723E+03  0.71069981725E+03  0.50400001928E-02 0.  1.
    10030    2    1    2    0    0  0.00000000000E+00  0.00000000000E+00 -0.28538469616E+03  0.11360149383E+04  0.10995842466E+04 0.  0.
        3    1    3    3  502    0 -0.53796420841E+02 -0.48659138482E+03  0.11580970103E+03  0.50306771685E+03  0.10100000352E+00 0. -1.
       -3    1    3    3    0  502  0.53796420841E+02  0.48659138482E+03 -0.40119439718E+03  0.63294722150E+03  0.10100000352E+00 0.  1.
</event>
<event>
 5   0  0.1464205E-04  0.1099673E+04  0.7818609E-02  0.9205510E-01
        2   -1    0    0  501    0  0.00000000000E+00  0.00000000000E+00  0.13495050601E+04  0.13495050601E+04  0.25500000920E-02 0.  1.
       -2   -1    0    0    0  501  0.00000000000E+00  0.00000000000E+00 -0.22402315695E+03  0.22402315696E+03  0.25500000920E-02 0. -1.
    10030    2    1    2    0    0  0.00000000000E+00  0.00000000000E+00  0.11254819031E+04  0.15735282170E+04  0.10996733768E+04 0.  0.
        3    1    3    3  502    0  0.15323592550E+03  0.19189943954E+03 -0.14119124084E+03  0.28326951910E+03  0.10100000352E+00 0. -1.
       -3    1    3    3    0  502 -0.15323592550E+03 -0.19189943954E+03  0.12666731440E+04  0.12902586979E+04  0.10100000352E+00 0.  1.
</event>
<event>
 5   0  0.8657442E-05  0.1099802E+04  0.7818609E-02  0.9205385E-01
        1   -1    0    0  501    0  0.00000000000E+00  0.00000000000E+00  0.12367368036E+04  0.12367368037E+04  0.50400001928E-02 0.  1.
       -1   -1    0    0    0  501  0.00000000000E+00  0.00000000000E+00 -0.24450720508E+03  0.24450720513E+03  0.50400001928E-02 0. -1.
    10030    2    1    2    0    0  0.00000000000E+00  0.00000000000E+00  0.99222959857E+03  0.14812440088E+04  0.10998019082E+04 0.  0.
        1    1    3    3  502    0 -0.98734386476E+02 -0.18898122458E+03 -0.18656716305E+03  0.28331905808E+03  0.50400001928E-02 0. -1.
       -1    1    3    3    0  502  0.98734386476E+02  0.18898122458E+03  0.11787967616E+04  0.11979249507E+04  0.50400001928E-02 0.  1.
</event>
<event>
 5   0  0.9016738E-05  0.1099911E+04  0.7818609E-02  0.9205279E-01
        1   -1    0    0  501    0  0.00000000000E+00  0.00000000000E+00  0.23084233716E+04  0.23084233716E+04  0.50400001928E-02 0.  1.
       -1   -1    0    0    0  501  0.00000000000E+00  0.00000000000E+00 -0.13102057239E+03  0.13102057249E+03  0.50400001928E-02 0. -1.
    10030    2    1    2    0    0  0.00000000000E+00  0.00000000000E+00  0.21774027992E+04  0.24394439441E+04  0.10999108175E+04 0.  0.
        4    1    3    3  502    0 -0.39541441910E+03  0.80481073037E+02  0.25998387661E+03  0.48002395247E+03  0.12699999809E+01 0. -1.
       -4    1    3    3    0  502  0.39541441910E+03 -0.80481073037E+02  0.19174189226E+04  0.19594199916E+04  0.12699999809E+01 0.  1.
</event>
<event>
 5   0  0.9346836E-05  0.1100085E+04  0.7818609E-02  0.9205109E-01
       -1   -1    0    0    0  501  0.00000000000E+00  0.00000000000E+00  0.65560832371E+03  0.65560832373E+03  0.50400001928E-02 0. -1.
        1   -1    0    0  501    0  0.00000000000E+00  0.00000000000E+00 -0.46147489521E+03  0.46147489523E+03  0.50400001928E-02 0.  1.
    10030    2    1    2    0    0  0.00000000000E+00  0.00000000000E+00  0.19413342850E+03  0.11170832190E+04  0.11000850558E+04 0.  0.
        5    1    3    3  502    0  0.59931678443E+02 -0.32078804032E+03 -0.35252492695E+03  0.48040887483E+03  0.46999998093E+01 0.  1.
       -5    1    3    3    0  502 -0.59931678443E+02  0.32078804032E+03  0.54665835545E+03  0.63667434413E+03  0.46999998093E+01 0. -1.
</event>
<event>
 5   0  0.1464205E-04  0.1100515E+04  0.7818609E-02  0.9204690E-01
        2   -1    0    0  501    0  0.00000000000E+00  0.00000000000E+00  0.13854303004E+04  0.13854303004E+04  0.25500000920E-02 0. -1.
       -2   -1    0    0    0  501  0.00000000000E+00  0.00000000000E+00 -0.21854820271E+03  0.21854820272E+03  0.25500000920E-02 0.  1.
    10030    2    1    2    0    0  0.00000000000E+00  0.00000000000E+00  0.11668820977E+04  0.16039785031E+04  0.11005149743E+04 0.  0.
        3    1    3    3  502    0 -0.15438089372E+03  0.28111960217E+03  0.12351181301E+04  0.12760793458E+04  0.10100000352E+00 0. -1.
       -3    1    3    3    0  502  0.15438089372E+03 -0.28111960217E+03 -0.68236032454E+02  0.32789915736E+03  0.10100000352E+00 0.  1.
</event>
<event>
 5   0  0.9016738E-05  0.1099177E+04  0.7818609E-02  0.9205994E-01
       -1   -1    0    0    0  501  0.00000000000E+00  0.00000000000E+00  0.34517771891E+03  0.34517771895E+03  0.50400001928E-02 0.  1.
        1   -1    0    0  501    0  0.00000000000E+00  0.00000000000E+00 -0.87504982540E+03  0.87504982541E+03  0.50400001928E-02 0. -1.
    10030    2    1    2    0    0  0.00000000000E+00  0.00000000000E+00 -0.52987210648E+03  0.12202275444E+04  0.10991773336E+04 0.  0.
        4    1    3    3  502    0 -0.49266727522E+03 -0.24297260540E+03 -0.24605216718E+03  0.60191362580E+03  0.12699999809E+01 0.  1.
       -4    1    3    3    0  502  0.49266727522E+03  0.24297260540E+03 -0.28381993930E+03  0.61831391856E+03  0.12699999809E+01 0. -1.
</event>
<event>
 5   0  0.1553937E-04  0.1100416E+04  0.7818609E-02  0.9204787E-01
        2   -1    0    0  501    0  0.00000000000E+00  0.00000000000E+00  0.16348913720E+04  0.16348913720E+04  0.25500000920E-02 0.  1.
       -2   -1    0    0    0  501  0.00000000000E+00  0.00000000000E+00 -0.18516743263E+03  0.18516743265E+03  0.25500000920E-02 0. -1.
    10030    2    1    2    0    0  0.00000000000E+00  0.00000000000E+00  0.14497239394E+04  0.18200588046E+04  0.11004156269E+04 0.  0.
        1    1    3    3  502    0  0.50686651137E+03  0.64128088902E+02  0.38710053623E+03  0.64099367962E+03  0.50400001928E-02 0. -1.
       -1    1    3    3    0  502 -0.50686651137E+03 -0.64128088902E+02  0.10626234031E+04  0.11790651250E+04  0.50400001928E-02 0.  1.
</event>
<event>
 5   0  0.9016738E-05  0.1100107E+04  0.7818609E-02  0.9205088E-01
        1   -1    0    0  501    0  0.00000000000E+00  0.00000000000E+00  0.17155196853E+04  0.17155196853E+04  0.50400001928E-02 0.  1.
       -1   -1    0    0    0  501  0.00000000000E+00  0.00000000000E+00 -0.17636561004E+03  0.17636561011E+03  0.50400001928E-02 0. -1.
    10030    2    1    2    0    0  0.00000000000E+00  0.00000000000E+00  0.15391540753E+04  0.18918852954E+04  0.11001066783E+04 0.  0.
        4    1    3    3  502    0 -0.54999761777E+03  0.20313600575E+01  0.75675876382E+03  0.93551426793E+03  0.12699999809E+01 0. -1.
       -4    1    3    3    0  502  0.54999761777E+03 -0.20313600575E+01  0.78239531144E+03  0.95637102750E+03  0.12699999809E+01 0.  1.
</event>
<event>
 5   0  0.9346836E-05  0.1100178E+04  0.7818609E-02  0.9205018E-01
       -1   -1    0    0    0  501  0.00000000000E+00  0.00000000000E+00  0.42449350593E+03  0.42449350596E+03  0.50400001928E-02 0. -1.
        1   -1    0    0  501    0  0.00000000000E+00  0.00000000000E+00 -0.71284483821E+03  0.71284483823E+03  0.50400001928E-02 0.  1.
    10030    2    1    2    0    0  0.00000000000E+00  0.00000000000E+00 -0.28835133228E+03  0.11373383442E+04  0.11001781757E+04 0.  0.
        5    1    3    3  502    0  0.27748028049E+03  0.22379901838E+03  0.28889477687E+03  0.45887208326E+03  0.46999998093E+01 0. -1.
       -5    1    3    3    0  502 -0.27748028049E+03 -0.22379901838E+03 -0.57724610915E+03  0.67846626093E+03  0.46999998093E+01 0.  1.
</event>
<event>
 5   0  0.6010125E-05  0.1100081E+04  0.7818609E-02  0.9205112E-01
        3   -1    0    0  501    0  0.00000000000E+00  0.00000000000E+00  0.37471093702E+03  0.37471095063E+03  0.10100000352E+00 0. -1.
       -3   -1    0    0    0  501  0.00000000000E+00  0.00000000000E+00 -0.80740853806E+03  0.80740854438E+03  0.10100000352E+00 0.  1.
    10030    2    1    2    0    0  0.00000000000E+00  0.00000000000E+00 -0.43269760104E+03  0.11821194950E+04  0.11000814909E+04 0.  0.
        3    1    3    3  502    0 -0.23541894217E+02  0.22560372121E+03  0.32211225946E+03  0.39396392945E+03  0.10100000352E+00 0. -1.
       -3    1    3    3    0  502  0.23541894217E+02 -0.22560372121E+03 -0.75480986050E+03  0.78815556556E+03  0.10100000352E+00 0.  1.
</event>
<event>
 5   0  0.8621738E-05  0.1100063E+04  0.7818609E-02  0.9205131E-01
        1   -1    0    0  501    0  0.00000000000E+00  0.00000000000E+00  0.40847994363E+03  0.40847994366E+03  0.50400001928E-02 0.  1.
       -1   -1    0    0    0  501  0.00000000000E+00  0.00000000000E+00 -0.74063491762E+03  0.74063491764E+03  0.50400001928E-02 0. -1.
    10030    2    1    2    0    0  0.00000000000E+00  0.00000000000E+00 -0.33215497399E+03  0.11491148613E+04  0.11000627426E+04 0.  0.
        2    1    3    3  502    0 -0.33006073484E+03  0.32330252942E+03 -0.47783107173E+03  0.66467070593E+03  0.25500000920E-02 0.  1.
       -2    1    3    3    0  502  0.33006073484E+03 -0.32330252942E+03  0.14567609774E+03  0.48444415537E+03  0.25500000920E-02 0. -1.
</event>
<event>
 5   0  0.8621738E-05  0.1100183E+04  0.7818609E-02  0.9205013E-01
       -1   -1    0    0    0  501  0.00000000000E+00  0.00000000000E+00  0.32293151259E+03  0.32293151263E+03  0.50400001928E-02 0.  1.
        1   -1    0    0  501    0  0.00000000000E+00  0.00000000000E+00 -0.93704346463E+03  0.93704346465E+03  0.50400001928E-02 0. -1.
    10030    2    1    2    0    0  0.00000000000E+00  0.00000000000E+00 -0.61411195204E+03  0.12599749773E+04  0.11001833728E+04 0.  0.
        2    1    3    3  502    0  0.32908849322E+03 -0.31225623633E+03 -0.66336702912E+03  0.80365353781E+03  0.25500000920E-02 0. -1.
       -2    1    3    3    0  502 -0.32908849322E+03  0.31225623633E+03  0.49255077080E+02  0.45632143947E+03  0.25500000920E-02 0.  1.
</event>
<event>
 5   0  0.6010125E-05  0.1099915E+04  0.7818609E-02  0.9205274E-01
        3   -1    0    0  501    0  0.00000000000E+00  0.00000000000E+00  0.75883010570E+03  0.75883011242E+03  0.10100000352E+00 0.  1.
       -3   -1    0    0    0  501  0.00000000000E+00  0.00000000000E+00 -0.39857856369E+03  0.39857857649E+03  0.10100000352E+00 0. -1.
    10030    2    1    2    0    0  0.00000000000E+00  0.00000000000E+00  0.36025154201E+03  0.11574086889E+04  0.10999153148E+04 0.  0.
        3    1    3    3  502    0 -0.52483410854E+03  0.28039968929E+02  0.97477910748E+01  0.52567300766E+03  0.10100000352E+00 0. -1.
       -3    1    3    3    0  502  0.52483410854E+03 -0.28039968929E+02  0.35050375093E+03  0.63173568125E+03  0.10100000352E+00 0.  1.
</event>
<event>
 5   0  0.9346836E-05  0.1099863E+04  0.7818609E-02  0.9205325E-01
        1   -1    0    0  501    0  0.00000000000E+00  0.00000000000E+00  0.47930565086E+03  0.47930565089E+03  0.50400001928E-02 0.  1.
       -1   -1    0    0    0  501  0.00000000000E+00  0.00000000000E+00 -0.63096399800E+03  0.63096399802E+03  0.50400001928E-02 0. -1.
    10030    2    1    2    0    0  0.00000000000E+00  0.00000000000E+00 -0.15165834714E+03  0.11102696489E+04  0.10998629183E+04 0.  0.
        5    1    3    3  502    0  0.47230141042E+03  0.25639247130E+03 -0.19353778397E+03  0.57121334494E+03  0.46999998093E+01 0. -1.
       -5    1    3    3    0  502 -0.47230141042E+03 -0.25639247130E+03  0.41879436826E+02  0.53905630397E+03  0.46999998093E+01 0.  1.
</event>
<event>
 5   0  0.1540772E-04  0.1100175E+04  0.7818609E-02  0.9205021E-01
       -2   -1    0    0    0  501  0.00000000000E+00  0.00000000000E+00  0.19017690256E+03  0.19017690258E+03  0.25500000920E-02 0.  1.
        2   -1    0    0  501    0  0.00000000000E+00  0.00000000000E+00 -0.15911309215E+04  0.15911309215E+04  0.25500000920E-02 0. -1.
    10030    2    1    2    0    0  0.00000000000E+00  0.00000000000E+00 -0.14009540189E+04  0.17813078240E+04  0.11001751683E+04 0.  0.
        2    1    3    3  502    0 -0.39387983778E+01 -0.32701085185E+03 -0.14166389279E+04  0.14538973359E+04  0.25500000920E-02 0. -1.
       -2    1    3    3    0  502  0.39387983778E+01  0.32701085185E+03  0.15684908987E+02  0.32741048813E+03  0.25500000920E-02 0.  1.
</event>
<event>
 5   0  0.9016738E-05  0.1099691E+04  0.7818609E-02  0.9205493E-01
        1   -1    0    0  501    0  0.00000000000E+00  0.00000000000E+00  0.37709531975E+03  0.37709531978E+03  0.50400001928E-02 0. -1.
       -1   -1    0    0    0  501  0.00000000000E+00  0.00000000000E+00 -0.80173412178E+03  0.80173412179E+03  0.50400001928E-02 0.  1.
    10030    2    1    2    0    0  0.00000000000E+00  0.00000000000E+00 -0.42463880203E+03  0.11788294416E+04  0.10996912022E+04 0.  0.
        4    1    3    3  502    0 -0.43577628134E+03  0.16166768410E+03 -0.52721267815E+03  0.70284580696E+03  0.12699999809E+01 0.  1.
       -4    1    3    3    0  502  0.43577628134E+03 -0.16166768410E+03  0.10257387612E+03  0.47598363462E+03  0.12699999809E+01 0. -1.
</event>
<event>
 5   0  0.8657442E-05  0.1100055E+04  0.7818609E-02  0.9205138E-01
       -1   -1    0    0    0  501  0.00000000000E+00  0.00000000000E+00  0.38108079949E+03  0.38108079952E+03  0.50400001928E-02 0.  1.
        1   -1    0    0  501    0  0.00000000000E+00  0.00000000000E+00 -0.79387434116E+03  0.79387434118E+03  0.50400001928E-02 0. -1.
    10030    2    1    2    0    0  0.00000000000E+00  0.00000000000E+00 -0.41279354167E+03  0.11749551407E+04  0.11000550325E+04 0.  0.
        1    1    3    3  502    0 -0.36641449530E+02 -0.48781520871E+03  0.62167256383E+02  0.49312375877E+03  0.50400001928E-02 0.  1.
       -1    1    3    3    0  502  0.36641449530E+02  0.48781520871E+03 -0.47496079806E+03  0.68183138193E+03  0.50400001928E-02 0. -1.
</event>
<event>
 5   0  0.8657442E-05  0.1099677E+04  0.7818609E-02  0.9205507E-01
        1   -1    0    0  501    0  0.00000000000E+00  0.00000000000E+00  0.77535079924E+03  0.77535079925E+03  0.50400001928E-02 0.  1.
       -1   -1    0    0    0  501  0.00000000000E+00  0.00000000000E+00 -0.38991655660E+03  0.38991655663E+03  0.50400001928E-02 0. -1.
    10030    2    1    2    0    0  0.00000000000E+00  0.00000000000E+00  0.38543424264E+03  0.11652673559E+04  0.10996765230E+04 0.  0.
        1    1    3    3  502    0  0.26619785883E+03 -0.45444763156E+03  0.36005446257E+03  0.63798367214E+03  0.50400001928E-02 0.  1.
       -1    1    3    3    0  502 -0.26619785883E+03  0.45444763156E+03  0.25379780069E+02  0.52728368374E+03  0.50400001928E-02 0. -1.
</event>
<event>
 5   0  0.6010125E-05  0.1098833E+04  0.7818609E-02  0.9206330E-01
       -3   -1    0    0    0  501  0.00000000000E+00  0.00000000000E+00  0.49594469758E+03  0.49594470787E+03  0.10100000352E+00 0.  1.
        3   -1    0    0  501    0  0.00000000000E+00  0.00000000000E+00 -0.60865373002E+03  0.60865373840E+03  0.10100000352E+00 0. -1.
    10030    2    1    2    0    0  0.00000000000E+00  0.00000000000E+00 -0.11270903244E+03  0.11045984463E+04  0.10988332000E+04 0.  0.
        4    1    3    3  502    0 -0.19675155691E+03 -0.45378805007E+03  0.18411221447E+03  0.52776291074E+03  0.12699999809E+01 0.  1.
       -4    1    3    3    0  502  0.19675155691E+03  0.45378805007E+03 -0.29682124691E+03  0.57683553553E+03  0.12699999809E+01 0. -1.
</event>
<event>
 5   0  0.1574101E-04  0.1100247E+04  0.7818609E-02  0.9204951E-01
        2   -1    0    0  501    0  0.00000000000E+00  0.00000000000E+00  0.30078740498E+04  0.30078740498E+04  0.25500000920E-02 0.  1.
       -2   -1    0    0    0  501  0.00000000000E+00  0.00000000000E+00 -0.10061450007E+03  0.10061450011E+03  0.25500000920E-02 0. -1.
    10030    2    1    2    0    0  0.00000000000E+00  0.00000000000E+00  0.29072595497E+04  0.31084885499E+04  0.11002467793E+04 0.  0.
        4    1    3    3  502    0  0.24811823618E+03  0.56785416389E+02  0.28314986917E+04  0.28429164069E+04  0.12699999809E+01 0.  1.
       -4    1    3    3    0  502 -0.24811823618E+03 -0.56785416389E+02  0.75760858049E+02  0.26557214303E+03  0.12699999809E+01 0. -1.
</event>
<event>
 5   0  0.8657442E-05  0.1099024E+04  0.7818609E-02  0.9206144E-01
        1   -1    0    0  501    0  0.00000000000E+00  0.00000000000E+00  0.87209033193E+03  0.87209033195E+03  0.50400001928E-02 0.  1.
       -1   -1    0    0    0  501  0.00000000000E+00  0.00000000000E+00 -0.34625247509E+03  0.34625247512E+03  0.50400001928E-02 0. -1.
    10030    2    1    2    0    0  0.00000000000E+00  0.00000000000E+00  0.52583785685E+03  0.12183428071E+04  0.10990239960E+04 0.  0.
        1    1    3    3  502    0  0.26658335504E+03 -0.47340175781E+03  0.17158795291E+03  0.56975287195E+03  0.50400001928E-02 0. -1.
       -1    1    3    3    0  502 -0.26658335504E+03  0.47340175781E+03  0.35424990394E+03  0.64858993513E+03  0.50400001928E-02 0.  1.
</event>
<event>
 5   0  0.1574101E-04  0.1100300E+04  0.7818609E-02  0.9204900E-01
       -2   -1    0    0    0  501  0.00000000000E+00  0.00000000000E+00  0.50622567799E+03  0.50622567800E+03  0.25500000920E-02 0.  1.
        2   -1    0    0  501    0  0.00000000000E+00  0.00000000000E+00 -0.59788516351E+03  0.59788516352E+03  0.25500000920E-02 0. -1.
    10030    2    1    2    0    0  0.00000000000E+00  0.00000000000E+00 -0.91659485519E+02  0.11041108415E+04  0.11002996360E+04 0.  0.
        4    1    3    3  502    0 -0.54293722210E+03 -0.72096865920E+02 -0.97820635324E+02  0.55637152589E+03  0.12699999809E+01 0.  1.
       -4    1    3    3    0  502  0.54293722210E+03  0.72096865920E+02  0.61611498050E+01  0.54773931563E+03  0.12699999809E+01 0. -1.
</event>
<event>
 5   0  0.1464205E-04  0.1099801E+04  0.7818609E-02  0.9205385E-01
       -2   -1    0    0    0  501  0.00000000000E+00  0.00000000000E+00  0.33230246643E+03  0.33230246644E+03  0.25500000920E-02 0.  1.
        2   -1    0    0  501    0  0.00000000000E+00  0.00000000000E+00 -0.90998663935E+03  0.90998663936E+03  0.25500000920E-02 0. -1.
    10030    2    1    2    0    0  0.00000000000E+00  0.00000000000E+00 -0.57768417292E+03  0.12422891058E+04  0.10998014451E+04 0.  0.
        3    1    3    3  502    0 -0.17770411267E+03 -0.47028583917E+03 -0.54051622524E+03  0.73817702628E+03  0.10100000352E+00 0. -1.
       -3    1    3    3    0  502  0.17770411267E+03  0.47028583917E+03 -0.37167947687E+02  0.50411207952E+03  0.10100000352E+00 0.  1.
</event>
<event>
 5   0  0.1553937E-04  0.1099996E+04  0.7818609E-02  0.9205196E-01
        2   -1    0    0  501    0  0.00000000000E+00  0.00000000000E+00  0.15942399293E+04  0.15942399293E+04  0.25500000920E-02 0.  1.
       -2   -1    0    0    0  501  0.00000000000E+00  0.00000000000E+00 -0.18974425301E+03  0.18974425303E+03  0.25500000920E-02 0. -1.
    10030    2    1    2    0    0  0.00000000000E+00  0.00000000000E+00  0.14044956763E+04  0.17839841823E+04  0.10999961173E+04 0.  0.
        1    1    3    3  502    0 -0.44593207885E+03 -0.26762237619E+02  0.12225586808E+04  0.13016225891E+04  0.50400001928E-02 0.  1.
       -1    1    3    3    0  502  0.44593207885E+03  0.26762237619E+02  0.18193699546E+03  0.48236159326E+03  0.50400001928E-02 0. -1.
</event>
<event>
 5   0  0.1574101E-04  0.1098712E+04  0.7818609E-02  0.9206448E-01
       -2   -1    0    0    0  501  0.00000000000E+00  0.00000000000E+00  0.27156991353E+03  0.27156991355E+03  0.25500000920E-02 0. -1.
        2   -1    0    0  501    0  0.00000000000E+00  0.00000000000E+00 -0.11112860521E+04  0.11112860521E+04  0.25500000920E-02 0.  1.
    10030    2    1    2    0    0  0.00000000000E+00  0.00000000000E+00 -0.83971613860E+03  0.13828559657E+04  0.10987117131E+04 0.  0.
        4    1    3    3  502    0 -0.36166792295E+02 -0.36686616486E+03  0.92773279872E+02  0.38014117660E+03  0.12699999809E+01 0. -1.
       -4    1    3    3    0  502  0.36166792295E+02  0.36686616486E+03 -0.93248941847E+03  0.10027147891E+04  0.12699999809E+01 0.  1.
</event>
<event>
 5   0  0.8657442E-05  0.1100337E+04  0.7818609E-02  0.9204863E-01
       -1   -1    0    0    0  501  0.00000000000E+00  0.00000000000E+00  0.10330277148E+03  0.10330277160E+03  0.50400001928E-02 0. -1.
        1   -1    0    0  501    0  0.00000000000E+00  0.00000000000E+00 -0.29300797603E+04  0.29300797603E+04  0.50400001928E-02 0.  1.
    10030    2    1    2    0    0  0.00000000000E+00  0.00000000000E+00 -0.28267769889E+04  0.30333825319E+04  0.11003369667E+04 0.  0.
        1    1    3    3  502    0  0.26226638228E+03 -0.13569280107E+03 -0.13367072449E+03  0.32413585755E+03  0.50400001928E-02 0. -1.
       -1    1    3    3    0  502 -0.26226638228E+03  0.13569280107E+03 -0.26931062644E+04  0.27092466744E+04  0.50400001928E-02 0.  1.
</event>
<event>
 5   0  0.1464205E-04  0.1102364E+04  0.7818609E-02  0.9202891E-01
       -2   -1    0    0    0  501  0.00000000000E+00  0.00000000000E+00  0.37394560186E+03  0.37394560187E+03  0.25500000920E-02 0. -1.
        2   -1    0    0  501    0  0.00000000000E+00  0.00000000000E+00 -0.81242173636E+03  0.81242173636E+03  0.25500000920E-02 0.  1.
    10030    2    1    2    0    0  0.00000000000E+00  0.00000000000E+00 -0.43847613450E+03  0.11863673382E+04  0.11023638876E+04 0.  0.
        3    1    3    3  502    0 -0.28102612670E+03  0.17754073541E+03  0.25393050581E+03  0.41830265192E+03  0.10100000352E+00 0. -1.
       -3    1    3    3    0  502  0.28102612670E+03 -0.17754073541E+03 -0.69240664031E+03  0.76806468631E+03  0.10100000352E+00 0.  1.
</event>
<event>
 5   0  0.8657442E-05  0.1107263E+04  0.7818609E-02  0.9198142E-01
        1   -1    0    0  501    0  0.00000000000E+00  0.00000000000E+00  0.67396239488E+03  0.67396239490E+03  0.50400001928E-02 0. -1.
       -1   -1    0    0    0  501  0.00000000000E+00  0.00000000000E+00 -0.45478467697E+03  0.45478467699E+03  0.50400001928E-02 0.  1.
    10030    2    1    2    0    0  0.00000000000E+00  0.00000000000E+00  0.21917771791E+03  0.11287470719E+04  0.11072628777E+04 0.  0.
        1    1    3    3  502    0  0.25458771783E+03 -0.43063536285E+03 -0.13217529235E+03  0.51742828463E+03  0.50400001928E-02 0.  1.
       -1    1    3    3    0  502 -0.25458771783E+03  0.43063536285E+03  0.35135301026E+03  0.61131878725E+03  0.50400001928E-02 0. -1.
</event>
<event>
 5   0  0.1574101E-04  0.1100191E+04  0.7818609E-02  0.9205006E-01
       -2   -1    0    0    0  501  0.00000000000E+00  0.00000000000E+00  0.31023305932E+03  0.31023305933E+03  0.25500000920E-02 0. -1.
        2   -1    0    0  501    0  0.00000000000E+00  0.00000000000E+00 -0.97541230364E+03  0.97541230365E+03  0.25500000920E-02 0.  1.
    10030    2    1    2    0    0  0.00000000000E+00  0.00000000000E+00 -0.66517924433E+03  0.12856453630E+04  0.11001911526E+04 0.  0.
        4    1    3    3  502    0 -0.33565639841E+02 -0.43349028436E+03  0.61206618778E+02  0.43907669250E+03  0.12699999809E+01 0. -1.
       -4    1    3    3    0  502  0.33565639841E+02  0.43349028436E+03 -0.72638586311E+03  0.84656867048E+03  0.12699999809E+01 0.  1.
</event>
<event>
 5   0  0.1540772E-04  0.1099812E+04  0.7818609E-02  0.9205376E-01
        2   -1    0    0  501    0  0.00000000000E+00  0.00000000000E+00  0.57356188118E+03  0.57356188118E+03  0.25500000920E-02 0.  1.
       -2   -1    0    0    0  501  0.00000000000E+00  0.00000000000E+00 -0.52722532184E+03  0.52722532185E+03  0.25500000920E-02 0. -1.
    10030    2    1    2    0    0  0.00000000000E+00  0.00000000000E+00  0.46336559337E+02  0.11007872030E+04  0.10998115246E+04 0.  0.
        2    1    3    3  502    0 -0.47589855824E+03 -0.22628892372E+03  0.18050261987E+03  0.55701643649E+03  0.25500000920E-02 0.  1.
       -2    1    3    3    0  502  0.47589855824E+03  0.22628892372E+03 -0.13416606054E+03  0.54377076654E+03  0.25500000920E-02 0. -1.
</event>
<event>
 5   0  0.1553937E-04  0.1100852E+04  0.7818609E-02  0.9204362E-01
       -2   -1    0    0    0  501  0.00000000000E+00  0.00000000000E+00  0.17236178673E+03  0.17236178675E+03  0.25500000920E-02 0.  1.
        2   -1    0    0  501    0  0.00000000000E+00  0.00000000000E+00 -0.17577493475E+04  0.17577493475E+04  0.25500000920E-02 0. -1.
    10030    2    1    2    0    0  0.00000000000E+00  0.00000000000E+00 -0.15853875608E+04  0.19301111343E+04  0.11008520667E+04 0.  0.
        1    1    3    3  502    0  0.67759647941E+02 -0.10372726998E+02 -0.17502362283E+04  0.17515780937E+04  0.50400001928E-02 0. -1.
       -1    1    3    3    0  502 -0.67759647941E+02  0.10372726998E+02  0.16484866755E+03  0.17853304056E+03  0.50400001928E-02 0.  1.
</event>
<event>
 5   0  0.1464205E-04  0.1100226E+04  0.7818609E-02  0.9204972E-01
       -2   -1    0    0    0  501  0.00000000000E+00  0.00000000000E+00  0.26876499968E+03  0.26876499969E+03  0.25500000920E-02 0.  1.
        2   -1    0    0  501    0  0.00000000000E+00  0.00000000000E+00 -0.11259803613E+04  0.11259803613E+04  0.25500000920E-02 0. -1.
    10030    2    1    2    0    0  0.00000000000E+00  0.00000000000E+00 -0.85721536164E+03  0.13947453610E+04  0.11002256341E+04 0.  0.
        3    1    3    3  502    0  0.18627834838E+03 -0.44498126003E+03 -0.76380608234E+03  0.90338678675E+03  0.10100000352E+00 0. -1.
       -3    1    3    3    0  502 -0.18627834838E+03  0.44498126003E+03 -0.93409279300E+02  0.49135857427E+03  0.10100000352E+00 0.  1.
</event>
<event>
 5   0  0.6010125E-05  0.1099938E+04  0.7818609E-02  0.9205253E-01
        3   -1    0    0  501    0  0.00000000000E+00  0.00000000000E+00  0.17874997168E+03  0.17875000022E+03  0.10100000352E+00 0. -1.
       -3   -1    0    0    0  501  0.00000000000E+00  0.00000000000E+00 -0.16921159122E+04  0.16921159153E+04  0.10100000352E+00 0.  1.
    10030    2    1    2    0    0  0.00000000000E+00  0.00000000000E+00 -0.15133659406E+04  0.18708659155E+04  0.10999376362E+04 0.  0.
        4    1    3    3  502    0 -0.83029787767E+01 -0.47956501466E+03 -0.29898234378E+03  0.56519341604E+03  0.12699999809E+01 0. -1.
       -4    1    3    3    0  502  0.83029787767E+01  0.47956501466E+03 -0.12143835968E+04  0.13056724994E+04  0.12699999809E+01 0.  1.
</event>
<event>
 5   0  0.1540772E-04  0.1099825E+04  0.7818609E-02  0.9205363E-01
        2   -1    0    0  501    0  0.00000000000E+00  0.00000000000E+00  0.23194033528E+04  0.23194033528E+04  0.25500000920E-02 0.  1.
       -2   -1    0    0    0  501  0.00000000000E+00  0.00000000000E+00 -0.13037987719E+03  0.13037987721E+03  0.25500000920E-02 0. -1.
    10030    2    1    2    0    0  0.00000000000E+00  0.00000000000E+00  0.21890234757E+04  0.24497832301E+04  0.10998245757E+04 0.  0.
        2    1    3    3  502    0  0.31755228167E+03 -0.44889568854E+03  0.10777343580E+04  0.12099000525E+04  0.25500000920E-02 0.  1.
       -2    1    3    3    0  502 -0.31755228167E+03  0.44889568854E+03  0.11112891177E+04  0.12398831775E+04  0.25500000920E-02 0. -1.
</event>
<event>
 5   0  0.8621738E-05  0.1099468E+04  0.7818609E-02  0.9205710E-01
        1   -1    0    0  501    0  0.00000000000E+00  0.00000000000E+00  0.25298113417E+04  0.25298113417E+04  0.50400001928E-02 0.  1.
       -1   -1    0    0    0  501  0.00000000000E+00  0.00000000000E+00 -0.11945853038E+03  0.11945853049E+03  0.50400001928E-02 0. -1.
    10030    2    1    2    0    0  0.00000000000E+00  0.00000000000E+00  0.24103528113E+04  0.26492698722E+04  0.10994681354E+04 0.  0.
        2    1    3    3  502    0  0.51257182773E+02 -0.48709149210E+03  0.18067166376E+04  0.18719269294E+04  0.25500000920E-02 0.  1.
       -2    1    3    3    0  502 -0.51257182773E+02  0.48709149210E+03  0.60363617368E+03  0.77734294275E+03  0.25500000920E-02 0. -1.
</event>
<event>
 5   0  0.8621738E-05  0.1099907E+04  0.7818609E-02  0.9205282E-01
       -1   -1    0    0    0  501  0.00000000000E+00  0.00000000000E+00  0.36093173585E+03  0.36093173589E+03  0.50400001928E-02 0. -1.
        1   -1    0    0  501    0  0.00000000000E+00  0.00000000000E+00 -0.83796756668E+03  0.83796756669E+03  0.50400001928E-02 0.  1.
    10030    2    1    2    0    0  0.00000000000E+00  0.00000000000E+00 -0.47703583083E+03  0.11988993026E+04  0.10999074297E+04 0.  0.
        2    1    3    3  502    0  0.51877664500E+03  0.10267070283E+03 -0.40302710419E+03  0.66490700653E+03  0.25500000920E-02 0.  1.
       -2    1    3    3    0  502 -0.51877664500E+03 -0.10267070283E+03 -0.74008726633E+02  0.53399229605E+03  0.25500000920E-02 0. -1.
</event>
<event>
 5   0  0.9016738E-05  0.1100336E+04  0.7818609E-02  0.9204865E-01
        1   -1    0    0  501    0  0.00000000000E+00  0.00000000000E+00  0.71827108177E+03  0.71827108179E+03  0.50400001928E-02 0.  1.
       -1   -1    0    0    0  501  0.00000000000E+00  0.00000000000E+00 -0.42140724021E+03  0.42140724024E+03  0.50400001928E-02 0. -1.
    10030    2    1    2    0    0  0.00000000000E+00  0.00000000000E+00  0.29686384155E+03  0.11396783220E+04  0.11003356476E+04 0.  0.
        4    1    3    3  502    0 -0.20594926422E+03  0.50074749354E+03  0.24949036470E+03  0.59616290282E+03  0.12699999809E+01 0.  1.
       -4    1    3    3    0  502  0.20594926422E+03 -0.50074749354E+03  0.47373476851E+02  0.54351541921E+03  0.12699999809E+01 0. -1.
</event>
<event>
 5   0  0.9346836E-05  0.1099709E+04  0.7818609E-02  0.9205476E-01
        1   -1    0    0  501    0  0.00000000000E+00  0.00000000000E+00  0.12821003933E+04  0.12821003933E+04  0.50400001928E-02 0. -1.
       -1   -1    0    0    0  501  0.00000000000E+00  0.00000000000E+00 -0.23581599863E+03  0.23581599868E+03  0.50400001928E-02 0.  1.
    10030    2    1    2    0    0  0.00000000000E+00  0.00000000000E+00  0.10462843946E+04  0.15179163920E+04  0.10997086607E+04 0.  0.
        5    1    3    3  502    0 -0.52080822469E+03  0.16675223824E+03  0.44420968012E+03  0.70455081135E+03  0.46999998093E+01 0.  1.
       -5    1    3    3    0  502  0.52080822469E+03 -0.16675223824E+03  0.60207471452E+03  0.81336558061E+03  0.46999998093E+01 0. -1.
</event>
<event>
 5   0  0.9346836E-05  0.1099564E+04  0.7818609E-02  0.9205617E-01
        1   -1    0    0  501    0  0.00000000000E+00  0.00000000000E+00  0.10401633478E+04  0.10401633478E+04  0.50400001928E-02 0. -1.
       -1   -1    0    0    0  501  0.00000000000E+00  0.00000000000E+00 -0.29058920015E+03  0.29058920020E+03  0.50400001928E-02 0.  1.
    10030    2    1    2    0    0  0.00000000000E+00  0.00000000000E+00  0.74957414762E+03  0.13307525480E+04  0.10995639778E+04 0.  0.
        5    1    3    3  502    0  0.14510628171E+03 -0.21254698217E+03  0.96273438698E+03  0.99654986955E+03  0.46999998093E+01 0. -1.
       -5    1    3    3    0  502 -0.14510628171E+03  0.21254698217E+03 -0.21316023937E+03  0.33420267843E+03  0.46999998093E+01 0.  1.
</event>
<event>
 5   0  0.1464205E-04  0.1100572E+04  0.7818609E-02  0.9204634E-01
       -2   -1    0    0    0  501  0.00000000000E+00  0.00000000000E+00  0.42798568913E+03  0.42798568914E+03  0.25500000920E-02 0. -1.
        2   -1    0    0  501    0  0.00000000000E+00  0.00000000000E+00 -0.70753513855E+03  0.70753513855E+03  0.25500000920E-02 0.  1.
    10030    2    1    2    0    0  0.00000000000E+00  0.00000000000E+00 -0.27954944941E+03  0.11355208277E+04  0.11005724217E+04 0.  0.
        3    1    3    3  502    0 -0.15703977728E+03  0.41613898526E+03  0.19452298162E+03  0.48546096370E+03  0.10100000352E+00 0. -1.
       -3    1    3    3    0  502  0.15703977728E+03 -0.41613898526E+03 -0.47407243103E+03  0.65005986399E+03  0.10100000352E+00 0.  1.
</event>
<event>
 5   0  0.1464205E-04  0.1104719E+04  0.7818609E-02  0.9200604E-01
        2   -1    0    0  501    0  0.00000000000E+00  0.00000000000E+00  0.48824133381E+03  0.48824133382E+03  0.25500000920E-02 0. -1.
       -2   -1    0    0    0  501  0.00000000000E+00  0.00000000000E+00 -0.62489818512E+03  0.62489818512E+03  0.25500000920E-02 0.  1.
    10030    2    1    2    0    0  0.00000000000E+00  0.00000000000E+00 -0.13665685131E+03  0.11131395189E+04  0.11047191922E+04 0.  0.
        3    1    3    3  502    0  0.26034131592E+03 -0.48290925325E+03 -0.13302189139E+03  0.56451198520E+03  0.10100000352E+00 0.  1.
       -3    1    3    3    0  502 -0.26034131592E+03  0.48290925325E+03 -0.36349599137E+01  0.54862753374E+03  0.10100000352E+00 0. -1.
</event>
<event>
 5   0  0.9346836E-05  0.1099644E+04  0.7818609E-02  0.9205539E-01
        1   -1    0    0  501    0  0.00000000000E+00  0.00000000000E+00  0.12691214345E+04  0.12691214345E+04  0.50400001928E-02 0.  1.
       -1   -1    0    0    0  501  0.00000000000E+00  0.00000000000E+00 -0.23819945033E+03  0.23819945039E+03  0.50400001928E-02 0. -1.
    10030    2    1    2    0    0  0.00000000000E+00  0.00000000000E+00  0.10309219842E+04  0.15073208849E+04  0.10996436298E+04 0.  0.
        5    1    3    3  502    0  0.52159141280E+03 -0.15277114717E+03  0.40172037166E+03  0.67586830990E+03  0.46999998093E+01 0.  1.
       -5    1    3    3    0  502 -0.52159141280E+03  0.15277114717E+03  0.62920161252E+03  0.83145257503E+03  0.46999998093E+01 0. -1.
</event>
<event>
 5   0  0.1553937E-04  0.1099822E+04  0.7818609E-02  0.9205366E-01
       -2   -1    0    0    0  501  0.00000000000E+00  0.00000000000E+00  0.30526912174E+03  0.30526912175E+03  0.25500000920E-02 0. -1.
        2   -1    0    0  501    0  0.00000000000E+00  0.00000000000E+00 -0.99060753368E+03  0.99060753368E+03  0.25500000920E-02 0.  1.
    10030    2    1    2    0    0  0.00000000000E+00  0.00000000000E+00 -0.68533841193E+03  0.12958766554E+04  0.10998216070E+04 0.  0.
        1    1    3    3  502    0 -0.27915510073E+03  0.31148094842E+03 -0.76331645399E+03  0.87040218316E+03  0.50400001928E-02 0.  1.
       -1    1    3    3    0  502  0.27915510073E+03 -0.31148094842E+03  0.77978042057E+02  0.42547447227E+03  0.50400001928E-02 0. -1.
</event>
<event>
 5   0  0.8621738E-05  0.1100221E+04  0.7818609E-02  0.9204977E-01
        1   -1    0    0  501    0  0.00000000000E+00  0.00000000000E+00  0.82989742916E+03  0.82989742918E+03  0.50400001928E-02 0.  1.
       -1   -1    0    0    0  501  0.00000000000E+00  0.00000000000E+00 -0.36464926929E+03  0.36464926933E+03  0.50400001928E-02 0. -1.
    10030    2    1    2    0    0  0.00000000000E+00  0.00000000000E+00  0.46524815987E+03  0.11945466985E+04  0.11002208708E+04 0.  0.
        2    1    3    3  502    0  0.26434104966E+03  0.38927124034E+03  0.54203566474E+03  0.71778196616E+03  0.25500000920E-02 0.  1.
       -2    1    3    3    0  502 -0.26434104966E+03 -0.38927124034E+03 -0.76787504876E+02  0.47676473234E+03  0.25500000920E-02 0. -1.
</event>
<event>
 5   0  0.1464205E-04  0.1100421E+04  0.7818609E-02  0.9204782E-01
       -2   -1    0    0    0  501  0.00000000000E+00  0.00000000000E+00  0.12287877575E+04  0.12287877575E+04  0.25500000920E-02 0. -1.
        2   -1    0    0  501    0  0.00000000000E+00  0.00000000000E+00 -0.24636607397E+03  0.24636607399E+03  0.25500000920E-02 0.  1.
    10030    2    1    2    0    0  0.00000000000E+00  0.00000000000E+00  0.98242168356E+03  0.14751538315E+04  0.11004210387E+04 0.  0.
        3    1    3    3  502    0 -0.54558872828E+03  0.66680914714E+02  0.45788024218E+03  0.71537943163E+03  0.10100000352E+00 0. -1.
       -3    1    3    3    0  502  0.54558872828E+03 -0.66680914714E+02  0.52454144139E+03  0.75977439990E+03  0.10100000352E+00 0.  1.
</event>
<event>
 5   0  0.1574101E-04  0.1099257E+04  0.7818609E-02  0.9205916E-01
       -2   -1    0    0    0  501  0.00000000000E+00  0.00000000000E+00  0.17520234087E+03  0.17520234088E+03  0.25500000920E-02 0.  1.
        2   -1    0    0  501    0  0.00000000000E+00  0.00000000000E+00 -0.17242432811E+04  0.17242432811E+04  0.25500000920E-02 0. -1.
    10030    2    1    2    0    0  0.00000000000E+00  0.00000000000E+00 -0.15490409402E+04  0.18994456220E+04  0.10992569474E+04 0.  0.
        4    1    3    3  502    0  0.74660019061E+02  0.54287925827E+03 -0.84778655861E+03  0.10094729661E+04  0.12699999809E+01 0. -1.
       -4    1    3    3    0  502 -0.74660019061E+02 -0.54287925827E+03 -0.70125438163E+03  0.88997265585E+03  0.12699999809E+01 0.  1.
</event>
<event>
 5   0  0.1503277E-04  0.1100351E+04  0.7818609E-02  0.9204850E-01
       -2   -1    0    0    0  501  0.00000000000E+00  0.00000000000E+00  0.85213108949E+03  0.85213108949E+03  0.25500000920E-02 0. -1.
        2   -1    0    0  501    0  0.00000000000E+00  0.00000000000E+00 -0.35521861351E+03  0.35521861352E+03  0.25500000920E-02 0.  1.
    10030    2    1    2    0    0  0.00000000000E+00  0.00000000000E+00  0.49691247598E+03  0.12073497030E+04  0.11003505335E+04 0.  0.
        5    1    3    3  502    0  0.25102680953E+03  0.42847719221E+03  0.50825818350E+03  0.71060230400E+03  0.46999998093E+01 0. -1.
       -5    1    3    3    0  502 -0.25102680953E+03 -0.42847719221E+03 -0.11345707523E+02  0.49674739902E+03  0.46999998093E+01 0.  1.
</event>
<event>
 5   0  0.8657442E-05  0.1099966E+04  0.7818609E-02  0.9205225E-01
        1   -1    0    0  501    0  0.00000000000E+00  0.00000000000E+00  0.83932759564E+03  0.83932759565E+03  0.50400001928E-02 0.  1.
       -1   -1    0    0    0  501  0.00000000000E+00  0.00000000000E+00 -0.36038529160E+03  0.36038529164E+03  0.50400001928E-02 0. -1.
    10030    2    1    2    0    0  0.00000000000E+00  0.00000000000E+00  0.47894230403E+03  0.11997128873E+04  0.10999660364E+04 0.  0.
        1    1    3    3  502    0  0.37845838129E+03 -0.39896290158E+03  0.22976610063E+03  0.59598205026E+03  0.50400001928E-02 0.  1.
       -1    1    3    3    0  502 -0.37845838129E+03  0.39896290158E+03  0.24917620341E+03  0.60373083703E+03  0.50400001928E-02 0. -1.
</event>
<event>
 5   0  0.8657442E-05  0.1097692E+04  0.7818609E-02  0.9207444E-01
       -1   -1    0    0    0  501  0.00000000000E+00  0.00000000000E+00  0.47953160530E+03  0.47953160532E+03  0.50400001928E-02 0.  1.
        1   -1    0    0  501    0  0.00000000000E+00  0.00000000000E+00 -0.62817971932E+03  0.62817971934E+03  0.50400001928E-02 0. -1.
    10030    2    1    2    0    0  0.00000000000E+00  0.00000000000E+00 -0.14864811403E+03  0.11077113247E+04  0.10976921777E+04 0.  0.
        1    1    3    3  502    0  0.49257311580E+03  0.12932614410E+03 -0.28083430212E+03  0.58156807962E+03  0.50400001928E-02 0. -1.
       -1    1    3    3    0  502 -0.49257311580E+03 -0.12932614410E+03  0.13218618809E+03  0.52614324505E+03  0.50400001928E-02 0.  1.
</event>
<event>
 5   0  0.9016738E-05  0.1099990E+04  0.7818609E-02  0.9205201E-01
        1   -1    0    0  501    0  0.00000000000E+00  0.00000000000E+00  0.49182566251E+03  0.49182566254E+03  0.50400001928E-02 0. -1.
       -1   -1    0    0    0  501  0.00000000000E+00  0.00000000000E+00 -0.61504445577E+03  0.61504445579E+03  0.50400001928E-02 0.  1.
    10030    2    1    2    0    0  0.00000000000E+00  0.00000000000E+00 -0.12321879326E+03  0.11068701183E+04  0.10999902672E+04 0.  0.
        4    1    3    3  502    0  0.36887500371E+02  0.23943900827E+03 -0.55846001657E+03  0.60874537318E+03  0.12699999809E+01 0. -1.
       -4    1    3    3    0  502 -0.36887500371E+02 -0.23943900827E+03  0.43524122331E+03  0.49812474515E+03  0.12699999809E+01 0.  1.
</event>
<event>
 5   0  0.8921459E-05  0.1100073E+04  0.7818609E-02  0.9205121E-01
        1   -1    0    0  501    0  0.00000000000E+00  0.00000000000E+00  0.70404266111E+03  0.70404266113E+03  0.50400001928E-02 0.  1.
       -1   -1    0    0    0  501  0.00000000000E+00  0.00000000000E+00 -0.42971849111E+03  0.42971849114E+03  0.50400001928E-02 0. -1.
    10030    2    1    2    0    0  0.00000000000E+00  0.00000000000E+00  0.27432417000E+03  0.11337611523E+04  0.11000729976E+04 0.  0.
        3    1    3    3  502    0  0.23254899450E+02  0.23246243237E+03 -0.37604350453E+03  0.44270565878E+03  0.10100000352E+00 0. -1.
       -3    1    3    3    0  502 -0.23254899450E+02 -0.23246243237E+03  0.65036767453E+03  0.69105549349E+03  0.10100000352E+00 0.  1.
</event>
<event>
 5   0  0.1464205E-04  0.1099953E+04  0.7818609E-02  0.9205238E-01
       -2   -1    0    0    0  501  0.00000000000E+00  0.00000000000E+00  0.13819726890E+03  0.13819726892E+03  0.25500000920E-02 0.  1.
        2   -1    0    0  501    0  0.00000000000E+00  0.00000000000E+00 -0.21887131257E+04  0.21887131257E+04  0.25500000920E-02 0. -1.
    10030    2    1    2    0    0  0.00000000000E+00  0.00000000000E+00 -0.20505158568E+04  0.23269103946E+04  0.10999530470E+04 0.  0.
        3    1    3    3  502    0 -0.24890750037E+03  0.13571327459E+03 -0.20222251877E+04  0.20420009199E+04  0.10100000352E+00 0. -1.
       -3    1    3    3    0  502  0.24890750037E+03 -0.13571327459E+03 -0.28290669056E+02  0.28490947474E+03  0.10100000352E+00 0.  1.
</event>
<event>
 5   0  0.8621738E-05  0.1099493E+04  0.7818609E-02  0.9205686E-01
        1   -1    0    0  501    0  0.00000000000E+00  0.00000000000E+00  0.11205425521E+04  0.11205425522E+04  0.50400001928E-02 0.  1.
       -1   -1    0    0    0  501  0.00000000000E+00  0.00000000000E+00 -0.26970986996E+03  0.26970987000E+03  0.50400001928E-02 0. -1.
    10030    2    1    2    0    0  0.00000000000E+00  0.00000000000E+00  0.85083268219E+03  0.13902524222E+04  0.10994933125E+04 0.  0.
        2    1    3    3  502    0 -0.55626716317E+02  0.54662426556E+03  0.40248248431E+03  0.68109072042E+03  0.25500000920E-02 0. -1.
       -2    1    3    3    0  502  0.55626716317E+02 -0.54662426556E+03  0.44835019788E+03  0.70916170174E+03  0.25500000920E-02 0.  1.
</event>
<event>
 5   0  0.9016738E-05  0.1099529E+04  0.7818609E-02  0.9205651E-01
       -1   -1    0    0    0  501  0.00000000000E+00  0.00000000000E+00  0.71533985468E+03  0.71533985470E+03  0.50400001928E-02 0.  1.
        1   -1    0    0  501    0  0.00000000000E+00  0.00000000000E+00 -0.42251377940E+03  0.42251377943E+03  0.50400001928E-02 0. -1.
    10030    2    1    2    0    0  0.00000000000E+00  0.00000000000E+00  0.29282607527E+03  0.11378536341E+04  0.10995288911E+04 0.  0.
        4    1    3    3  502    0 -0.25500078181E+03 -0.16464490590E+03  0.62076311038E+03  0.69100057589E+03  0.12699999809E+01 0.  1.
       -4    1    3    3    0  502  0.25500078181E+03  0.16464490590E+03 -0.32793703511E+03  0.44685305824E+03  0.12699999809E+01 0. -1.
</event>
<event>
 5   0  0.8921459E-05  0.1100729E+04  0.7818609E-02  0.9204482E-01
       -1   -1    0    0    0  501  0.00000000000E+00  0.00000000000E+00  0.16922837709E+03  0.16922837716E+03  0.50400001928E-02 0. -1.
        1   -1    0    0  501    0  0.00000000000E+00  0.00000000000E+00 -0.17898954010E+04  0.17898954010E+04  0.50400001928E-02 0.  1.
    10030    2    1    2    0    0  0.00000000000E+00  0.00000000000E+00 -0.16206670239E+04  0.19591237781E+04  0.11007290201E+04 0.  0.
        3    1    3    3  502    0 -0.41206354118E+03  0.17350667152E+03 -0.23911746170E+03  0.50702869517E+03  0.10100000352E+00 0. -1.
       -3    1    3    3    0  502  0.41206354118E+03 -0.17350667152E+03 -0.13815495622E+04  0.14520950830E+04  0.10100000352E+00 0.  1.
</event>
<event>
 5   0  0.9016738E-05  0.1099646E+04  0.7818609E-02  0.9205537E-01
       -1   -1    0    0    0  501  0.00000000000E+00  0.00000000000E+00  0.27122532666E+03  0.27122532671E+03  0.50400001928E-02 0. -1.
        1   -1    0    0  501    0  0.00000000000E+00  0.00000000000E+00 -0.11145904806E+04  0.11145904806E+04  0.50400001928E-02 0.  1.
    10030    2    1    2    0    0  0.00000000000E+00  0.00000000000E+00 -0.84336515395E+03  0.13858158073E+04  0.10996457015E+04 0.  0.
        4    1    3    3  502    0  0.60120662975E+02  0.19217456139E+03  0.22308428733E+03  0.30052249220E+03  0.12699999809E+01 0. -1.
       -4    1    3    3    0  502 -0.60120662975E+02 -0.19217456139E+03 -0.10664494413E+04  0.10852933151E+04  0.12699999809E+01 0.  1.
</event>
<event>
 5   0  0.1540772E-04  0.1101084E+04  0.7818609E-02  0.9204136E-01
       -2   -1    0    0    0  501  0.00000000000E+00  0.00000000000E+00  0.44585491804E+03  0.44585491805E+03  0.25500000920E-02 0. -1.
        2   -1    0    0  501    0  0.00000000000E+00  0.00000000000E+00 -0.67980989001E+03  0.67980989002E+03  0.25500000920E-02 0.  1.
    10030    2    1    2    0    0  0.00000000000E+00  0.00000000000E+00 -0.23395497197E+03  0.11256648081E+04  0.11010841617E+04 0.  0.
        2    1    3    3  502    0 -0.18154918377E+03 -0.11312805376E+03 -0.63558758869E+03  0.67061885269E+03  0.25500000920E-02 0.  1.
       -2    1    3    3    0  502  0.18154918377E+03  0.11312805376E+03  0.40163261672E+03  0.45504595537E+03  0.25500000920E-02 0. -1.
</event>
<event>
 5   0  0.1503277E-04  0.1099421E+04  0.7818609E-02  0.9205757E-01
        2   -1    0    0  501    0  0.00000000000E+00  0.00000000000E+00  0.58350492156E+03  0.58350492156E+03  0.25500000920E-02 0. -1.
       -2   -1    0    0    0  501  0.00000000000E+00  0.00000000000E+00 -0.51787309582E+03  0.51787309583E+03  0.25500000920E-02 0.  1.
    10030    2    1    2    0    0  0.00000000000E+00  0.00000000000E+00  0.65631825736E+02  0.11013780174E+04  0.10994207569E+04 0.  0.
        5    1    3    3  502    0 -0.14339788617E+03 -0.16925724175E+03  0.53665107919E+03  0.58071287090E+03  0.46999998093E+01 0. -1.
       -5    1    3    3    0  502  0.14339788617E+03  0.16925724175E+03 -0.47101925345E+03  0.52066514648E+03  0.46999998093E+01 0.  1.
</event>
<event>
 5   0  0.1464205E-04  0.1099916E+04  0.7818609E-02  0.9205273E-01
        2   -1    0    0  501    0  0.00000000000E+00  0.00000000000E+00  0.24252541639E+04  0.24252541639E+04  0.25500000920E-02 0. -1.
       -2   -1    0    0    0  501  0.00000000000E+00  0.00000000000E+00 -0.12471024111E+03  0.12471024113E+03  0.25500000920E-02 0.  1.
    10030    2    1    2    0    0  0.00000000000E+00  0.00000000000E+00  0.23005439228E+04  0.25499644051E+04  0.10999164178E+04 0.  0.
        3    1    3    3  502    0 -0.42328041703E+03 -0.18742593730E+03  0.46192353699E+03  0.65396342225E+03  0.10100000352E+00 0.  1.
       -3    1    3    3    0  502  0.42328041703E+03  0.18742593730E+03  0.18386203858E+04  0.18960009828E+04  0.10100000352E+00 0. -1.
</event>
<event>
 5   0  0.1503277E-04  0.1099225E+04  0.7818609E-02  0.9205948E-01
        2   -1    0    0  501    0  0.00000000000E+00  0.00000000000E+00  0.40375801864E+03  0.40375801865E+03  0.25500000920E-02 0. -1.
       -2   -1    0    0    0  501  0.00000000000E+00  0.00000000000E+00 -0.74815539052E+03  0.74815539052E+03  0.25500000920E-02 0.  1.
    10030    2    1    2    0    0  0.00000000000E+00  0.00000000000E+00 -0.34439737187E+03  0.11519134092E+04  0.10992247052E+04 0.  0.
        5    1    3    3  502    0  0.44173293781E+03  0.30992559903E+03 -0.62943065659E+02  0.54329162040E+03  0.46999998093E+01 0. -1.
       -5    1    3    3    0  502 -0.44173293781E+03 -0.30992559903E+03 -0.28145430621E+03  0.60862178877E+03  0.46999998093E+01 0.  1.
</event>
<event>
 5   0  0.9016738E-05  0.1100051E+04  0.7818609E-02  0.9205142E-01
        1   -1    0    0  501    0  0.00000000000E+00  0.00000000000E+00  0.46881364759E+03  0.46881364762E+03  0.50400001928E-02 0.  1.
       -1   -1    0    0    0  501  0.00000000000E+00  0.00000000000E+00 -0.64530531141E+03  0.64530531143E+03  0.50400001928E-02 0. -1.
    10030    2    1    2    0    0  0.00000000000E+00  0.00000000000E+00 -0.17649166382E+03  0.11141189590E+04  0.11000507932E+04 0.  0.
        4    1    3    3  502    0  0.25475018844E+02 -0.53026966312E+03  0.57438919683E+02  0.53398102458E+03  0.12699999809E+01 0. -1.
       -4    1    3    3    0  502 -0.25475018844E+02  0.53026966312E+03 -0.23393058350E+03  0.58013793447E+03  0.12699999809E+01 0.  1.
</event>
<event>
 5   0  0.8921459E-05  0.1100177E+04  0.7818609E-02  0.9205019E-01
       -1   -1    0    0    0  501  0.00000000000E+00  0.00000000000E+00  0.73291032707E+03  0.73291032709E+03  0.50400001928E-02 0.  1.
        1   -1    0    0  501    0  0.00000000000E+00  0.00000000000E+00 -0.41287099691E+03  0.41287099694E+03  0.50400001928E-02 0. -1.
    10030    2    1    2    0    0  0.00000000000E+00  0.00000000000E+00  0.32003933016E+03  0.11457813240E+04  0.11001771083E+04 0.  0.
        3    1    3    3  502    0 -0.13461669582E+02 -0.48662648612E+03 -0.10674418642E+03  0.49837825502E+03  0.10100000352E+00 0. -1.
       -3    1    3    3    0  502  0.13461669582E+02  0.48662648612E+03  0.42678351658E+03  0.64740306901E+03  0.10100000352E+00 0.  1.
</event>
<event>
 5   0  0.8921459E-05  0.1100057E+04  0.7818609E-02  0.9205136E-01
       -1   -1    0    0    0  501  0.00000000000E+00  0.00000000000E+00  0.48939957304E+03  0.48939957306E+03  0.50400001928E-02 0. -1.
        1   -1    0    0  501    0  0.00000000000E+00  0.00000000000E+00 -0.61816835326E+03  0.61816835328E+03  0.50400001928E-02 0.  1.
    10030    2    1    2    0    0  0.00000000000E+00  0.00000000000E+00 -0.12876878022E+03  0.11075679263E+04  0.11000569588E+04 0.  0.
        3    1    3    3  502    0 -0.35438682317E+03 -0.77427263775E+02 -0.48066393532E+03  0.60218172550E+03  0.10100000352E+00 0.  1.
       -3    1    3    3    0  502  0.35438682317E+03  0.77427263775E+02  0.35189515510E+03  0.50538620084E+03  0.10100000352E+00 0. -1.
</event>
<event>
 5   0  0.9346836E-05  0.1099897E+04  0.7818609E-02  0.9205293E-01
        1   -1    0    0  501    0  0.00000000000E+00  0.00000000000E+00  0.15573905820E+04  0.15573905820E+04  0.50400001928E-02 0.  1.
       -1   -1    0    0    0  501  0.00000000000E+00  0.00000000000E+00 -0.19419863210E+03  0.19419863216E+03  0.50400001928E-02 0. -1.
    10030    2    1    2    0    0  0.00000000000E+00  0.00000000000E+00  0.13631919499E+04  0.17515892141E+04  0.10998965783E+04 0.  0.
        5    1    3    3  502    0  0.79902627922E+02  0.51828420248E+03  0.94528920512E+03  0.10810165197E+04  0.46999998093E+01 0. -1.
       -5    1    3    3    0  502 -0.79902627922E+02 -0.51828420248E+03  0.41790274475E+03  0.67057269446E+03  0.46999998093E+01 0.  1.
</event>
<event>
 5   0  0.1540772E-04  0.1100052E+04  0.7818609E-02  0.9205142E-01
        2   -1    0    0  501    0  0.00000000000E+00  0.00000000000E+00  0.23989002861E+03  0.23989002863E+03  0.25500000920E-02 0.  1.
       -2   -1    0    0    0  501  0.00000000000E+00  0.00000000000E+00 -0.12611126031E+04  0.12611126031E+04  0.25500000920E-02 0. -1.
    10030    2    1    2    0    0  0.00000000000E+00  0.00000000000E+00 -0.10212225745E+04  0.15010026317E+04  0.11000515232E+04 0.  0.
        2    1    3    3  502    0 -0.23180530116E+03 -0.36048615006E+03 -0.98100092387E+03  0.10705357419E+04  0.25500000920E-02 0. -1.
       -2    1    3    3    0  502  0.23180530116E+03  0.36048615006E+03 -0.40221650583E+02  0.43046688980E+03  0.25500000920E-02 0.  1.
</event>
<event>
 5   0  0.1464205E-04  0.1101331E+04  0.7818609E-02  0.9203895E-01
       -2   -1    0    0    0  501  0.00000000000E+00  0.00000000000E+00  0.16143127156E+03  0.16143127158E+03  0.25500000920E-02 0.  1.
        2   -1    0    0  501    0  0.00000000000E+00  0.00000000000E+00 -0.18784009002E+04  0.18784009002E+04  0.25500000920E-02 0. -1.
    10030    2    1    2    0    0  0.00000000000E+00  0.00000000000E+00 -0.17169696286E+04  0.20398321718E+04  0.11013312778E+04 0.  0.
        3    1    3    3  502    0  0.14944997912E+03 -0.52757065180E+03 -0.95231683155E+03  0.10988964677E+04  0.10100000352E+00 0. -1.
       -3    1    3    3    0  502 -0.14944997912E+03  0.52757065180E+03 -0.76465279708E+03  0.94093570407E+03  0.10100000352E+00 0.  1.
</event>
<event>
 5   0  0.1464205E-04  0.1100183E+04  0.7818609E-02  0.9205013E-01
       -2   -1    0    0    0  501  0.00000000000E+00  0.00000000000E+00  0.29801695243E+03  0.29801695244E+03  0.25500000920E-02 0.  1.
        2   -1    0    0  501    0  0.00000000000E+00  0.00000000000E+00 -0.10153809318E+04  0.10153809318E+04  0.25500000920E-02 0. -1.
    10030    2    1    2    0    0  0.00000000000E+00  0.00000000000E+00 -0.71736397936E+03  0.13133978842E+04  0.11001831318E+04 0.  0.
        3    1    3    3  502    0 -0.51682600288E+03 -0.17856396962E+03 -0.43037470518E+03  0.69585674212E+03  0.10100000352E+00 0. -1.
       -3    1    3    3    0  502  0.51682600288E+03  0.17856396962E+03 -0.28698927418E+03  0.61754114210E+03  0.10100000352E+00 0.  1.
</event>
<event>
 5   0  0.8621738E-05  0.1099845E+04  0.7818609E-02  0.9205343E-01
        1   -1    0    0  501    0  0.00000000000E+00  0.00000000000E+00  0.60718282890E+03  0.60718282892E+03  0.50400001928E-02 0.  1.
       -1   -1    0    0    0  501  0.00000000000E+00  0.00000000000E+00 -0.49806227137E+03  0.49806227139E+03  0.50400001928E-02 0. -1.
    10030    2    1    2    0    0  0.00000000000E+00  0.00000000000E+00  0.10912055753E+03  0.11052451003E+04  0.10998451871E+04 0.  0.
        2    1    3    3  502    0  0.28149901182E+02 -0.38549560141E+03  0.44765288091E+03  0.59143247919E+03  0.25500000920E-02 0.  1.
       -2    1    3    3    0  502 -0.28149901182E+02  0.38549560141E+03 -0.33853232338E+03  0.51381262112E+03  0.25500000920E-02 0. -1.
</event>
<event>
 5   0  0.1574101E-04  0.1099491E+04  0.7818609E-02  0.9205688E-01
       -2   -1    0    0    0  501  0.00000000000E+00  0.00000000000E+00  0.49639940434E+03  0.49639940435E+03  0.25500000920E-02 0.  1.
        2   -1    0    0  501    0  0.00000000000E+00  0.00000000000E+00 -0.60882420737E+03  0.60882420738E+03  0.25500000920E-02 0. -1.
    10030    2    1    2    0    0  0.00000000000E+00  0.00000000000E+00 -0.11242480303E+03  0.11052236117E+04  0.10994907437E+04 0.  0.
        4    1    3    3  502    0 -0.97645081089E+02  0.38850844796E+03 -0.43466581621E+03  0.59110858620E+03  0.12699999809E+01 0. -1.
       -4    1    3    3    0  502  0.97645081089E+02 -0.38850844796E+03  0.32224101318E+03  0.51411502552E+03  0.12699999809E+01 0.  1.
</event>
<event>
 5   0  0.1464205E-04  0.1100324E+04  0.7818609E-02  0.9204876E-01
        2   -1    0    0  501    0  0.00000000000E+00  0.00000000000E+00  0.15971716102E+04  0.15971716102E+04  0.25500000920E-02 0. -1.
       -2   -1    0    0    0  501  0.00000000000E+00  0.00000000000E+00 -0.18950882321E+03  0.18950882322E+03  0.25500000920E-02 0.  1.
    10030    2    1    2    0    0  0.00000000000E+00  0.00000000000E+00  0.14076627870E+04  0.17866804334E+04  0.11003237929E+04 0.  0.
        3    1    3    3  502    0  0.77561703059E+02 -0.98473460272E+02 -0.16601194300E+03  0.20802119021E+03  0.10100000352E+00 0.  1.
       -3    1    3    3    0  502 -0.77561703059E+02  0.98473460272E+02  0.15736747300E+04  0.15786592432E+04  0.10100000352E+00 0. -1.
</event>
<event>
 5   0  0.1464205E-04  0.1099933E+04  0.7818609E-02  0.9205257E-01
        2   -1    0    0  501    0  0.00000000000E+00  0.00000000000E+00  0.12817879708E+04  0.12817879708E+04  0.25500000920E-02 0. -1.
       -2   -1    0    0    0  501  0.00000000000E+00  0.00000000000E+00 -0.23596966124E+03  0.23596966125E+03  0.25500000920E-02 0.  1.
    10030    2    1    2    0    0  0.00000000000E+00  0.00000000000E+00  0.10458183096E+04  0.15177576321E+04  0.10999328584E+04 0.  0.
        3    1    3    3  502    0 -0.44749294712E+03  0.31178279152E+03  0.42529301264E+03  0.69161593650E+03  0.10100000352E+00 0.  1.
       -3    1    3    3    0  502  0.44749294712E+03 -0.31178279152E+03  0.62052529692E+03  0.82614169556E+03  0.10100000352E+00 0. -1.
</event>
<event>
 5   0  0.6010125E-05  0.1100431E+04  0.7818609E-02  0.9204772E-01
       -3   -1    0    0    0  501  0.00000000000E+00  0.00000000000E+00  0.67354463099E+03  0.67354463856E+03  0.10100000352E+00 0. -1.
        3   -1    0    0  501    0  0.00000000000E+00  0.00000000000E+00 -0.44946820601E+03  0.44946821736E+03  0.10100000352E+00 0.  1.
    10030    2    1    2    0    0  0.00000000000E+00  0.00000000000E+00  0.22407642498E+03  0.11230128559E+04  0.11004306568E+04 0.  0.
        1    1    3    3  502    0 -0.26725287483E+03  0.38126686536E+03  0.41122396589E+03  0.62120340620E+03  0.50400001928E-02 0. -1.
       -1    1    3    3    0  502  0.26725287483E+03 -0.38126686536E+03 -0.18714754092E+03  0.50180944972E+03  0.50400001928E-02 0.  1.
</event>
<event>
 5   0  0.1464205E-04  0.1099993E+04  0.7818609E-02  0.9205198E-01
       -2   -1    0    0    0  501  0.00000000000E+00  0.00000000000E+00  0.20184743445E+03  0.20184743447E+03  0.25500000920E-02 0. -1.
        2   -1    0    0  501    0  0.00000000000E+00  0.00000000000E+00 -0.14986388250E+04  0.14986388250E+04  0.25500000920E-02 0.  1.
    10030    2    1    2    0    0  0.00000000000E+00  0.00000000000E+00 -0.12967913905E+04  0.17004862595E+04  0.10999934582E+04 0.  0.
        3    1    3    3  502    0  0.18772607343E+03 -0.41236101280E+03 -0.11303954083E+04  0.12178162722E+04  0.10100000352E+00 0.  1.
       -3    1    3    3    0  502 -0.18772607343E+03  0.41236101280E+03 -0.16639598227E+03  0.48266998730E+03  0.10100000352E+00 0. -1.
</event>
<event>
 5   0  0.1503277E-04  0.1099680E+04  0.7818609E-02  0.9205504E-01
        2   -1    0    0  501    0  0.00000000000E+00  0.00000000000E+00  0.14869708949E+04  0.14869708949E+04  0.25500000920E-02 0. -1.
       -2   -1    0    0    0  501  0.00000000000E+00  0.00000000000E+00 -0.20331547926E+03  0.20331547928E+03  0.25500000920E-02 0.  1.
    10030    2    1    2    0    0  0.00000000000E+00  0.00000000000E+00  0.12836554156E+04  0.16902863742E+04  0.10996803175E+04 0.  0.
        5    1    3    3  502    0  0.54728108240E+03  0.35873793207E+02  0.70133037150E+03  0.89033133842E+03  0.46999998093E+01 0. -1.
       -5    1    3    3    0  502 -0.54728108240E+03 -0.35873793207E+02  0.58232504411E+03  0.79995503573E+03  0.46999998093E+01 0.  1.
</event>
<event>
 5   0  0.8921459E-05  0.1100798E+04  0.7818609E-02  0.9204415E-01
        1   -1    0    0  501    0  0.00000000000E+00  0.00000000000E+00  0.14600866670E+04  0.14600866670E+04  0.50400001928E-02 0. -1.
       -1   -1    0    0    0  501  0.00000000000E+00  0.00000000000E+00 -0.20748012223E+03  0.20748012229E+03  0.50400001928E-02 0.  1.
    10030    2    1    2    0    0  0.00000000000E+00  0.00000000000E+00  0.12526065448E+04  0.16675667893E+04  0.11007978201E+04 0.  0.
        3    1    3    3  502    0 -0.89017765523E+02 -0.18486501689E+03  0.13999853441E+04  0.14149410627E+04  0.10100000352E+00 0. -1.
       -3    1    3    3    0  502  0.89017765523E+02  0.18486501689E+03 -0.14737879932E+03  0.25262572660E+03  0.10100000352E+00 0.  1.
</event>
<event>
 5   0  0.6010125E-05  0.1100417E+04  0.7818609E-02  0.9204785E-01
       -3   -1    0    0    0  501  0.00000000000E+00  0.00000000000E+00  0.78116374135E+03  0.78116374788E+03  0.10100000352E+00 0. -1.
        3   -1    0    0  501    0  0.00000000000E+00  0.00000000000E+00 -0.38753658684E+03  0.38753660000E+03  0.10100000352E+00 0.  1.
    10030    2    1    2    0    0  0.00000000000E+00  0.00000000000E+00  0.39362715451E+03  0.11687003479E+04  0.11004172692E+04 0.  0.
        4    1    3    3  502    0 -0.13608916851E+03  0.32961885350E+03 -0.24818377004E+03  0.43447168721E+03  0.12699999809E+01 0.  1.
       -4    1    3    3    0  502  0.13608916851E+03 -0.32961885350E+03  0.64181092456E+03  0.73422866067E+03  0.12699999809E+01 0. -1.
</event>
<event>
 5   0  0.8621738E-05  0.1099921E+04  0.7818609E-02  0.9205269E-01
       -1   -1    0    0    0  501  0.00000000000E+00  0.00000000000E+00  0.20175671828E+04  0.20175671828E+04  0.50400001928E-02 0.  1.
        1   -1    0    0  501    0  0.00000000000E+00  0.00000000000E+00 -0.14991158882E+03  0.14991158891E+03  0.50400001928E-02 0. -1.
    10030    2    1    2    0    0  0.00000000000E+00  0.00000000000E+00  0.18676555940E+04  0.21674787717E+04  0.10999212736E+04 0.  0.
        2    1    3    3  502    0 -0.46778629967E+03  0.20888072784E+03  0.53970504592E+03  0.74413487837E+03  0.25500000920E-02 0. -1.
       -2    1    3    3    0  502  0.46778629967E+03 -0.20888072784E+03  0.13279505481E+04  0.14233438934E+04  0.25500000920E-02 0.  1.
</event>
<event>
 5   0  0.9016738E-05  0.1099633E+04  0.7818609E-02  0.9205550E-01
        1   -1    0    0  501    0  0.00000000000E+00  0.00000000000E+00  0.67263190576E+03  0.67263190578E+03  0.50400001928E-02 0. -1.
       -1   -1    0    0    0  501  0.00000000000E+00  0.00000000000E+00 -0.44942555547E+03  0.44942555550E+03  0.50400001928E-02 0.  1.
    10030    2    1    2    0    0  0.00000000000E+00  0.00000000000E+00  0.22320635029E+03  0.11220574613E+04  0.10996326075E+04 0.  0.
        4    1    3    3  502    0 -0.25410599705E+03 -0.76188421112E+02 -0.37980038132E+03  0.46327580965E+03  0.12699999809E+01 0.  1.
       -4    1    3    3    0  502  0.25410599705E+03  0.76188421112E+02  0.60300673161E+03  0.65878165163E+03  0.12699999809E+01 0. -1.
</event>
<event>
 5   0  0.1464205E-04  0.1101701E+04  0.7818609E-02  0.9203536E-01
        2   -1    0    0  501    0  0.00000000000E+00  0.00000000000E+00  0.22408086926E+04  0.22408086926E+04  0.25500000920E-02 0.  1.
       -2   -1    0    0    0  501  0.00000000000E+00  0.00000000000E+00 -0.13541368010E+03  0.13541368012E+03  0.25500000920E-02 0. -1.
    10030    2    1    2    0    0  0.00000000000E+00  0.00000000000E+00  0.21053950125E+04  0.23762223727E+04  0.11017007788E+04 0.  0.
        3    1    3    3  502    0  0.31529177293E+03 -0.23236439129E+03  0.18881433637E+04  0.19283380109E+04  0.10100000352E+00 0.  1.
       -3    1    3    3    0  502 -0.31529177293E+03  0.23236439129E+03  0.21725164884E+03  0.44788436180E+03  0.10100000352E+00 0. -1.
</event>
<event>
 5   0  0.1464205E-04  0.1099334E+04  0.7818609E-02  0.9205842E-01
       -2   -1    0    0    0  501  0.00000000000E+00  0.00000000000E+00  0.67514594331E+03  0.67514594331E+03  0.25500000920E-02 0.  1.
        2   -1    0    0  501    0  0.00000000000E+00  0.00000000000E+00 -0.44750862015E+03  0.44750862016E+03  0.25500000920E-02 0. -1.
    10030    2    1    2    0    0  0.00000000000E+00  0.00000000000E+00  0.22763732316E+03  0.11226545635E+04  0.10993336700E+04 0.  0.
        3    1    3    3  502    0  0.58352552636E+02  0.22751790936E+03  0.62131582304E+03  0.66423097010E+03  0.10100000352E+00 0.  1.
       -3    1    3    3    0  502 -0.58352552636E+02 -0.22751790936E+03 -0.39367849989E+03  0.45842359336E+03  0.10100000352E+00 0. -1.
</event>
<event>
 5   0  0.1553937E-04  0.1099981E+04  0.7818609E-02  0.9205211E-01
        2   -1    0    0  501    0  0.00000000000E+00  0.00000000000E+00  0.13526353683E+04  0.13526353683E+04  0.25500000920E-02 0. -1.
       -2   -1    0    0    0  501  0.00000000000E+00  0.00000000000E+00 -0.22362966328E+03  0.22362966329E+03  0.25500000920E-02 0.  1.
    10030    2    1    2    0    0  0.00000000000E+00  0.00000000000E+00  0.11290057050E+04  0.15762650316E+04  0.10999807125E+04 0.  0.
        1    1    3    3  502    0 -0.48852905419E+03  0.14401421129E+03  0.26704483733E+03  0.57507710353E+03  0.50400001928E-02 0.  1.
       -1    1    3    3    0  502  0.48852905419E+03 -0.14401421129E+03  0.86196086768E+03  0.10011879281E+04  0.50400001928E-02 0. -1.
</event>
<event>
 5   0  0.8657442E-05  0.1102873E+04  0.7818609E-02  0.9202396E-01
        1   -1    0    0  501    0  0.00000000000E+00  0.00000000000E+00  0.87672490937E+03  0.87672490938E+03  0.50400001928E-02 0.  1.
       -1   -1    0    0    0  501  0.00000000000E+00  0.00000000000E+00 -0.34683862049E+03  0.34683862053E+03  0.50400001928E-02 0. -1.
    10030    2    1    2    0    0  0.00000000000E+00  0.00000000000E+00  0.52988628888E+03  0.12235635299E+04  0.11028727182E+04 0.  0.
        1    1    3    3  502    0  0.17279005283E+02  0.14376076994E+03 -0.32537154984E+03  0.35613532325E+03  0.50400001928E-02 0. -1.
       -1    1    3    3    0  502 -0.17279005283E+02 -0.14376076994E+03  0.85525783871E+03  0.86742820666E+03  0.50400001928E-02 0.  1.
</event>
<event>
 5   0  0.1540772E-04  0.1099782E+04  0.7818609E-02  0.9205404E-01
        2   -1    0    0  501    0  0.00000000000E+00  0.00000000000E+00  0.29009647509E+04  0.29009647509E+04  0.25500000920E-02 0. -1.
       -2   -1    0    0    0  501  0.00000000000E+00  0.00000000000E+00 -0.10423439620E+03  0.10423439623E+03  0.25500000920E-02 0.  1.
    10030    2    1    2    0    0  0.00000000000E+00  0.00000000000E+00  0.27967303547E+04  0.30051991471E+04  0.10997823589E+04 0.  0.
        2    1    3    3  502    0  0.39243786581E+03  0.26112238661E+03  0.62457892593E+03  0.78249039229E+03  0.25500000920E-02 0.  1.
       -2    1    3    3    0  502 -0.39243786581E+03 -0.26112238661E+03  0.21721514287E+04  0.22227087548E+04  0.25500000920E-02 0. -1.
</event>
<event>
 5   0  0.1464205E-04  0.1099977E+04  0.7818609E-02  0.9205214E-01
        2   -1    0    0  501    0  0.00000000000E+00  0.00000000000E+00  0.71265489878E+03  0.71265489879E+03  0.25500000920E-02 0. -1.
       -2   -1    0    0    0  501  0.00000000000E+00  0.00000000000E+00 -0.42445169410E+03  0.42445169411E+03  0.25500000920E-02 0.  1.
    10030    2    1    2    0    0  0.00000000000E+00  0.00000000000E+00  0.28820320468E+03  0.11371065929E+04  0.10999774163E+04 0.  0.
        3    1    3    3  502    0  0.17037256504E+03 -0.44807460449E+03  0.42281283035E+03  0.63919352455E+03  0.10100000352E+00 0. -1.
       -3    1    3    3    0  502 -0.17037256504E+03  0.44807460449E+03 -0.13460962567E+03  0.49791306835E+03  0.10100000352E+00 0.  1.
</event>
<event>
 5   0  0.8657442E-05  0.1099859E+04  0.7818609E-02  0.9205329E-01
       -1   -1    0    0    0  501  0.00000000000E+00  0.00000000000E+00  0.23462944771E+03  0.23462944777E+03  0.50400001928E-02 0. -1.
        1   -1    0    0  501    0  0.00000000000E+00  0.00000000000E+00 -0.12889370600E+04  0.12889370600E+04  0.50400001928E-02 0.  1.
    10030    2    1    2    0    0  0.00000000000E+00  0.00000000000E+00 -0.10543076123E+04  0.15235665078E+04  0.10998592466E+04 0.  0.
        1    1    3    3  502    0 -0.53404783783E+03 -0.13102057683E+03 -0.51744666869E+03  0.75506591739E+03  0.50400001928E-02 0.  1.
       -1    1    3    3    0  502  0.53404783783E+03  0.13102057683E+03 -0.53686094359E+03  0.76850059038E+03  0.50400001928E-02 0. -1.
</event>
<event>
 5   0  0.1574101E-04  0.1099437E+04  0.7818609E-02  0.9205741E-01
       -2   -1    0    0    0  501  0.00000000000E+00  0.00000000000E+00  0.14246372415E+03  0.14246372417E+03  0.25500000920E-02 0. -1.
        2   -1    0    0  501    0  0.00000000000E+00  0.00000000000E+00 -0.21211736095E+04  0.21211736095E+04  0.25500000920E-02 0.  1.
    10030    2    1    2    0    0  0.00000000000E+00  0.00000000000E+00 -0.19787098854E+04  0.22636373337E+04  0.10994367504E+04 0.  0.
        4    1    3    3  502    0 -0.22001969767E+03  0.43904157620E+03 -0.14979611052E+04  0.15764058039E+04  0.12699999809E+01 0.  1.
       -4    1    3    3    0  502  0.22001969767E+03 -0.43904157620E+03 -0.48074878013E+03  0.68723152976E+03  0.12699999809E+01 0. -1.
</event>
<event>
 5   0  0.9346836E-05  0.1096184E+04  0.7818609E-02  0.9208919E-01
        1   -1    0    0  501    0  0.00000000000E+00  0.00000000000E+00  0.10523119482E+04  0.10523119482E+04  0.50400001928E-02 0.  1.
       -1   -1    0    0    0  501  0.00000000000E+00  0.00000000000E+00 -0.28547143967E+03  0.28547143972E+03  0.50400001928E-02 0. -1.
    10030    2    1    2    0    0  0.00000000000E+00  0.00000000000E+00  0.76684050855E+03  0.13377833880E+04  0.10961843036E+04 0.  0.
        5    1    3    3  502    0  0.52468740202E+03 -0.66266930230E+02  0.55898294059E+03  0.76952725342E+03  0.46999998093E+01 0. -1.
       -5    1    3    3    0  502 -0.52468740202E+03  0.66266930230E+02  0.20785756796E+03  0.56825613453E+03  0.46999998093E+01 0.  1.
</event>
<event>
 5   0  0.1503277E-04  0.1099998E+04  0.7818609E-02  0.9205193E-01
        2   -1    0    0  501    0  0.00000000000E+00  0.00000000000E+00  0.12172586260E+04  0.12172586260E+04  0.25500000920E-02 0.  1.
       -2   -1    0    0    0  501  0.00000000000E+00  0.00000000000E+00 -0.24850850406E+03  0.24850850407E+03  0.25500000920E-02 0. -1.
    10030    2    1    2    0    0  0.00000000000E+00  0.00000000000E+00  0.96875012191E+03  0.14657671300E+04  0.10999984004E+04 0.  0.
        5    1    3    3  502    0 -0.11249995157E+03  0.53827756078E+03  0.49614796131E+03  0.74066447265E+03  0.46999998093E+01 0. -1.
       -5    1    3    3    0  502  0.11249995157E+03 -0.53827756078E+03  0.47260216060E+03  0.72510265738E+03  0.46999998093E+01 0.  1.
</event>
<event>
 5   0  0.1574101E-04  0.1105891E+04  0.7818609E-02  0.9199469E-01
       -2   -1    0    0    0  501  0.00000000000E+00  0.00000000000E+00  0.20993581085E+03  0.20993581086E+03  0.25500000920E-02 0. -1.
        2   -1    0    0  501    0  0.00000000000E+00  0.00000000000E+00 -0.14563905648E+04  0.14563905648E+04  0.25500000920E-02 0.  1.
    10030    2    1    2    0    0  0.00000000000E+00  0.00000000000E+00 -0.12464547539E+04  0.16663263757E+04  0.11058906531E+04 0.  0.
        4    1    3    3  502    0 -0.17930747481E+03  0.35885142162E+03 -0.11966360583E+04  0.12620875494E+04  0.12699999809E+01 0.  1.
       -4    1    3    3    0  502  0.17930747481E+03 -0.35885142162E+03 -0.49818695605E+02  0.40423882626E+03  0.12699999809E+01 0. -1.
</event>
<event>
 5   0  0.1464205E-04  0.1100094E+04  0.7818609E-02  0.9205100E-01
        2   -1    0    0  501    0  0.00000000000E+00  0.00000000000E+00  0.58556301409E+03  0.58556301409E+03  0.25500000920E-02 0.  1.
       -2   -1    0    0    0  501  0.00000000000E+00  0.00000000000E+00 -0.51668502554E+03  0.51668502555E+03  0.25500000920E-02 0. -1.
    10030    2    1    2    0    0  0.00000000000E+00  0.00000000000E+00  0.68877988545E+02  0.11022480396E+04  0.11000938885E+04 0.  0.
        3    1    3    3  502    0  0.24077775628E+03 -0.48614921128E+03 -0.56494695547E+02  0.54544169659E+03  0.10100000352E+00 0.  1.
       -3    1    3    3    0  502 -0.24077775628E+03  0.48614921128E+03  0.12537268409E+03  0.55680634306E+03  0.10100000352E+00 0. -1.
</event>
<event>
 5   0  0.1464205E-04  0.1099518E+04  0.7818609E-02  0.9205662E-01
       -2   -1    0    0    0  501  0.00000000000E+00  0.00000000000E+00  0.56759657410E+03  0.56759657411E+03  0.25500000920E-02 0. -1.
        2   -1    0    0  501    0  0.00000000000E+00  0.00000000000E+00 -0.53248206865E+03  0.53248206866E+03  0.25500000920E-02 0.  1.
    10030    2    1    2    0    0  0.00000000000E+00  0.00000000000E+00  0.35114505451E+02  0.11000786428E+04  0.10995180725E+04 0.  0.
        3    1    3    3  502    0 -0.23960400936E+03  0.12442923091E+03 -0.46158383811E+03  0.53474513987E+03  0.10100000352E+00 0.  1.
       -3    1    3    3    0  502  0.23960400936E+03 -0.12442923091E+03  0.49669834356E+03  0.56533350290E+03  0.10100000352E+00 0. -1.
</event>
<event>
 5   0  0.1574101E-04  0.1099868E+04  0.7818609E-02  0.9205320E-01
        2   -1    0    0  501    0  0.00000000000E+00  0.00000000000E+00  0.80679634936E+03  0.80679634937E+03  0.25500000920E-02 0. -1.
       -2   -1    0    0    0  501  0.00000000000E+00  0.00000000000E+00 -0.37484998225E+03  0.37484998226E+03  0.25500000920E-02 0.  1.
    10030    2    1    2    0    0  0.00000000000E+00  0.00000000000E+00  0.43194636711E+03  0.11816463316E+04  0.10998683508E+04 0.  0.
        4    1    3    3  502    0 -0.51205019630E+03 -0.19840527284E+03  0.18435857341E+03  0.57926656412E+03  0.12699999809E+01 0.  1.
       -4    1    3    3    0  502  0.51205019630E+03  0.19840527284E+03  0.24758779370E+03  0.60237976751E+03  0.12699999809E+01 0. -1.
</event>
<event>
 5   0  0.1464205E-04  0.1100089E+04  0.7818609E-02  0.9205105E-01
       -2   -1    0    0    0  501  0.00000000000E+00  0.00000000000E+00  0.10801538160E+04  0.10801538160E+04  0.25500000920E-02 0.  1.
        2   -1    0    0  501    0  0.00000000000E+00  0.00000000000E+00 -0.28009825912E+03  0.28009825913E+03  0.25500000920E-02 0. -1.
    10030    2    1    2    0    0  0.00000000000E+00  0.00000000000E+00  0.80005555692E+03  0.13602520752E+04  0.11000894572E+04 0.  0.
        3    1    3    3  502    0 -0.37751689281E+03 -0.10922473867E+03  0.87587675212E+03  0.96000476196E+03  0.10100000352E+00 0.  1.
       -3    1    3    3    0  502  0.37751689281E+03  0.10922473867E+03 -0.75821195196E+02  0.40024731322E+03  0.10100000352E+00 0. -1.
</event>
<event>
 5   0  0.6010125E-05  0.1100279E+04  0.7818609E-02  0.9204920E-01
       -3   -1    0    0    0  501  0.00000000000E+00  0.00000000000E+00  0.44156130695E+03  0.44156131850E+03  0.10100000352E+00 0.  1.
        3   -1    0    0  501    0  0.00000000000E+00  0.00000000000E+00 -0.68541711226E+03  0.68541711971E+03  0.10100000352E+00 0. -1.
    10030    2    1    2    0    0  0.00000000000E+00  0.00000000000E+00 -0.24385580531E+03  0.11269784382E+04  0.11002793947E+04 0.  0.
        4    1    3    3  502    0  0.27161568405E+03  0.33093966539E+03 -0.47579047556E+03  0.64005806883E+03  0.12699999809E+01 0. -1.
       -4    1    3    3    0  502 -0.27161568405E+03 -0.33093966539E+03  0.23193467024E+03  0.48692036937E+03  0.12699999809E+01 0.  1.
</event>
<event>
 5   0  0.8921459E-05  0.1100881E+04  0.7818609E-02  0.9204333E-01
       -1   -1    0    0    0  501  0.00000000000E+00  0.00000000000E+00  0.36348183650E+03  0.36348183654E+03  0.50400001928E-02 0. -1.
        1   -1    0    0  501    0  0.00000000000E+00  0.00000000000E+00 -0.83356273772E+03  0.83356273773E+03  0.50400001928E-02 0.  1.
    10030    2    1    2    0    0  0.00000000000E+00  0.00000000000E+00 -0.47008090121E+03  0.11970445743E+04  0.11008813102E+04 0.  0.
        3    1    3    3  502    0 -0.51252254679E+03 -0.17771552375E+02 -0.45248272458E+03  0.68391214003E+03  0.10100000352E+00 0.  1.
       -3    1    3    3    0  502  0.51252254679E+03  0.17771552375E+02 -0.17598176637E+02  0.51313243424E+03  0.10100000352E+00 0. -1.
</event>
<event>
 5   0  0.1553937E-04  0.1099989E+04  0.7818609E-02  0.9205203E-01
       -2   -1    0    0    0  501  0.00000000000E+00  0.00000000000E+00  0.27679005906E+03  0.27679005907E+03  0.25500000920E-02 0. -1.
        2   -1    0    0  501    0  0.00000000000E+00  0.00000000000E+00 -0.10928642295E+04  0.10928642295E+04  0.25500000920E-02 0.  1.
    10030    2    1    2    0    0  0.00000000000E+00  0.00000000000E+00 -0.81607417041E+03  0.13696542885E+04  0.10999890084E+04 0.  0.
        1    1    3    3  502    0 -0.34857061038E+03  0.39112816469E+03 -0.61643281058E+03  0.80899451273E+03  0.50400001928E-02 0. -1.
       -1    1    3    3    0  502  0.34857061038E+03 -0.39112816469E+03 -0.19964135982E+03  0.56065977582E+03  0.50400001928E-02 0.  1.
</event>
<event>
 5   0  0.8657442E-05  0.1099801E+04  0.7818609E-02  0.9205386E-01
        1   -1    0    0  501    0  0.00000000000E+00  0.00000000000E+00  0.87049919330E+03  0.87049919332E+03  0.50400001928E-02 0. -1.
       -1   -1    0    0    0  501  0.00000000000E+00  0.00000000000E+00 -0.34737589642E+03  0.34737589645E+03  0.50400001928E-02 0.  1.
    10030    2    1    2    0    0  0.00000000000E+00  0.00000000000E+00  0.52312329688E+03  0.12178750898E+04  0.10998007777E+04 0.  0.
        1    1    3    3  502    0  0.85057879216E+02  0.31566067323E+03 -0.22807913316E+03  0.39861835689E+03  0.50400001928E-02 0.  1.
       -1    1    3    3    0  502 -0.85057879216E+02 -0.31566067323E+03  0.75120243005E+03  0.81925673288E+03  0.50400001928E-02 0. -1.
</event>
<event>
 5   0  0.1574101E-04  0.1100202E+04  0.7818609E-02  0.9204995E-01
        2   -1    0    0  501    0  0.00000000000E+00  0.00000000000E+00  0.12076472056E+04  0.12076472056E+04  0.25500000920E-02 0. -1.
       -2   -1    0    0    0  501  0.00000000000E+00  0.00000000000E+00 -0.25057901996E+03  0.25057901997E+03  0.25500000920E-02 0.  1.
    10030    2    1    2    0    0  0.00000000000E+00  0.00000000000E+00  0.95706818561E+03  0.14582262255E+04  0.11002018964E+04 0.  0.
        4    1    3    3  502    0 -0.40643283452E+03 -0.13391412317E+03  0.20375207693E+02  0.42841265545E+03  0.12699999809E+01 0.  1.
       -4    1    3    3    0  502  0.40643283452E+03  0.13391412317E+03  0.93669297792E+03  0.10298135701E+04  0.12699999809E+01 0. -1.
</event>
<event>
 5   0  0.1574101E-04  0.1100170E+04  0.7818609E-02  0.9205026E-01
       -2   -1    0    0    0  501  0.00000000000E+00  0.00000000000E+00  0.48225702454E+03  0.48225702455E+03  0.25500000920E-02 0. -1.
        2   -1    0    0  501    0  0.00000000000E+00  0.00000000000E+00 -0.62745271130E+03  0.62745271131E+03  0.25500000920E-02 0.  1.
    10030    2    1    2    0    0  0.00000000000E+00  0.00000000000E+00 -0.14519568676E+03  0.11097097359E+04  0.11001699461E+04 0.  0.
        4    1    3    3  502    0 -0.33994744948E+03 -0.39142828886E+03 -0.25807130619E+03  0.57912242722E+03  0.12699999809E+01 0. -1.
       -4    1    3    3    0  502  0.33994744948E+03  0.39142828886E+03  0.11287561943E+03  0.53058730864E+03  0.12699999809E+01 0.  1.
</event>
<event>
 5   0  0.9346836E-05  0.1100511E+04  0.7818609E-02  0.9204694E-01
       -1   -1    0    0    0  501  0.00000000000E+00  0.00000000000E+00  0.16121052211E+03  0.16121052219E+03  0.50400001928E-02 0. -1.
        1   -1    0    0  501    0  0.00000000000E+00  0.00000000000E+00 -0.18781716991E+04  0.18781716991E+04  0.50400001928E-02 0.  1.
    10030    2    1    2    0    0  0.00000000000E+00  0.00000000000E+00 -0.17169611770E+04  0.20393822213E+04  0.11005108638E+04 0.  0.
        5    1    3    3  502    0  0.37441247835E+03  0.23415806909E+01 -0.11130470472E+03  0.39064179786E+03  0.46999998093E+01 0. -1.
       -5    1    3    3    0  502 -0.37441247835E+03 -0.23415806909E+01 -0.16056564723E+04  0.16487404235E+04  0.46999998093E+01 0.  1.
</event>
<event>
 5   0  0.1574101E-04  0.1100406E+04  0.7818609E-02  0.9204796E-01
       -2   -1    0    0    0  501  0.00000000000E+00  0.00000000000E+00  0.32996161516E+03  0.32996161516E+03  0.25500000920E-02 0. -1.
        2   -1    0    0  501    0  0.00000000000E+00  0.00000000000E+00 -0.91745005070E+03  0.91745005070E+03  0.25500000920E-02 0.  1.
    10030    2    1    2    0    0  0.00000000000E+00  0.00000000000E+00 -0.58748843554E+03  0.12474116659E+04  0.11004059261E+04 0.  0.
        4    1    3    3  502    0  0.94996106057E+02 -0.19142433039E+03  0.28099283062E+03  0.35302424590E+03  0.12699999809E+01 0. -1.
       -4    1    3    3    0  502 -0.94996106057E+02  0.19142433039E+03 -0.86848126616E+03  0.89438741997E+03  0.12699999809E+01 0.  1.
</event>
<event>
 5   0  0.1553937E-04  0.1100365E+04  0.7818609E-02  0.9204836E-01
        2   -1    0    0  501    0  0.00000000000E+00  0.00000000000E+00  0.12474741504E+04  0.12474741504E+04  0.25500000920E-02 0.  1.
       -2   -1    0    0    0  501  0.00000000000E+00  0.00000000000E+00 -0.24265103141E+03  0.24265103143E+03  0.25500000920E-02 0. -1.
    10030    2    1    2    0    0  0.00000000000E+00  0.00000000000E+00  0.10048231190E+04  0.14901251818E+04  0.11003651926E+04 0.  0.
        1    1    3    3  502    0 -0.41970214581E+03  0.34297578448E+03  0.37452218022E+03  0.65882406107E+03  0.50400001928E-02 0. -1.
       -1    1    3    3    0  502  0.41970214581E+03 -0.34297578448E+03  0.63030093874E+03  0.83130112074E+03  0.50400001928E-02 0.  1.
</event>
<event>
 5   0  0.9016738E-05  0.1099982E+04  0.7818609E-02  0.9205210E-01
        1   -1    0    0  501    0  0.00000000000E+00  0.00000000000E+00  0.41825921867E+03  0.41825921870E+03  0.50400001928E-02 0. -1.
       -1   -1    0    0    0  501  0.00000000000E+00  0.00000000000E+00 -0.72321151339E+03  0.72321151341E+03  0.50400001928E-02 0.  1.
    10030    2    1    2    0    0  0.00000000000E+00  0.00000000000E+00 -0.30495229473E+03  0.11414707321E+04  0.10999816045E+04 0.  0.
        4    1    3    3  502    0  0.16616380829E+03  0.50549462106E+03 -0.81137689141E+01  0.53216789573E+03  0.12699999809E+01 0.  1.
       -4    1    3    3    0  502 -0.16616380829E+03 -0.50549462106E+03 -0.29683852581E+03  0.60930283637E+03  0.12699999809E+01 0. -1.
</event>
<event>
 5   0  0.9346836E-05  0.1100092E+04  0.7818609E-02  0.9205102E-01
        1   -1    0    0  501    0  0.00000000000E+00  0.00000000000E+00  0.79469318433E+03  0.79469318434E+03  0.50400001928E-02 0.  1.
       -1   -1    0    0    0  501  0.00000000000E+00  0.00000000000E+00 -0.38071378293E+03  0.38071378297E+03  0.50400001928E-02 0. -1.
    10030    2    1    2    0    0  0.00000000000E+00  0.00000000000E+00  0.41397940139E+03  0.11754069673E+04  0.11000920843E+04 0.  0.
        5    1    3    3  502    0 -0.26024838144E+02  0.17410614062E+03 -0.34977896128E+03  0.39160905525E+03  0.46999998093E+01 0. -1.
       -5    1    3    3    0  502  0.26024838144E+02 -0.17410614062E+03  0.76375836267E+03  0.78379791206E+03  0.46999998093E+01 0.  1.
</event>
<event>
 5   0  0.8921459E-05  0.1100032E+04  0.7818609E-02  0.9205160E-01
       -1   -1    0    0    0  501  0.00000000000E+00  0.00000000000E+00  0.24085155053E+03  0.24085155058E+03  0.50400001928E-02 0.  1.
        1   -1    0    0  501    0  0.00000000000E+00  0.00000000000E+00 -0.12560343118E+04  0.12560343118E+04  0.50400001928E-02 0. -1.
    10030    2    1    2    0    0  0.00000000000E+00  0.00000000000E+00 -0.10151827612E+04  0.14968858624E+04  0.11000323842E+04 0.  0.
        3    1    3    3  502    0 -0.43042579431E+03  0.11383867237E+03 -0.94704102474E+03  0.10464761442E+04  0.10100000352E+00 0. -1.
       -3    1    3    3    0  502  0.43042579431E+03 -0.11383867237E+03 -0.68141736511E+02  0.45040971813E+03  0.10100000352E+00 0.  1.
</event>
<event>
 5   0  0.1574101E-04  0.1100027E+04  0.7818609E-02  0.9205165E-01
        2   -1    0    0  501    0  0.00000000000E+00  0.00000000000E+00  0.19785447038E+04  0.19785447038E+04  0.25500000920E-02 0.  1.
       -2   -1    0    0    0  501  0.00000000000E+00  0.00000000000E+00 -0.15289772951E+03  0.15289772953E+03  0.25500000920E-02 0. -1.
    10030    2    1    2    0    0  0.00000000000E+00  0.00000000000E+00  0.18256469743E+04  0.21314424333E+04  0.11000272596E+04 0.  0.
        4    1    3    3  502    0 -0.45719029241E+03 -0.81721290366E+01  0.32058239698E+03  0.55844823692E+03  0.12699999809E+01 0. -1.
       -4    1    3    3    0  502  0.45719029241E+03  0.81721290366E+01  0.15050645773E+04  0.15729941964E+04  0.12699999809E+01 0.  1.
</event>
<event>
 5   0  0.1553937E-04  0.1100046E+04  0.7818609E-02  0.9205147E-01
       -2   -1    0    0    0  501  0.00000000000E+00  0.00000000000E+00  0.26836422320E+03  0.26836422321E+03  0.25500000920E-02 0.  1.
        2   -1    0    0  501    0  0.00000000000E+00  0.00000000000E+00 -0.11272935967E+04  0.11272935967E+04  0.25500000920E-02 0. -1.
    10030    2    1    2    0    0  0.00000000000E+00  0.00000000000E+00 -0.85892937351E+03  0.13956578199E+04  0.11000459452E+04 0.  0.
        1    1    3    3  502    0 -0.26875494471E+03  0.41014083236E+03 -0.11334910838E+03  0.50328197173E+03  0.50400001928E-02 0.  1.
       -1    1    3    3    0  502  0.26875494471E+03 -0.41014083236E+03 -0.74558026513E+03  0.89237584819E+03  0.50400001928E-02 0. -1.
</event>
<event>
 5   0  0.1540772E-04  0.1099831E+04  0.7818609E-02  0.9205357E-01
        2   -1    0    0  501    0  0.00000000000E+00  0.00000000000E+00  0.59118055316E+03  0.59118055317E+03  0.25500000920E-02 0.  1.
       -2   -1    0    0    0  501  0.00000000000E+00  0.00000000000E+00 -0.51153062430E+03  0.51153062431E+03  0.25500000920E-02 0. -1.
    10030    2    1    2    0    0  0.00000000000E+00  0.00000000000E+00  0.79649928861E+02  0.11027111775E+04  0.10998308187E+04 0.  0.
        2    1    3    3  502    0  0.10802620040E+03  0.52456443628E+03 -0.85279417748E+02  0.54231917436E+03  0.25500000920E-02 0.  1.
       -2    1    3    3    0  502 -0.10802620040E+03 -0.52456443628E+03  0.16492934661E+03  0.56039200312E+03  0.25500000920E-02 0. -1.
</event>
<event>
 5   0  0.1503277E-04  0.1098800E+04  0.7818609E-02  0.9206362E-01
        2   -1    0    0  501    0  0.00000000000E+00  0.00000000000E+00  0.48408096056E+03  0.48408096056E+03  0.25500000920E-02 0. -1.
       -2   -1    0    0    0  501  0.00000000000E+00  0.00000000000E+00 -0.62353291761E+03  0.62353291762E+03  0.25500000920E-02 0.  1.
    10030    2    1    2    0    0  0.00000000000E+00  0.00000000000E+00 -0.13945195706E+03  0.11076138782E+04  0.10988000978E+04 0.  0.
        5    1    3    3  502    0  0.42896281352E+03 -0.64905893582E+02 -0.40947020517E+03  0.59658177086E+03  0.46999998093E+01 0.  1.
       -5    1    3    3    0  502 -0.42896281352E+03  0.64905893582E+02  0.27001824811E+03  0.51103210732E+03  0.46999998093E+01 0. -1.
</event>
<event>
 5   0  0.1540772E-04  0.1101058E+04  0.7818609E-02  0.9204161E-01
        2   -1    0    0  501    0  0.00000000000E+00  0.00000000000E+00  0.99654297482E+03  0.99654297482E+03  0.25500000920E-02 0. -1.
       -2   -1    0    0    0  501  0.00000000000E+00  0.00000000000E+00 -0.30413379841E+03  0.30413379842E+03  0.25500000920E-02 0.  1.
    10030    2    1    2    0    0  0.00000000000E+00  0.00000000000E+00  0.69240917641E+03  0.13006767732E+04  0.11010584003E+04 0.  0.
        2    1    3    3  502    0 -0.44628924392E+03  0.54818157647E+02  0.72144678813E+03  0.85009681081E+03  0.25500000920E-02 0. -1.
       -2    1    3    3    0  502  0.44628924392E+03 -0.54818157647E+02 -0.29037611716E+02  0.45057996243E+03  0.25500000920E-02 0.  1.
</event>
<event>
 5   0  0.8921459E-05  0.1099080E+04  0.7818609E-02  0.9206089E-01
       -1   -1    0    0    0  501  0.00000000000E+00  0.00000000000E+00  0.19205517841E+03  0.19205517847E+03  0.50400001928E-02 0. -1.
        1   -1    0    0  501    0  0.00000000000E+00  0.00000000000E+00 -0.15724346443E+04  0.15724346443E+04  0.50400001928E-02 0.  1.
    10030    2    1    2    0    0  0.00000000000E+00  0.00000000000E+00 -0.13803794659E+04  0.17644898228E+04  0.10990800084E+04 0.  0.
        3    1    3    3  502    0  0.20632320734E+03 -0.30694589400E+03 -0.13427293874E+04  0.13927337383E+04  0.10100000352E+00 0.  1.
       -3    1    3    3    0  502 -0.20632320734E+03  0.30694589400E+03 -0.37650078456E+02  0.37175608447E+03  0.10100000352E+00 0. -1.
</event>
<event>
 5   0  0.1553937E-04  0.1100238E+04  0.7818609E-02  0.9204960E-01
        2   -1    0    0  501    0  0.00000000000E+00  0.00000000000E+00  0.11359288409E+04  0.11359288409E+04  0.25500000920E-02 0.  1.
       -2   -1    0    0    0  501  0.00000000000E+00  0.00000000000E+00 -0.26641701463E+03  0.26641701464E+03  0.25500000920E-02 0. -1.
    10030    2    1    2    0    0  0.00000000000E+00  0.00000000000E+00  0.86951182625E+03  0.14023458555E+04  0.11002377391E+04 0.  0.
        1    1    3    3  502    0 -0.63238884235E+02 -0.45230993084E+03  0.43877346132E+02  0.45881221818E+03  0.50400001928E-02 0. -1.
       -1    1    3    3    0  502  0.63238884235E+02  0.45230993084E+03  0.82563448012E+03  0.94353363735E+03  0.50400001928E-02 0.  1.
</event>
<event>
 5   0  0.8621738E-05  0.1099698E+04  0.7818609E-02  0.9205486E-01
        1   -1    0    0  501    0  0.00000000000E+00  0.00000000000E+00  0.25569808396E+03  0.25569808401E+03  0.50400001928E-02 0.  1.
       -1   -1    0    0    0  501  0.00000000000E+00  0.00000000000E+00 -0.11823869441E+04  0.11823869441E+04  0.50400001928E-02 0. -1.
    10030    2    1    2    0    0  0.00000000000E+00  0.00000000000E+00 -0.92668886010E+03  0.14380850281E+04  0.10996982789E+04 0.  0.
        2    1    3    3  502    0  0.31157563200E+01 -0.40862548405E+03  0.17760136226E+02  0.40902312478E+03  0.25500000920E-02 0.  1.
       -2    1    3    3    0  502 -0.31157563200E+01  0.40862548405E+03 -0.94444899632E+03  0.10290619033E+04  0.25500000920E-02 0. -1.
</event>
<event>
 5   0  0.9016738E-05  0.1103519E+04  0.7818609E-02  0.9201769E-01
        1   -1    0    0  501    0  0.00000000000E+00  0.00000000000E+00  0.42434886234E+03  0.42434886237E+03  0.50400001928E-02 0.  1.
       -1   -1    0    0    0  501  0.00000000000E+00  0.00000000000E+00 -0.71742455686E+03  0.71742455688E+03  0.50400001928E-02 0. -1.
    10030    2    1    2    0    0  0.00000000000E+00  0.00000000000E+00 -0.29307569452E+03  0.11417734192E+04  0.11035185446E+04 0.  0.
        4    1    3    3  502    0 -0.33429617503E+03 -0.40303920270E+03 -0.32646910873E+03  0.61707229998E+03  0.12699999809E+01 0. -1.
       -4    1    3    3    0  502  0.33429617503E+03  0.40303920270E+03  0.33393414207E+02  0.52470111927E+03  0.12699999809E+01 0.  1.
</event>
<event>
 5   0  0.1464205E-04  0.1099632E+04  0.7818609E-02  0.9205551E-01
       -2   -1    0    0    0  501  0.00000000000E+00  0.00000000000E+00  0.14155748081E+03  0.14155748083E+03  0.25500000920E-02 0.  1.
        2   -1    0    0  501    0  0.00000000000E+00  0.00000000000E+00 -0.21355112064E+04  0.21355112064E+04  0.25500000920E-02 0. -1.
    10030    2    1    2    0    0  0.00000000000E+00  0.00000000000E+00 -0.19939537256E+04  0.22770686872E+04  0.10996319141E+04 0.  0.
        3    1    3    3  502    0  0.29283577633E+03  0.92719649101E+02 -0.52685507163E+02  0.31164963997E+03  0.10100000352E+00 0.  1.
       -3    1    3    3    0  502 -0.29283577633E+03 -0.92719649101E+02 -0.19412682184E+04  0.19654190473E+04  0.10100000352E+00 0. -1.
</event>
<event>
 5   0  0.1503277E-04  0.1099710E+04  0.7818609E-02  0.9205474E-01
        2   -1    0    0  501    0  0.00000000000E+00  0.00000000000E+00  0.21147145780E+04  0.21147145780E+04  0.25500000920E-02 0. -1.
       -2   -1    0    0    0  501  0.00000000000E+00  0.00000000000E+00 -0.14296993688E+03  0.14296993690E+03  0.25500000920E-02 0.  1.
    10030    2    1    2    0    0  0.00000000000E+00  0.00000000000E+00  0.19717446411E+04  0.22576845149E+04  0.10997101614E+04 0.  0.
        5    1    3    3  502    0  0.14736045858E+03  0.16633737102E+03 -0.46626901889E+02  0.22711095026E+03  0.46999998093E+01 0.  1.
       -5    1    3    3    0  502 -0.14736045858E+03 -0.16633737102E+03  0.20183715430E+04  0.20305735646E+04  0.46999998093E+01 0. -1.
</event>
<event>
 5   0  0.6010125E-05  0.1099390E+04  0.7818609E-02  0.9205786E-01
        3   -1    0    0  501    0  0.00000000000E+00  0.00000000000E+00  0.41819671798E+03  0.41819673017E+03  0.10100000352E+00 0.  1.
       -3   -1    0    0    0  501  0.00000000000E+00  0.00000000000E+00 -0.72254202177E+03  0.72254202882E+03  0.10100000352E+00 0. -1.
    10030    2    1    2    0    0  0.00000000000E+00  0.00000000000E+00 -0.30434530379E+03  0.11407387590E+04  0.10993902184E+04 0.  0.
        1    1    3    3  502    0  0.48758183454E+03 -0.21405661603E+03 -0.29371592320E+03  0.60813265314E+03  0.50400001928E-02 0. -1.
       -1    1    3    3    0  502 -0.48758183454E+03  0.21405661603E+03 -0.10629380588E+02  0.53260610586E+03  0.50400001928E-02 0.  1.
</event>
<event>
 5   0  0.9346836E-05  0.1099334E+04  0.7818609E-02  0.9205841E-01
       -1   -1    0    0    0  501  0.00000000000E+00  0.00000000000E+00  0.10641587980E+04  0.10641587980E+04  0.50400001928E-02 0.  1.
        1   -1    0    0  501    0  0.00000000000E+00  0.00000000000E+00 -0.28391808675E+03  0.28391808680E+03  0.50400001928E-02 0. -1.
    10030    2    1    2    0    0  0.00000000000E+00  0.00000000000E+00  0.78024071122E+03  0.13480768848E+04  0.10993342166E+04 0.  0.
        5    1    3    3  502    0  0.49408426582E+03 -0.21715120019E+03  0.26245937468E+03  0.60015074676E+03  0.46999998093E+01 0.  1.
       -5    1    3    3    0  502 -0.49408426582E+03  0.21715120019E+03  0.51778133654E+03  0.74792613803E+03  0.46999998093E+01 0. -1.
</event>
<event>
 5   0  0.1503277E-04  0.1100232E+04  0.7818609E-02  0.9204965E-01
        2   -1    0    0  501    0  0.00000000000E+00  0.00000000000E+00  0.72343644304E+03  0.72343644305E+03  0.25500000920E-02 0. -1.
       -2   -1    0    0    0  501  0.00000000000E+00  0.00000000000E+00 -0.41831981171E+03  0.41831981171E+03  0.25500000920E-02 0.  1.
    10030    2    1    2    0    0  0.00000000000E+00  0.00000000000E+00  0.30511663134E+03  0.11417562548E+04  0.11002323330E+04 0.  0.
        5    1    3    3  502    0  0.52922388107E+03  0.14470926103E+03  0.11121738844E+03  0.55983040647E+03  0.46999998093E+01 0. -1.
       -5    1    3    3    0  502 -0.52922388107E+03 -0.14470926103E+03  0.19389924290E+03  0.58192584829E+03  0.46999998093E+01 0.  1.
</event>
<event>
 5   0  0.1553937E-04  0.1099821E+04  0.7818609E-02  0.9205366E-01
        2   -1    0    0  501    0  0.00000000000E+00  0.00000000000E+00  0.18080295076E+04  0.18080295076E+04  0.25500000920E-02 0. -1.
       -2   -1    0    0    0  501  0.00000000000E+00  0.00000000000E+00 -0.16725491013E+03  0.16725491015E+03  0.25500000920E-02 0.  1.
    10030    2    1    2    0    0  0.00000000000E+00  0.00000000000E+00  0.16407745974E+04  0.19752844177E+04  0.10998214634E+04 0.  0.
        1    1    3    3  502    0  0.14366238610E+03 -0.32510924548E+03  0.15739967184E+04  0.16136296267E+04  0.50400001928E-02 0. -1.
       -1    1    3    3    0  502 -0.14366238610E+03  0.32510924548E+03  0.66777878998E+02  0.36165479096E+03  0.50400001928E-02 0.  1.
</event>
<event>
 5   0  0.9016738E-05  0.1100259E+04  0.7818609E-02  0.9204940E-01
       -1   -1    0    0    0  501  0.00000000000E+00  0.00000000000E+00  0.38307589887E+03  0.38307589890E+03  0.50400001928E-02 0.  1.
        1   -1    0    0  501    0  0.00000000000E+00  0.00000000000E+00 -0.79003205922E+03  0.79003205923E+03  0.50400001928E-02 0. -1.
    10030    2    1    2    0    0  0.00000000000E+00  0.00000000000E+00 -0.40695616035E+03  0.11731079581E+04  0.11002585901E+04 0.  0.
        4    1    3    3  502    0  0.16715393391E+03 -0.26073710202E+03  0.28128622262E+03  0.41838717228E+03  0.12699999809E+01 0.  1.
       -4    1    3    3    0  502 -0.16715393391E+03  0.26073710202E+03 -0.68824238297E+03  0.75472078586E+03  0.12699999809E+01 0. -1.
</event>
<event>
 5   0  0.9346836E-05  0.1099655E+04  0.7818609E-02  0.9205528E-01
       -1   -1    0    0    0  501  0.00000000000E+00  0.00000000000E+00  0.61369652257E+03  0.61369652259E+03  0.50400001928E-02 0. -1.
        1   -1    0    0  501    0  0.00000000000E+00  0.00000000000E+00 -0.49260548456E+03  0.49260548459E+03  0.50400001928E-02 0.  1.
    10030    2    1    2    0    0  0.00000000000E+00  0.00000000000E+00  0.12109103800E+03  0.11063020072E+04  0.10996549875E+04 0.  0.
        5    1    3    3  502    0 -0.51254308493E+02 -0.15997646680E+03  0.58722570336E+03  0.61079914108E+03  0.46999998093E+01 0. -1.
       -5    1    3    3    0  502  0.51254308493E+02  0.15997646680E+03 -0.46613466535E+03  0.49550286610E+03  0.46999998093E+01 0.  1.
</event>
<event>
 5   0  0.1503277E-04  0.1099832E+04  0.7818609E-02  0.9205355E-01
       -2   -1    0    0    0  501  0.00000000000E+00  0.00000000000E+00  0.12107218707E+03  0.12107218710E+03  0.25500000920E-02 0. -1.
        2   -1    0    0  501    0  0.00000000000E+00  0.00000000000E+00 -0.24977482467E+04  0.24977482467E+04  0.25500000920E-02 0.  1.
    10030    2    1    2    0    0  0.00000000000E+00  0.00000000000E+00 -0.23766760596E+04  0.26188204338E+04  0.10998324291E+04 0.  0.
        5    1    3    3  502    0 -0.18597628840E+03  0.45288996343E+03 -0.59216029642E+03  0.76835695187E+03  0.46999998093E+01 0. -1.
       -5    1    3    3    0  502  0.18597628840E+03 -0.45288996343E+03 -0.17845157632E+04  0.18504634819E+04  0.46999998093E+01 0.  1.
</event>
<event>
 5   0  0.1540772E-04  0.1099687E+04  0.7818609E-02  0.9205497E-01
       -2   -1    0    0    0  501  0.00000000000E+00  0.00000000000E+00  0.25721757665E+03  0.25721757666E+03  0.25500000920E-02 0.  1.
        2   -1    0    0  501    0  0.00000000000E+00  0.00000000000E+00 -0.11753773273E+04  0.11753773273E+04  0.25500000920E-02 0. -1.
    10030    2    1    2    0    0  0.00000000000E+00  0.00000000000E+00 -0.91815975069E+03  0.14325949040E+04  0.10996866968E+04 0.  0.
        2    1    3    3  502    0  0.33458306091E+02  0.15788241133E+03  0.22566730050E+03  0.27743836176E+03  0.25500000920E-02 0.  1.
       -2    1    3    3    0  502 -0.33458306091E+02 -0.15788241133E+03 -0.11438270512E+04  0.11551565423E+04  0.25500000920E-02 0. -1.
</event>
<event>
 5   0  0.1464205E-04  0.1099396E+04  0.7818609E-02  0.9205781E-01
        2   -1    0    0  501    0  0.00000000000E+00  0.00000000000E+00  0.60736750607E+03  0.60736750607E+03  0.25500000920E-02 0. -1.
       -2   -1    0    0    0  501  0.00000000000E+00  0.00000000000E+00 -0.49750389764E+03  0.49750389765E+03  0.25500000920E-02 0.  1.
    10030    2    1    2    0    0  0.00000000000E+00  0.00000000000E+00  0.10986360843E+03  0.11048714037E+04  0.10993956550E+04 0.  0.
        3    1    3    3  502    0 -0.53938106649E+03  0.10188772925E+03  0.25551848804E+02  0.54951428684E+03  0.10100000352E+00 0. -1.
       -3    1    3    3    0  502  0.53938106649E+03 -0.10188772925E+03  0.84311759623E+02  0.55535711688E+03  0.10100000352E+00 0.  1.
</event>
<event>
 5   0  0.8657442E-05  0.1099916E+04  0.7818609E-02  0.9205273E-01
        1   -1    0    0  501    0  0.00000000000E+00  0.00000000000E+00  0.13472023516E+04  0.13472023516E+04  0.50400001928E-02 0. -1.
       -1   -1    0    0    0  501  0.00000000000E+00  0.00000000000E+00 -0.22450525711E+03  0.22450525717E+03  0.50400001928E-02 0.  1.
    10030    2    1    2    0    0  0.00000000000E+00  0.00000000000E+00  0.11226970944E+04  0.15717076087E+04  0.10999163793E+04 0.  0.
        1    1    3    3  502    0 -0.12893345674E+03  0.44120881921E+02  0.13226947368E+04  0.13296961515E+04  0.50400001928E-02 0. -1.
       -1    1    3    3    0  502  0.12893345674E+03 -0.44120881921E+02 -0.19999764233E+03  0.24201145727E+03  0.50400001928E-02 0.  1.
</event>
<event>
 5   0  0.1464205E-04  0.1099112E+04  0.7818609E-02  0.9206058E-01
        2   -1    0    0  501    0  0.00000000000E+00  0.00000000000E+00  0.13058425402E+04  0.13058425402E+04  0.25500000920E-02 0. -1.
       -2   -1    0    0    0  501  0.00000000000E+00  0.00000000000E+00 -0.23127731023E+03  0.23127731025E+03  0.25500000920E-02 0.  1.
    10030    2    1    2    0    0  0.00000000000E+00  0.00000000000E+00  0.10745652299E+04  0.15371198504E+04  0.10991119148E+04 0.  0.
        3    1    3    3  502    0  0.32524466376E+03 -0.18147014427E+03 -0.27854593187E+02  0.37348546575E+03  0.10100000352E+00 0.  1.
       -3    1    3    3    0  502 -0.32524466376E+03  0.18147014427E+03  0.11024198231E+04  0.11636343847E+04  0.10100000352E+00 0. -1.
</event>
<event>
 5   0  0.1503277E-04  0.1097951E+04  0.7818609E-02  0.9207192E-01
        2   -1    0    0  501    0  0.00000000000E+00  0.00000000000E+00  0.73703138932E+03  0.73703138932E+03  0.25500000920E-02 0. -1.
       -2   -1    0    0    0  501  0.00000000000E+00  0.00000000000E+00 -0.40890234316E+03  0.40890234317E+03  0.25500000920E-02 0.  1.
    10030    2    1    2    0    0  0.00000000000E+00  0.00000000000E+00  0.32812904615E+03  0.11459337325E+04  0.10979505673E+04 0.  0.
        5    1    3    3  502    0  0.44838101501E+03 -0.25516222623E+03 -0.31747180123E+02  0.51689773627E+03  0.46999998093E+01 0.  1.
       -5    1    3    3    0  502 -0.44838101501E+03  0.25516222623E+03  0.35987622628E+03  0.62903599623E+03  0.46999998093E+01 0. -1.
</event>
<event>
 5   0  0.9016738E-05  0.1099468E+04  0.7818609E-02  0.9205711E-01
        1   -1    0    0  501    0  0.00000000000E+00  0.00000000000E+00  0.34344565019E+03  0.34344565023E+03  0.50400001928E-02 0.  1.
       -1   -1    0    0    0  501  0.00000000000E+00  0.00000000000E+00 -0.87992735329E+03  0.87992735331E+03  0.50400001928E-02 0. -1.
    10030    2    1    2    0    0  0.00000000000E+00  0.00000000000E+00 -0.53648170310E+03  0.12233730035E+04  0.10994675475E+04 0.  0.
        4    1    3    3  502    0  0.52195769139E+03  0.12567847328E+03 -0.13672274638E+03  0.55401230359E+03  0.12699999809E+01 0.  1.
       -4    1    3    3    0  502 -0.52195769139E+03 -0.12567847328E+03 -0.39975895673E+03  0.66936069995E+03  0.12699999809E+01 0. -1.
</event>
<event>
 5   0  0.8621738E-05  0.1100251E+04  0.7818609E-02  0.9204947E-01
        1   -1    0    0  501    0  0.00000000000E+00  0.00000000000E+00  0.20248347548E+03  0.20248347554E+03  0.50400001928E-02 0.  1.
       -1   -1    0    0    0  501  0.00000000000E+00  0.00000000000E+00 -0.14946304117E+04  0.14946304117E+04  0.50400001928E-02 0. -1.
    10030    2    1    2    0    0  0.00000000000E+00  0.00000000000E+00 -0.12921469362E+04  0.16971138873E+04  0.11002508085E+04 0.  0.
        2    1    3    3  502    0  0.21782296071E+03 -0.25971434749E+03  0.22266151420E+02  0.33969716809E+03  0.25500000920E-02 0.  1.
       -2    1    3    3    0  502 -0.21782296071E+03  0.25971434749E+03 -0.13144130876E+04  0.13574167192E+04  0.25500000920E-02 0. -1.
</event>
<event>
 5   0  0.1574101E-04  0.1099825E+04  0.7818609E-02  0.9205362E-01
       -2   -1    0    0    0  501  0.00000000000E+00  0.00000000000E+00  0.74771926538E+03  0.74771926539E+03  0.25500000920E-02 0. -1.
        2   -1    0    0  501    0  0.00000000000E+00  0.00000000000E+00 -0.40443504919E+03  0.40443504919E+03  0.25500000920E-02 0.  1.
    10030    2    1    2    0    0  0.00000000000E+00  0.00000000000E+00  0.34328421620E+03  0.11521543146E+04  0.10998252186E+04 0.  0.
        4    1    3    3  502    0  0.41711982958E+02 -0.54775602238E+03  0.19784657924E+03  0.58388477579E+03  0.12699999809E+01 0. -1.
       -4    1    3    3    0  502 -0.41711982958E+02  0.54775602238E+03  0.14543763695E+03  0.56826953879E+03  0.12699999809E+01 0.  1.
</event>
<event>
 5   0  0.1574101E-04  0.1098715E+04  0.7818609E-02  0.9206445E-01
        2   -1    0    0  501    0  0.00000000000E+00  0.00000000000E+00  0.23182668366E+04  0.23182668366E+04  0.25500000920E-02 0. -1.
       -2   -1    0    0    0  501  0.00000000000E+00  0.00000000000E+00 -0.13018078324E+03  0.13018078327E+03  0.25500000920E-02 0.  1.
    10030    2    1    2    0    0  0.00000000000E+00  0.00000000000E+00  0.21880860534E+04  0.24484476199E+04  0.10987152363E+04 0.  0.
        4    1    3    3  502    0  0.41170213818E+03  0.10614658297E+03  0.18693001859E+04  0.19170421346E+04  0.12699999809E+01 0. -1.
       -4    1    3    3    0  502 -0.41170213818E+03 -0.10614658297E+03  0.31878586746E+03  0.53140548535E+03  0.12699999809E+01 0.  1.
</event>
<event>
 5   0  0.1540772E-04  0.1100171E+04  0.7818609E-02  0.9205026E-01
        2   -1    0    0  501    0  0.00000000000E+00  0.00000000000E+00  0.12873699560E+04  0.12873699560E+04  0.25500000920E-02 0. -1.
       -2   -1    0    0    0  501  0.00000000000E+00  0.00000000000E+00 -0.23504812041E+03  0.23504812042E+03  0.25500000920E-02 0.  1.
    10030    2    1    2    0    0  0.00000000000E+00  0.00000000000E+00  0.10523218356E+04  0.15224180765E+04  0.11001706930E+04 0.  0.
        2    1    3    3  502    0  0.34023017673E+03 -0.41463741622E+03  0.35717199486E+03  0.64440095749E+03  0.25500000920E-02 0.  1.
       -2    1    3    3    0  502 -0.34023017673E+03  0.41463741622E+03  0.69514984076E+03  0.87801711897E+03  0.25500000920E-02 0. -1.
</event>
<event>
 5   0  0.1553937E-04  0.1099838E+04  0.7818609E-02  0.9205350E-01
       -2   -1    0    0    0  501  0.00000000000E+00  0.00000000000E+00  0.73556947048E+03  0.73556947048E+03  0.25500000920E-02 0.  1.
        2   -1    0    0  501    0  0.00000000000E+00  0.00000000000E+00 -0.41112472914E+03  0.41112472915E+03  0.25500000920E-02 0. -1.
    10030    2    1    2    0    0  0.00000000000E+00  0.00000000000E+00  0.32444474133E+03  0.11466941996E+04  0.10998378050E+04 0.  0.
        1    1    3    3  502    0  0.30978586611E+03  0.16972536668E+03  0.60164808008E+03  0.69767785920E+03  0.50400001928E-02 0.  1.
       -1    1    3    3    0  502 -0.30978586611E+03 -0.16972536668E+03 -0.27720333874E+03  0.44901634043E+03  0.50400001928E-02 0. -1.
</event>
<event>
 5   0  0.1574101E-04  0.1100061E+04  0.7818609E-02  0.9205133E-01
        2   -1    0    0  501    0  0.00000000000E+00  0.00000000000E+00  0.19318372007E+04  0.19318372007E+04  0.25500000920E-02 0. -1.
       -2   -1    0    0    0  501  0.00000000000E+00  0.00000000000E+00 -0.15660399566E+03  0.15660399568E+03  0.25500000920E-02 0.  1.
    10030    2    1    2    0    0  0.00000000000E+00  0.00000000000E+00  0.17752332051E+04  0.20884411964E+04  0.11000607704E+04 0.  0.
        4    1    3    3  502    0 -0.50688191035E+03 -0.14306759950E+03  0.58663626121E+03  0.78837892218E+03  0.12699999809E+01 0.  1.
       -4    1    3    3    0  502  0.50688191035E+03  0.14306759950E+03  0.11885969438E+04  0.13000622742E+04  0.12699999809E+01 0. -1.
</event>
<event>
 5   0  0.1464205E-04  0.1099997E+04  0.7818609E-02  0.9205195E-01
       -2   -1    0    0    0  501  0.00000000000E+00  0.00000000000E+00  0.22381409003E+03  0.22381409004E+03  0.25500000920E-02 0.  1.
        2   -1    0    0  501    0  0.00000000000E+00  0.00000000000E+00 -0.13515602719E+04  0.13515602719E+04  0.25500000920E-02 0. -1.
    10030    2    1    2    0    0  0.00000000000E+00  0.00000000000E+00 -0.11277461819E+04  0.15753743620E+04  0.10999967862E+04 0.  0.
        3    1    3    3  502    0  0.44641240684E+02  0.43636923415E+03 -0.88690069563E+02  0.44752305809E+03  0.10100000352E+00 0.  1.
       -3    1    3    3    0  502 -0.44641240684E+02 -0.43636923415E+03 -0.10390561123E+04  0.11278513039E+04  0.10100000352E+00 0. -1.
</event>
<event>
 5   0  0.8657442E-05  0.1100464E+04  0.7818609E-02  0.9204740E-01
        1   -1    0    0  501    0  0.00000000000E+00  0.00000000000E+00  0.76172796143E+03  0.76172796145E+03  0.50400001928E-02 0. -1.
       -1   -1    0    0    0  501  0.00000000000E+00  0.00000000000E+00 -0.39745863634E+03  0.39745863637E+03  0.50400001928E-02 0.  1.
    10030    2    1    2    0    0  0.00000000000E+00  0.00000000000E+00  0.36426932509E+03  0.11591865978E+04  0.11004641872E+04 0.  0.
        1    1    3    3  502    0  0.37186489381E+03  0.30407668746E+03  0.46479931845E+03  0.66841943236E+03  0.50400001928E-02 0. -1.
       -1    1    3    3    0  502 -0.37186489381E+03 -0.30407668746E+03 -0.10052999336E+03  0.49076716546E+03  0.50400001928E-02 0.  1.
</event>
<event>
 5   0  0.8657442E-05  0.1099410E+04  0.7818609E-02  0.9205767E-01
       -1   -1    0    0    0  501  0.00000000000E+00  0.00000000000E+00  0.25477399694E+03  0.25477399699E+03  0.50400001928E-02 0. -1.
        1   -1    0    0  501    0  0.00000000000E+00  0.00000000000E+00 -0.11860529966E+04  0.11860529966E+04  0.50400001928E-02 0.  1.
    10030    2    1    2    0    0  0.00000000000E+00  0.00000000000E+00 -0.93127899966E+03  0.14408269936E+04  0.10994097736E+04 0.  0.
        1    1    3    3  502    0 -0.18514894214E+03 -0.49165172540E+03 -0.67766425356E+03  0.85745576588E+03  0.50400001928E-02 0.  1.
       -1    1    3    3    0  502  0.18514894214E+03  0.49165172540E+03 -0.25361474611E+03  0.58337122772E+03  0.50400001928E-02 0. -1.
</event>
<event>
 5   0  0.9016738E-05  0.1099878E+04  0.7818609E-02  0.9205311E-01
        1   -1    0    0  501    0  0.00000000000E+00  0.00000000000E+00  0.59458800725E+03  0.59458800727E+03  0.50400001928E-02 0.  1.
       -1   -1    0    0    0  501  0.00000000000E+00  0.00000000000E+00 -0.50864245461E+03  0.50864245464E+03  0.50400001928E-02 0. -1.
    10030    2    1    2    0    0  0.00000000000E+00  0.00000000000E+00  0.85945552638E+02  0.11032304619E+04  0.10998776360E+04 0.  0.
        4    1    3    3  502    0 -0.17562904169E+02  0.49382151923E+03  0.28508575971E+03  0.57047668817E+03  0.12699999809E+01 0.  1.
       -4    1    3    3    0  502  0.17562904169E+02 -0.49382151923E+03 -0.19914020707E+03  0.53275377374E+03  0.12699999809E+01 0. -1.
</event>
<event>
 5   0  0.8657442E-05  0.1100183E+04  0.7818609E-02  0.9205013E-01
       -1   -1    0    0    0  501  0.00000000000E+00  0.00000000000E+00  0.45311044896E+03  0.45311044899E+03  0.50400001928E-02 0.  1.
        1   -1    0    0  501    0  0.00000000000E+00  0.00000000000E+00 -0.66783016399E+03  0.66783016401E+03  0.50400001928E-02 0. -1.
    10030    2    1    2    0    0  0.00000000000E+00  0.00000000000E+00 -0.21471971503E+03  0.11209406130E+04  0.11001833037E+04 0.  0.
        1    1    3    3  502    0  0.28145563752E+03 -0.15879656679E+03 -0.56091849402E+03  0.64735089593E+03  0.50400001928E-02 0. -1.
       -1    1    3    3    0  502 -0.28145563752E+03  0.15879656679E+03  0.34619877898E+03  0.47358971706E+03  0.50400001928E-02 0.  1.
</event>
<event>
 5   0  0.1553937E-04  0.1099874E+04  0.7818609E-02  0.9205314E-01
        2   -1    0    0  501    0  0.00000000000E+00  0.00000000000E+00  0.15479171941E+04  0.15479171941E+04  0.25500000920E-02 0.  1.
       -2   -1    0    0    0  501  0.00000000000E+00  0.00000000000E+00 -0.19537923022E+03  0.19537923024E+03  0.25500000920E-02 0. -1.
    10030    2    1    2    0    0  0.00000000000E+00  0.00000000000E+00  0.13525379639E+04  0.17432964243E+04  0.10998743016E+04 0.  0.
        1    1    3    3  502    0 -0.48468962849E+03 -0.25981505902E+03  0.67353792623E+03  0.86952932036E+03  0.50400001928E-02 0. -1.
       -1    1    3    3    0  502  0.48468962849E+03  0.25981505902E+03  0.67900003765E+03  0.87376710399E+03  0.50400001928E-02 0.  1.
</event>
<event>
 5   0  0.1574101E-04  0.1099916E+04  0.7818609E-02  0.9205274E-01
       -2   -1    0    0    0  501  0.00000000000E+00  0.00000000000E+00  0.25562693424E+03  0.25562693425E+03  0.25500000920E-02 0. -1.
        2   -1    0    0  501    0  0.00000000000E+00  0.00000000000E+00 -0.11831840781E+04  0.11831840781E+04  0.25500000920E-02 0.  1.
    10030    2    1    2    0    0  0.00000000000E+00  0.00000000000E+00 -0.92755714389E+03  0.14388110124E+04  0.10999158487E+04 0.  0.
        4    1    3    3  502    0  0.22277558456E+03  0.45634428663E+03 -0.18760608903E+03  0.54136561265E+03  0.12699999809E+01 0.  1.
       -4    1    3    3    0  502 -0.22277558456E+03 -0.45634428663E+03 -0.73995105486E+03  0.89744539973E+03  0.12699999809E+01 0. -1.
</event>
<event>
 5   0  0.1540772E-04  0.1099974E+04  0.7818609E-02  0.9205217E-01
       -2   -1    0    0    0  501  0.00000000000E+00  0.00000000000E+00  0.29489176698E+03  0.29489176699E+03  0.25500000920E-02 0.  1.
        2   -1    0    0  501    0  0.00000000000E+00  0.00000000000E+00 -0.10257514223E+04  0.10257514223E+04  0.25500000920E-02 0. -1.
    10030    2    1    2    0    0  0.00000000000E+00  0.00000000000E+00 -0.73085965530E+03  0.13206431893E+04  0.10999739077E+04 0.  0.
        2    1    3    3  502    0 -0.42765181856E+03  0.31439065318E+03 -0.53841018660E+03  0.75605098357E+03  0.25500000920E-02 0. -1.
       -2    1    3    3    0  502  0.42765181856E+03 -0.31439065318E+03 -0.19244946871E+03  0.56459220570E+03  0.25500000920E-02 0.  1.
</event>
<event>
 5   0  0.9346836E-05  0.1100709E+04  0.7818609E-02  0.9204501E-01
       -1   -1    0    0    0  501  0.00000000000E+00  0.00000000000E+00  0.55548375963E+03  0.55548375965E+03  0.50400001928E-02 0. -1.
        1   -1    0    0  501    0  0.00000000000E+00  0.00000000000E+00 -0.54527277483E+03  0.54527277485E+03  0.50400001928E-02 0.  1.
    10030    2    1    2    0    0  0.00000000000E+00  0.00000000000E+00  0.10210984799E+02  0.11007565345E+04  0.11007091732E+04 0.  0.
        5    1    3    3  502    0 -0.18366857807E+03 -0.51577308858E+03  0.60893693262E+02  0.55089577721E+03  0.46999998093E+01 0. -1.
       -5    1    3    3    0  502  0.18366857807E+03  0.51577308858E+03 -0.50682708462E+02  0.54986075729E+03  0.46999998093E+01 0.  1.
</event>
<event>
 5   0  0.8921459E-05  0.1098722E+04  0.7818609E-02  0.9206438E-01
       -1   -1    0    0    0  501  0.00000000000E+00  0.00000000000E+00  0.46778647507E+03  0.46778647510E+03  0.50400001928E-02 0. -1.
        1   -1    0    0  501    0  0.00000000000E+00  0.00000000000E+00 -0.64516138948E+03  0.64516138950E+03  0.50400001928E-02 0.  1.
    10030    2    1    2    0    0  0.00000000000E+00  0.00000000000E+00 -0.17737491440E+03  0.11129478646E+04  0.10987224805E+04 0.  0.
        3    1    3    3  502    0 -0.16272704468E+03 -0.36528074023E+03  0.29286926625E+03  0.49566372428E+03  0.10100000352E+00 0. -1.
       -3    1    3    3    0  502  0.16272704468E+03  0.36528074023E+03 -0.47024418066E+03  0.61728414032E+03  0.10100000352E+00 0.  1.
</event>
<event>
 5   0  0.1553937E-04  0.1099982E+04  0.7818609E-02  0.9205209E-01
        2   -1    0    0  501    0  0.00000000000E+00  0.00000000000E+00  0.71870616707E+03  0.71870616707E+03  0.25500000920E-02 0.  1.
       -2   -1    0    0    0  501  0.00000000000E+00  0.00000000000E+00 -0.42088138690E+03  0.42088138691E+03  0.25500000920E-02 0. -1.
    10030    2    1    2    0    0  0.00000000000E+00  0.00000000000E+00  0.29782478017E+03  0.11395875540E+04  0.10999819060E+04 0.  0.
        1    1    3    3  502    0 -0.21977723398E+03  0.14492051557E+02 -0.37319543511E+03  0.43334384147E+03  0.50400001928E-02 0. -1.
       -1    1    3    3    0  502  0.21977723398E+03 -0.14492051557E+02  0.67102021527E+03  0.70624371251E+03  0.50400001928E-02 0.  1.
</event>
<event>
 5   0  0.9016738E-05  0.1099709E+04  0.7818609E-02  0.9205476E-01
        1   -1    0    0  501    0  0.00000000000E+00  0.00000000000E+00  0.11505418747E+04  0.11505418747E+04  0.50400001928E-02 0. -1.
       -1   -1    0    0    0  501  0.00000000000E+00  0.00000000000E+00 -0.26278035185E+03  0.26278035190E+03  0.50400001928E-02 0.  1.
    10030    2    1    2    0    0  0.00000000000E+00  0.00000000000E+00  0.88776152283E+03  0.14133222266E+04  0.10997086863E+04 0.  0.
        4    1    3    3  502    0 -0.54112267935E+02 -0.53450953346E+03  0.29340171364E+03  0.61213949176E+03  0.12699999809E+01 0. -1.
       -4    1    3    3    0  502  0.54112267935E+02  0.53450953346E+03  0.59435980919E+03  0.80118273482E+03  0.12699999809E+01 0.  1.
</event>
<event>
 5   0  0.8657442E-05  0.1099861E+04  0.7818609E-02  0.9205327E-01
        1   -1    0    0  501    0  0.00000000000E+00  0.00000000000E+00  0.89627881211E+03  0.89627881212E+03  0.50400001928E-02 0.  1.
       -1   -1    0    0    0  501  0.00000000000E+00  0.00000000000E+00 -0.33742154276E+03  0.33742154280E+03  0.50400001928E-02 0. -1.
    10030    2    1    2    0    0  0.00000000000E+00  0.00000000000E+00  0.55885726935E+03  0.12337003549E+04  0.10998614086E+04 0.  0.
        1    1    3    3  502    0 -0.29436626361E+03  0.24362623030E+03  0.72305346145E+03  0.81780899077E+03  0.50400001928E-02 0.  1.
       -1    1    3    3    0  502  0.29436626361E+03 -0.24362623030E+03 -0.16419619211E+03  0.41589136415E+03  0.50400001928E-02 0. -1.
</event>
<event>
 5   0  0.8657442E-05  0.1099951E+04  0.7818609E-02  0.9205240E-01
       -1   -1    0    0    0  501  0.00000000000E+00  0.00000000000E+00  0.96758903579E+03  0.96758903580E+03  0.50400001928E-02 0.  1.
        1   -1    0    0  501    0  0.00000000000E+00  0.00000000000E+00 -0.31260493369E+03  0.31260493373E+03  0.50400001928E-02 0. -1.
    10030    2    1    2    0    0  0.00000000000E+00  0.00000000000E+00  0.65498410210E+03  0.12801939695E+04  0.10999511015E+04 0.  0.
        1    1    3    3  502    0 -0.40565858688E+03 -0.36774726685E+03  0.38770069438E+03  0.67090146060E+03  0.50400001928E-02 0. -1.
       -1    1    3    3    0  502  0.40565858688E+03  0.36774726685E+03  0.26728340772E+03  0.60929250894E+03  0.50400001928E-02 0.  1.
</event>
<event>
 5   0  0.6010125E-05  0.1100269E+04  0.7818609E-02  0.9204930E-01
        3   -1    0    0  501    0  0.00000000000E+00  0.00000000000E+00  0.14677020335E+04  0.14677020369E+04  0.10100000352E+00 0.  1.
       -3   -1    0    0    0  501  0.00000000000E+00  0.00000000000E+00 -0.20620519755E+03  0.20620522228E+03  0.10100000352E+00 0. -1.
    10030    2    1    2    0    0  0.00000000000E+00  0.00000000000E+00  0.12614968359E+04  0.16739072592E+04  0.11002687151E+04 0.  0.
        4    1    3    3  502    0  0.22149235109E+03  0.22504724380E+03  0.13161066073E+04  0.13534560717E+04  0.12699999809E+01 0.  1.
       -4    1    3    3    0  502 -0.22149235109E+03 -0.22504724380E+03 -0.54609771348E+02  0.32045118749E+03  0.12699999809E+01 0. -1.
</event>
<event>
 5   0  0.9346836E-05  0.1100254E+04  0.7818609E-02  0.9204944E-01
       -1   -1    0    0    0  501  0.00000000000E+00  0.00000000000E+00  0.27202908485E+03  0.27202908489E+03  0.50400001928E-02 0.  1.
        1   -1    0    0  501    0  0.00000000000E+00  0.00000000000E+00 -0.11125276467E+04  0.11125276467E+04  0.50400001928E-02 0. -1.
    10030    2    1    2    0    0  0.00000000000E+00  0.00000000000E+00 -0.84049856183E+03  0.13845567316E+04  0.11002542936E+04 0.  0.
        5    1    3    3  502    0  0.36081274222E+03  0.12850192702E+03 -0.91714756008E+03  0.99392168563E+03  0.46999998093E+01 0. -1.
       -5    1    3    3    0  502 -0.36081274222E+03 -0.12850192702E+03  0.76648998253E+02  0.39063504595E+03  0.46999998093E+01 0.  1.
</event>
<event>
 5   0  0.8921459E-05  0.1099861E+04  0.7818609E-02  0.9205328E-01
       -1   -1    0    0    0  501  0.00000000000E+00  0.00000000000E+00  0.43324198649E+03  0.43324198652E+03  0.50400001928E-02 0.  1.
        1   -1    0    0  501    0  0.00000000000E+00  0.00000000000E+00 -0.69804703578E+03  0.69804703580E+03  0.50400001928E-02 0. -1.
    10030    2    1    2    0    0  0.00000000000E+00  0.00000000000E+00 -0.26480504929E+03  0.11312890223E+04  0.10998605084E+04 0.  0.
        3    1    3    3  502    0  0.10274603130E+03 -0.49647839515E+03  0.86700200437E+02  0.51435831747E+03  0.10100000352E+00 0.  1.
       -3    1    3    3    0  502 -0.10274603130E+03  0.49647839515E+03 -0.35150524973E+03  0.61693070485E+03  0.10100000352E+00 0. -1.
</event>
<event>
 5   0  0.1574101E-04  0.1099880E+04  0.7818609E-02  0.9205309E-01
       -2   -1    0    0    0  501  0.00000000000E+00  0.00000000000E+00  0.44667680111E+03  0.44667680112E+03  0.25500000920E-02 0. -1.
        2   -1    0    0  501    0  0.00000000000E+00  0.00000000000E+00 -0.67707560809E+03  0.67707560809E+03  0.25500000920E-02 0.  1.
    10030    2    1    2    0    0  0.00000000000E+00  0.00000000000E+00 -0.23039880697E+03  0.11237524092E+04  0.10998799330E+04 0.  0.
        4    1    3    3  502    0 -0.20371536891E+03  0.86072503283E+02  0.39924071965E+03  0.45640244574E+03  0.12699999809E+01 0. -1.
       -4    1    3    3    0  502  0.20371536891E+03 -0.86072503283E+02 -0.62963952662E+03  0.66734996347E+03  0.12699999809E+01 0.  1.
</event>
<event>
 5   0  0.1553937E-04  0.1100053E+04  0.7818609E-02  0.9205140E-01
        2   -1    0    0  501    0  0.00000000000E+00  0.00000000000E+00  0.13391478247E+04  0.13391478247E+04  0.25500000920E-02 0.  1.
       -2   -1    0    0    0  501  0.00000000000E+00  0.00000000000E+00 -0.22591161999E+03  0.22591162001E+03  0.25500000920E-02 0. -1.
    10030    2    1    2    0    0  0.00000000000E+00  0.00000000000E+00  0.11132362047E+04  0.15650594447E+04  0.11000528251E+04 0.  0.
        1    1    3    3  502    0 -0.12473249730E+03 -0.50505896891E+03  0.81066818307E+03  0.96323707416E+03  0.50400001928E-02 0.  1.
       -1    1    3    3    0  502  0.12473249730E+03  0.50505896891E+03  0.30256802166E+03  0.60182237057E+03  0.50400001928E-02 0. -1.
</event>
<event>
 5   0  0.9016738E-05  0.1099929E+04  0.7818609E-02  0.9205261E-01
        1   -1    0    0  501    0  0.00000000000E+00  0.00000000000E+00  0.32972953968E+03  0.32972953972E+03  0.50400001928E-02 0. -1.
       -1   -1    0    0    0  501  0.00000000000E+00  0.00000000000E+00 -0.91730045291E+03  0.91730045292E+03  0.50400001928E-02 0.  1.
    10030    2    1    2    0    0  0.00000000000E+00  0.00000000000E+00 -0.58757091322E+03  0.12470299926E+04  0.10999291907E+04 0.  0.
        4    1    3    3  502    0 -0.38951012906E+03 -0.43587498762E+02  0.14360982296E+03  0.41742472955E+03  0.12699999809E+01 0. -1.
       -4    1    3    3    0  502  0.38951012906E+03  0.43587498762E+02 -0.73118073618E+03  0.82960526309E+03  0.12699999809E+01 0.  1.
</event>
<event>
 5   0  0.1503277E-04  0.1100181E+04  0.7818609E-02  0.9205016E-01
        2   -1    0    0  501    0  0.00000000000E+00  0.00000000000E+00  0.15996055347E+04  0.15996055347E+04  0.25500000920E-02 0.  1.
       -2   -1    0    0    0  501  0.00000000000E+00  0.00000000000E+00 -0.18917131048E+03  0.18917131049E+03  0.25500000920E-02 0. -1.
    10030    2    1    2    0    0  0.00000000000E+00  0.00000000000E+00  0.14104342242E+04  0.17887768452E+04  0.11001808492E+04 0.  0.
        5    1    3    3  502    0 -0.35148479786E+03 -0.59690949344E+02  0.24138876387E+02  0.35736444690E+03  0.46999998093E+01 0. -1.
       -5    1    3    3    0  502  0.35148479786E+03  0.59690949344E+02  0.13862953478E+04  0.14314123983E+04  0.46999998093E+01 0.  1.
</event>
<event>
 5   0  0.9016738E-05  0.1100236E+04  0.7818609E-02  0.9204962E-01
        1   -1    0    0  501    0  0.00000000000E+00  0.00000000000E+00  0.24615753651E+04  0.24615753651E+04  0.50400001928E-02 0.  1.
       -1   -1    0    0    0  501  0.00000000000E+00  0.00000000000E+00 -0.12294149431E+03  0.12294149441E+03  0.50400001928E-02 0. -1.
    10030    2    1    2    0    0  0.00000000000E+00  0.00000000000E+00  0.23386338708E+04  0.25845168595E+04  0.11002358908E+04 0.  0.
        4    1    3    3  502    0 -0.44517120055E+03  0.48451578577E+02  0.41870889511E+03  0.61306093092E+03  0.12699999809E+01 0. -1.
       -4    1    3    3    0  502  0.44517120055E+03 -0.48451578577E+02  0.19199249757E+04  0.19714559286E+04  0.12699999809E+01 0.  1.
</event>
<event>
 5   0  0.8657442E-05  0.1100407E+04  0.7818609E-02  0.9204796E-01
       -1   -1    0    0    0  501  0.00000000000E+00  0.00000000000E+00  0.15822572595E+03  0.15822572603E+03  0.50400001928E-02 0. -1.
        1   -1    0    0  501    0  0.00000000000E+00  0.00000000000E+00 -0.19132391791E+04  0.19132391791E+04  0.50400001928E-02 0.  1.
    10030    2    1    2    0    0  0.00000000000E+00  0.00000000000E+00 -0.17550134531E+04  0.20714649051E+04  0.11004065760E+04 0.  0.
        1    1    3    3  502    0  0.21987546570E+02 -0.40546866587E+03 -0.17862330897E+03  0.44361534885E+03  0.50400001928E-02 0. -1.
       -1    1    3    3    0  502 -0.21987546570E+02  0.40546866587E+03 -0.15763901442E+04  0.16278495563E+04  0.50400001928E-02 0.  1.
</event>
<event>
 5   0  0.8657442E-05  0.1099775E+04  0.7818609E-02  0.9205411E-01
        1   -1    0    0  501    0  0.00000000000E+00  0.00000000000E+00  0.44825774375E+03  0.44825774378E+03  0.50400001928E-02 0.  1.
       -1   -1    0    0    0  501  0.00000000000E+00  0.00000000000E+00 -0.67455952727E+03  0.67455952729E+03  0.50400001928E-02 0. -1.
    10030    2    1    2    0    0  0.00000000000E+00  0.00000000000E+00 -0.22630178352E+03  0.11228172711E+04  0.10997754894E+04 0.  0.
        1    1    3    3  502    0  0.15267770104E+03 -0.11746207451E+03  0.41268238031E+03  0.45542789373E+03  0.50400001928E-02 0.  1.
       -1    1    3    3    0  502 -0.15267770104E+03  0.11746207451E+03 -0.63898416383E+03  0.66738937734E+03  0.50400001928E-02 0. -1.
</event>
<event>
 5   0  0.8921459E-05  0.1099430E+04  0.7818609E-02  0.9205748E-01
       -1   -1    0    0    0  501  0.00000000000E+00  0.00000000000E+00  0.22050482335E+03  0.22050482341E+03  0.50400001928E-02 0.  1.
        1   -1    0    0  501    0  0.00000000000E+00  0.00000000000E+00 -0.13704305742E+04  0.13704305742E+04  0.50400001928E-02 0. -1.
    10030    2    1    2    0    0  0.00000000000E+00  0.00000000000E+00 -0.11499257508E+04  0.15909353976E+04  0.10994299463E+04 0.  0.
        3    1    3    3  502    0  0.75815310195E+02 -0.53333923516E+03 -0.73339945593E+03  0.90998542471E+03  0.10100000352E+00 0. -1.
       -3    1    3    3    0  502 -0.75815310195E+02  0.53333923516E+03 -0.41652629488E+03  0.68094997287E+03  0.10100000352E+00 0.  1.
</event>
<event>
 5   0  0.1503277E-04  0.1100976E+04  0.7818609E-02  0.9204241E-01
       -2   -1    0    0    0  501  0.00000000000E+00  0.00000000000E+00  0.34749496857E+03  0.34749496858E+03  0.25500000920E-02 0.  1.
        2   -1    0    0  501    0  0.00000000000E+00  0.00000000000E+00 -0.87206123679E+03  0.87206123680E+03  0.25500000920E-02 0. -1.
    10030    2    1    2    0    0  0.00000000000E+00  0.00000000000E+00 -0.52456626823E+03  0.12195562054E+04  0.11009757347E+04 0.  0.
        5    1    3    3  502    0  0.52743695806E+03 -0.12101970261E+03 -0.37404220790E+03  0.65784890092E+03  0.46999998093E+01 0.  1.
       -5    1    3    3    0  502 -0.52743695806E+03  0.12101970261E+03 -0.15052406032E+03  0.56170730446E+03  0.46999998093E+01 0. -1.
</event>
<event>
 5   0  0.1553937E-04  0.1100037E+04  0.7818609E-02  0.9205155E-01
        2   -1    0    0  501    0  0.00000000000E+00  0.00000000000E+00  0.92816728311E+03  0.92816728311E+03  0.25500000920E-02 0.  1.
       -2   -1    0    0    0  501  0.00000000000E+00  0.00000000000E+00 -0.32593320626E+03  0.32593320627E+03  0.25500000920E-02 0. -1.
    10030    2    1    2    0    0  0.00000000000E+00  0.00000000000E+00  0.60223407685E+03  0.12541004894E+04  0.11000373422E+04 0.  0.
        1    1    3    3  502    0  0.32187346227E+03 -0.29183313526E+03 -0.83389163599E+02  0.44240576079E+03  0.50400001928E-02 0. -1.
       -1    1    3    3    0  502 -0.32187346227E+03  0.29183313526E+03  0.68562324045E+03  0.81169472859E+03  0.50400001928E-02 0.  1.
</event>
<event>
 5   0  0.9016738E-05  0.1100075E+04  0.7818609E-02  0.9205119E-01
        1   -1    0    0  501    0  0.00000000000E+00  0.00000000000E+00  0.13380538717E+04  0.13380538717E+04  0.50400001928E-02 0.  1.
       -1   -1    0    0    0  501  0.00000000000E+00  0.00000000000E+00 -0.22610551292E+03  0.22610551298E+03  0.50400001928E-02 0. -1.
    10030    2    1    2    0    0  0.00000000000E+00  0.00000000000E+00  0.11119483587E+04  0.15641593846E+04  0.11000751920E+04 0.  0.
        4    1    3    3  502    0  0.22119019168E+03 -0.43600445420E+03  0.19763362476E+03  0.52733826669E+03  0.12699999809E+01 0. -1.
       -4    1    3    3    0  502 -0.22119019168E+03  0.43600445420E+03  0.91431473397E+03  0.10368211180E+04  0.12699999809E+01 0.  1.
</event>
<event>
 5   0  0.8921459E-05  0.1100272E+04  0.7818609E-02  0.9204927E-01
       -1   -1    0    0    0  501  0.00000000000E+00  0.00000000000E+00  0.26343103560E+03  0.26343103564E+03  0.50400001928E-02 0. -1.
        1   -1    0    0  501    0  0.00000000000E+00  0.00000000000E+00 -0.11488764121E+04  0.11488764121E+04  0.50400001928E-02 0.  1.
    10030    2    1    2    0    0  0.00000000000E+00  0.00000000000E+00 -0.88544537654E+03  0.14123074478E+04  0.11002721537E+04 0.  0.
        3    1    3    3  502    0  0.27159577370E+03 -0.47838940237E+03 -0.44963606160E+03  0.71048805950E+03  0.10100000352E+00 0. -1.
       -3    1    3    3    0  502 -0.27159577370E+03  0.47838940237E+03 -0.43580931494E+03  0.70181938829E+03  0.10100000352E+00 0.  1.
</event>
<event>
 5   0  0.1503277E-04  0.1099694E+04  0.7818609E-02  0.9205490E-01
        2   -1    0    0  501    0  0.00000000000E+00  0.00000000000E+00  0.81309312956E+03  0.81309312957E+03  0.25500000920E-02 0. -1.
       -2   -1    0    0    0  501  0.00000000000E+00  0.00000000000E+00 -0.37182937381E+03  0.37182937382E+03  0.25500000920E-02 0.  1.
    10030    2    1    2    0    0  0.00000000000E+00  0.00000000000E+00  0.44126375576E+03  0.11849225034E+04  0.10996943379E+04 0.  0.
        5    1    3    3  502    0 -0.10080081739E+03 -0.38887007740E+03  0.62513163275E+03  0.74309648778E+03  0.46999998093E+01 0. -1.
       -5    1    3    3    0  502  0.10080081739E+03  0.38887007740E+03 -0.18386787699E+03  0.44182601561E+03  0.46999998093E+01 0.  1.
</event>
<event>
 5   0  0.8921459E-05  0.1099739E+04  0.7818609E-02  0.9205447E-01
        1   -1    0    0  501    0  0.00000000000E+00  0.00000000000E+00  0.78249614966E+03  0.78249614968E+03  0.50400001928E-02 0.  1.
       -1   -1    0    0    0  501  0.00000000000E+00  0.00000000000E+00 -0.38639977472E+03  0.38639977476E+03  0.50400001928E-02 0. -1.
    10030    2    1    2    0    0  0.00000000000E+00  0.00000000000E+00  0.39609637494E+03  0.11688959244E+04  0.10997387617E+04 0.  0.
        3    1    3    3  502    0 -0.86656545843E+02  0.13839315490E+03 -0.36003663042E+03  0.39533328686E+03  0.10100000352E+00 0. -1.
       -3    1    3    3    0  502  0.86656545843E+02 -0.13839315490E+03  0.75613300536E+03  0.77356263757E+03  0.10100000352E+00 0.  1.
</event>
<event>
 5   0  0.8657442E-05  0.1099525E+04  0.7818609E-02  0.9205655E-01
       -1   -1    0    0    0  501  0.00000000000E+00  0.00000000000E+00  0.83676427502E+03  0.83676427504E+03  0.50400001928E-02 0.  1.
        1   -1    0    0  501    0  0.00000000000E+00  0.00000000000E+00 -0.36119944692E+03  0.36119944696E+03  0.50400001928E-02 0. -1.
    10030    2    1    2    0    0  0.00000000000E+00  0.00000000000E+00  0.47556482810E+03  0.11979637220E+04  0.10995249763E+04 0.  0.
        1    1    3    3  502    0 -0.78198958297E+02  0.88773624805E+02  0.82273130484E+03  0.83119349945E+03  0.50400001928E-02 0.  1.
       -1    1    3    3    0  502  0.78198958297E+02 -0.88773624805E+02 -0.34716647674E+03  0.36677022254E+03  0.50400001928E-02 0. -1.
</event>
<event>
 5   0  0.1574101E-04  0.1098748E+04  0.7818609E-02  0.9206413E-01
        2   -1    0    0  501    0  0.00000000000E+00  0.00000000000E+00  0.14575882962E+04  0.14575882962E+04  0.25500000920E-02 0. -1.
       -2   -1    0    0    0  501  0.00000000000E+00  0.00000000000E+00 -0.20706240295E+03  0.20706240296E+03  0.25500000920E-02 0.  1.
    10030    2    1    2    0    0  0.00000000000E+00  0.00000000000E+00  0.12505258932E+04  0.16646506991E+04  0.10987478967E+04 0.  0.
        4    1    3    3  502    0  0.14046859517E+03  0.45503073122E+03  0.10402458211E+04  0.11440705284E+04  0.12699999809E+01 0. -1.
       -4    1    3    3    0  502 -0.14046859517E+03 -0.45503073122E+03  0.21028007208E+03  0.52058017077E+03  0.12699999809E+01 0.  1.
</event>
<event>
 5   0  0.1540772E-04  0.1100733E+04  0.7818609E-02  0.9204478E-01
        2   -1    0    0  501    0  0.00000000000E+00  0.00000000000E+00  0.37370626176E+03  0.37370626177E+03  0.25500000920E-02 0. -1.
       -2   -1    0    0    0  501  0.00000000000E+00  0.00000000000E+00 -0.81053831453E+03  0.81053831454E+03  0.25500000920E-02 0.  1.
    10030    2    1    2    0    0  0.00000000000E+00  0.00000000000E+00 -0.43683205277E+03  0.11842445763E+04  0.11007329259E+04 0.  0.
        2    1    3    3  502    0  0.40526277827E+03 -0.35341440128E+03 -0.34463517090E+03  0.63868071797E+03  0.25500000920E-02 0.  1.
       -2    1    3    3    0  502 -0.40526277827E+03  0.35341440128E+03 -0.92196881874E+02  0.54556385833E+03  0.25500000920E-02 0. -1.
</event>
<event>
 5   0  0.8621738E-05  0.1100468E+04  0.7818609E-02  0.9204736E-01
        1   -1    0    0  501    0  0.00000000000E+00  0.00000000000E+00  0.34897744356E+03  0.34897744360E+03  0.50400001928E-02 0.  1.
       -1   -1    0    0    0  501  0.00000000000E+00  0.00000000000E+00 -0.86755590620E+03  0.86755590622E+03  0.50400001928E-02 0. -1.
    10030    2    1    2    0    0  0.00000000000E+00  0.00000000000E+00 -0.51857846264E+03  0.12165333498E+04  0.11004679774E+04 0.  0.
        2    1    3    3  502    0 -0.32608230475E+03  0.84807387716E+02 -0.74018160796E+03  0.81325935301E+03  0.25500000920E-02 0. -1.
       -2    1    3    3    0  502  0.32608230475E+03 -0.84807387716E+02  0.22160314532E+03  0.40327399681E+03  0.25500000920E-02 0.  1.
</event>
<event>
 5   0  0.1540772E-04  0.1099996E+04  0.7818609E-02  0.9205195E-01
        2   -1    0    0  501    0  0.00000000000E+00  0.00000000000E+00  0.11812382716E+04  0.11812382716E+04  0.25500000920E-02 0. -1.
       -2   -1    0    0    0  501  0.00000000000E+00  0.00000000000E+00 -0.25608546903E+03  0.25608546904E+03  0.25500000920E-02 0.  1.
    10030    2    1    2    0    0  0.00000000000E+00  0.00000000000E+00  0.92515280260E+03  0.14373237407E+04  0.10999962852E+04 0.  0.
        2    1    3    3  502    0  0.27259677429E+03 -0.49320248811E+02 -0.15826901912E+03  0.31904634572E+03  0.25500000920E-02 0.  1.
       -2    1    3    3    0  502 -0.27259677429E+03  0.49320248811E+02  0.10834218217E+04  0.11182773950E+04  0.25500000920E-02 0. -1.
</event>
<event>
 5   0  0.8621738E-05  0.1100053E+04  0.7818609E-02  0.9205140E-01
       -1   -1    0    0    0  501  0.00000000000E+00  0.00000000000E+00  0.33241264457E+03  0.33241264461E+03  0.50400001928E-02 0. -1.
        1   -1    0    0  501    0  0.00000000000E+00  0.00000000000E+00 -0.91010155325E+03  0.91010155326E+03  0.50400001928E-02 0.  1.
    10030    2    1    2    0    0  0.00000000000E+00  0.00000000000E+00 -0.57768890868E+03  0.12425141979E+04  0.11000532063E+04 0.  0.
        2    1    3    3  502    0 -0.13644450502E+03  0.38202432810E+03  0.13070129988E+03  0.42619540120E+03  0.25500000920E-02 0. -1.
       -2    1    3    3    0  502  0.13644450502E+03 -0.38202432810E+03 -0.70839020856E+03  0.81631879667E+03  0.25500000920E-02 0.  1.
</event>
<event>
 5   0  0.9346836E-05  0.1100075E+04  0.7818609E-02  0.9205119E-01
        1   -1    0    0  501    0  0.00000000000E+00  0.00000000000E+00  0.46723521369E+03  0.46723521372E+03  0.50400001928E-02 0. -1.
       -1   -1    0    0    0  501  0.00000000000E+00  0.00000000000E+00 -0.64751408887E+03  0.64751408889E+03  0.50400001928E-02 0.  1.
    10030    2    1    2    0    0  0.00000000000E+00  0.00000000000E+00 -0.18027887517E+03  0.11147493026E+04  0.11000752405E+04 0.  0.
        5    1    3    3  502    0 -0.24129744921E+03 -0.45761921188E+03  0.99112307355E+02  0.52676858443E+03  0.46999998093E+01 0. -1.
       -5    1    3    3    0  502  0.24129744921E+03  0.45761921188E+03 -0.27939118253E+03  0.58798071818E+03  0.46999998093E+01 0.  1.
</event>
<event>
 5   0  0.8657442E-05  0.1098923E+04  0.7818609E-02  0.9206243E-01
        1   -1    0    0  501    0  0.00000000000E+00  0.00000000000E+00  0.46332677347E+03  0.46332677350E+03  0.50400001928E-02 0. -1.
       -1   -1    0    0    0  501  0.00000000000E+00  0.00000000000E+00 -0.65160869408E+03  0.65160869410E+03  0.50400001928E-02 0.  1.
    10030    2    1    2    0    0  0.00000000000E+00  0.00000000000E+00 -0.18828192061E+03  0.11149354676E+04  0.10989226612E+04 0.  0.
        1    1    3    3  502    0  0.27575103488E+03  0.21566703918E+03  0.33553552257E+03  0.48490719932E+03  0.50400001928E-02 0. -1.
       -1    1    3    3    0  502 -0.27575103488E+03 -0.21566703918E+03 -0.52381744318E+03  0.63002826828E+03  0.50400001928E-02 0.  1.
</event>
<event>
 5   0  0.1540772E-04  0.1099936E+04  0.7818609E-02  0.9205254E-01
        2   -1    0    0  501    0  0.00000000000E+00  0.00000000000E+00  0.22902345371E+04  0.22902345371E+04  0.25500000920E-02 0.  1.
       -2   -1    0    0    0  501  0.00000000000E+00  0.00000000000E+00 -0.13206723891E+03  0.13206723893E+03  0.25500000920E-02 0. -1.
    10030    2    1    2    0    0  0.00000000000E+00  0.00000000000E+00  0.21581672982E+04  0.24223017761E+04  0.10999362742E+04 0.  0.
        2    1    3    3  502    0  0.15122684543E+03 -0.45304878453E+03  0.16795357984E+04  0.17461280761E+04  0.25500000920E-02 0.  1.
       -2    1    3    3    0  502 -0.15122684543E+03  0.45304878453E+03  0.47863149985E+03  0.67617370002E+03  0.25500000920E-02 0. -1.
</event>
<event>
 5   0  0.1574101E-04  0.1093813E+04  0.7818609E-02  0.9211243E-01
        2   -1    0    0  501    0  0.00000000000E+00  0.00000000000E+00  0.12423176082E+04  0.12423176082E+04  0.25500000920E-02 0. -1.
       -2   -1    0    0    0  501  0.00000000000E+00  0.00000000000E+00 -0.24076503387E+03  0.24076503388E+03  0.25500000920E-02 0.  1.
    10030    2    1    2    0    0  0.00000000000E+00  0.00000000000E+00  0.10015525743E+04  0.14830826421E+04  0.10938128561E+04 0.  0.
        4    1    3    3  502    0  0.45865847161E+03  0.10426904315E+03  0.12242554411E+03  0.48603421041E+03  0.12699999809E+01 0.  1.
       -4    1    3    3    0  502 -0.45865847161E+03 -0.10426904315E+03  0.87912703020E+03  0.99704843166E+03  0.12699999809E+01 0. -1.
</event>
<event>
 5   0  0.1553937E-04  0.1100104E+04  0.7818609E-02  0.9205091E-01
       -2   -1    0    0    0  501  0.00000000000E+00  0.00000000000E+00  0.15239868714E+03  0.15239868716E+03  0.25500000920E-02 0.  1.
        2   -1    0    0  501    0  0.00000000000E+00  0.00000000000E+00 -0.19852991362E+04  0.19852991362E+04  0.25500000920E-02 0. -1.
    10030    2    1    2    0    0  0.00000000000E+00  0.00000000000E+00 -0.18329004490E+04  0.21376978233E+04  0.11001035987E+04 0.  0.
        1    1    3    3  502    0 -0.43008096911E+03 -0.30194497296E+03 -0.12322784834E+04  0.13396457246E+04  0.50400001928E-02 0.  1.
       -1    1    3    3    0  502  0.43008096911E+03  0.30194497296E+03 -0.60062196560E+03  0.79805209872E+03  0.50400001928E-02 0. -1.
</event>
<event>
 5   0  0.1553937E-04  0.1099991E+04  0.7818609E-02  0.9205201E-01
       -2   -1    0    0    0  501  0.00000000000E+00  0.00000000000E+00  0.11154120572E+04  0.11154120572E+04  0.25500000920E-02 0. -1.
        2   -1    0    0  501    0  0.00000000000E+00  0.00000000000E+00 -0.27119581550E+03  0.27119581551E+03  0.25500000920E-02 0.  1.
    10030    2    1    2    0    0  0.00000000000E+00  0.00000000000E+00  0.84421624174E+03  0.13866078728E+04  0.10999910590E+04 0.  0.
        1    1    3    3  502    0  0.83084737512E+02  0.22592151343E+03 -0.20126726930E+03  0.31377080418E+03  0.50400001928E-02 0.  1.
       -1    1    3    3    0  502 -0.83084737512E+02 -0.22592151343E+03  0.10454835110E+04  0.10728370686E+04  0.50400001928E-02 0. -1.
</event>
<event>
 5   0  0.8621738E-05  0.1100908E+04  0.7818609E-02  0.9204307E-01
        1   -1    0    0  501    0  0.00000000000E+00  0.00000000000E+00  0.89719741271E+03  0.89719741272E+03  0.50400001928E-02 0. -1.
       -1   -1    0    0    0  501  0.00000000000E+00  0.00000000000E+00 -0.33771794702E+03  0.33771794706E+03  0.50400001928E-02 0.  1.
    10030    2    1    2    0    0  0.00000000000E+00  0.00000000000E+00  0.55947946568E+03  0.12349153598E+04  0.11009081130E+04 0.  0.
        2    1    3    3  502    0 -0.53500040767E+03 -0.11552074195E+03  0.21405235689E+03  0.58769795773E+03  0.25500000920E-02 0.  1.
       -2    1    3    3    0  502  0.53500040767E+03  0.11552074195E+03  0.34542710880E+03  0.64721740205E+03  0.25500000920E-02 0. -1.
</event>
<event>
 5   0  0.1503277E-04  0.1099957E+04  0.7818609E-02  0.9205233E-01
        2   -1    0    0  501    0  0.00000000000E+00  0.00000000000E+00  0.33046198779E+03  0.33046198780E+03  0.25500000920E-02 0.  1.
       -2   -1    0    0    0  501  0.00000000000E+00  0.00000000000E+00 -0.91531424000E+03  0.91531424000E+03  0.25500000920E-02 0. -1.
    10030    2    1    2    0    0  0.00000000000E+00  0.00000000000E+00 -0.58485225221E+03  0.12457762278E+04  0.10999573868E+04 0.  0.
        5    1    3    3  502    0 -0.35486185113E+03 -0.13519099612E+03 -0.74297023995E+03  0.83440422235E+03  0.46999998093E+01 0. -1.
       -5    1    3    3    0  502  0.35486185113E+03  0.13519099612E+03  0.15811798774E+03  0.41137200545E+03  0.46999998093E+01 0.  1.
</event>
<event>
 5   0  0.1553937E-04  0.1099992E+04  0.7818609E-02  0.9205200E-01
       -2   -1    0    0    0  501  0.00000000000E+00  0.00000000000E+00  0.33858993606E+03  0.33858993607E+03  0.25500000920E-02 0. -1.
        2   -1    0    0  501    0  0.00000000000E+00  0.00000000000E+00 -0.89339834428E+03  0.89339834428E+03  0.25500000920E-02 0.  1.
    10030    2    1    2    0    0  0.00000000000E+00  0.00000000000E+00 -0.55480840822E+03  0.12319882804E+04  0.10999921605E+04 0.  0.
        1    1    3    3  502    0 -0.34116277421E+03 -0.42866350550E+03 -0.22309589526E+03  0.59153716533E+03  0.50400001928E-02 0. -1.
       -1    1    3    3    0  502  0.34116277421E+03  0.42866350550E+03 -0.33171251296E+03  0.64045111503E+03  0.50400001928E-02 0.  1.
</event>
<event>
 5   0  0.1503277E-04  0.1100038E+04  0.7818609E-02  0.9205155E-01
        2   -1    0    0  501    0  0.00000000000E+00  0.00000000000E+00  0.33685102950E+03  0.33685102951E+03  0.25500000920E-02 0.  1.
       -2   -1    0    0    0  501  0.00000000000E+00  0.00000000000E+00 -0.89808491589E+03  0.89808491590E+03  0.25500000920E-02 0. -1.
    10030    2    1    2    0    0  0.00000000000E+00  0.00000000000E+00 -0.56123388640E+03  0.12349359454E+04  0.11000378694E+04 0.  0.
        5    1    3    3  502    0 -0.13559000438E+03  0.12977038998E+03 -0.86100028271E+03  0.88123128646E+03  0.46999998093E+01 0. -1.
       -5    1    3    3    0  502  0.13559000438E+03 -0.12977038998E+03  0.29976639631E+03  0.35370465895E+03  0.46999998093E+01 0.  1.
</event>
<event>
 5   0  0.1574101E-04  0.1100031E+04  0.7818609E-02  0.9205162E-01
       -2   -1    0    0    0  501  0.00000000000E+00  0.00000000000E+00  0.15079144464E+03  0.15079144466E+03  0.25500000920E-02 0.  1.
        2   -1    0    0  501    0  0.00000000000E+00  0.00000000000E+00 -0.20061937536E+04  0.20061937536E+04  0.25500000920E-02 0. -1.
    10030    2    1    2    0    0  0.00000000000E+00  0.00000000000E+00 -0.18554023090E+04  0.21569851983E+04  0.11000306439E+04 0.  0.
        4    1    3    3  502    0  0.29539715975E+03 -0.44289247734E+03 -0.65669325554E+03  0.84537617262E+03  0.12699999809E+01 0.  1.
       -4    1    3    3    0  502 -0.29539715975E+03  0.44289247734E+03 -0.11987090535E+04  0.13116090257E+04  0.12699999809E+01 0. -1.
</event>
<event>
 5   0  0.8657442E-05  0.1100718E+04  0.7818609E-02  0.9204492E-01
        1   -1    0    0  501    0  0.00000000000E+00  0.00000000000E+00  0.42044637320E+03  0.42044637323E+03  0.50400001928E-02 0. -1.
       -1   -1    0    0    0  501  0.00000000000E+00  0.00000000000E+00 -0.72041350011E+03  0.72041350013E+03  0.50400001928E-02 0.  1.
    10030    2    1    2    0    0  0.00000000000E+00  0.00000000000E+00 -0.29996712691E+03  0.11408598734E+04  0.11007183897E+04 0.  0.
        1    1    3    3  502    0  0.59399470258E+02  0.49980356705E+03 -0.38073072548E+03  0.63110045797E+03  0.50400001928E-02 0.  1.
       -1    1    3    3    0  502 -0.59399470258E+02 -0.49980356705E+03  0.80763598570E+02  0.50975941539E+03  0.50400001928E-02 0. -1.
</event>
<event>
 5   0  0.1464205E-04  0.1099562E+04  0.7818609E-02  0.9205619E-01
        2   -1    0    0  501    0  0.00000000000E+00  0.00000000000E+00  0.84498038565E+03  0.84498038565E+03  0.25500000920E-02 0.  1.
       -2   -1    0    0    0  501  0.00000000000E+00  0.00000000000E+00 -0.35771159225E+03  0.35771159226E+03  0.25500000920E-02 0. -1.
    10030    2    1    2    0    0  0.00000000000E+00  0.00000000000E+00  0.48726879340E+03  0.12026919779E+04  0.10995622387E+04 0.  0.
        3    1    3    3  502    0  0.24086716978E+03  0.49247823410E+03  0.19843731113E+03  0.58303445969E+03  0.10100000352E+00 0. -1.
       -3    1    3    3    0  502 -0.24086716978E+03 -0.49247823410E+03  0.28883148227E+03  0.61965751822E+03  0.10100000352E+00 0.  1.
</event>
<event>
 5   0  0.1553937E-04  0.1099188E+04  0.7818609E-02  0.9205984E-01
        2   -1    0    0  501    0  0.00000000000E+00  0.00000000000E+00  0.64831779442E+03  0.64831779442E+03  0.25500000920E-02 0.  1.
       -2   -1    0    0    0  501  0.00000000000E+00  0.00000000000E+00 -0.46590339638E+03  0.46590339639E+03  0.25500000920E-02 0. -1.
    10030    2    1    2    0    0  0.00000000000E+00  0.00000000000E+00  0.18241439804E+03  0.11142211908E+04  0.10991878135E+04 0.  0.
        1    1    3    3  502    0  0.50497353325E+03 -0.38852019406E+01 -0.12864642009E+03  0.52111732412E+03  0.50400001928E-02 0. -1.
       -1    1    3    3    0  502 -0.50497353325E+03  0.38852019406E+01  0.31106081812E+03  0.59310386668E+03  0.50400001928E-02 0.  1.
</event>
<event>
 5   0  0.9016738E-05  0.1100877E+04  0.7818609E-02  0.9204337E-01
       -1   -1    0    0    0  501  0.00000000000E+00  0.00000000000E+00  0.75068167824E+03  0.75068167826E+03  0.50400001928E-02 0. -1.
        1   -1    0    0  501    0  0.00000000000E+00  0.00000000000E+00 -0.40361001703E+03  0.40361001706E+03  0.50400001928E-02 0.  1.
    10030    2    1    2    0    0  0.00000000000E+00  0.00000000000E+00  0.34707166121E+03  0.11542916953E+04  0.11008771866E+04 0.  0.
        4    1    3    3  502    0  0.25960270828E+03 -0.23006991369E+03  0.62165429516E+03  0.71188581031E+03  0.12699999809E+01 0. -1.
       -4    1    3    3    0  502 -0.25960270828E+03  0.23006991369E+03 -0.27458263395E+03  0.44240588502E+03  0.12699999809E+01 0.  1.
</event>
<event>
 5   0  0.1464205E-04  0.1100365E+04  0.7818609E-02  0.9204836E-01
        2   -1    0    0  501    0  0.00000000000E+00  0.00000000000E+00  0.99962558191E+03  0.99962558191E+03  0.25500000920E-02 0. -1.
       -2   -1    0    0    0  501  0.00000000000E+00  0.00000000000E+00 -0.30281440841E+03  0.30281440842E+03  0.25500000920E-02 0.  1.
    10030    2    1    2    0    0  0.00000000000E+00  0.00000000000E+00  0.69681117349E+03  0.13024399903E+04  0.11003654470E+04 0.  0.
        3    1    3    3  502    0  0.77636372158E+02  0.21940994026E+03  0.93848805770E+03  0.96691673521E+03  0.10100000352E+00 0. -1.
       -3    1    3    3    0  502 -0.77636372158E+02 -0.21940994026E+03 -0.24167688421E+03  0.33552325512E+03  0.10100000352E+00 0.  1.
</event>
<event>
 5   0  0.1553937E-04  0.1099381E+04  0.7818609E-02  0.9205795E-01
        2   -1    0    0  501    0  0.00000000000E+00  0.00000000000E+00  0.13645834164E+04  0.13645834164E+04  0.25500000920E-02 0. -1.
       -2   -1    0    0    0  501  0.00000000000E+00  0.00000000000E+00 -0.22143015584E+03  0.22143015586E+03  0.25500000920E-02 0.  1.
    10030    2    1    2    0    0  0.00000000000E+00  0.00000000000E+00  0.11431532605E+04  0.15860135722E+04  0.10993814962E+04 0.  0.
        1    1    3    3  502    0 -0.10397260447E+03 -0.53712167359E+03  0.49456166887E+03  0.73749660274E+03  0.50400001928E-02 0. -1.
       -1    1    3    3    0  502  0.10397260447E+03  0.53712167359E+03  0.64859159167E+03  0.84851696950E+03  0.50400001928E-02 0.  1.
</event>
<event>
 5   0  0.8621738E-05  0.1101063E+04  0.7818609E-02  0.9204157E-01
        1   -1    0    0  501    0  0.00000000000E+00  0.00000000000E+00  0.28807225230E+03  0.28807225235E+03  0.50400001928E-02 0.  1.
       -1   -1    0    0    0  501  0.00000000000E+00  0.00000000000E+00 -0.10521141060E+04  0.10521141060E+04  0.50400001928E-02 0. -1.
    10030    2    1    2    0    0  0.00000000000E+00  0.00000000000E+00 -0.76404185368E+03  0.13401863583E+04  0.11010629051E+04 0.  0.
        2    1    3    3  502    0  0.26524398757E+03  0.11062445197E+03 -0.95356563314E+03  0.99593150318E+03  0.25500000920E-02 0. -1.
       -2    1    3    3    0  502 -0.26524398757E+03 -0.11062445197E+03  0.18952377946E+03  0.34425485516E+03  0.25500000920E-02 0.  1.
</event>
<event>
 5   0  0.1503277E-04  0.1099990E+04  0.7818609E-02  0.9205202E-01
        2   -1    0    0  501    0  0.00000000000E+00  0.00000000000E+00  0.96347875207E+03  0.96347875207E+03  0.25500000920E-02 0. -1.
       -2   -1    0    0    0  501  0.00000000000E+00  0.00000000000E+00 -0.31396059960E+03  0.31396059961E+03  0.25500000920E-02 0.  1.
    10030    2    1    2    0    0  0.00000000000E+00  0.00000000000E+00  0.64951815246E+03  0.12774393517E+04  0.10999897576E+04 0.  0.
        5    1    3    3  502    0  0.33856074025E+03  0.43160657318E+03  0.27882206559E+03  0.61536285484E+03  0.46999998093E+01 0.  1.
       -5    1    3    3    0  502 -0.33856074025E+03 -0.43160657318E+03  0.37069608687E+03  0.66207649684E+03  0.46999998093E+01 0. -1.
</event>
<event>
 5   0  0.8657442E-05  0.1102521E+04  0.7818609E-02  0.9202738E-01
       -1   -1    0    0    0  501  0.00000000000E+00  0.00000000000E+00  0.28246171227E+03  0.28246171231E+03  0.50400001928E-02 0. -1.
        1   -1    0    0  501    0  0.00000000000E+00  0.00000000000E+00 -0.10758570125E+04  0.10758570125E+04  0.50400001928E-02 0.  1.
    10030    2    1    2    0    0  0.00000000000E+00  0.00000000000E+00 -0.79339530026E+03  0.13583187248E+04  0.11025214990E+04 0.  0.
        1    1    3    3  502    0  0.29404662699E+03 -0.44106954972E+03 -0.58306410968E+03  0.78801619435E+03  0.50400001928E-02 0.  1.
       -1    1    3    3    0  502 -0.29404662699E+03  0.44106954972E+03 -0.21033119058E+03  0.57030253050E+03  0.50400001928E-02 0. -1.
</event>
<event>
 5   0  0.1553937E-04  0.1100127E+04  0.7818609E-02  0.9205068E-01
        2   -1    0    0  501    0  0.00000000000E+00  0.00000000000E+00  0.12839942657E+04  0.12839942657E+04  0.25500000920E-02 0. -1.
       -2   -1    0    0    0  501  0.00000000000E+00  0.00000000000E+00 -0.23564742847E+03  0.23564742848E+03  0.25500000920E-02 0.  1.
    10030    2    1    2    0    0  0.00000000000E+00  0.00000000000E+00  0.10483468372E+04  0.15196416942E+04  0.11001271688E+04 0.  0.
        1    1    3    3  502    0 -0.24685830078E+03  0.97575186788E+02  0.11896691051E+04  0.12189226872E+04  0.50400001928E-02 0. -1.
       -1    1    3    3    0  502  0.24685830078E+03 -0.97575186788E+02 -0.14132226786E+03  0.30071900698E+03  0.50400001928E-02 0.  1.
</event>
<event>
 5   0  0.1540772E-04  0.1095428E+04  0.7818609E-02  0.9209660E-01
        2   -1    0    0  501    0  0.00000000000E+00  0.00000000000E+00  0.99423948195E+03  0.99423948195E+03  0.25500000920E-02 0.  1.
       -2   -1    0    0    0  501  0.00000000000E+00  0.00000000000E+00 -0.30172858448E+03  0.30172858449E+03  0.25500000920E-02 0. -1.
    10030    2    1    2    0    0  0.00000000000E+00  0.00000000000E+00  0.69251089747E+03  0.12959680664E+04  0.10954277183E+04 0.  0.
        2    1    3    3  502    0  0.54075271526E+03 -0.86555172854E+02  0.35717400987E+03  0.65381845365E+03  0.25500000920E-02 0.  1.
       -2    1    3    3    0  502 -0.54075271526E+03  0.86555172854E+02  0.33533688760E+03  0.64214961279E+03  0.25500000920E-02 0. -1.
</event>
<event>
 5   0  0.9346836E-05  0.1102282E+04  0.7818609E-02  0.9202970E-01
       -1   -1    0    0    0  501  0.00000000000E+00  0.00000000000E+00  0.33033331087E+03  0.33033331091E+03  0.50400001928E-02 0. -1.
        1   -1    0    0  501    0  0.00000000000E+00  0.00000000000E+00 -0.91954544882E+03  0.91954544883E+03  0.50400001928E-02 0.  1.
    10030    2    1    2    0    0  0.00000000000E+00  0.00000000000E+00 -0.58921213795E+03  0.12498787597E+04  0.11022821647E+04 0.  0.
        5    1    3    3  502    0  0.20298691927E+03 -0.51230808307E+03 -0.28504214980E+03  0.62043080076E+03  0.46999998093E+01 0. -1.
       -5    1    3    3    0  502 -0.20298691927E+03  0.51230808307E+03 -0.30416998815E+03  0.62944795898E+03  0.46999998093E+01 0.  1.
</event>
<event>
 5   0  0.8921459E-05  0.1099613E+04  0.7818609E-02  0.9205569E-01
       -1   -1    0    0    0  501  0.00000000000E+00  0.00000000000E+00  0.14209321762E+03  0.14209321771E+03  0.50400001928E-02 0. -1.
        1   -1    0    0  501    0  0.00000000000E+00  0.00000000000E+00 -0.21273865846E+04  0.21273865846E+04  0.50400001928E-02 0.  1.
    10030    2    1    2    0    0  0.00000000000E+00  0.00000000000E+00 -0.19852933670E+04  0.22694798023E+04  0.10996130320E+04 0.  0.
        3    1    3    3  502    0  0.98761557818E+01  0.18173846529E+03 -0.20634071745E+04  0.20714187376E+04  0.10100000352E+00 0.  1.
       -3    1    3    3    0  502 -0.98761557818E+01 -0.18173846529E+03  0.78113807584E+02  0.19806106472E+03  0.10100000352E+00 0. -1.
</event>
<event>
 5   0  0.1464205E-04  0.1099868E+04  0.7818609E-02  0.9205321E-01
        2   -1    0    0  501    0  0.00000000000E+00  0.00000000000E+00  0.11166156239E+04  0.11166156239E+04  0.25500000920E-02 0. -1.
       -2   -1    0    0    0  501  0.00000000000E+00  0.00000000000E+00 -0.27084265422E+03  0.27084265423E+03  0.25500000920E-02 0.  1.
    10030    2    1    2    0    0  0.00000000000E+00  0.00000000000E+00  0.84577296968E+03  0.13874582781E+04  0.10998675181E+04 0.  0.
        3    1    3    3  502    0 -0.24402482894E+03  0.73232678123E+02  0.10376753306E+04  0.10684948498E+04  0.10100000352E+00 0. -1.
       -3    1    3    3    0  502  0.24402482894E+03 -0.73232678123E+02 -0.19190236087E+03  0.31896342830E+03  0.10100000352E+00 0.  1.
</event>
<event>
 5   0  0.1503277E-04  0.1099300E+04  0.7818609E-02  0.9205874E-01
       -2   -1    0    0    0  501  0.00000000000E+00  0.00000000000E+00  0.27490212262E+03  0.27490212263E+03  0.25500000920E-02 0.  1.
        2   -1    0    0  501    0  0.00000000000E+00  0.00000000000E+00 -0.10989922067E+04  0.10989922067E+04  0.25500000920E-02 0. -1.
    10030    2    1    2    0    0  0.00000000000E+00  0.00000000000E+00 -0.82409008409E+03  0.13738943293E+04  0.10993003054E+04 0.  0.
        5    1    3    3  502    0  0.51836173582E+03  0.11845567848E+03 -0.58595258102E+03  0.79126048438E+03  0.46999998093E+01 0.  1.
       -5    1    3    3    0  502 -0.51836173582E+03 -0.11845567848E+03 -0.23813750307E+03  0.58263384497E+03  0.46999998093E+01 0. -1.
</event>
<event>
 5   0  0.9346836E-05  0.1099783E+04  0.7818609E-02  0.9205403E-01
       -1   -1    0    0    0  501  0.00000000000E+00  0.00000000000E+00  0.72974352436E+03  0.72974352438E+03  0.50400001928E-02 0. -1.
        1   -1    0    0  501    0  0.00000000000E+00  0.00000000000E+00 -0.41436569414E+03  0.41436569417E+03  0.50400001928E-02 0.  1.
    10030    2    1    2    0    0  0.00000000000E+00  0.00000000000E+00  0.31537783022E+03  0.11441092185E+04  0.10997830369E+04 0.  0.
        5    1    3    3  502    0  0.56300704874E+02 -0.14105009494E+03 -0.39209373793E+03  0.42050503918E+03  0.46999998093E+01 0.  1.
       -5    1    3    3    0  502 -0.56300704874E+02  0.14105009494E+03  0.70747156815E+03  0.72360417936E+03  0.46999998093E+01 0. -1.
</event>
<event>
 5   0  0.1553937E-04  0.1100527E+04  0.7818609E-02  0.9204678E-01
        2   -1    0    0  501    0  0.00000000000E+00  0.00000000000E+00  0.31065982093E+04  0.31065982093E+04  0.25500000920E-02 0.  1.
       -2   -1    0    0    0  501  0.00000000000E+00  0.00000000000E+00 -0.97466731800E+02  0.97466731833E+02  0.25500000920E-02 0. -1.
    10030    2    1    2    0    0  0.00000000000E+00  0.00000000000E+00  0.30091314775E+04  0.32040649411E+04  0.11005271001E+04 0.  0.
        1    1    3    3  502    0 -0.48409629581E+03  0.22734485323E+03  0.11277112664E+04  0.12481056071E+04  0.50400001928E-02 0. -1.
       -1    1    3    3    0  502  0.48409629581E+03 -0.22734485323E+03  0.18814202111E+04  0.19559593341E+04  0.50400001928E-02 0.  1.
</event>
<event>
 5   0  0.9016738E-05  0.1099853E+04  0.7818609E-02  0.9205335E-01
        1   -1    0    0  501    0  0.00000000000E+00  0.00000000000E+00  0.32416526003E+03  0.32416526007E+03  0.50400001928E-02 0.  1.
       -1   -1    0    0    0  501  0.00000000000E+00  0.00000000000E+00 -0.93291678917E+03  0.93291678918E+03  0.50400001928E-02 0. -1.
    10030    2    1    2    0    0  0.00000000000E+00  0.00000000000E+00 -0.60875152913E+03  0.12570820493E+04  0.10998531058E+04 0.  0.
        4    1    3    3  502    0  0.48304905324E+03  0.15050981021E+03 -0.55064999657E+03  0.74780119178E+03  0.12699999809E+01 0. -1.
       -4    1    3    3    0  502 -0.48304905324E+03 -0.15050981021E+03 -0.58101532568E+02  0.50928085748E+03  0.12699999809E+01 0.  1.
</event>
<event>
 5   0  0.1464205E-04  0.1099499E+04  0.7818609E-02  0.9205680E-01
        2   -1    0    0  501    0  0.00000000000E+00  0.00000000000E+00  0.19243355551E+04  0.19243355551E+04  0.25500000920E-02 0.  1.
       -2   -1    0    0    0  501  0.00000000000E+00  0.00000000000E+00 -0.15705400235E+03  0.15705400238E+03  0.25500000920E-02 0. -1.
    10030    2    1    2    0    0  0.00000000000E+00  0.00000000000E+00  0.17672815528E+04  0.20813895575E+04  0.10994991602E+04 0.  0.
        3    1    3    3  502    0 -0.16353714841E+03  0.38783529870E+02 -0.10722482799E+03  0.19936332420E+03  0.10100000352E+00 0. -1.
       -3    1    3    3    0  502  0.16353714841E+03 -0.38783529870E+02  0.18745063808E+04  0.18820262333E+04  0.10100000352E+00 0.  1.
</event>
<event>
 5   0  0.1574101E-04  0.1098692E+04  0.7818609E-02  0.9206468E-01
       -2   -1    0    0    0  501  0.00000000000E+00  0.00000000000E+00  0.61596815195E+03  0.61596815195E+03  0.25500000920E-02 0. -1.
        2   -1    0    0  501    0  0.00000000000E+00  0.00000000000E+00 -0.48992964026E+03  0.48992964027E+03  0.25500000920E-02 0.  1.
    10030    2    1    2    0    0  0.00000000000E+00  0.00000000000E+00  0.12603851168E+03  0.11058977922E+04  0.10986920499E+04 0.  0.
        4    1    3    3  502    0  0.23689350352E+03 -0.12500795833E+03 -0.41974482498E+03  0.49792856180E+03  0.12699999809E+01 0.  1.
       -4    1    3    3    0  502 -0.23689350352E+03  0.12500795833E+03  0.54578333667E+03  0.60796923042E+03  0.12699999809E+01 0. -1.
</event>
<event>
 5   0  0.1540772E-04  0.1101003E+04  0.7818609E-02  0.9204215E-01
       -2   -1    0    0    0  501  0.00000000000E+00  0.00000000000E+00  0.47289539229E+03  0.47289539230E+03  0.25500000920E-02 0. -1.
        2   -1    0    0  501    0  0.00000000000E+00  0.00000000000E+00 -0.64084319143E+03  0.64084319144E+03  0.25500000920E-02 0.  1.
    10030    2    1    2    0    0  0.00000000000E+00  0.00000000000E+00 -0.16794779914E+03  0.11137385837E+04  0.11010028018E+04 0.  0.
        2    1    3    3  502    0  0.68027243633E+02 -0.10004764093E+03  0.45928072093E+03  0.47494843610E+03  0.25500000920E-02 0. -1.
       -2    1    3    3    0  502 -0.68027243633E+02  0.10004764093E+03 -0.62722852007E+03  0.63879014764E+03  0.25500000920E-02 0.  1.
</event>
<event>
 5   0  0.1540772E-04  0.1098059E+04  0.7818609E-02  0.9207086E-01
        2   -1    0    0  501    0  0.00000000000E+00  0.00000000000E+00  0.37140116092E+03  0.37140116093E+03  0.25500000920E-02 0. -1.
       -2   -1    0    0    0  501  0.00000000000E+00  0.00000000000E+00 -0.81161069569E+03  0.81161069569E+03  0.25500000920E-02 0.  1.
    10030    2    1    2    0    0  0.00000000000E+00  0.00000000000E+00 -0.44020953477E+03  0.11830118566E+04  0.10980585678E+04 0.  0.
        2    1    3    3  502    0  0.42146910700E+03 -0.30230682117E+03 -0.41405333375E+03  0.66367596422E+03  0.25500000920E-02 0.  1.
       -2    1    3    3    0  502 -0.42146910700E+03  0.30230682117E+03 -0.26156201020E+02  0.51933589241E+03  0.25500000920E-02 0. -1.
</event>
<event>
 5   0  0.1553937E-04  0.1100215E+04  0.7818609E-02  0.9204982E-01
       -2   -1    0    0    0  501  0.00000000000E+00  0.00000000000E+00  0.65589770287E+03  0.65589770288E+03  0.25500000920E-02 0.  1.
        2   -1    0    0  501    0  0.00000000000E+00  0.00000000000E+00 -0.46138050811E+03  0.46138050812E+03  0.25500000920E-02 0. -1.
    10030    2    1    2    0    0  0.00000000000E+00  0.00000000000E+00  0.19451719476E+03  0.11172782110E+04  0.11002152797E+04 0.  0.
        1    1    3    3  502    0 -0.25715388314E+03  0.12646484055E+03 -0.37959486517E+03  0.47561931962E+03  0.50400001928E-02 0. -1.
       -1    1    3    3    0  502  0.25715388314E+03 -0.12646484055E+03  0.57411205993E+03  0.64165889138E+03  0.50400001928E-02 0.  1.
</event>
<event>
 5   0  0.9346836E-05  0.1100979E+04  0.7818609E-02  0.9204238E-01
        1   -1    0    0  501    0  0.00000000000E+00  0.00000000000E+00  0.15777045790E+04  0.15777045790E+04  0.50400001928E-02 0.  1.
       -1   -1    0    0    0  501  0.00000000000E+00  0.00000000000E+00 -0.19207581197E+03  0.19207581204E+03  0.50400001928E-02 0. -1.
    10030    2    1    2    0    0  0.00000000000E+00  0.00000000000E+00  0.13856287670E+04  0.17697803910E+04  0.11009793606E+04 0.  0.
        5    1    3    3  502    0  0.26929844403E+03  0.44319669629E+03  0.98952833026E+03  0.11171988945E+04  0.46999998093E+01 0. -1.
       -5    1    3    3    0  502 -0.26929844403E+03 -0.44319669629E+03  0.39610043672E+03  0.65258149646E+03  0.46999998093E+01 0.  1.
</event>
<event>
 5   0  0.8657442E-05  0.1099695E+04  0.7818609E-02  0.9205489E-01
       -1   -1    0    0    0  501  0.00000000000E+00  0.00000000000E+00  0.34833545544E+03  0.34833545547E+03  0.50400001928E-02 0.  1.
        1   -1    0    0  501    0  0.00000000000E+00  0.00000000000E+00 -0.86793405743E+03  0.86793405744E+03  0.50400001928E-02 0. -1.
    10030    2    1    2    0    0  0.00000000000E+00  0.00000000000E+00 -0.51959860199E+03  0.12162695129E+04  0.10996948763E+04 0.  0.
        1    1    3    3  502    0  0.37944725955E+03 -0.12884578198E+03  0.15660988086E+03  0.43024192395E+03  0.50400001928E-02 0.  1.
       -1    1    3    3    0  502 -0.37944725955E+03  0.12884578198E+03 -0.67620848285E+03  0.78602758897E+03  0.50400001928E-02 0. -1.
</event>
<event>
 5   0  0.1553937E-04  0.1100068E+04  0.7818609E-02  0.9205125E-01
        2   -1    0    0  501    0  0.00000000000E+00  0.00000000000E+00  0.21412099997E+04  0.21412099997E+04  0.25500000920E-02 0.  1.
       -2   -1    0    0    0  501  0.00000000000E+00  0.00000000000E+00 -0.14129279105E+03  0.14129279107E+03  0.25500000920E-02 0. -1.
    10030    2    1    2    0    0  0.00000000000E+00  0.00000000000E+00  0.19999172086E+04  0.22825027907E+04  0.11000682472E+04 0.  0.
        1    1    3    3  502    0  0.30087975874E+03 -0.20594112526E+03  0.14548042485E+03  0.39256200826E+03  0.50400001928E-02 0. -1.
       -1    1    3    3    0  502 -0.30087975874E+03  0.20594112526E+03  0.18544367838E+04  0.18899407825E+04  0.50400001928E-02 0.  1.
</event>
<event>
 5   0  0.8621738E-05  0.1100091E+04  0.7818609E-02  0.9205103E-01
        1   -1    0    0  501    0  0.00000000000E+00  0.00000000000E+00  0.57161102142E+03  0.57161102144E+03  0.50400001928E-02 0.  1.
       -1   -1    0    0    0  501  0.00000000000E+00  0.00000000000E+00 -0.52929381287E+03  0.52929381289E+03  0.50400001928E-02 0. -1.
    10030    2    1    2    0    0  0.00000000000E+00  0.00000000000E+00  0.42317208554E+02  0.11009048343E+04  0.11000912272E+04 0.  0.
        2    1    3    3  502    0 -0.30001489906E+03 -0.36550990884E+03 -0.26001848895E+03  0.53964437153E+03  0.25500000920E-02 0. -1.
       -2    1    3    3    0  502  0.30001489906E+03  0.36550990884E+03  0.30233569751E+03  0.56126046281E+03  0.25500000920E-02 0.  1.
</event>
<event>
 5   0  0.8921459E-05  0.1100332E+04  0.7818609E-02  0.9204868E-01
        1   -1    0    0  501    0  0.00000000000E+00  0.00000000000E+00  0.62894007446E+03  0.62894007448E+03  0.50400001928E-02 0. -1.
       -1   -1    0    0    0  501  0.00000000000E+00  0.00000000000E+00 -0.48125845586E+03  0.48125845589E+03  0.50400001928E-02 0.  1.
    10030    2    1    2    0    0  0.00000000000E+00  0.00000000000E+00  0.14768161860E+03  0.11101985304E+04  0.11003321845E+04 0.  0.
        3    1    3    3  502    0 -0.34221196458E+03  0.61329362507E+02  0.50405881341E+03  0.61232803054E+03  0.10100000352E+00 0. -1.
       -3    1    3    3    0  502  0.34221196458E+03 -0.61329362507E+02 -0.35637719481E+03  0.49787049982E+03  0.10100000352E+00 0.  1.
</event>
<event>
 5   0  0.9016738E-05  0.1100141E+04  0.7818609E-02  0.9205054E-01
       -1   -1    0    0    0  501  0.00000000000E+00  0.00000000000E+00  0.32739457032E+03  0.32739457036E+03  0.50400001928E-02 0.  1.
        1   -1    0    0  501    0  0.00000000000E+00  0.00000000000E+00 -0.92419884586E+03  0.92419884588E+03  0.50400001928E-02 0. -1.
    10030    2    1    2    0    0  0.00000000000E+00  0.00000000000E+00 -0.59680427554E+03  0.12515934162E+04  0.11001412347E+04 0.  0.
        4    1    3    3  502    0  0.10102910327E+03 -0.18640289692E+03 -0.87584267846E+03  0.90114090463E+03  0.12699999809E+01 0. -1.
       -4    1    3    3    0  502 -0.10102910327E+03  0.18640289692E+03  0.27903840291E+03  0.35045251160E+03  0.12699999809E+01 0.  1.
</event>
<event>
 5   0  0.1553937E-04  0.1104912E+04  0.7818609E-02  0.9200417E-01
       -2   -1    0    0    0  501  0.00000000000E+00  0.00000000000E+00  0.74646518893E+03  0.74646518893E+03  0.25500000920E-02 0.  1.
        2   -1    0    0  501    0  0.00000000000E+00  0.00000000000E+00 -0.40887054461E+03  0.40887054461E+03  0.25500000920E-02 0. -1.
    10030    2    1    2    0    0  0.00000000000E+00  0.00000000000E+00  0.33759464432E+03  0.11553357335E+04  0.11049119935E+04 0.  0.
        1    1    3    3  502    0  0.26451934869E+03  0.21870660208E+03 -0.28386109520E+03  0.44539890549E+03  0.50400001928E-02 0. -1.
       -1    1    3    3    0  502 -0.26451934869E+03 -0.21870660208E+03  0.62145573951E+03  0.70993682805E+03  0.50400001928E-02 0.  1.
</event>
<event>
 5   0  0.8621738E-05  0.1100200E+04  0.7818609E-02  0.9204997E-01
        1   -1    0    0  501    0  0.00000000000E+00  0.00000000000E+00  0.56728989595E+03  0.56728989598E+03  0.50400001928E-02 0.  1.
       -1   -1    0    0    0  501  0.00000000000E+00  0.00000000000E+00 -0.53343060019E+03  0.53343060021E+03  0.50400001928E-02 0. -1.
    10030    2    1    2    0    0  0.00000000000E+00  0.00000000000E+00  0.33859295766E+02  0.11007204962E+04  0.11001995995E+04 0.  0.
        2    1    3    3  502    0  0.53578796631E+03  0.29602056811E+02 -0.10422584157E+03  0.54663338050E+03  0.25500000920E-02 0.  1.
       -2    1    3    3    0  502 -0.53578796631E+03 -0.29602056811E+02  0.13808513734E+03  0.55408711569E+03  0.25500000920E-02 0. -1.
</event>
<event>
 5   0  0.8921459E-05  0.1099931E+04  0.7818609E-02  0.9205259E-01
       -1   -1    0    0    0  501  0.00000000000E+00  0.00000000000E+00  0.38451469082E+03  0.38451469086E+03  0.50400001928E-02 0. -1.
        1   -1    0    0  501    0  0.00000000000E+00  0.00000000000E+00 -0.78660755735E+03  0.78660755736E+03  0.50400001928E-02 0.  1.
    10030    2    1    2    0    0  0.00000000000E+00  0.00000000000E+00 -0.40209286652E+03  0.11711222482E+04  0.10999312010E+04 0.  0.
        3    1    3    3  502    0 -0.38395672522E+03 -0.24465500657E+03  0.12743975768E+03  0.47277874436E+03  0.10100000352E+00 0. -1.
       -3    1    3    3    0  502  0.38395672522E+03  0.24465500657E+03 -0.52953262420E+03  0.69834350386E+03  0.10100000352E+00 0.  1.
</event>
<event>
 5   0  0.9346836E-05  0.1101017E+04  0.7818609E-02  0.9204201E-01
        1   -1    0    0  501    0  0.00000000000E+00  0.00000000000E+00  0.94215193211E+03  0.94215193212E+03  0.50400001928E-02 0. -1.
       -1   -1    0    0    0  501  0.00000000000E+00  0.00000000000E+00 -0.32166765803E+03  0.32166765807E+03  0.50400001928E-02 0.  1.
    10030    2    1    2    0    0  0.00000000000E+00  0.00000000000E+00  0.62048427408E+03  0.12638195902E+04  0.11010173578E+04 0.  0.
        5    1    3    3  502    0 -0.54969674599E+03  0.29362845975E+02  0.31369075431E+03  0.63360292661E+03  0.46999998093E+01 0. -1.
       -5    1    3    3    0  502  0.54969674599E+03 -0.29362845975E+02  0.30679351978E+03  0.63021666358E+03  0.46999998093E+01 0.  1.
</event>
<event>
 5   0  0.1553937E-04  0.1099089E+04  0.7818609E-02  0.9206080E-01
        2   -1    0    0  501    0  0.00000000000E+00  0.00000000000E+00  0.20214244595E+04  0.20214244595E+04  0.25500000920E-02 0. -1.
       -2   -1    0    0    0  501  0.00000000000E+00  0.00000000000E+00 -0.14939912383E+03  0.14939912385E+03  0.25500000920E-02 0.  1.
    10030    2    1    2    0    0  0.00000000000E+00  0.00000000000E+00  0.18720253357E+04  0.21708235834E+04  0.10990887920E+04 0.  0.
        1    1    3    3  502    0 -0.12116109404E+03 -0.30766492755E+03  0.18029526310E+04  0.18330237063E+04  0.50400001928E-02 0. -1.
       -1    1    3    3    0  502  0.12116109404E+03  0.30766492755E+03  0.69072704677E+02  0.33779987702E+03  0.50400001928E-02 0.  1.
</event>
<event>
 5   0  0.6010125E-05  0.1100839E+04  0.7818609E-02  0.9204374E-01
       -3   -1    0    0    0  501  0.00000000000E+00  0.00000000000E+00  0.67751371837E+03  0.67751372590E+03  0.10100000352E+00 0. -1.
        3   -1    0    0  501    0  0.00000000000E+00  0.00000000000E+00 -0.44716700977E+03  0.44716702117E+03  0.10100000352E+00 0.  1.
    10030    2    1    2    0    0  0.00000000000E+00  0.00000000000E+00  0.23034670860E+03  0.11246807471E+04  0.11008393056E+04 0.  0.
        2    1    3    3  502    0  0.94898188174E+02 -0.55109058012E+01  0.66906416035E+03  0.67578316557E+03  0.25500000920E-02 0. -1.
       -2    1    3    3    0  502 -0.94898188174E+02  0.55109058012E+01 -0.43871745174E+03  0.44889758150E+03  0.25500000920E-02 0.  1.
</event>
<event>
 5   0  0.8921459E-05  0.1100211E+04  0.7818609E-02  0.9204986E-01
        1   -1    0    0  501    0  0.00000000000E+00  0.00000000000E+00  0.43731163418E+03  0.43731163421E+03  0.50400001928E-02 0.  1.
       -1   -1    0    0    0  501  0.00000000000E+00  0.00000000000E+00 -0.69199228764E+03  0.69199228766E+03  0.50400001928E-02 0. -1.
    10030    2    1    2    0    0  0.00000000000E+00  0.00000000000E+00 -0.25468065346E+03  0.11293039219E+04  0.11002113946E+04 0.  0.
        3    1    3    3  502    0 -0.88147756918E+02 -0.81442213972E+02  0.42371066370E+03  0.44037892547E+03  0.10100000352E+00 0.  1.
       -3    1    3    3    0  502  0.88147756918E+02  0.81442213972E+02 -0.67839131716E+03  0.68892499640E+03  0.10100000352E+00 0. -1.
</event>
<event>
 5   0  0.6010125E-05  0.1100743E+04  0.7818609E-02  0.9204468E-01
       -3   -1    0    0    0  501  0.00000000000E+00  0.00000000000E+00  0.47853180706E+03  0.47853181772E+03  0.10100000352E+00 0.  1.
        3   -1    0    0  501    0  0.00000000000E+00  0.00000000000E+00 -0.63299619527E+03  0.63299620333E+03  0.10100000352E+00 0. -1.
    10030    2    1    2    0    0  0.00000000000E+00  0.00000000000E+00 -0.15446438821E+03  0.11115280210E+04  0.11007430646E+04 0.  0.
        5    1    3    3  502    0  0.47342640571E+03  0.28063032324E+03 -0.76332598304E+02  0.55563899747E+03  0.46999998093E+01 0.  1.
       -5    1    3    3    0  502 -0.47342640571E+03 -0.28063032324E+03 -0.78131789908E+02  0.55588902358E+03  0.46999998093E+01 0. -1.
</event>
<event>
 5   0  0.1540772E-04  0.1100199E+04  0.7818609E-02  0.9204998E-01
       -2   -1    0    0    0  501  0.00000000000E+00  0.00000000000E+00  0.74829516601E+03  0.74829516602E+03  0.25500000920E-02 0.  1.
        2   -1    0    0  501    0  0.00000000000E+00  0.00000000000E+00 -0.40439832342E+03  0.40439832343E+03  0.25500000920E-02 0. -1.
    10030    2    1    2    0    0  0.00000000000E+00  0.00000000000E+00  0.34389684260E+03  0.11526934894E+04  0.11001987285E+04 0.  0.
        2    1    3    3  502    0 -0.38306886499E+03 -0.31930179309E+03 -0.71324156505E+02  0.50376832543E+03  0.25500000920E-02 0. -1.
       -2    1    3    3    0  502  0.38306886499E+03  0.31930179309E+03  0.41522099910E+03  0.64892516402E+03  0.25500000920E-02 0.  1.
</event>
<event>
 5   0  0.8621738E-05  0.1099272E+04  0.7818609E-02  0.9205901E-01
        1   -1    0    0  501    0  0.00000000000E+00  0.00000000000E+00  0.30375378415E+03  0.30375378419E+03  0.50400001928E-02 0.  1.
       -1   -1    0    0    0  501  0.00000000000E+00  0.00000000000E+00 -0.99455523810E+03  0.99455523811E+03  0.50400001928E-02 0. -1.
    10030    2    1    2    0    0  0.00000000000E+00  0.00000000000E+00 -0.69080145395E+03  0.12983090223E+04  0.10992723360E+04 0.  0.
        2    1    3    3  502    0  0.52002508674E+03 -0.15493630377E+03 -0.24197468253E+03  0.59412380533E+03  0.25500000920E-02 0.  1.
       -2    1    3    3    0  502 -0.52002508674E+03  0.15493630377E+03 -0.44882677141E+03  0.70418521698E+03  0.25500000920E-02 0. -1.
</event>
<event>
 5   0  0.1503277E-04  0.1099971E+04  0.7818609E-02  0.9205220E-01
        2   -1    0    0  501    0  0.00000000000E+00  0.00000000000E+00  0.74170403083E+03  0.74170403083E+03  0.25500000920E-02 0.  1.
       -2   -1    0    0    0  501  0.00000000000E+00  0.00000000000E+00 -0.40782335931E+03  0.40782335932E+03  0.25500000920E-02 0. -1.
    10030    2    1    2    0    0  0.00000000000E+00  0.00000000000E+00  0.33388067152E+03  0.11495273901E+04  0.10999713259E+04 0.  0.
        5    1    3    3  502    0 -0.19347867742E+03  0.22128067015E+03 -0.31882684136E+03  0.43367243210E+03  0.46999998093E+01 0. -1.
       -5    1    3    3    0  502  0.19347867742E+03 -0.22128067015E+03  0.65270751287E+03  0.71585495805E+03  0.46999998093E+01 0.  1.
</event>
<event>
 5   0  0.1574101E-04  0.1099963E+04  0.7818609E-02  0.9205228E-01
        2   -1    0    0  501    0  0.00000000000E+00  0.00000000000E+00  0.74667635388E+03  0.74667635389E+03  0.25500000920E-02 0. -1.
       -2   -1    0    0    0  501  0.00000000000E+00  0.00000000000E+00 -0.40510120466E+03  0.40510120466E+03  0.25500000920E-02 0.  1.
    10030    2    1    2    0    0  0.00000000000E+00  0.00000000000E+00  0.34157514923E+03  0.11517775585E+04  0.10999627093E+04 0.  0.
        4    1    3    3  502    0  0.54539100187E+03  0.51053649106E+02  0.22229899156E+03  0.59116518382E+03  0.12699999809E+01 0.  1.
       -4    1    3    3    0  502 -0.54539100187E+03 -0.51053649106E+02  0.11927615766E+03  0.56061237473E+03  0.12699999809E+01 0. -1.
</event>
<event>
 5   0  0.1574101E-04  0.1099835E+04  0.7818609E-02  0.9205353E-01
        2   -1    0    0  501    0  0.00000000000E+00  0.00000000000E+00  0.53158536889E+03  0.53158536889E+03  0.25500000920E-02 0. -1.
       -2   -1    0    0    0  501  0.00000000000E+00  0.00000000000E+00 -0.56888182458E+03  0.56888182459E+03  0.25500000920E-02 0.  1.
    10030    2    1    2    0    0  0.00000000000E+00  0.00000000000E+00 -0.37296455692E+02  0.11004671935E+04  0.10998349960E+04 0.  0.
        4    1    3    3  502    0  0.14487901218E+02  0.31041843585E+03 -0.47260289656E+03  0.56561878976E+03  0.12699999809E+01 0.  1.
       -4    1    3    3    0  502 -0.14487901218E+02 -0.31041843585E+03  0.43530644087E+03  0.53484840372E+03  0.12699999809E+01 0. -1.
</event>
<event>
 5   0  0.9346836E-05  0.1096779E+04  0.7818609E-02  0.9208337E-01
       -1   -1    0    0    0  501  0.00000000000E+00  0.00000000000E+00  0.20859026492E+03  0.20859026499E+03  0.50400001928E-02 0. -1.
        1   -1    0    0  501    0  0.00000000000E+00  0.00000000000E+00 -0.14417321157E+04  0.14417321157E+04  0.50400001928E-02 0.  1.
    10030    2    1    2    0    0  0.00000000000E+00  0.00000000000E+00 -0.12331418508E+04  0.16503223807E+04  0.10967794382E+04 0.  0.
        5    1    3    3  502    0  0.46154433055E+03  0.27563551981E+03 -0.77940603816E+03  0.94683365549E+03  0.46999998093E+01 0.  1.
       -5    1    3    3    0  502 -0.46154433055E+03 -0.27563551981E+03 -0.45373581261E+03  0.70348872520E+03  0.46999998093E+01 0. -1.
</event>
<event>
 5   0  0.9346836E-05  0.1100085E+04  0.7818609E-02  0.9205109E-01
        1   -1    0    0  501    0  0.00000000000E+00  0.00000000000E+00  0.10390565080E+04  0.10390565080E+04  0.50400001928E-02 0.  1.
       -1   -1    0    0    0  501  0.00000000000E+00  0.00000000000E+00 -0.29117459423E+03  0.29117459428E+03  0.50400001928E-02 0. -1.
    10030    2    1    2    0    0  0.00000000000E+00  0.00000000000E+00  0.74788191376E+03  0.13302311023E+04  0.11000851915E+04 0.  0.
        5    1    3    3  502    0 -0.54715991018E+03  0.35592882461E+02  0.32159545364E+03  0.63568588657E+03  0.46999998093E+01 0. -1.
       -5    1    3    3    0  502  0.54715991018E+03 -0.35592882461E+02  0.42628646012E+03  0.69454521571E+03  0.46999998093E+01 0.  1.
</event>
<event>
 5   0  0.9346836E-05  0.1096540E+04  0.7818609E-02  0.9208571E-01
       -1   -1    0    0    0  501  0.00000000000E+00  0.00000000000E+00  0.34073658837E+03  0.34073658840E+03  0.50400001928E-02 0.  1.
        1   -1    0    0  501    0  0.00000000000E+00  0.00000000000E+00 -0.88220587047E+03  0.88220587049E+03  0.50400001928E-02 0. -1.
    10030    2    1    2    0    0  0.00000000000E+00  0.00000000000E+00 -0.54146928211E+03  0.12229424589E+04  0.10965396820E+04 0.  0.
        5    1    3    3  502    0 -0.48274173430E+03  0.24910596185E+03 -0.18814132602E+03  0.57490226197E+03  0.46999998093E+01 0. -1.
       -5    1    3    3    0  502  0.48274173430E+03 -0.24910596185E+03 -0.35332795609E+03  0.64804019692E+03  0.46999998093E+01 0.  1.
</event>
<event>
 5   0  0.1574101E-04  0.1099767E+04  0.7818609E-02  0.9205419E-01
        2   -1    0    0  501    0  0.00000000000E+00  0.00000000000E+00  0.58101723677E+03  0.58101723678E+03  0.25500000920E-02 0. -1.
       -2   -1    0    0    0  501  0.00000000000E+00  0.00000000000E+00 -0.52041802907E+03  0.52041802907E+03  0.25500000920E-02 0.  1.
    10030    2    1    2    0    0  0.00000000000E+00  0.00000000000E+00  0.60599207706E+02  0.11014352659E+04  0.10997669666E+04 0.  0.
        4    1    3    3  502    0  0.33146753197E+03  0.60412729400E+02  0.46552735844E+03  0.57466316828E+03  0.12699999809E+01 0. -1.
       -4    1    3    3    0  502 -0.33146753197E+03 -0.60412729400E+02 -0.40492815074E+03  0.52677209757E+03  0.12699999809E+01 0.  1.
</event>
<event>
 5   0  0.1503277E-04  0.1100756E+04  0.7818609E-02  0.9204455E-01
       -2   -1    0    0    0  501  0.00000000000E+00  0.00000000000E+00  0.20998163565E+04  0.20998163565E+04  0.25500000920E-02 0.  1.
        2   -1    0    0  501    0  0.00000000000E+00  0.00000000000E+00 -0.14425839436E+03  0.14425839438E+03  0.25500000920E-02 0. -1.
    10030    2    1    2    0    0  0.00000000000E+00  0.00000000000E+00  0.19555579622E+04  0.22440747509E+04  0.11007563510E+04 0.  0.
        5    1    3    3  502    0 -0.31630501169E+03  0.41477464831E+03  0.61995283599E+03  0.81021631565E+03  0.46999998093E+01 0. -1.
       -5    1    3    3    0  502  0.31630501169E+03 -0.41477464831E+03  0.13356051262E+04  0.14338584353E+04  0.46999998093E+01 0.  1.
</event>
<event>
 5   0  0.8921459E-05  0.1100556E+04  0.7818609E-02  0.9204650E-01
        1   -1    0    0  501    0  0.00000000000E+00  0.00000000000E+00  0.36444348167E+03  0.36444348170E+03  0.50400001928E-02 0. -1.
       -1   -1    0    0    0  501  0.00000000000E+00  0.00000000000E+00 -0.83087245361E+03  0.83087245362E+03  0.50400001928E-02 0.  1.
    10030    2    1    2    0    0  0.00000000000E+00  0.00000000000E+00 -0.46642897194E+03  0.11953159353E+04  0.11005563136E+04 0.  0.
        3    1    3    3  502    0 -0.47670452473E+01  0.35214895946E+03 -0.69243696112E+03  0.77685299104E+03  0.10100000352E+00 0.  1.
       -3    1    3    3    0  502  0.47670452473E+01 -0.35214895946E+03  0.22600798918E+03  0.41846294428E+03  0.10100000352E+00 0. -1.
</event>
<event>
 5   0  0.1574101E-04  0.1100201E+04  0.7818609E-02  0.9204996E-01
        2   -1    0    0  501    0  0.00000000000E+00  0.00000000000E+00  0.15810307352E+04  0.15810307352E+04  0.25500000920E-02 0. -1.
       -2   -1    0    0    0  501  0.00000000000E+00  0.00000000000E+00 -0.19140096501E+03  0.19140096503E+03  0.25500000920E-02 0.  1.
    10030    2    1    2    0    0  0.00000000000E+00  0.00000000000E+00  0.13896297702E+04  0.17724317002E+04  0.11002014515E+04 0.  0.
        4    1    3    3  502    0  0.26409302607E+03  0.27304047020E+03  0.53818552754E+02  0.38365905998E+03  0.12699999809E+01 0.  1.
       -4    1    3    3    0  502 -0.26409302607E+03 -0.27304047020E+03  0.13358112174E+04  0.13887726402E+04  0.12699999809E+01 0. -1.
</event>
<event>
 5   0  0.1553937E-04  0.1099788E+04  0.7818609E-02  0.9205398E-01
       -2   -1    0    0    0  501  0.00000000000E+00  0.00000000000E+00  0.97574713769E+03  0.97574713769E+03  0.25500000920E-02 0. -1.
        2   -1    0    0  501    0  0.00000000000E+00  0.00000000000E+00 -0.30989957838E+03  0.30989957839E+03  0.25500000920E-02 0.  1.
    10030    2    1    2    0    0  0.00000000000E+00  0.00000000000E+00  0.66584755932E+03  0.12856467161E+04  0.10997883916E+04 0.  0.
        1    1    3    3  502    0 -0.28354054034E+03 -0.26504175071E+03 -0.12244615664E+03  0.40698332759E+03  0.50400001928E-02 0.  1.
       -1    1    3    3    0  502  0.28354054034E+03  0.26504175071E+03  0.78829371596E+03  0.87866338849E+03  0.50400001928E-02 0. -1.
</event>
<event>
 5   0  0.6010125E-05  0.1100471E+04  0.7818609E-02  0.9204733E-01
        3   -1    0    0  501    0  0.00000000000E+00  0.00000000000E+00  0.59364021233E+03  0.59364022092E+03  0.10100000352E+00 0. -1.
       -3   -1    0    0    0  501  0.00000000000E+00  0.00000000000E+00 -0.51000446624E+03  0.51000447624E+03  0.10100000352E+00 0.  1.
    10030    2    1    2    0    0  0.00000000000E+00  0.00000000000E+00  0.83635746087E+02  0.11036446972E+04  0.11004711171E+04 0.  0.
        5    1    3    3  502    0 -0.21208303962E+03 -0.38774795462E+03  0.37049671878E+03  0.57673009340E+03  0.46999998093E+01 0. -1.
       -5    1    3    3    0  502  0.21208303962E+03  0.38774795462E+03 -0.28686097269E+03  0.52691460376E+03  0.46999998093E+01 0.  1.
</event>
<event>
 5   0  0.8657442E-05  0.1100265E+04  0.7818609E-02  0.9204934E-01
       -1   -1    0    0    0  501  0.00000000000E+00  0.00000000000E+00  0.84753935988E+03  0.84753935990E+03  0.50400001928E-02 0. -1.
        1   -1    0    0  501    0  0.00000000000E+00  0.00000000000E+00 -0.35708727549E+03  0.35708727552E+03  0.50400001928E-02 0.  1.
    10030    2    1    2    0    0  0.00000000000E+00  0.00000000000E+00  0.49045208440E+03  0.12046266354E+04  0.11002645517E+04 0.  0.
        1    1    3    3  502    0  0.40984555330E+03 -0.31455865221E+03  0.38287471581E+02  0.51806028003E+03  0.50400001928E-02 0.  1.
       -1    1    3    3    0  502 -0.40984555330E+03  0.31455865221E+03  0.45216461282E+03  0.68656635539E+03  0.50400001928E-02 0. -1.
</event>
<event>
 5   0  0.1464205E-04  0.1099450E+04  0.7818609E-02  0.9205728E-01
        2   -1    0    0  501    0  0.00000000000E+00  0.00000000000E+00  0.98912936901E+03  0.98912936901E+03  0.25500000920E-02 0. -1.
       -2   -1    0    0    0  501  0.00000000000E+00  0.00000000000E+00 -0.30551875508E+03  0.30551875509E+03  0.25500000920E-02 0.  1.
    10030    2    1    2    0    0  0.00000000000E+00  0.00000000000E+00  0.68361061393E+03  0.12946481241E+04  0.10994499960E+04 0.  0.
        3    1    3    3  502    0 -0.19588679297E+03 -0.35255485247E+03  0.78166242391E+03  0.87958098821E+03  0.10100000352E+00 0. -1.
       -3    1    3    3    0  502  0.19588679297E+03  0.35255485247E+03 -0.98051809981E+02  0.41506713590E+03  0.10100000352E+00 0.  1.
</event>
<event>
 5   0  0.8921459E-05  0.1099771E+04  0.7818609E-02  0.9205416E-01
       -1   -1    0    0    0  501  0.00000000000E+00  0.00000000000E+00  0.54591504415E+03  0.54591504417E+03  0.50400001928E-02 0.  1.
        1   -1    0    0  501    0  0.00000000000E+00  0.00000000000E+00 -0.55388433483E+03  0.55388433485E+03  0.50400001928E-02 0. -1.
    10030    2    1    2    0    0  0.00000000000E+00  0.00000000000E+00 -0.79692906754E+01  0.10997993790E+04  0.10997705054E+04 0.  0.
        3    1    3    3  502    0  0.30697360725E+03 -0.38124446257E+03 -0.25457782638E+03  0.55171552060E+03  0.10100000352E+00 0. -1.
       -3    1    3    3    0  502 -0.30697360725E+03  0.38124446257E+03  0.24660853570E+03  0.54808385842E+03  0.10100000352E+00 0.  1.
</event>
<event>
 5   0  0.9346836E-05  0.1099844E+04  0.7818609E-02  0.9205344E-01
       -1   -1    0    0    0  501  0.00000000000E+00  0.00000000000E+00  0.58706931661E+03  0.58706931663E+03  0.50400001928E-02 0. -1.
        1   -1    0    0  501    0  0.00000000000E+00  0.00000000000E+00 -0.51512559052E+03  0.51512559055E+03  0.50400001928E-02 0.  1.
    10030    2    1    2    0    0  0.00000000000E+00  0.00000000000E+00  0.71943726084E+02  0.11021949072E+04  0.10998444043E+04 0.  0.
        5    1    3    3  502    0  0.34439460001E+03  0.31226560710E+03 -0.25838173840E+03  0.53188406879E+03  0.46999998093E+01 0. -1.
       -5    1    3    3    0  502 -0.34439460001E+03 -0.31226560710E+03  0.33032546448E+03  0.57031083838E+03  0.46999998093E+01 0.  1.
</event>
<event>
 5   0  0.6010125E-05  0.1099422E+04  0.7818609E-02  0.9205756E-01
       -3   -1    0    0    0  501  0.00000000000E+00  0.00000000000E+00  0.13448906195E+04  0.13448906233E+04  0.10100000352E+00 0. -1.
        3   -1    0    0  501    0  0.00000000000E+00  0.00000000000E+00 -0.22468891320E+03  0.22468893590E+03  0.10100000352E+00 0.  1.
    10030    2    1    2    0    0  0.00000000000E+00  0.00000000000E+00  0.11202017063E+04  0.15695795592E+04  0.10994217252E+04 0.  0.
        3    1    3    3  502    0 -0.38290147034E+03  0.39398950794E+03  0.53374728427E+03  0.76598135880E+03  0.10100000352E+00 0. -1.
       -3    1    3    3    0  502  0.38290147034E+03 -0.39398950794E+03  0.58645442200E+03  0.80359820037E+03  0.10100000352E+00 0.  1.
</event>
<event>
 5   0  0.8657442E-05  0.1099552E+04  0.7818609E-02  0.9205628E-01
        1   -1    0    0  501    0  0.00000000000E+00  0.00000000000E+00  0.39279166160E+03  0.39279166163E+03  0.50400001928E-02 0. -1.
       -1   -1    0    0    0  501  0.00000000000E+00  0.00000000000E+00 -0.76950177189E+03  0.76950177190E+03  0.50400001928E-02 0.  1.
    10030    2    1    2    0    0  0.00000000000E+00  0.00000000000E+00 -0.37671011029E+03  0.11622934335E+04  0.10995524173E+04 0.  0.
        1    1    3    3  502    0 -0.52253423157E+03 -0.14597047751E+03 -0.94374849202E+02  0.55068685807E+03  0.50400001928E-02 0. -1.
       -1    1    3    3    0  502  0.52253423157E+03  0.14597047751E+03 -0.28233526109E+03  0.61160657546E+03  0.50400001928E-02 0.  1.
</event>
<event>
 5   0  0.8657442E-05  0.1100036E+04  0.7818609E-02  0.9205157E-01
       -1   -1    0    0    0  501  0.00000000000E+00  0.00000000000E+00  0.40060046357E+03  0.40060046360E+03  0.50400001928E-02 0.  1.
        1   -1    0    0  501    0  0.00000000000E+00  0.00000000000E+00 -0.75516574656E+03  0.75516574658E+03  0.50400001928E-02 0. -1.
    10030    2    1    2    0    0  0.00000000000E+00  0.00000000000E+00 -0.35456528300E+03  0.11557662102E+04  0.11000359052E+04 0.  0.
        1    1    3    3  502    0 -0.10261657210E+03 -0.45808470254E+03 -0.47841790152E+03  0.67026520430E+03  0.50400001928E-02 0. -1.
       -1    1    3    3    0  502  0.10261657210E+03  0.45808470254E+03  0.12385261852E+03  0.48550100589E+03  0.50400001928E-02 0.  1.
</event>
<event>
 5   0  0.6010125E-05  0.1101501E+04  0.7818609E-02  0.9203730E-01
       -3   -1    0    0    0  501  0.00000000000E+00  0.00000000000E+00  0.14662731658E+04  0.14662731693E+04  0.10100000352E+00 0.  1.
        3   -1    0    0  501    0  0.00000000000E+00  0.00000000000E+00 -0.20686862786E+03  0.20686865251E+03  0.10100000352E+00 0. -1.
    10030    2    1    2    0    0  0.00000000000E+00  0.00000000000E+00  0.12594045379E+04  0.16731418218E+04  0.11015006880E+04 0.  0.
        3    1    3    3  502    0 -0.26377283744E+03 -0.36309120304E+03  0.14478663781E+03  0.47156602102E+03  0.10100000352E+00 0. -1.
       -3    1    3    3    0  502  0.26377283744E+03  0.36309120304E+03  0.11146179001E+04  0.12015758007E+04  0.10100000352E+00 0.  1.
</event>
<event>
 5   0  0.1464205E-04  0.1100185E+04  0.7818609E-02  0.9205011E-01
        2   -1    0    0  501    0  0.00000000000E+00  0.00000000000E+00  0.20101583732E+04  0.20101583732E+04  0.25500000920E-02 0.  1.
       -2   -1    0    0    0  501  0.00000000000E+00  0.00000000000E+00 -0.15053641066E+03  0.15053641069E+03  0.25500000920E-02 0. -1.
    10030    2    1    2    0    0  0.00000000000E+00  0.00000000000E+00  0.18596219625E+04  0.21606947839E+04  0.11001854869E+04 0.  0.
        3    1    3    3  502    0 -0.31077361474E+03  0.42549442969E+03  0.61943273496E+03  0.81321748177E+03  0.10100000352E+00 0. -1.
       -3    1    3    3    0  502  0.31077361474E+03 -0.42549442969E+03  0.12401892276E+04  0.13474773021E+04  0.10100000352E+00 0.  1.
</event>
<event>
 5   0  0.8657442E-05  0.1099780E+04  0.7818609E-02  0.9205407E-01
       -1   -1    0    0    0  501  0.00000000000E+00  0.00000000000E+00  0.51790174363E+03  0.51790174365E+03  0.50400001928E-02 0. -1.
        1   -1    0    0  501    0  0.00000000000E+00  0.00000000000E+00 -0.58385376903E+03  0.58385376905E+03  0.50400001928E-02 0.  1.
    10030    2    1    2    0    0  0.00000000000E+00  0.00000000000E+00 -0.65952025403E+02  0.11017555127E+04  0.10997797689E+04 0.  0.
        1    1    3    3  502    0  0.27136659132E+03 -0.15336007501E+03  0.42084967899E+03  0.52371136308E+03  0.50400001928E-02 0. -1.
       -1    1    3    3    0  502 -0.27136659132E+03  0.15336007501E+03 -0.48680170439E+03  0.57804414962E+03  0.50400001928E-02 0.  1.
</event>
<event>
 5   0  0.8621738E-05  0.1099766E+04  0.7818609E-02  0.9205420E-01
       -1   -1    0    0    0  501  0.00000000000E+00  0.00000000000E+00  0.30116402280E+03  0.30116402284E+03  0.50400001928E-02 0. -1.
        1   -1    0    0  501    0  0.00000000000E+00  0.00000000000E+00 -0.10040080509E+04  0.10040080510E+04  0.50400001928E-02 0.  1.
    10030    2    1    2    0    0  0.00000000000E+00  0.00000000000E+00 -0.70284402814E+03  0.13051720738E+04  0.10997656179E+04 0.  0.
        2    1    3    3  502    0  0.30903526971E+03  0.42987836208E+03 -0.17510373950E+03  0.55763744826E+03  0.25500000920E-02 0. -1.
       -2    1    3    3    0  502 -0.30903526971E+03 -0.42987836208E+03 -0.52774028864E+03  0.74753462553E+03  0.25500000920E-02 0.  1.
</event>
<event>
 5   0  0.8921459E-05  0.1100104E+04  0.7818609E-02  0.9205090E-01
        1   -1    0    0  501    0  0.00000000000E+00  0.00000000000E+00  0.91256848910E+03  0.91256848912E+03  0.50400001928E-02 0.  1.
       -1   -1    0    0    0  501  0.00000000000E+00  0.00000000000E+00 -0.33154476205E+03  0.33154476209E+03  0.50400001928E-02 0. -1.
    10030    2    1    2    0    0  0.00000000000E+00  0.00000000000E+00  0.58102372705E+03  0.12441132512E+04  0.11001041816E+04 0.  0.
        3    1    3    3  502    0  0.45698630658E+03  0.27126290955E+03  0.45099377702E+03  0.69700462524E+03  0.10100000352E+00 0.  1.
       -3    1    3    3    0  502 -0.45698630658E+03 -0.27126290955E+03  0.13002995003E+03  0.54710862596E+03  0.10100000352E+00 0. -1.
</event>
<event>
 5   0  0.1553937E-04  0.1100271E+04  0.7818609E-02  0.9204928E-01
        2   -1    0    0  501    0  0.00000000000E+00  0.00000000000E+00  0.59725615516E+03  0.59725615517E+03  0.25500000920E-02 0. -1.
       -2   -1    0    0    0  501  0.00000000000E+00  0.00000000000E+00 -0.50673268308E+03  0.50673268309E+03  0.25500000920E-02 0.  1.
    10030    2    1    2    0    0  0.00000000000E+00  0.00000000000E+00  0.90523472081E+02  0.11039888383E+04  0.11002712647E+04 0.  0.
        1    1    3    3  502    0  0.43976450426E+02  0.84580873221E+02  0.58890543460E+03  0.59657142341E+03  0.50400001928E-02 0. -1.
       -1    1    3    3    0  502 -0.43976450426E+02 -0.84580873221E+02 -0.49838196252E+03  0.50741741485E+03  0.50400001928E-02 0.  1.
</event>
<event>
 5   0  0.1464205E-04  0.1096602E+04  0.7818609E-02  0.9208510E-01
        2   -1    0    0  501    0  0.00000000000E+00  0.00000000000E+00  0.62681485018E+03  0.62681485018E+03  0.25500000920E-02 0.  1.
       -2   -1    0    0    0  501  0.00000000000E+00  0.00000000000E+00 -0.47962187941E+03  0.47962187942E+03  0.25500000920E-02 0. -1.
    10030    2    1    2    0    0  0.00000000000E+00  0.00000000000E+00  0.14719297076E+03  0.11064367296E+04  0.10966022369E+04 0.  0.
        3    1    3    3  502    0 -0.99895243453E+02  0.53888867232E+03  0.57514739920E+02  0.55107895653E+03  0.10100000352E+00 0. -1.
       -3    1    3    3    0  502  0.99895243453E+02 -0.53888867232E+03  0.89678230842E+02  0.55535777307E+03  0.10100000352E+00 0.  1.
</event>
<event>
 5   0  0.9016738E-05  0.1100185E+04  0.7818609E-02  0.9205011E-01
       -1   -1    0    0    0  501  0.00000000000E+00  0.00000000000E+00  0.95402277368E+03  0.95402277370E+03  0.50400001928E-02 0. -1.
        1   -1    0    0  501    0  0.00000000000E+00  0.00000000000E+00 -0.31718519723E+03  0.31718519727E+03  0.50400001928E-02 0.  1.
    10030    2    1    2    0    0  0.00000000000E+00  0.00000000000E+00  0.63683757645E+03  0.12712079710E+04  0.11001852602E+04 0.  0.
        4    1    3    3  502    0  0.96407914954E+02  0.16365726882E+03  0.91492833597E+03  0.93443761727E+03  0.12699999809E+01 0. -1.
       -4    1    3    3    0  502 -0.96407914954E+02 -0.16365726882E+03 -0.27809075952E+03  0.33677035370E+03  0.12699999809E+01 0.  1.
</event>
<event>
 5   0  0.8621738E-05  0.1099741E+04  0.7818609E-02  0.9205445E-01
       -1   -1    0    0    0  501  0.00000000000E+00  0.00000000000E+00  0.12984020051E+03  0.12984020060E+03  0.50400001928E-02 0. -1.
        1   -1    0    0  501    0  0.00000000000E+00  0.00000000000E+00 -0.23286878997E+04  0.23286878997E+04  0.50400001928E-02 0.  1.
    10030    2    1    2    0    0  0.00000000000E+00  0.00000000000E+00 -0.21988476992E+04  0.24585281003E+04  0.10997405220E+04 0.  0.
        2    1    3    3  502    0  0.37657097247E+03 -0.40065104582E+03 -0.10871087933E+04  0.12182497635E+04  0.25500000920E-02 0.  1.
       -2    1    3    3    0  502 -0.37657097247E+03  0.40065104582E+03 -0.11117389058E+04  0.12402783367E+04  0.25500000920E-02 0. -1.
</event>
<event>
 5   0  0.8621738E-05  0.1099953E+04  0.7818609E-02  0.9205237E-01
       -1   -1    0    0    0  501  0.00000000000E+00  0.00000000000E+00  0.26882909996E+03  0.26882910001E+03  0.50400001928E-02 0. -1.
        1   -1    0    0  501    0  0.00000000000E+00  0.00000000000E+00 -0.11251550435E+04  0.11251550435E+04  0.50400001928E-02 0.  1.
    10030    2    1    2    0    0  0.00000000000E+00  0.00000000000E+00 -0.85632594351E+03  0.13939841435E+04  0.10999534857E+04 0.  0.
        2    1    3    3  502    0  0.33419103250E+03  0.94362227363E+02 -0.96864815897E+03  0.10290126977E+04  0.25500000920E-02 0.  1.
       -2    1    3    3    0  502 -0.33419103250E+03 -0.94362227363E+02  0.11232221545E+03  0.36497144580E+03  0.25500000920E-02 0. -1.
</event>
<event>
 5   0  0.8657442E-05  0.1099923E+04  0.7818609E-02  0.9205267E-01
       -1   -1    0    0    0  501  0.00000000000E+00  0.00000000000E+00  0.34409090399E+03  0.34409090403E+03  0.50400001928E-02 0.  1.
        1   -1    0    0  501    0  0.00000000000E+00  0.00000000000E+00 -0.87900527908E+03  0.87900527910E+03  0.50400001928E-02 0. -1.
    10030    2    1    2    0    0  0.00000000000E+00  0.00000000000E+00 -0.53491437509E+03  0.12230961831E+04  0.10999231266E+04 0.  0.
        1    1    3    3  502    0 -0.14985118624E+03  0.26616734386E+03  0.24109412384E+03  0.38913597820E+03  0.50400001928E-02 0.  1.
       -1    1    3    3    0  502  0.14985118624E+03 -0.26616734386E+03 -0.77600849893E+03  0.83396020492E+03  0.50400001928E-02 0. -1.
</event>
<event>
 5   0  0.9346836E-05  0.1100339E+04  0.7818609E-02  0.9204862E-01
       -1   -1    0    0    0  501  0.00000000000E+00  0.00000000000E+00  0.49916847502E+03  0.49916847504E+03  0.50400001928E-02 0.  1.
        1   -1    0    0  501    0  0.00000000000E+00  0.00000000000E+00 -0.60638097133E+03  0.60638097135E+03  0.50400001928E-02 0. -1.
    10030    2    1    2    0    0  0.00000000000E+00  0.00000000000E+00 -0.10721249631E+03  0.11055494464E+04  0.11003386111E+04 0.  0.
        5    1    3    3  502    0  0.18057790799E+02 -0.34002552190E+03 -0.48776453346E+03  0.59487794500E+03  0.46999998093E+01 0. -1.
       -5    1    3    3    0  502 -0.18057790799E+02  0.34002552190E+03  0.38055203715E+03  0.51067150139E+03  0.46999998093E+01 0.  1.
</event>
<event>
 5   0  0.9016738E-05  0.1100858E+04  0.7818609E-02  0.9204356E-01
       -1   -1    0    0    0  501  0.00000000000E+00  0.00000000000E+00  0.69688922278E+03  0.69688922280E+03  0.50400001928E-02 0. -1.
        1   -1    0    0  501    0  0.00000000000E+00  0.00000000000E+00 -0.43474929198E+03  0.43474929201E+03  0.50400001928E-02 0.  1.
    10030    2    1    2    0    0  0.00000000000E+00  0.00000000000E+00  0.26213993080E+03  0.11316385148E+04  0.11008580221E+04 0.  0.
        4    1    3    3  502    0  0.27561306786E+03  0.16404242972E+03 -0.32876054501E+03  0.45930119832E+03  0.12699999809E+01 0.  1.
       -4    1    3    3    0  502 -0.27561306786E+03 -0.16404242972E+03  0.59090047581E+03  0.67233731648E+03  0.12699999809E+01 0. -1.
</event>
<event>
 5   0  0.1574101E-04  0.1100283E+04  0.7818609E-02  0.9204916E-01
        2   -1    0    0  501    0  0.00000000000E+00  0.00000000000E+00  0.11571008355E+04  0.11571008355E+04  0.25500000920E-02 0.  1.
       -2   -1    0    0    0  501  0.00000000000E+00  0.00000000000E+00 -0.26156360393E+03  0.26156360395E+03  0.25500000920E-02 0. -1.
    10030    2    1    2    0    0  0.00000000000E+00  0.00000000000E+00  0.89553723158E+03  0.14186644395E+04  0.11002826267E+04 0.  0.
        4    1    3    3  502    0 -0.32936749712E+03  0.33818390206E+03  0.83531819778E+02  0.47940638042E+03  0.12699999809E+01 0. -1.
       -4    1    3    3    0  502  0.32936749712E+03 -0.33818390206E+03  0.81200541180E+03  0.93925805903E+03  0.12699999809E+01 0.  1.
</event>
<event>
 5   0  0.6010125E-05  0.1100077E+04  0.7818609E-02  0.9205117E-01
        3   -1    0    0  501    0  0.00000000000E+00  0.00000000000E+00  0.74870542589E+03  0.74870543270E+03  0.10100000352E+00 0.  1.
       -3   -1    0    0    0  501  0.00000000000E+00  0.00000000000E+00 -0.40408742375E+03  0.40408743637E+03  0.10100000352E+00 0. -1.
    10030    2    1    2    0    0  0.00000000000E+00  0.00000000000E+00  0.34461800215E+03  0.11527928691E+04  0.11000771935E+04 0.  0.
        4    1    3    3  502    0  0.27741727403E+03 -0.15581246165E+03 -0.29785916415E+03  0.43584350598E+03  0.12699999809E+01 0. -1.
       -4    1    3    3    0  502 -0.27741727403E+03  0.15581246165E+03  0.64247716629E+03  0.71694936310E+03  0.12699999809E+01 0.  1.
</event>
<event>
 5   0  0.1574101E-04  0.1099647E+04  0.7818609E-02  0.9205536E-01
        2   -1    0    0  501    0  0.00000000000E+00  0.00000000000E+00  0.36835283800E+03  0.36835283801E+03  0.25500000920E-02 0.  1.
       -2   -1    0    0    0  501  0.00000000000E+00  0.00000000000E+00 -0.82069668227E+03  0.82069668227E+03  0.25500000920E-02 0. -1.
    10030    2    1    2    0    0  0.00000000000E+00  0.00000000000E+00 -0.45234384427E+03  0.11890495203E+04  0.10996471290E+04 0.  0.
        4    1    3    3  502    0 -0.29243698485E+03  0.15465724912E+03  0.24869785395E+03  0.41387255317E+03  0.12699999809E+01 0.  1.
       -4    1    3    3    0  502  0.29243698485E+03 -0.15465724912E+03 -0.70104169821E+03  0.77517696711E+03  0.12699999809E+01 0. -1.
</event>
<event>
 5   0  0.8657442E-05  0.1098654E+04  0.7818609E-02  0.9206505E-01
       -1   -1    0    0    0  501  0.00000000000E+00  0.00000000000E+00  0.33638102120E+03  0.33638102123E+03  0.50400001928E-02 0. -1.
        1   -1    0    0  501    0  0.00000000000E+00  0.00000000000E+00 -0.89707815093E+03  0.89707815095E+03  0.50400001928E-02 0.  1.
    10030    2    1    2    0    0  0.00000000000E+00  0.00000000000E+00 -0.56069712974E+03  0.12334591722E+04  0.10986538391E+04 0.  0.
        1    1    3    3  502    0 -0.46392598674E+03  0.28551987506E+03 -0.35982389764E+03  0.65285691967E+03  0.50400001928E-02 0.  1.
       -1    1    3    3    0  502  0.46392598674E+03 -0.28551987506E+03 -0.20087323210E+03  0.58060225251E+03  0.50400001928E-02 0. -1.
</event>
<event>
 5   0  0.9016738E-05  0.1099906E+04  0.7818609E-02  0.9205284E-01
        1   -1    0    0  501    0  0.00000000000E+00  0.00000000000E+00  0.27457011191E+03  0.27457011196E+03  0.50400001928E-02 0. -1.
       -1   -1    0    0    0  501  0.00000000000E+00  0.00000000000E+00 -0.11015336491E+04  0.11015336491E+04  0.50400001928E-02 0.  1.
    10030    2    1    2    0    0  0.00000000000E+00  0.00000000000E+00 -0.82696353719E+03  0.13761037611E+04  0.10999058457E+04 0.  0.
        4    1    3    3  502    0 -0.24703448061E+03 -0.41841198733E+03 -0.73575379576E+03  0.88171984589E+03  0.12699999809E+01 0.  1.
       -4    1    3    3    0  502  0.24703448061E+03  0.41841198733E+03 -0.91209741427E+02  0.49438391518E+03  0.12699999809E+01 0. -1.
</event>
<event>
 5   0  0.1574101E-04  0.1099854E+04  0.7818609E-02  0.9205335E-01
       -2   -1    0    0    0  501  0.00000000000E+00  0.00000000000E+00  0.25803000480E+03  0.25803000481E+03  0.25500000920E-02 0.  1.
        2   -1    0    0  501    0  0.00000000000E+00  0.00000000000E+00 -0.11720320949E+04  0.11720320949E+04  0.25500000920E-02 0. -1.
    10030    2    1    2    0    0  0.00000000000E+00  0.00000000000E+00 -0.91400209011E+03  0.14300620997E+04  0.10998535304E+04 0.  0.
        4    1    3    3  502    0  0.16124655570E+03 -0.31675217288E+03 -0.10026103539E+04  0.10637488075E+04  0.12699999809E+01 0. -1.
       -4    1    3    3    0  502 -0.16124655570E+03  0.31675217288E+03  0.88608263809E+02  0.36631329223E+03  0.12699999809E+01 0.  1.
</event>
<event>
 5   0  0.1574101E-04  0.1100707E+04  0.7818609E-02  0.9204503E-01
       -2   -1    0    0    0  501  0.00000000000E+00  0.00000000000E+00  0.78207294689E+03  0.78207294690E+03  0.25500000920E-02 0. -1.
        2   -1    0    0  501    0  0.00000000000E+00  0.00000000000E+00 -0.38729009424E+03  0.38729009425E+03  0.25500000920E-02 0.  1.
    10030    2    1    2    0    0  0.00000000000E+00  0.00000000000E+00  0.39478285265E+03  0.11693630411E+04  0.11007072368E+04 0.  0.
        4    1    3    3  502    0  0.46740209750E+03  0.12594808281E+02  0.50578047290E+03  0.68879521602E+03  0.12699999809E+01 0. -1.
       -4    1    3    3    0  502 -0.46740209750E+03 -0.12594808281E+02 -0.11099762025E+03  0.48056782513E+03  0.12699999809E+01 0.  1.
</event>
<event>
 5   0  0.1503277E-04  0.1099578E+04  0.7818609E-02  0.9205603E-01
        2   -1    0    0  501    0  0.00000000000E+00  0.00000000000E+00  0.12854635819E+04  0.12854635819E+04  0.25500000920E-02 0.  1.
       -2   -1    0    0    0  501  0.00000000000E+00  0.00000000000E+00 -0.23514314873E+03  0.23514314874E+03  0.25500000920E-02 0. -1.
    10030    2    1    2    0    0  0.00000000000E+00  0.00000000000E+00  0.10503204332E+04  0.15206067306E+04  0.10995780177E+04 0.  0.
        5    1    3    3  502    0  0.49777756916E+03  0.15133728938E+03  0.77083578881E+03  0.92999751979E+03  0.46999998093E+01 0.  1.
       -5    1    3    3    0  502 -0.49777756916E+03 -0.15133728938E+03  0.27948464436E+03  0.59060921085E+03  0.46999998093E+01 0. -1.
</event>
<event>
 5   0  0.1553937E-04  0.1098998E+04  0.7818609E-02  0.9206169E-01
       -2   -1    0    0    0  501  0.00000000000E+00  0.00000000000E+00  0.86812833322E+03  0.86812833323E+03  0.25500000920E-02 0. -1.
        2   -1    0    0  501    0  0.00000000000E+00  0.00000000000E+00 -0.34781638354E+03  0.34781638355E+03  0.25500000920E-02 0.  1.
    10030    2    1    2    0    0  0.00000000000E+00  0.00000000000E+00  0.52031194969E+03  0.12159447168E+04  0.10989981935E+04 0.  0.
        1    1    3    3  502    0  0.26371521870E-01 -0.54935243105E+03  0.27420187720E+03  0.61398270634E+03  0.50400001928E-02 0.  1.
       -1    1    3    3    0  502 -0.26371521870E-01  0.54935243105E+03  0.24611007249E+03  0.60196201043E+03  0.50400001928E-02 0. -1.
</event>
<event>
 5   0  0.9346836E-05  0.1100138E+04  0.7818609E-02  0.9205057E-01
        1   -1    0    0  501    0  0.00000000000E+00  0.00000000000E+00  0.12505612937E+04  0.12505612937E+04  0.50400001928E-02 0.  1.
       -1   -1    0    0    0  501  0.00000000000E+00  0.00000000000E+00 -0.24195224479E+03  0.24195224484E+03  0.50400001928E-02 0. -1.
    10030    2    1    2    0    0  0.00000000000E+00  0.00000000000E+00  0.10086090489E+04  0.14925135385E+04  0.11001383773E+04 0.  0.
        5    1    3    3  502    0 -0.31530348483E+03  0.34533111047E+03  0.89723068220E+03  0.10117879474E+04  0.46999998093E+01 0.  1.
       -5    1    3    3    0  502  0.31530348483E+03 -0.34533111047E+03  0.11137836669E+03  0.48072559113E+03  0.46999998093E+01 0. -1.
</event>
<event>
 5   0  0.1503277E-04  0.1099425E+04  0.7818609E-02  0.9205752E-01
       -2   -1    0    0    0  501  0.00000000000E+00  0.00000000000E+00  0.19377004482E+03  0.19377004483E+03  0.25500000920E-02 0.  1.
        2   -1    0    0  501    0  0.00000000000E+00  0.00000000000E+00 -0.15594977682E+04  0.15594977682E+04  0.25500000920E-02 0. -1.
    10030    2    1    2    0    0  0.00000000000E+00  0.00000000000E+00 -0.13657277233E+04  0.17532678130E+04  0.10994252179E+04 0.  0.
        5    1    3    3  502    0  0.49186629434E+03  0.24428077737E+03 -0.72047721639E+03  0.90593325308E+03  0.46999998093E+01 0. -1.
       -5    1    3    3    0  502 -0.49186629434E+03 -0.24428077737E+03 -0.64525050696E+03  0.84733455992E+03  0.46999998093E+01 0.  1.
</event>
<event>
 5   0  0.6010125E-05  0.1098117E+04  0.7818609E-02  0.9207029E-01
        4   -1    0    0  501    0  0.00000000000E+00  0.00000000000E+00  0.57280670693E+03  0.57280811482E+03  0.12699999809E+01 0. -1.
       -4   -1    0    0    0  501  0.00000000000E+00  0.00000000000E+00 -0.52629215589E+03  0.52629368821E+03  0.12699999809E+01 0.  1.
    10030    2    1    2    0    0  0.00000000000E+00  0.00000000000E+00  0.46514551042E+02  0.10991018030E+04  0.10981171021E+04 0.  0.
        1    1    3    3  502    0 -0.32191911422E+03  0.44167263075E+03  0.75827355569E+02  0.55177569422E+03  0.50400001928E-02 0.  1.
       -1    1    3    3    0  502  0.32191911422E+03 -0.44167263075E+03 -0.29312804527E+02  0.54732610882E+03  0.50400001928E-02 0. -1.
</event>
<event>
 5   0  0.1503277E-04  0.1100222E+04  0.7818609E-02  0.9204975E-01
        2   -1    0    0  501    0  0.00000000000E+00  0.00000000000E+00  0.25236797063E+04  0.25236797063E+04  0.25500000920E-02 0. -1.
       -2   -1    0    0    0  501  0.00000000000E+00  0.00000000000E+00 -0.11991311902E+03  0.11991311904E+03  0.25500000920E-02 0.  1.
    10030    2    1    2    0    0  0.00000000000E+00  0.00000000000E+00  0.24037665872E+04  0.26435928253E+04  0.11002223503E+04 0.  0.
        5    1    3    3  502    0 -0.53381487042E+03  0.13165084869E+03  0.12441854153E+04  0.13602608939E+04  0.46999998093E+01 0. -1.
       -5    1    3    3    0  502  0.53381487042E+03 -0.13165084869E+03  0.11595811719E+04  0.12833319314E+04  0.46999998093E+01 0.  1.
</event>
<event>
 5   0  0.8657442E-05  0.1100158E+04  0.7818609E-02  0.9205038E-01
       -1   -1    0    0    0  501  0.00000000000E+00  0.00000000000E+00  0.97434499151E+03  0.97434499152E+03  0.50400001928E-02 0.  1.
        1   -1    0    0  501    0  0.00000000000E+00  0.00000000000E+00 -0.31055398226E+03  0.31055398230E+03  0.50400001928E-02 0. -1.
    10030    2    1    2    0    0  0.00000000000E+00  0.00000000000E+00  0.66379100925E+03  0.12848989738E+04  0.11001576564E+04 0.  0.
        1    1    3    3  502    0 -0.33644050923E+03 -0.23965917325E+03 -0.92364301191E+02  0.42327284313E+03  0.50400001928E-02 0. -1.
       -1    1    3    3    0  502  0.33644050923E+03  0.23965917325E+03  0.75615531044E+03  0.86162613070E+03  0.50400001928E-02 0.  1.
</event>
<event>
 5   0  0.8621738E-05  0.1099954E+04  0.7818609E-02  0.9205237E-01
       -1   -1    0    0    0  501  0.00000000000E+00  0.00000000000E+00  0.31291907370E+03  0.31291907374E+03  0.50400001928E-02 0. -1.
        1   -1    0    0  501    0  0.00000000000E+00  0.00000000000E+00 -0.96662260032E+03  0.96662260033E+03  0.50400001928E-02 0.  1.
    10030    2    1    2    0    0  0.00000000000E+00  0.00000000000E+00 -0.65370352662E+03  0.12795416741E+04  0.10999539058E+04 0.  0.
        2    1    3    3  502    0  0.25211562475E+03 -0.43774065749E+03 -0.57983384114E+03  0.76901655041E+03  0.25500000920E-02 0.  1.
       -2    1    3    3    0  502 -0.25211562475E+03  0.43774065749E+03 -0.73869685480E+02  0.51052512367E+03  0.25500000920E-02 0. -1.
</event>
<event>
 5   0  0.8921459E-05  0.1100876E+04  0.7818609E-02  0.9204339E-01
       -1   -1    0    0    0  501  0.00000000000E+00  0.00000000000E+00  0.45749913546E+03  0.45749913548E+03  0.50400001928E-02 0.  1.
        1   -1    0    0  501    0  0.00000000000E+00  0.00000000000E+00 -0.66225657165E+03  0.66225657167E+03  0.50400001928E-02 0. -1.
    10030    2    1    2    0    0  0.00000000000E+00  0.00000000000E+00 -0.20475743620E+03  0.11197557072E+04  0.11008756678E+04 0.  0.
        3    1    3    3  502    0 -0.32013410566E+03  0.43148241939E+03 -0.22409241678E+03  0.58213430178E+03  0.10100000352E+00 0. -1.
       -3    1    3    3    0  502  0.32013410566E+03 -0.43148241939E+03  0.19334980587E+02  0.53762140538E+03  0.10100000352E+00 0.  1.
</event>
<event>
 5   0  0.8921459E-05  0.1100066E+04  0.7818609E-02  0.9205128E-01
        1   -1    0    0  501    0  0.00000000000E+00  0.00000000000E+00  0.83017904322E+03  0.83017904324E+03  0.50400001928E-02 0.  1.
       -1   -1    0    0    0  501  0.00000000000E+00  0.00000000000E+00 -0.36442287148E+03  0.36442287151E+03  0.50400001928E-02 0. -1.
    10030    2    1    2    0    0  0.00000000000E+00  0.00000000000E+00  0.46575617174E+03  0.11946019148E+04  0.11000658722E+04 0.  0.
        3    1    3    3  502    0  0.35453571445E+03 -0.39972569591E+03  0.37471661844E+03  0.65260153167E+03  0.10100000352E+00 0.  1.
       -3    1    3    3    0  502 -0.35453571445E+03  0.39972569591E+03  0.91039553308E+02  0.54200038309E+03  0.10100000352E+00 0. -1.
</event>
<event>
 5   0  0.1540772E-04  0.1099828E+04  0.7818609E-02  0.9205360E-01
        2   -1    0    0  501    0  0.00000000000E+00  0.00000000000E+00  0.72172507327E+03  0.72172507327E+03  0.25500000920E-02 0.  1.
       -2   -1    0    0    0  501  0.00000000000E+00  0.00000000000E+00 -0.41900331961E+03  0.41900331962E+03  0.25500000920E-02 0. -1.
    10030    2    1    2    0    0  0.00000000000E+00  0.00000000000E+00  0.30272175366E+03  0.11407283929E+04  0.10998276257E+04 0.  0.
        2    1    3    3  502    0 -0.17821776804E+03  0.13221527484E+03 -0.37050335213E+03  0.43187403916E+03  0.25500000920E-02 0. -1.
       -2    1    3    3    0  502  0.17821776804E+03 -0.13221527484E+03  0.67322510579E+03  0.70885435374E+03  0.25500000920E-02 0.  1.
</event>
<event>
 5   0  0.8921459E-05  0.1100200E+04  0.7818609E-02  0.9204997E-01
       -1   -1    0    0    0  501  0.00000000000E+00  0.00000000000E+00  0.40838541735E+03  0.40838541738E+03  0.50400001928E-02 0.  1.
        1   -1    0    0  501    0  0.00000000000E+00  0.00000000000E+00 -0.74099146242E+03  0.74099146244E+03  0.50400001928E-02 0. -1.
    10030    2    1    2    0    0  0.00000000000E+00  0.00000000000E+00 -0.33260604507E+03  0.11493768798E+04  0.11002001775E+04 0.  0.
        3    1    3    3  502    0  0.27547271843E+03 -0.41224795303E+03 -0.41523177938E+03  0.64672330573E+03  0.10100000352E+00 0. -1.
       -3    1    3    3    0  502 -0.27547271843E+03  0.41224795303E+03  0.82625734308E+02  0.50265357409E+03  0.10100000352E+00 0.  1.
</event>
<event>
 5   0  0.8621738E-05  0.1099632E+04  0.7818609E-02  0.9205551E-01
       -1   -1    0    0    0  501  0.00000000000E+00  0.00000000000E+00  0.42450598656E+03  0.42450598659E+03  0.50400001928E-02 0.  1.
        1   -1    0    0  501    0  0.00000000000E+00  0.00000000000E+00 -0.71211619269E+03  0.71211619271E+03  0.50400001928E-02 0. -1.
    10030    2    1    2    0    0  0.00000000000E+00  0.00000000000E+00 -0.28761020613E+03  0.11366221793E+04  0.10996319147E+04 0.  0.
        2    1    3    3  502    0 -0.14225930119E+03  0.29841337160E+02 -0.69189626171E+03  0.70699975329E+03  0.25500000920E-02 0. -1.
       -2    1    3    3    0  502  0.14225930119E+03 -0.29841337160E+02  0.40428605558E+03  0.42962242600E+03  0.25500000920E-02 0.  1.
</event>
<event>
 5   0  0.8657442E-05  0.1099838E+04  0.7818609E-02  0.9205350E-01
       -1   -1    0    0    0  501  0.00000000000E+00  0.00000000000E+00  0.16662091410E+03  0.16662091418E+03  0.50400001928E-02 0.  1.
        1   -1    0    0  501    0  0.00000000000E+00  0.00000000000E+00 -0.18149640533E+04  0.18149640533E+04  0.50400001928E-02 0. -1.
    10030    2    1    2    0    0  0.00000000000E+00  0.00000000000E+00 -0.16483431392E+04  0.19815849675E+04  0.10998381148E+04 0.  0.
        1    1    3    3  502    0  0.48568596558E+03  0.10663586081E+03 -0.40106245340E+03  0.63883734669E+03  0.50400001928E-02 0.  1.
       -1    1    3    3    0  502 -0.48568596558E+03 -0.10663586081E+03 -0.12472806858E+04  0.13427476208E+04  0.50400001928E-02 0. -1.
</event>
<event>
 5   0  0.1553937E-04  0.1099804E+04  0.7818609E-02  0.9205383E-01
        2   -1    0    0  501    0  0.00000000000E+00  0.00000000000E+00  0.21857039339E+03  0.21857039340E+03  0.25500000920E-02 0. -1.
       -2   -1    0    0    0  501  0.00000000000E+00  0.00000000000E+00 -0.13835002059E+04  0.13835002059E+04  0.25500000920E-02 0.  1.
    10030    2    1    2    0    0  0.00000000000E+00  0.00000000000E+00 -0.11649298125E+04  0.16020705993E+04  0.10998039539E+04 0.  0.
        1    1    3    3  502    0 -0.11115366496E+02 -0.16823651847E+03 -0.13449195260E+04  0.13554466456E+04  0.50400001928E-02 0.  1.
       -1    1    3    3    0  502  0.11115366496E+02  0.16823651847E+03  0.17998971356E+03  0.24662395368E+03  0.50400001928E-02 0. -1.
</event>
<event>
 5   0  0.1540772E-04  0.1099964E+04  0.7818609E-02  0.9205227E-01
       -2   -1    0    0    0  501  0.00000000000E+00  0.00000000000E+00  0.17793536179E+04  0.17793536179E+04  0.25500000920E-02 0.  1.
        2   -1    0    0  501    0  0.00000000000E+00  0.00000000000E+00 -0.16999427950E+03  0.16999427952E+03  0.25500000920E-02 0. -1.
    10030    2    1    2    0    0  0.00000000000E+00  0.00000000000E+00  0.16093593384E+04  0.19493478974E+04  0.10999635199E+04 0.  0.
        2    1    3    3  502    0  0.12290478728E+03 -0.10086447001E+03 -0.12837746882E+03  0.20435264264E+03  0.25500000920E-02 0. -1.
       -2    1    3    3    0  502 -0.12290478728E+03  0.10086447001E+03  0.17377368072E+04  0.17449952548E+04  0.25500000920E-02 0.  1.
</event>
<event>
 5   0  0.8921459E-05  0.1100104E+04  0.7818609E-02  0.9205091E-01
       -1   -1    0    0    0  501  0.00000000000E+00  0.00000000000E+00  0.66931249316E+03  0.66931249318E+03  0.50400001928E-02 0. -1.
        1   -1    0    0  501    0  0.00000000000E+00  0.00000000000E+00 -0.45204160491E+03  0.45204160494E+03  0.50400001928E-02 0.  1.
    10030    2    1    2    0    0  0.00000000000E+00  0.00000000000E+00  0.21727088825E+03  0.11213540981E+04  0.11001038017E+04 0.  0.
        3    1    3    3  502    0  0.17149263523E+03 -0.50548072820E+03  0.24400358182E+03  0.58690565568E+03  0.10100000352E+00 0.  1.
       -3    1    3    3    0  502 -0.17149263523E+03  0.50548072820E+03 -0.26732693573E+02  0.53444844244E+03  0.10100000352E+00 0. -1.
</event>
<event>
 5   0  0.1553937E-04  0.1099689E+04  0.7818609E-02  0.9205495E-01
        2   -1    0    0  501    0  0.00000000000E+00  0.00000000000E+00  0.44703470409E+03  0.44703470409E+03  0.25500000920E-02 0. -1.
       -2   -1    0    0    0  501  0.00000000000E+00  0.00000000000E+00 -0.67629856564E+03  0.67629856565E+03  0.25500000920E-02 0.  1.
    10030    2    1    2    0    0  0.00000000000E+00  0.00000000000E+00 -0.22926386156E+03  0.11233332697E+04  0.10996889181E+04 0.  0.
        1    1    3    3  502    0  0.33879607030E+03  0.36185467909E+03  0.12840661548E+03  0.51206429768E+03  0.50400001928E-02 0. -1.
       -1    1    3    3    0  502 -0.33879607030E+03 -0.36185467909E+03 -0.35767047704E+03  0.61126897206E+03  0.50400001928E-02 0.  1.
</event>
<event>
 5   0  0.8657442E-05  0.1100127E+04  0.7818609E-02  0.9205068E-01
       -1   -1    0    0    0  501  0.00000000000E+00  0.00000000000E+00  0.36809069444E+03  0.36809069448E+03  0.50400001928E-02 0.  1.
        1   -1    0    0  501    0  0.00000000000E+00  0.00000000000E+00 -0.82199751815E+03  0.82199751817E+03  0.50400001928E-02 0. -1.
    10030    2    1    2    0    0  0.00000000000E+00  0.00000000000E+00 -0.45390682371E+03  0.11900882126E+04  0.11001266060E+04 0.  0.
        1    1    3    3  502    0  0.76179635023E+02 -0.51730787051E+03 -0.42230054748E+02  0.52458950355E+03  0.50400001928E-02 0.  1.
       -1    1    3    3    0  502 -0.76179635023E+02  0.51730787051E+03 -0.41167676896E+03  0.66549870910E+03  0.50400001928E-02 0. -1.
</event>
<event>
 5   0  0.8921459E-05  0.1100294E+04  0.7818609E-02  0.9204905E-01
       -1   -1    0    0    0  501  0.00000000000E+00  0.00000000000E+00  0.14041831046E+03  0.14041831055E+03  0.50400001928E-02 0.  1.
        1   -1    0    0  501    0  0.00000000000E+00  0.00000000000E+00 -0.21554310321E+04  0.21554310321E+04  0.50400001928E-02 0. -1.
    10030    2    1    2    0    0  0.00000000000E+00  0.00000000000E+00 -0.20150127216E+04  0.22958493427E+04  0.11002944769E+04 0.  0.
        3    1    3    3  502    0  0.89014531118E+02 -0.45716311736E+03 -0.16184861986E+04  0.16841672387E+04  0.10100000352E+00 0. -1.
       -3    1    3    3    0  502 -0.89014531118E+02  0.45716311736E+03 -0.39652652301E+03  0.61168210394E+03  0.10100000352E+00 0.  1.
</event>
<event>
 5   0  0.1574101E-04  0.1099910E+04  0.7818609E-02  0.9205279E-01
       -2   -1    0    0    0  501  0.00000000000E+00  0.00000000000E+00  0.20306311176E+03  0.20306311177E+03  0.25500000920E-02 0. -1.
        2   -1    0    0  501    0  0.00000000000E+00  0.00000000000E+00 -0.14894416216E+04  0.14894416216E+04  0.25500000920E-02 0.  1.
    10030    2    1    2    0    0  0.00000000000E+00  0.00000000000E+00 -0.12863785098E+04  0.16925047333E+04  0.10999102699E+04 0.  0.
        4    1    3    3  502    0 -0.21254567234E+03  0.88927637976E+02  0.12521648647E+03  0.26222999258E+03  0.12699999809E+01 0. -1.
       -4    1    3    3    0  502  0.21254567234E+03 -0.88927637976E+02 -0.14115949963E+04  0.14302747408E+04  0.12699999809E+01 0.  1.
</event>
<event>
 5   0  0.1503277E-04  0.1099991E+04  0.7818609E-02  0.9205201E-01
       -2   -1    0    0    0  501  0.00000000000E+00  0.00000000000E+00  0.24445932849E+03  0.24445932850E+03  0.25500000920E-02 0. -1.
        2   -1    0    0  501    0  0.00000000000E+00  0.00000000000E+00 -0.12374045130E+04  0.12374045130E+04  0.25500000920E-02 0.  1.
    10030    2    1    2    0    0  0.00000000000E+00  0.00000000000E+00 -0.99294518455E+03  0.14818638415E+04  0.10999910479E+04 0.  0.
        5    1    3    3  502    0  0.14100539876E+03 -0.86996883572E+02  0.21001229027E+03  0.26754108525E+03  0.46999998093E+01 0. -1.
       -5    1    3    3    0  502 -0.14100539876E+03  0.86996883572E+02 -0.12029574748E+04  0.12143227563E+04  0.46999998093E+01 0.  1.
</event>
<event>
 5   0  0.6010125E-05  0.1100438E+04  0.7818609E-02  0.9204765E-01
       -3   -1    0    0    0  501  0.00000000000E+00  0.00000000000E+00  0.49440369653E+03  0.49440370684E+03  0.10100000352E+00 0. -1.
        3   -1    0    0  501    0  0.00000000000E+00  0.00000000000E+00 -0.61233592006E+03  0.61233592839E+03  0.10100000352E+00 0.  1.
    10030    2    1    2    0    0  0.00000000000E+00  0.00000000000E+00 -0.11793222354E+03  0.11067396352E+04  0.11004383721E+04 0.  0.
        2    1    3    3  502    0  0.89467458790E+02 -0.54131459704E+03 -0.10061864021E+03  0.55780823758E+03  0.25500000920E-02 0.  1.
       -2    1    3    3    0  502 -0.89467458790E+02  0.54131459704E+03 -0.17313583324E+02  0.54893139765E+03  0.25500000920E-02 0. -1.
</event>
<event>
 5   0  0.1553937E-04  0.1100056E+04  0.7818609E-02  0.9205137E-01
        2   -1    0    0  501    0  0.00000000000E+00  0.00000000000E+00  0.54911580998E+03  0.54911580999E+03  0.25500000920E-02 0. -1.
       -2   -1    0    0    0  501  0.00000000000E+00  0.00000000000E+00 -0.55094183150E+03  0.55094183151E+03  0.25500000920E-02 0.  1.
    10030    2    1    2    0    0  0.00000000000E+00  0.00000000000E+00 -0.18260215184E+01  0.11000576415E+04  0.11000561260E+04 0.  0.
        1    1    3    3  502    0 -0.29779399962E+03  0.41401768347E+03  0.20509446129E+03  0.54968686223E+03  0.50400001928E-02 0. -1.
       -1    1    3    3    0  502  0.29779399962E+03 -0.41401768347E+03 -0.20692048281E+03  0.55037077926E+03  0.50400001928E-02 0.  1.
</event>
<event>
 5   0  0.1503277E-04  0.1099411E+04  0.7818609E-02  0.9205766E-01
       -2   -1    0    0    0  501  0.00000000000E+00  0.00000000000E+00  0.11770310493E+04  0.11770310493E+04  0.25500000920E-02 0.  1.
        2   -1    0    0  501    0  0.00000000000E+00  0.00000000000E+00 -0.25672741655E+03  0.25672741656E+03  0.25500000920E-02 0. -1.
    10030    2    1    2    0    0  0.00000000000E+00  0.00000000000E+00  0.92030363274E+03  0.14337584659E+04  0.10994110069E+04 0.  0.
        5    1    3    3  502    0  0.40118748278E+03 -0.36266158859E+03  0.58845464672E+03  0.79923449965E+03  0.46999998093E+01 0.  1.
       -5    1    3    3    0  502 -0.40118748278E+03  0.36266158859E+03  0.33184898602E+03  0.63452396621E+03  0.46999998093E+01 0. -1.
</event>
<event>
 5   0  0.1574101E-04  0.1099582E+04  0.7818609E-02  0.9205600E-01
        2   -1    0    0  501    0  0.00000000000E+00  0.00000000000E+00  0.98660770301E+03  0.98660770302E+03  0.25500000920E-02 0.  1.
       -2   -1    0    0    0  501  0.00000000000E+00  0.00000000000E+00 -0.30637305876E+03  0.30637305877E+03  0.25500000920E-02 0. -1.
    10030    2    1    2    0    0  0.00000000000E+00  0.00000000000E+00  0.68023464425E+03  0.12929807618E+04  0.10995817746E+04 0.  0.
        4    1    3    3  502    0 -0.43916072676E+03 -0.33055682178E+03  0.32628128100E+03  0.63921126678E+03  0.12699999809E+01 0. -1.
       -4    1    3    3    0  502  0.43916072676E+03  0.33055682178E+03  0.35395336325E+03  0.65376949501E+03  0.12699999809E+01 0.  1.
</event>
<event>
 5   0  0.8921459E-05  0.1100669E+04  0.7818609E-02  0.9204540E-01
        1   -1    0    0  501    0  0.00000000000E+00  0.00000000000E+00  0.13499204661E+04  0.13499204661E+04  0.50400001928E-02 0.  1.
       -1   -1    0    0    0  501  0.00000000000E+00  0.00000000000E+00 -0.22436011534E+03  0.22436011540E+03  0.50400001928E-02 0. -1.
    10030    2    1    2    0    0  0.00000000000E+00  0.00000000000E+00  0.11255603507E+04  0.15742805815E+04  0.11006694536E+04 0.  0.
        3    1    3    3  502    0 -0.15396647139E+03  0.46542028221E+03  0.92048684348E+03  0.10428891373E+04  0.10100000352E+00 0.  1.
       -3    1    3    3    0  502  0.15396647139E+03 -0.46542028221E+03  0.20507350725E+03  0.53139144422E+03  0.10100000352E+00 0. -1.
</event>
<event>
 5   0  0.8921459E-05  0.1100004E+04  0.7818609E-02  0.9205188E-01
       -1   -1    0    0    0  501  0.00000000000E+00  0.00000000000E+00  0.50633025464E+03  0.50633025466E+03  0.50400001928E-02 0. -1.
        1   -1    0    0  501    0  0.00000000000E+00  0.00000000000E+00 -0.59744077943E+03  0.59744077945E+03  0.50400001928E-02 0.  1.
    10030    2    1    2    0    0  0.00000000000E+00  0.00000000000E+00 -0.91110524794E+02  0.11037710341E+04  0.11000042582E+04 0.  0.
        3    1    3    3  502    0 -0.71536280369E+02 -0.17596942183E+03 -0.56348131489E+03  0.59463760331E+03  0.10100000352E+00 0. -1.
       -3    1    3    3    0  502  0.71536280369E+02  0.17596942183E+03  0.47237079010E+03  0.50913343081E+03  0.10100000352E+00 0.  1.
</event>
<event>
 5   0  0.1464205E-04  0.1099712E+04  0.7818609E-02  0.9205473E-01
        2   -1    0    0  501    0  0.00000000000E+00  0.00000000000E+00  0.10205021111E+04  0.10205021111E+04  0.25500000920E-02 0.  1.
       -2   -1    0    0    0  501  0.00000000000E+00  0.00000000000E+00 -0.29626739981E+03  0.29626739982E+03  0.25500000920E-02 0. -1.
    10030    2    1    2    0    0  0.00000000000E+00  0.00000000000E+00  0.72423471129E+03  0.13167695109E+04  0.10997117931E+04 0.  0.
        3    1    3    3  502    0  0.46683893777E+02  0.25772326542E+03  0.94101018496E+03  0.97678085867E+03  0.10100000352E+00 0.  1.
       -3    1    3    3    0  502 -0.46683893777E+02 -0.25772326542E+03 -0.21677547367E+03  0.33998865225E+03  0.10100000352E+00 0. -1.
</event>
<event>
 5   0  0.1574101E-04  0.1099787E+04  0.7818609E-02  0.9205399E-01
        2   -1    0    0  501    0  0.00000000000E+00  0.00000000000E+00  0.33838489161E+03  0.33838489162E+03  0.25500000920E-02 0.  1.
       -2   -1    0    0    0  501  0.00000000000E+00  0.00000000000E+00 -0.89360668002E+03  0.89360668002E+03  0.25500000920E-02 0. -1.
    10030    2    1    2    0    0  0.00000000000E+00  0.00000000000E+00 -0.55522178841E+03  0.12319915716E+04  0.10997872514E+04 0.  0.
        4    1    3    3  502    0 -0.42544310063E+03  0.34407906212E+03 -0.21636553490E+03  0.58839433244E+03  0.12699999809E+01 0. -1.
       -4    1    3    3    0  502  0.42544310063E+03 -0.34407906212E+03 -0.33885625351E+03  0.64359723920E+03  0.12699999809E+01 0.  1.
</event>
<event>
 5   0  0.8621738E-05  0.1100450E+04  0.7818609E-02  0.9204754E-01
       -1   -1    0    0    0  501  0.00000000000E+00  0.00000000000E+00  0.36067858320E+03  0.36067858324E+03  0.50400001928E-02 0. -1.
        1   -1    0    0  501    0  0.00000000000E+00  0.00000000000E+00 -0.83938296477E+03  0.83938296478E+03  0.50400001928E-02 0.  1.
    10030    2    1    2    0    0  0.00000000000E+00  0.00000000000E+00 -0.47870438157E+03  0.12000615480E+04  0.11004498326E+04 0.  0.
        2    1    3    3  502    0  0.18811261260E+02 -0.20090903497E+03 -0.79757564480E+03  0.82270603077E+03  0.25500000920E-02 0.  1.
       -2    1    3    3    0  502 -0.18811261260E+02  0.20090903497E+03  0.31887126323E+03  0.37735551725E+03  0.25500000920E-02 0. -1.
</event>
<event>
 5   0  0.8657442E-05  0.1100257E+04  0.7818609E-02  0.9204941E-01
       -1   -1    0    0    0  501  0.00000000000E+00  0.00000000000E+00  0.72793387073E+03  0.72793387075E+03  0.50400001928E-02 0.  1.
        1   -1    0    0  501    0  0.00000000000E+00  0.00000000000E+00 -0.41575398345E+03  0.41575398348E+03  0.50400001928E-02 0. -1.
    10030    2    1    2    0    0  0.00000000000E+00  0.00000000000E+00  0.31217988728E+03  0.11436878542E+04  0.11002570726E+04 0.  0.
        1    1    3    3  502    0  0.33418848575E+03 -0.36502819646E+03 -0.93630138693E+02  0.50368058441E+03  0.50400001928E-02 0. -1.
       -1    1    3    3    0  502 -0.33418848575E+03  0.36502819646E+03  0.40581002597E+03  0.64000726982E+03  0.50400001928E-02 0.  1.
</event>
<event>
 5   0  0.8621738E-05  0.1099902E+04  0.7818609E-02  0.9205287E-01
       -1   -1    0    0    0  501  0.00000000000E+00  0.00000000000E+00  0.69444935318E+03  0.69444935320E+03  0.50400001928E-02 0.  1.
        1   -1    0    0  501    0  0.00000000000E+00  0.00000000000E+00 -0.43551962370E+03  0.43551962373E+03  0.50400001928E-02 0. -1.
    10030    2    1    2    0    0  0.00000000000E+00  0.00000000000E+00  0.25892972948E+03  0.11299689769E+04  0.10999023975E+04 0.  0.
        2    1    3    3  502    0 -0.36353277760E+03  0.41107617285E+03  0.92329547042E+02  0.55647501789E+03  0.25500000920E-02 0. -1.
       -2    1    3    3    0  502  0.36353277760E+03 -0.41107617285E+03  0.16660018244E+03  0.57349395905E+03  0.25500000920E-02 0.  1.
</event>
<event>
 5   0  0.6010125E-05  0.1095978E+04  0.7818609E-02  0.9209121E-01
        3   -1    0    0  501    0  0.00000000000E+00  0.00000000000E+00  0.57719828857E+03  0.57719829741E+03  0.10100000352E+00 0.  1.
       -3   -1    0    0    0  501  0.00000000000E+00  0.00000000000E+00 -0.52025767787E+03  0.52025768768E+03  0.10100000352E+00 0. -1.
    10030    2    1    2    0    0  0.00000000000E+00  0.00000000000E+00  0.56940610697E+02  0.10974559851E+04  0.10959778310E+04 0.  0.
        4    1    3    3  502    0 -0.44920574081E+03  0.14647710315E+03 -0.24948089969E+03  0.53430672046E+03  0.12699999809E+01 0. -1.
       -4    1    3    3    0  502  0.44920574081E+03 -0.14647710315E+03  0.30642151039E+03  0.56314926463E+03  0.12699999809E+01 0.  1.
</event>
<event>
 5   0  0.1574101E-04  0.1100092E+04  0.7818609E-02  0.9205102E-01
       -2   -1    0    0    0  501  0.00000000000E+00  0.00000000000E+00  0.21363183936E+03  0.21363183938E+03  0.25500000920E-02 0.  1.
        2   -1    0    0  501    0  0.00000000000E+00  0.00000000000E+00 -0.14162255553E+04  0.14162255553E+04  0.25500000920E-02 0. -1.
    10030    2    1    2    0    0  0.00000000000E+00  0.00000000000E+00 -0.12025937159E+04  0.16298573947E+04  0.11000924877E+04 0.  0.
        4    1    3    3  502    0 -0.16047018167E+03  0.29103485989E+03 -0.12506501187E+04  0.12940553702E+04  0.12699999809E+01 0. -1.
       -4    1    3    3    0  502  0.16047018167E+03 -0.29103485989E+03  0.48056402785E+02  0.33580202445E+03  0.12699999809E+01 0.  1.
</event>
<event>
 5   0  0.1574101E-04  0.1099952E+04  0.7818609E-02  0.9205238E-01
       -2   -1    0    0    0  501  0.00000000000E+00  0.00000000000E+00  0.39981903068E+03  0.39981903068E+03  0.25500000920E-02 0. -1.
        2   -1    0    0  501    0  0.00000000000E+00  0.00000000000E+00 -0.75652662489E+03  0.75652662490E+03  0.25500000920E-02 0.  1.
    10030    2    1    2    0    0  0.00000000000E+00  0.00000000000E+00 -0.35670759422E+03  0.11563456556E+04  0.10999522569E+04 0.  0.
        4    1    3    3  502    0 -0.21948215617E+03  0.23395175112E+03  0.29127793108E+03  0.43330160946E+03  0.12699999809E+01 0. -1.
       -4    1    3    3    0  502  0.21948215617E+03 -0.23395175112E+03 -0.64798552530E+03  0.72304404612E+03  0.12699999809E+01 0.  1.
</event>
<event>
 5   0  0.1503277E-04  0.1096813E+04  0.7818609E-02  0.9208304E-01
       -2   -1    0    0    0  501  0.00000000000E+00  0.00000000000E+00  0.36940962716E+03  0.36940962717E+03  0.25500000920E-02 0. -1.
        2   -1    0    0  501    0  0.00000000000E+00  0.00000000000E+00 -0.81413547505E+03  0.81413547506E+03  0.25500000920E-02 0.  1.
    10030    2    1    2    0    0  0.00000000000E+00  0.00000000000E+00 -0.44472584789E+03  0.11835451022E+04  0.10968126227E+04 0.  0.
        5    1    3    3  502    0 -0.10908178935E+03  0.53048904316E+03 -0.31525088797E+03  0.62667589234E+03  0.46999998093E+01 0.  1.
       -5    1    3    3    0  502  0.10908178935E+03 -0.53048904316E+03 -0.12947495992E+03  0.55686920989E+03  0.46999998093E+01 0. -1.
</event>
<event>
 5   0  0.6010125E-05  0.1100032E+04  0.7818609E-02  0.9205160E-01
        3   -1    0    0  501    0  0.00000000000E+00  0.00000000000E+00  0.27507844255E+03  0.27507846109E+03  0.10100000352E+00 0.  1.
       -3   -1    0    0    0  501  0.00000000000E+00  0.00000000000E+00 -0.10997508465E+04  0.10997508511E+04  0.10100000352E+00 0. -1.
    10030    2    1    2    0    0  0.00000000000E+00  0.00000000000E+00 -0.82467240391E+03  0.13748293122E+04  0.11000323013E+04 0.  0.
        3    1    3    3  502    0  0.22012707434E+03 -0.23943222419E+03 -0.96668498296E+03  0.10199331279E+04  0.10100000352E+00 0. -1.
       -3    1    3    3    0  502 -0.22012707434E+03  0.23943222419E+03  0.14201257905E+03  0.35489618432E+03  0.10100000352E+00 0.  1.
</event>
<event>
 5   0  0.8921459E-05  0.1099935E+04  0.7818609E-02  0.9205255E-01
       -1   -1    0    0    0  501  0.00000000000E+00  0.00000000000E+00  0.50295142261E+03  0.50295142263E+03  0.50400001928E-02 0. -1.
        1   -1    0    0  501    0  0.00000000000E+00  0.00000000000E+00 -0.60137893701E+03  0.60137893703E+03  0.50400001928E-02 0.  1.
    10030    2    1    2    0    0  0.00000000000E+00  0.00000000000E+00 -0.98427514396E+02  0.11043303597E+04  0.10999352561E+04 0.  0.
        3    1    3    3  502    0  0.41591913834E+03 -0.31779028670E+03 -0.21866310139E+03  0.56726797730E+03  0.10100000352E+00 0.  1.
       -3    1    3    3    0  502 -0.41591913834E+03  0.31779028670E+03  0.12023558699E+03  0.53706238236E+03  0.10100000352E+00 0. -1.
</event>
<event>
 5   0  0.8621738E-05  0.1097748E+04  0.7818609E-02  0.9207390E-01
       -1   -1    0    0    0  501  0.00000000000E+00  0.00000000000E+00  0.48547126019E+03  0.48547126021E+03  0.50400001928E-02 0. -1.
        1   -1    0    0  501    0  0.00000000000E+00  0.00000000000E+00 -0.62055662590E+03  0.62055662592E+03  0.50400001928E-02 0.  1.
    10030    2    1    2    0    0  0.00000000000E+00  0.00000000000E+00 -0.13508536571E+03  0.11060278861E+04  0.10977475251E+04 0.  0.
        2    1    3    3  502    0 -0.32652290964E+03  0.33400262570E+03  0.22288051722E+03  0.51754293489E+03  0.25500000920E-02 0. -1.
       -2    1    3    3    0  502  0.32652290964E+03 -0.33400262570E+03 -0.35796588293E+03  0.58848495124E+03  0.25500000920E-02 0.  1.
</event>
<event>
 5   0  0.1553937E-04  0.1099966E+04  0.7818609E-02  0.9205225E-01
       -2   -1    0    0    0  501  0.00000000000E+00  0.00000000000E+00  0.66907977800E+03  0.66907977801E+03  0.25500000920E-02 0. -1.
        2   -1    0    0  501    0  0.00000000000E+00  0.00000000000E+00 -0.45208524334E+03  0.45208524335E+03  0.25500000920E-02 0.  1.
    10030    2    1    2    0    0  0.00000000000E+00  0.00000000000E+00  0.21699453466E+03  0.11211650214E+04  0.10999656254E+04 0.  0.
        1    1    3    3  502    0 -0.23176549301E+03 -0.47624355813E+03  0.25953521080E+03  0.58981496766E+03  0.50400001928E-02 0. -1.
       -1    1    3    3    0  502  0.23176549301E+03  0.47624355813E+03 -0.42540676135E+02  0.53135005370E+03  0.50400001928E-02 0.  1.
</event>
<event>
 5   0  0.8621738E-05  0.1099893E+04  0.7818609E-02  0.9205296E-01
        1   -1    0    0  501    0  0.00000000000E+00  0.00000000000E+00  0.11024496326E+04  0.11024496327E+04  0.50400001928E-02 0. -1.
       -1   -1    0    0    0  501  0.00000000000E+00  0.00000000000E+00 -0.27433546347E+03  0.27433546351E+03  0.50400001928E-02 0.  1.
    10030    2    1    2    0    0  0.00000000000E+00  0.00000000000E+00  0.82811416917E+03  0.13767850962E+04  0.10998927783E+04 0.  0.
        2    1    3    3  502    0 -0.14692696013E+03  0.51838729472E+03  0.55190887309E+03  0.77130818947E+03  0.25500000920E-02 0. -1.
       -2    1    3    3    0  502  0.14692696013E+03 -0.51838729472E+03  0.27620529608E+03  0.60547690669E+03  0.25500000920E-02 0.  1.
</event>
<event>
 5   0  0.1574101E-04  0.1100259E+04  0.7818609E-02  0.9204940E-01
        2   -1    0    0  501    0  0.00000000000E+00  0.00000000000E+00  0.11762888260E+04  0.11762888260E+04  0.25500000920E-02 0.  1.
       -2   -1    0    0    0  501  0.00000000000E+00  0.00000000000E+00 -0.25728569017E+03  0.25728569018E+03  0.25500000920E-02 0. -1.
    10030    2    1    2    0    0  0.00000000000E+00  0.00000000000E+00  0.91900313587E+03  0.14335745162E+04  0.11002586650E+04 0.  0.
        4    1    3    3  502    0  0.59418143976E+02  0.57305518039E+02 -0.24916805171E+03  0.26248956003E+03  0.12699999809E+01 0. -1.
       -4    1    3    3    0  502 -0.59418143976E+02 -0.57305518039E+02  0.11681711876E+04  0.11710849562E+04  0.12699999809E+01 0.  1.
</event>
<event>
 5   0  0.9346836E-05  0.1099781E+04  0.7818609E-02  0.9205405E-01
       -1   -1    0    0    0  501  0.00000000000E+00  0.00000000000E+00  0.31960876986E+03  0.31960876990E+03  0.50400001928E-02 0.  1.
        1   -1    0    0  501    0  0.00000000000E+00  0.00000000000E+00 -0.94609256995E+03  0.94609256997E+03  0.50400001928E-02 0. -1.
    10030    2    1    2    0    0  0.00000000000E+00  0.00000000000E+00 -0.62648380009E+03  0.12657013399E+04  0.10997808554E+04 0.  0.
        5    1    3    3  502    0 -0.41818876698E+03  0.23300767545E+03 -0.62457844553E+03  0.78695282340E+03  0.46999998093E+01 0. -1.
       -5    1    3    3    0  502  0.41818876698E+03 -0.23300767545E+03 -0.19053545617E+01  0.47874851646E+03  0.46999998093E+01 0.  1.
</event>
<event>
 5   0  0.1540772E-04  0.1099489E+04  0.7818609E-02  0.9205690E-01
        2   -1    0    0  501    0  0.00000000000E+00  0.00000000000E+00  0.45286970302E+03  0.45286970303E+03  0.25500000920E-02 0.  1.
       -2   -1    0    0    0  501  0.00000000000E+00  0.00000000000E+00 -0.66734235020E+03  0.66734235021E+03  0.25500000920E-02 0. -1.
    10030    2    1    2    0    0  0.00000000000E+00  0.00000000000E+00 -0.21447264719E+03  0.11202120532E+04  0.10994892122E+04 0.  0.
        2    1    3    3  502    0  0.44084152396E+03  0.19010770318E+03 -0.38012197726E+03  0.61235194591E+03  0.25500000920E-02 0. -1.
       -2    1    3    3    0  502 -0.44084152396E+03 -0.19010770318E+03  0.16564933008E+03  0.50786010733E+03  0.25500000920E-02 0.  1.
</event>
<event>
 5   0  0.9016738E-05  0.1098335E+04  0.7818609E-02  0.9206816E-01
       -1   -1    0    0    0  501  0.00000000000E+00  0.00000000000E+00  0.21061145619E+03  0.21061145625E+03  0.50400001928E-02 0. -1.
        1   -1    0    0  501    0  0.00000000000E+00  0.00000000000E+00 -0.14319490657E+04  0.14319490657E+04  0.50400001928E-02 0.  1.
    10030    2    1    2    0    0  0.00000000000E+00  0.00000000000E+00 -0.12213376095E+04  0.16425605220E+04  0.10983348815E+04 0.  0.
        4    1    3    3  502    0  0.26706918685E+03 -0.26668145249E+03 -0.12072560789E+04  0.12648769904E+04  0.12699999809E+01 0.  1.
       -4    1    3    3    0  502 -0.26706918685E+03  0.26668145249E+03 -0.14081530586E+02  0.37768353164E+03  0.12699999809E+01 0. -1.
</event>
<event>
 5   0  0.1574101E-04  0.1099851E+04  0.7818609E-02  0.9205337E-01
        2   -1    0    0  501    0  0.00000000000E+00  0.00000000000E+00  0.10995051518E+04  0.10995051518E+04  0.25500000920E-02 0.  1.
       -2   -1    0    0    0  501  0.00000000000E+00  0.00000000000E+00 -0.27504915393E+03  0.27504915394E+03  0.25500000920E-02 0. -1.
    10030    2    1    2    0    0  0.00000000000E+00  0.00000000000E+00  0.82445599784E+03  0.13745543057E+04  0.10998508294E+04 0.  0.
        4    1    3    3  502    0 -0.33846498730E+03  0.33325306060E+03  0.75857329058E+03  0.89501463681E+03  0.12699999809E+01 0.  1.
       -4    1    3    3    0  502  0.33846498730E+03 -0.33325306060E+03  0.65882707260E+02  0.47953966890E+03  0.12699999809E+01 0. -1.
</event>
<event>
 5   0  0.8921459E-05  0.1100354E+04  0.7818609E-02  0.9204847E-01
        1   -1    0    0  501    0  0.00000000000E+00  0.00000000000E+00  0.12399750830E+04  0.12399750830E+04  0.50400001928E-02 0.  1.
       -1   -1    0    0    0  501  0.00000000000E+00  0.00000000000E+00 -0.24411336706E+03  0.24411336711E+03  0.50400001928E-02 0. -1.
    10030    2    1    2    0    0  0.00000000000E+00  0.00000000000E+00  0.99586171591E+03  0.14840884501E+04  0.11003535661E+04 0.  0.
        3    1    3    3  502    0  0.58060343487E+02 -0.64561259839E+02  0.12306758174E+04  0.12337350354E+04  0.10100000352E+00 0.  1.
       -3    1    3    3    0  502 -0.58060343487E+02  0.64561259839E+02 -0.23481410153E+03  0.25035341467E+03  0.10100000352E+00 0. -1.
</event>
<event>
 5   0  0.1503277E-04  0.1099933E+04  0.7818609E-02  0.9205257E-01
        2   -1    0    0  501    0  0.00000000000E+00  0.00000000000E+00  0.20398047374E+04  0.20398047374E+04  0.25500000920E-02 0. -1.
       -2   -1    0    0    0  501  0.00000000000E+00  0.00000000000E+00 -0.14828036748E+03  0.14828036750E+03  0.25500000920E-02 0.  1.
    10030    2    1    2    0    0  0.00000000000E+00  0.00000000000E+00  0.18915243699E+04  0.21880851049E+04  0.10999327181E+04 0.  0.
        5    1    3    3  502    0 -0.26002102476E+03  0.47400762177E+01  0.19097112259E+04  0.19273433680E+04  0.46999998093E+01 0. -1.
       -5    1    3    3    0  502  0.26002102476E+03 -0.47400762177E+01 -0.18186856019E+02  0.26074173691E+03  0.46999998093E+01 0.  1.
</event>
<event>
 5   0  0.1503277E-04  0.1099958E+04  0.7818609E-02  0.9205233E-01
       -2   -1    0    0    0  501  0.00000000000E+00  0.00000000000E+00  0.33223818800E+03  0.33223818801E+03  0.25500000920E-02 0. -1.
        2   -1    0    0  501    0  0.00000000000E+00  0.00000000000E+00 -0.91042101242E+03  0.91042101242E+03  0.25500000920E-02 0.  1.
    10030    2    1    2    0    0  0.00000000000E+00  0.00000000000E+00 -0.57818282442E+03  0.12426592004E+04  0.10999575037E+04 0.  0.
        5    1    3    3  502    0 -0.34173031922E+03 -0.42504706726E+03 -0.20912798493E+03  0.58412432284E+03  0.46999998093E+01 0. -1.
       -5    1    3    3    0  502  0.34173031922E+03  0.42504706726E+03 -0.36905483950E+03  0.65853487759E+03  0.46999998093E+01 0.  1.
</event>
<event>
 5   0  0.1553937E-04  0.1099536E+04  0.7818609E-02  0.9205644E-01
       -2   -1    0    0    0  501  0.00000000000E+00  0.00000000000E+00  0.35927432575E+03  0.35927432576E+03  0.25500000920E-02 0.  1.
        2   -1    0    0  501    0  0.00000000000E+00  0.00000000000E+00 -0.84126525756E+03  0.84126525756E+03  0.25500000920E-02 0. -1.
    10030    2    1    2    0    0  0.00000000000E+00  0.00000000000E+00 -0.48199093180E+03  0.12005395833E+04  0.10995362808E+04 0.  0.
        1    1    3    3  502    0  0.22385203663E+03  0.24952981162E+03  0.23477257230E+03  0.40925911343E+03  0.50400001928E-02 0.  1.
       -1    1    3    3    0  502 -0.22385203663E+03 -0.24952981162E+03 -0.71676350411E+03  0.79128046990E+03  0.50400001928E-02 0. -1.
</event>
<event>
 5   0  0.8621738E-05  0.1099312E+04  0.7818609E-02  0.9205863E-01
        1   -1    0    0  501    0  0.00000000000E+00  0.00000000000E+00  0.12496895552E+03  0.12496895562E+03  0.50400001928E-02 0. -1.
       -1   -1    0    0    0  501  0.00000000000E+00  0.00000000000E+00 -0.24175727536E+04  0.24175727536E+04  0.50400001928E-02 0.  1.
    10030    2    1    2    0    0  0.00000000000E+00  0.00000000000E+00 -0.22926037981E+04  0.25425417092E+04  0.10993116793E+04 0.  0.
        2    1    3    3  502    0 -0.50935113832E+02 -0.38305103721E+03 -0.20503834023E+04  0.20864789909E+04  0.25500000920E-02 0.  1.
       -2    1    3    3    0  502  0.50935113832E+02  0.38305103721E+03 -0.24222039578E+03  0.45606271834E+03  0.25500000920E-02 0. -1.
</event>
<event>
 5   0  0.8921459E-05  0.1100254E+04  0.7818609E-02  0.9204945E-01
        1   -1    0    0  501    0  0.00000000000E+00  0.00000000000E+00  0.94138863350E+03  0.94138863351E+03  0.50400001928E-02 0. -1.
       -1   -1    0    0    0  501  0.00000000000E+00  0.00000000000E+00 -0.32148202433E+03  0.32148202437E+03  0.50400001928E-02 0.  1.
    10030    2    1    2    0    0  0.00000000000E+00  0.00000000000E+00  0.61990660916E+03  0.12628706579E+04  0.11002536501E+04 0.  0.
        3    1    3    3  502    0 -0.46910134808E+03  0.91911006987E+02 -0.25683104013E+01  0.47802752473E+03  0.10100000352E+00 0.  1.
       -3    1    3    3    0  502  0.46910134808E+03 -0.91911006987E+02  0.62247491956E+03  0.78484313316E+03  0.10100000352E+00 0. -1.
</event>
<event>
 5   0  0.8657442E-05  0.1100648E+04  0.7818609E-02  0.9204560E-01
       -1   -1    0    0    0  501  0.00000000000E+00  0.00000000000E+00  0.14902865100E+04  0.14902865100E+04  0.50400001928E-02 0.  1.
        1   -1    0    0  501    0  0.00000000000E+00  0.00000000000E+00 -0.20322045709E+03  0.20322045716E+03  0.50400001928E-02 0. -1.
    10030    2    1    2    0    0  0.00000000000E+00  0.00000000000E+00  0.12870660529E+04  0.16935069671E+04  0.11006483649E+04 0.  0.
        1    1    3    3  502    0 -0.52930219730E+03  0.65666423398E+02  0.43491291984E+03  0.68820210919E+03  0.50400001928E-02 0. -1.
       -1    1    3    3    0  502  0.52930219730E+03 -0.65666423398E+02  0.85215313303E+03  0.10053048579E+04  0.50400001928E-02 0.  1.
</event>
<event>
 5   0  0.1574101E-04  0.1099973E+04  0.7818609E-02  0.9205218E-01
        2   -1    0    0  501    0  0.00000000000E+00  0.00000000000E+00  0.31348230025E+03  0.31348230026E+03  0.25500000920E-02 0.  1.
       -2   -1    0    0    0  501  0.00000000000E+00  0.00000000000E+00 -0.96491975053E+03  0.96491975053E+03  0.25500000920E-02 0. -1.
    10030    2    1    2    0    0  0.00000000000E+00  0.00000000000E+00 -0.65143745028E+03  0.12784020508E+04  0.10999732051E+04 0.  0.
        4    1    3    3  502    0  0.49729795111E+03  0.23030642213E+03 -0.27198794376E+03  0.61182134214E+03  0.12699999809E+01 0. -1.
       -4    1    3    3    0  502 -0.49729795111E+03 -0.23030642213E+03 -0.37944950652E+03  0.66658070865E+03  0.12699999809E+01 0.  1.
</event>
<event>
 5   0  0.9346836E-05  0.1100470E+04  0.7818609E-02  0.9204734E-01
        1   -1    0    0  501    0  0.00000000000E+00  0.00000000000E+00  0.33602501509E+03  0.33602501513E+03  0.50400001928E-02 0.  1.
       -1   -1    0    0    0  501  0.00000000000E+00  0.00000000000E+00 -0.90099937308E+03  0.90099937309E+03  0.50400001928E-02 0. -1.
    10030    2    1    2    0    0  0.00000000000E+00  0.00000000000E+00 -0.56497435799E+03  0.12370243882E+04  0.11004695870E+04 0.  0.
        5    1    3    3  502    0 -0.13805065606E+02  0.54993614103E+03 -0.27038565913E+03  0.61298518229E+03  0.46999998093E+01 0. -1.
       -5    1    3    3    0  502  0.13805065606E+02 -0.54993614103E+03 -0.29458869886E+03  0.62403920593E+03  0.46999998093E+01 0.  1.
</event>
<event>
 5   0  0.9016738E-05  0.1098552E+04  0.7818609E-02  0.9206604E-01
        1   -1    0    0  501    0  0.00000000000E+00  0.00000000000E+00  0.13943701692E+04  0.13943701692E+04  0.50400001928E-02 0.  1.
       -1   -1    0    0    0  501  0.00000000000E+00  0.00000000000E+00 -0.21637302296E+03  0.21637302302E+03  0.50400001928E-02 0. -1.
    10030    2    1    2    0    0  0.00000000000E+00  0.00000000000E+00  0.11779971463E+04  0.16107431922E+04  0.10985519354E+04 0.  0.
        4    1    3    3  502    0 -0.81231418523E+02  0.65845440548E+02 -0.20164227343E+03  0.22714617481E+03  0.12699999809E+01 0. -1.
       -4    1    3    3    0  502  0.81231418523E+02 -0.65845440548E+02  0.13796394197E+04  0.13835970174E+04  0.12699999809E+01 0.  1.
</event>
<event>
 5   0  0.8621738E-05  0.1100206E+04  0.7818609E-02  0.9204991E-01
        1   -1    0    0  501    0  0.00000000000E+00  0.00000000000E+00  0.99681713191E+03  0.99681713192E+03  0.50400001928E-02 0.  1.
       -1   -1    0    0    0  501  0.00000000000E+00  0.00000000000E+00 -0.30357970588E+03  0.30357970592E+03  0.50400001928E-02 0. -1.
    10030    2    1    2    0    0  0.00000000000E+00  0.00000000000E+00  0.69323742603E+03  0.13003968378E+04  0.11002062566E+04 0.  0.
        2    1    3    3  502    0 -0.72579404063E+02  0.15848375222E+03  0.96331119640E+03  0.97895522407E+03  0.25500000920E-02 0.  1.
       -2    1    3    3    0  502  0.72579404063E+02 -0.15848375222E+03 -0.27007377037E+03  0.32144161377E+03  0.25500000920E-02 0. -1.
</event>
<event>
 5   0  0.1464205E-04  0.1098863E+04  0.7818609E-02  0.9206301E-01
       -2   -1    0    0    0  501  0.00000000000E+00  0.00000000000E+00  0.13907344916E+03  0.13907344918E+03  0.25500000920E-02 0. -1.
        2   -1    0    0  501    0  0.00000000000E+00  0.00000000000E+00 -0.21706135629E+04  0.21706135629E+04  0.25500000920E-02 0.  1.
    10030    2    1    2    0    0  0.00000000000E+00  0.00000000000E+00 -0.20315401138E+04  0.23096870121E+04  0.10988625301E+04 0.  0.
        3    1    3    3  502    0 -0.51472761169E+03  0.14530351291E+03 -0.75142394976E+03  0.92233160392E+03  0.10100000352E+00 0. -1.
       -3    1    3    3    0  502  0.51472761169E+03 -0.14530351291E+03 -0.12801161640E+04  0.13873554082E+04  0.10100000352E+00 0.  1.
</event>
<event>
 5   0  0.1574101E-04  0.1099526E+04  0.7818609E-02  0.9205654E-01
        2   -1    0    0  501    0  0.00000000000E+00  0.00000000000E+00  0.98674509930E+03  0.98674509931E+03  0.25500000920E-02 0. -1.
       -2   -1    0    0    0  501  0.00000000000E+00  0.00000000000E+00 -0.30629921928E+03  0.30629921929E+03  0.25500000920E-02 0.  1.
    10030    2    1    2    0    0  0.00000000000E+00  0.00000000000E+00  0.68044588002E+03  0.12930443186E+04  0.10995258133E+04 0.  0.
        4    1    3    3  502    0 -0.45960027877E+03  0.17844813639E+03  0.62626343538E+03  0.79704683490E+03  0.12699999809E+01 0. -1.
       -4    1    3    3    0  502  0.45960027877E+03 -0.17844813639E+03  0.54182444639E+02  0.49599748370E+03  0.12699999809E+01 0.  1.
</event>
<event>
 5   0  0.1553937E-04  0.1099901E+04  0.7818609E-02  0.9205288E-01
       -2   -1    0    0    0  501  0.00000000000E+00  0.00000000000E+00  0.18824057026E+03  0.18824057027E+03  0.25500000920E-02 0.  1.
        2   -1    0    0  501    0  0.00000000000E+00  0.00000000000E+00 -0.16066976712E+04  0.16066976712E+04  0.25500000920E-02 0. -1.
    10030    2    1    2    0    0  0.00000000000E+00  0.00000000000E+00 -0.14184571009E+04  0.17949382415E+04  0.10999012426E+04 0.  0.
        1    1    3    3  502    0 -0.84363303659E+02  0.29830453609E+03  0.32065656845E+02  0.31165841819E+03  0.50400001928E-02 0.  1.
       -1    1    3    3    0  502  0.84363303659E+02 -0.29830453609E+03 -0.14505227578E+04  0.14832798233E+04  0.50400001928E-02 0. -1.
</event>
<event>
 5   0  0.1464205E-04  0.1099982E+04  0.7818609E-02  0.9205209E-01
        2   -1    0    0  501    0  0.00000000000E+00  0.00000000000E+00  0.28128872828E+03  0.28128872829E+03  0.25500000920E-02 0.  1.
       -2   -1    0    0    0  501  0.00000000000E+00  0.00000000000E+00 -0.10753723746E+04  0.10753723746E+04  0.25500000920E-02 0. -1.
    10030    2    1    2    0    0  0.00000000000E+00  0.00000000000E+00 -0.79408364633E+03  0.13566611029E+04  0.10999820502E+04 0.  0.
        3    1    3    3  502    0 -0.39255789120E+03 -0.38517879284E+03 -0.39078726316E+03  0.67466961962E+03  0.10100000352E+00 0. -1.
       -3    1    3    3    0  502  0.39255789120E+03  0.38517879284E+03 -0.40329638317E+03  0.68199148328E+03  0.10100000352E+00 0.  1.
</event>
<event>
 5   0  0.9346836E-05  0.1100494E+04  0.7818609E-02  0.9204711E-01
       -1   -1    0    0    0  501  0.00000000000E+00  0.00000000000E+00  0.40153803569E+03  0.40153803572E+03  0.50400001928E-02 0. -1.
        1   -1    0    0  501    0  0.00000000000E+00  0.00000000000E+00 -0.75402996764E+03  0.75402996766E+03  0.50400001928E-02 0.  1.
    10030    2    1    2    0    0  0.00000000000E+00  0.00000000000E+00 -0.35249193195E+03  0.11555680034E+04  0.11004939111E+04 0.  0.
        5    1    3    3  502    0  0.23948476785E+03 -0.72773859929E+02 -0.69076863874E+03  0.73473287049E+03  0.46999998093E+01 0.  1.
       -5    1    3    3    0  502 -0.23948476785E+03  0.72773859929E+02  0.33827670678E+03  0.42083513288E+03  0.46999998093E+01 0. -1.
</event>
<event>
 5   0  0.9016738E-05  0.1100636E+04  0.7818609E-02  0.9204573E-01
        1   -1    0    0  501    0  0.00000000000E+00  0.00000000000E+00  0.95791063649E+03  0.95791063651E+03  0.50400001928E-02 0.  1.
       -1   -1    0    0    0  501  0.00000000000E+00  0.00000000000E+00 -0.31615649173E+03  0.31615649177E+03  0.50400001928E-02 0. -1.
    10030    2    1    2    0    0  0.00000000000E+00  0.00000000000E+00  0.64175414476E+03  0.12740671283E+04  0.11006355732E+04 0.  0.
        4    1    3    3  502    0 -0.20241729428E+03  0.22405092159E+03  0.85345733157E+03  0.90529697128E+03  0.12699999809E+01 0.  1.
       -4    1    3    3    0  502  0.20241729428E+03 -0.22405092159E+03 -0.21170318681E+03  0.36877015700E+03  0.12699999809E+01 0. -1.
</event>
<event>
 5   0  0.8921459E-05  0.1097831E+04  0.7818609E-02  0.9207309E-01
       -1   -1    0    0    0  501  0.00000000000E+00  0.00000000000E+00  0.40661982599E+03  0.40661982602E+03  0.50400001928E-02 0.  1.
        1   -1    0    0  501    0  0.00000000000E+00  0.00000000000E+00 -0.74100703193E+03  0.74100703194E+03  0.50400001928E-02 0. -1.
    10030    2    1    2    0    0  0.00000000000E+00  0.00000000000E+00 -0.33438720594E+03  0.11476268580E+04  0.10978308620E+04 0.  0.
        3    1    3    3  502    0 -0.41750908108E+03 -0.30312723142E+03 -0.36306430588E+03  0.63088481644E+03  0.10100000352E+00 0. -1.
       -3    1    3    3    0  502  0.41750908108E+03  0.30312723142E+03  0.28677099947E+02  0.51674204152E+03  0.10100000352E+00 0.  1.
</event>
<event>
 5   0  0.8657442E-05  0.1099953E+04  0.7818609E-02  0.9205238E-01
        1   -1    0    0  501    0  0.00000000000E+00  0.00000000000E+00  0.40655031328E+03  0.40655031331E+03  0.50400001928E-02 0. -1.
       -1   -1    0    0    0  501  0.00000000000E+00  0.00000000000E+00 -0.74400161350E+03  0.74400161351E+03  0.50400001928E-02 0.  1.
    10030    2    1    2    0    0  0.00000000000E+00  0.00000000000E+00 -0.33745130022E+03  0.11505519268E+04  0.10999528882E+04 0.  0.
        1    1    3    3  502    0  0.37299665208E+03 -0.37145855303E+03 -0.33531960805E+03  0.62413716333E+03  0.50400001928E-02 0. -1.
       -1    1    3    3    0  502 -0.37299665208E+03  0.37145855303E+03 -0.21316921729E+01  0.52641476349E+03  0.50400001928E-02 0.  1.
</event>
<event>
 5   0  0.1574101E-04  0.1099899E+04  0.7818609E-02  0.9205290E-01
        2   -1    0    0  501    0  0.00000000000E+00  0.00000000000E+00  0.45251310956E+03  0.45251310957E+03  0.25500000920E-02 0. -1.
       -2   -1    0    0    0  501  0.00000000000E+00  0.00000000000E+00 -0.66836649285E+03  0.66836649285E+03  0.25500000920E-02 0.  1.
    10030    2    1    2    0    0  0.00000000000E+00  0.00000000000E+00 -0.21585338328E+03  0.11208796024E+04  0.10998992681E+04 0.  0.
        4    1    3    3  502    0 -0.60278107866E+02 -0.10693071542E+03 -0.65422620833E+03  0.66564342764E+03  0.12699999809E+01 0.  1.
       -4    1    3    3    0  502  0.60278107866E+02  0.10693071542E+03  0.43837282505E+03  0.45523617478E+03  0.12699999809E+01 0. -1.
</event>
<event>
 5   0  0.1553937E-04  0.1101808E+04  0.7818609E-02  0.9203432E-01
        2   -1    0    0  501    0  0.00000000000E+00  0.00000000000E+00  0.19475125264E+04  0.19475125264E+04  0.25500000920E-02 0. -1.
       -2   -1    0    0    0  501  0.00000000000E+00  0.00000000000E+00 -0.15583733517E+03  0.15583733519E+03  0.25500000920E-02 0.  1.
    10030    2    1    2    0    0  0.00000000000E+00  0.00000000000E+00  0.17916751912E+04  0.21033498616E+04  0.11018079004E+04 0.  0.
        1    1    3    3  502    0  0.35036807641E+03 -0.15587705816E+02  0.84806515760E+02  0.36082254735E+03  0.50400001928E-02 0.  1.
       -1    1    3    3    0  502 -0.35036807641E+03  0.15587705816E+02  0.17068686754E+04  0.17425273142E+04  0.50400001928E-02 0. -1.
</event>
<event>
 5   0  0.1540772E-04  0.1100260E+04  0.7818609E-02  0.9204938E-01
        2   -1    0    0  501    0  0.00000000000E+00  0.00000000000E+00  0.15045395699E+04  0.15045395699E+04  0.25500000920E-02 0. -1.
       -2   -1    0    0    0  501  0.00000000000E+00  0.00000000000E+00 -0.20115328109E+03  0.20115328110E+03  0.25500000920E-02 0.  1.
    10030    2    1    2    0    0  0.00000000000E+00  0.00000000000E+00  0.13033862888E+04  0.17056928510E+04  0.11002600984E+04 0.  0.
        2    1    3    3  502    0  0.19535596607E+03  0.37761354049E+03  0.11045998761E+03  0.43926910693E+03  0.25500000920E-02 0.  1.
       -2    1    3    3    0  502 -0.19535596607E+03 -0.37761354049E+03  0.11929263012E+04  0.12664237441E+04  0.25500000920E-02 0. -1.
</event>
<event>
 5   0  0.8657442E-05  0.1092350E+04  0.7818609E-02  0.9212680E-01
       -1   -1    0    0    0  501  0.00000000000E+00  0.00000000000E+00  0.92379186749E+03  0.92379186750E+03  0.50400001928E-02 0.  1.
        1   -1    0    0  501    0  0.00000000000E+00  0.00000000000E+00 -0.32291604299E+03  0.32291604303E+03  0.50400001928E-02 0. -1.
    10030    2    1    2    0    0  0.00000000000E+00  0.00000000000E+00  0.60087582449E+03  0.12467079105E+04  0.10923501534E+04 0.  0.
        1    1    3    3  502    0  0.27925028866E+02  0.21563374471E+03 -0.27138982506E+03  0.34775013482E+03  0.50400001928E-02 0. -1.
       -1    1    3    3    0  502 -0.27925028866E+02 -0.21563374471E+03  0.87226564956E+03  0.89895777571E+03  0.50400001928E-02 0.  1.
</event>
<event>
 5   0  0.1464205E-04  0.1099387E+04  0.7818609E-02  0.9205789E-01
       -2   -1    0    0    0  501  0.00000000000E+00  0.00000000000E+00  0.69520397385E+03  0.69520397385E+03  0.25500000920E-02 0. -1.
        2   -1    0    0  501    0  0.00000000000E+00  0.00000000000E+00 -0.43463952184E+03  0.43463952185E+03  0.25500000920E-02 0.  1.
    10030    2    1    2    0    0  0.00000000000E+00  0.00000000000E+00  0.26056445201E+03  0.11298434957E+04  0.10993873253E+04 0.  0.
        3    1    3    3  502    0  0.53393747788E+03 -0.50165131451E+02  0.25427849134E+03  0.59351776053E+03  0.10100000352E+00 0. -1.
       -3    1    3    3    0  502 -0.53393747788E+03  0.50165131451E+02  0.62859606723E+01  0.53632573517E+03  0.10100000352E+00 0.  1.
</event>
<event>
 5   0  0.1503277E-04  0.1100039E+04  0.7818609E-02  0.9205154E-01
       -2   -1    0    0    0  501  0.00000000000E+00  0.00000000000E+00  0.37938454792E+03  0.37938454792E+03  0.25500000920E-02 0.  1.
        2   -1    0    0  501    0  0.00000000000E+00  0.00000000000E+00 -0.79740091439E+03  0.79740091439E+03  0.25500000920E-02 0. -1.
    10030    2    1    2    0    0  0.00000000000E+00  0.00000000000E+00 -0.41801636647E+03  0.11767854623E+04  0.11000392455E+04 0.  0.
        5    1    3    3  502    0 -0.23374042966E+03  0.36900373912E+03  0.14852629807E+03  0.46138974757E+03  0.46999998093E+01 0.  1.
       -5    1    3    3    0  502  0.23374042966E+03 -0.36900373912E+03 -0.56654266454E+03  0.71539571475E+03  0.46999998093E+01 0. -1.
</event>
<event>
 5   0  0.1553937E-04  0.1099565E+04  0.7818609E-02  0.9205616E-01
       -2   -1    0    0    0  501  0.00000000000E+00  0.00000000000E+00  0.42049915977E+03  0.42049915978E+03  0.25500000920E-02 0.  1.
        2   -1    0    0  501    0  0.00000000000E+00  0.00000000000E+00 -0.71881367743E+03  0.71881367743E+03  0.25500000920E-02 0. -1.
    10030    2    1    2    0    0  0.00000000000E+00  0.00000000000E+00 -0.29831451766E+03  0.11393128372E+04  0.10995645454E+04 0.  0.
        1    1    3    3  502    0  0.46889829268E+03  0.91787139312E+02  0.13264874866E+03  0.49586911415E+03  0.50400001928E-02 0. -1.
       -1    1    3    3    0  502 -0.46889829268E+03 -0.91787139312E+02 -0.43096326632E+03  0.64344372307E+03  0.50400001928E-02 0.  1.
</event>
<event>
 5   0  0.8657442E-05  0.1099144E+04  0.7818609E-02  0.9206026E-01
        1   -1    0    0  501    0  0.00000000000E+00  0.00000000000E+00  0.72889625006E+03  0.72889625007E+03  0.50400001928E-02 0. -1.
       -1   -1    0    0    0  501  0.00000000000E+00  0.00000000000E+00 -0.41436562572E+03  0.41436562575E+03  0.50400001928E-02 0.  1.
    10030    2    1    2    0    0  0.00000000000E+00  0.00000000000E+00  0.31453062434E+03  0.11432618758E+04  0.10991443049E+04 0.  0.
        1    1    3    3  502    0 -0.30317586393E+03 -0.67691750116E+01 -0.31946315550E+03  0.44047489594E+03  0.50400001928E-02 0.  1.
       -1    1    3    3    0  502  0.30317586393E+03  0.67691750116E+01  0.63399377984E+03  0.70278697989E+03  0.50400001928E-02 0. -1.
</event>
<event>
 5   0  0.9016738E-05  0.1100043E+04  0.7818609E-02  0.9205150E-01
        1   -1    0    0  501    0  0.00000000000E+00  0.00000000000E+00  0.91774756431E+03  0.91774756432E+03  0.50400001928E-02 0.  1.
       -1   -1    0    0    0  501  0.00000000000E+00  0.00000000000E+00 -0.32963723686E+03  0.32963723690E+03  0.50400001928E-02 0. -1.
    10030    2    1    2    0    0  0.00000000000E+00  0.00000000000E+00  0.58811032745E+03  0.12473848012E+04  0.11000432196E+04 0.  0.
        4    1    3    3  502    0 -0.26160148608E+03 -0.10963907202E+03 -0.24030223514E+03  0.37175642663E+03  0.12699999809E+01 0. -1.
       -4    1    3    3    0  502  0.26160148608E+03  0.10963907202E+03  0.82841256258E+03  0.87562837458E+03  0.12699999809E+01 0.  1.
</event>
<event>
 5   0  0.8921459E-05  0.1100357E+04  0.7818609E-02  0.9204844E-01
       -1   -1    0    0    0  501  0.00000000000E+00  0.00000000000E+00  0.26681892871E+03  0.26681892876E+03  0.50400001928E-02 0. -1.
        1   -1    0    0  501    0  0.00000000000E+00  0.00000000000E+00 -0.11344643346E+04  0.11344643346E+04  0.50400001928E-02 0.  1.
    10030    2    1    2    0    0  0.00000000000E+00  0.00000000000E+00 -0.86764540586E+03  0.14012832634E+04  0.11003573210E+04 0.  0.
        3    1    3    3  502    0  0.36007817107E+03  0.28646088784E+02 -0.96230879433E+03  0.10278692103E+04  0.10100000352E+00 0.  1.
       -3    1    3    3    0  502 -0.36007817107E+03 -0.28646088784E+02  0.94663388468E+02  0.37341405303E+03  0.10100000352E+00 0. -1.
</event>
<event>
 5   0  0.1574101E-04  0.1100002E+04  0.7818609E-02  0.9205190E-01
       -2   -1    0    0    0  501  0.00000000000E+00  0.00000000000E+00  0.19044950594E+03  0.19044950595E+03  0.25500000920E-02 0.  1.
        2   -1    0    0  501    0  0.00000000000E+00  0.00000000000E+00 -0.15883526616E+04  0.15883526616E+04  0.25500000920E-02 0. -1.
    10030    2    1    2    0    0  0.00000000000E+00  0.00000000000E+00 -0.13979031557E+04  0.17788021676E+04  0.11000017812E+04 0.  0.
        4    1    3    3  502    0  0.42292630078E+03  0.32249837183E+03 -0.47240011178E+03  0.71136160582E+03  0.12699999809E+01 0. -1.
       -4    1    3    3    0  502 -0.42292630078E+03 -0.32249837183E+03 -0.92550304392E+03  0.10674405618E+04  0.12699999809E+01 0.  1.
</event>
<event>
 5   0  0.1503277E-04  0.1099626E+04  0.7818609E-02  0.9205556E-01
       -2   -1    0    0    0  501  0.00000000000E+00  0.00000000000E+00  0.56453784516E+03  0.56453784516E+03  0.25500000920E-02 0.  1.
        2   -1    0    0  501    0  0.00000000000E+00  0.00000000000E+00 -0.53547247718E+03  0.53547247718E+03  0.25500000920E-02 0. -1.
    10030    2    1    2    0    0  0.00000000000E+00  0.00000000000E+00  0.29065367978E+02  0.11000103223E+04  0.10996262609E+04 0.  0.
        5    1    3    3  502    0  0.37067059551E+03  0.23330219955E+03 -0.31791722950E+03  0.54122089900E+03  0.46999998093E+01 0. -1.
       -5    1    3    3    0  502 -0.37067059551E+03 -0.23330219955E+03  0.34698259748E+03  0.55878942335E+03  0.46999998093E+01 0.  1.
</event>
<event>
 5   0  0.1540772E-04  0.1100193E+04  0.7818609E-02  0.9205004E-01
       -2   -1    0    0    0  501  0.00000000000E+00  0.00000000000E+00  0.41762302833E+03  0.41762302834E+03  0.25500000920E-02 0.  1.
        2   -1    0    0  501    0  0.00000000000E+00  0.00000000000E+00 -0.72459168411E+03  0.72459168412E+03  0.25500000920E-02 0. -1.
    10030    2    1    2    0    0  0.00000000000E+00  0.00000000000E+00 -0.30696865578E+03  0.11422147125E+04  0.11001930257E+04 0.  0.
        2    1    3    3  502    0 -0.37676485738E+03  0.22360939914E+02  0.26199393307E+03  0.45944813675E+03  0.25500000920E-02 0.  1.
       -2    1    3    3    0  502  0.37676485738E+03 -0.22360939914E+02 -0.56896258885E+03  0.68276657571E+03  0.25500000920E-02 0. -1.
</event>
<event>
 5   0  0.1464205E-04  0.1100044E+04  0.7818609E-02  0.9205149E-01
       -2   -1    0    0    0  501  0.00000000000E+00  0.00000000000E+00  0.45763449014E+03  0.45763449014E+03  0.25500000920E-02 0.  1.
        2   -1    0    0  501    0  0.00000000000E+00  0.00000000000E+00 -0.66106089716E+03  0.66106089716E+03  0.25500000920E-02 0. -1.
    10030    2    1    2    0    0  0.00000000000E+00  0.00000000000E+00 -0.20342640702E+03  0.11186953873E+04  0.11000441203E+04 0.  0.
        3    1    3    3  502    0  0.39441373572E+03  0.24684201720E+03 -0.39999684121E+03  0.61358834699E+03  0.10100000352E+00 0. -1.
       -3    1    3    3    0  502 -0.39441373572E+03 -0.24684201720E+03  0.19657043419E+03  0.50510704032E+03  0.10100000352E+00 0.  1.
</event>
<event>
 5   0  0.1540772E-04  0.1099765E+04  0.7818609E-02  0.9205421E-01
       -2   -1    0    0    0  501  0.00000000000E+00  0.00000000000E+00  0.56928934944E+03  0.56928934944E+03  0.25500000920E-02 0. -1.
        2   -1    0    0  501    0  0.00000000000E+00  0.00000000000E+00 -0.53113675322E+03  0.53113675322E+03  0.25500000920E-02 0.  1.
    10030    2    1    2    0    0  0.00000000000E+00  0.00000000000E+00  0.38152596220E+02  0.11004261027E+04  0.10997645143E+04 0.  0.
        2    1    3    3  502    0  0.17035268184E+03  0.46257003968E+03  0.26290181452E+03  0.55866666439E+03  0.25500000920E-02 0. -1.
       -2    1    3    3    0  502 -0.17035268184E+03 -0.46257003968E+03 -0.22474921830E+03  0.54175943827E+03  0.25500000920E-02 0.  1.
</event>
<event>
 5   0  0.1464205E-04  0.1098152E+04  0.7818609E-02  0.9206995E-01
       -2   -1    0    0    0  501  0.00000000000E+00  0.00000000000E+00  0.51757479333E+03  0.51757479333E+03  0.25500000920E-02 0. -1.
        2   -1    0    0  501    0  0.00000000000E+00  0.00000000000E+00 -0.58249451838E+03  0.58249451839E+03  0.25500000920E-02 0.  1.
    10030    2    1    2    0    0  0.00000000000E+00  0.00000000000E+00 -0.64919725057E+02  0.11000693117E+04  0.10981520477E+04 0.  0.
        3    1    3    3  502    0  0.43690492132E+03 -0.27356840678E+03  0.15697048934E+03  0.53885557266E+03  0.10100000352E+00 0.  1.
       -3    1    3    3    0  502 -0.43690492132E+03  0.27356840678E+03 -0.22189021440E+03  0.56121373906E+03  0.10100000352E+00 0. -1.
</event>
<event>
 5   0  0.1464205E-04  0.1100079E+04  0.7818609E-02  0.9205115E-01
       -2   -1    0    0    0  501  0.00000000000E+00  0.00000000000E+00  0.80795020736E+03  0.80795020737E+03  0.25500000920E-02 0. -1.
        2   -1    0    0  501    0  0.00000000000E+00  0.00000000000E+00 -0.37445797014E+03  0.37445797015E+03  0.25500000920E-02 0.  1.
    10030    2    1    2    0    0  0.00000000000E+00  0.00000000000E+00  0.43349223722E+03  0.11824081775E+04  0.11000788965E+04 0.  0.
        3    1    3    3  502    0 -0.47580727776E+03  0.77374248074E+02 -0.67962686848E+02  0.48682468799E+03  0.10100000352E+00 0.  1.
       -3    1    3    3    0  502  0.47580727776E+03 -0.77374248074E+02  0.50145492407E+03  0.69558348953E+03  0.10100000352E+00 0. -1.
</event>
<event>
 5   0  0.1574101E-04  0.1100354E+04  0.7818609E-02  0.9204847E-01
        2   -1    0    0  501    0  0.00000000000E+00  0.00000000000E+00  0.92270840924E+03  0.92270840925E+03  0.25500000920E-02 0. -1.
       -2   -1    0    0    0  501  0.00000000000E+00  0.00000000000E+00 -0.32805043133E+03  0.32805043134E+03  0.25500000920E-02 0.  1.
    10030    2    1    2    0    0  0.00000000000E+00  0.00000000000E+00  0.59465797791E+03  0.12507588406E+04  0.11003542914E+04 0.  0.
        4    1    3    3  502    0 -0.39984082914E+03 -0.60349354827E+02  0.72138886926E+03  0.82699349869E+03  0.12699999809E+01 0. -1.
       -4    1    3    3    0  502  0.39984082914E+03  0.60349354827E+02 -0.12673089135E+03  0.42376534190E+03  0.12699999809E+01 0.  1.
</event>
<event>
 5   0  0.8921459E-05  0.1098947E+04  0.7818609E-02  0.9206219E-01
       -1   -1    0    0    0  501  0.00000000000E+00  0.00000000000E+00  0.48665757688E+03  0.48665757691E+03  0.50400001928E-02 0. -1.
        1   -1    0    0  501    0  0.00000000000E+00  0.00000000000E+00 -0.62039762536E+03  0.62039762538E+03  0.50400001928E-02 0.  1.
    10030    2    1    2    0    0  0.00000000000E+00  0.00000000000E+00 -0.13374004848E+03  0.11070552023E+04  0.10989471417E+04 0.  0.
        3    1    3    3  502    0 -0.20786328890E+03 -0.48461567231E+03  0.88741998243E+02  0.53472857524E+03  0.10100000352E+00 0. -1.
       -3    1    3    3    0  502  0.20786328890E+03  0.48461567231E+03 -0.22248204672E+03  0.57232662705E+03  0.10100000352E+00 0.  1.
</event>
<event>
 5   0  0.8621738E-05  0.1100301E+04  0.7818609E-02  0.9204899E-01
        1   -1    0    0  501    0  0.00000000000E+00  0.00000000000E+00  0.76523652088E+03  0.76523652090E+03  0.50400001928E-02 0.  1.
       -1   -1    0    0    0  501  0.00000000000E+00  0.00000000000E+00 -0.39551873962E+03  0.39551873965E+03  0.50400001928E-02 0. -1.
    10030    2    1    2    0    0  0.00000000000E+00  0.00000000000E+00  0.36971778126E+03  0.11607552605E+04  0.11003006576E+04 0.  0.
        2    1    3    3  502    0 -0.49030267863E+03 -0.13279915931E+03 -0.38014168930E+02  0.50938925237E+03  0.25500000920E-02 0.  1.
       -2    1    3    3    0  502  0.49030267863E+03  0.13279915931E+03  0.40773195019E+03  0.65136600817E+03  0.25500000920E-02 0. -1.
</event>
<event>
 5   0  0.8621738E-05  0.1099917E+04  0.7818609E-02  0.9205273E-01
        1   -1    0    0  501    0  0.00000000000E+00  0.00000000000E+00  0.14875361682E+04  0.14875361682E+04  0.50400001928E-02 0.  1.
       -1   -1    0    0    0  501  0.00000000000E+00  0.00000000000E+00 -0.20332570549E+03  0.20332570555E+03  0.50400001928E-02 0. -1.
    10030    2    1    2    0    0  0.00000000000E+00  0.00000000000E+00  0.12842104627E+04  0.16908618738E+04  0.10999169803E+04 0.  0.
        2    1    3    3  502    0 -0.24212278046E+03 -0.21060650394E+03 -0.44478222923E+02  0.32397045026E+03  0.25500000920E-02 0. -1.
       -2    1    3    3    0  502  0.24212278046E+03  0.21060650394E+03  0.13286886856E+04  0.13668914235E+04  0.25500000920E-02 0.  1.
</event>
<event>
 5   0  0.8921459E-05  0.1103329E+04  0.7818609E-02  0.9201953E-01
       -1   -1    0    0    0  501  0.00000000000E+00  0.00000000000E+00  0.48764258890E+03  0.48764258893E+03  0.50400001928E-02 0.  1.
        1   -1    0    0  501    0  0.00000000000E+00  0.00000000000E+00 -0.62409161929E+03  0.62409161931E+03  0.50400001928E-02 0. -1.
    10030    2    1    2    0    0  0.00000000000E+00  0.00000000000E+00 -0.13644903038E+03  0.11117342082E+04  0.11033288775E+04 0.  0.
        3    1    3    3  502    0 -0.19773363597E+03 -0.15509359639E+02  0.45047330602E+03  0.49220457197E+03  0.10100000352E+00 0.  1.
       -3    1    3    3    0  502  0.19773363597E+03  0.15509359639E+02 -0.58692233641E+03  0.61952963626E+03  0.10100000352E+00 0. -1.
</event>
<event>
 5   0  0.1553937E-04  0.1097495E+04  0.7818609E-02  0.9207637E-01
        2   -1    0    0  501    0  0.00000000000E+00  0.00000000000E+00  0.74588318513E+03  0.74588318513E+03  0.25500000920E-02 0.  1.
       -2   -1    0    0    0  501  0.00000000000E+00  0.00000000000E+00 -0.40371467147E+03  0.40371467148E+03  0.25500000920E-02 0. -1.
    10030    2    1    2    0    0  0.00000000000E+00  0.00000000000E+00  0.34216851365E+03  0.11495978566E+04  0.10974953030E+04 0.  0.
        1    1    3    3  502    0  0.23388803075E+03 -0.22836169733E+03  0.63277121713E+03  0.71221632176E+03  0.50400001928E-02 0.  1.
       -1    1    3    3    0  502 -0.23388803075E+03  0.22836169733E+03 -0.29060270347E+03  0.43738153485E+03  0.50400001928E-02 0. -1.
</event>
<event>
 5   0  0.8921459E-05  0.1100278E+04  0.7818609E-02  0.9204921E-01
        1   -1    0    0  501    0  0.00000000000E+00  0.00000000000E+00  0.70893547936E+03  0.70893547938E+03  0.50400001928E-02 0. -1.
       -1   -1    0    0    0  501  0.00000000000E+00  0.00000000000E+00 -0.42691196180E+03  0.42691196183E+03  0.50400001928E-02 0.  1.
    10030    2    1    2    0    0  0.00000000000E+00  0.00000000000E+00  0.28202351756E+03  0.11358474412E+04  0.11002782127E+04 0.  0.
        3    1    3    3  502    0  0.22343247339E+03  0.12798286340E+03 -0.36086435632E+03  0.44331115185E+03  0.10100000352E+00 0.  1.
       -3    1    3    3    0  502 -0.22343247339E+03 -0.12798286340E+03  0.64288787388E+03  0.69253628936E+03  0.10100000352E+00 0. -1.
</event>
<event>
 5   0  0.1464205E-04  0.1101732E+04  0.7818609E-02  0.9203505E-01
        2   -1    0    0  501    0  0.00000000000E+00  0.00000000000E+00  0.58204378104E+03  0.58204378104E+03  0.25500000920E-02 0. -1.
       -2   -1    0    0    0  501  0.00000000000E+00  0.00000000000E+00 -0.52135868765E+03  0.52135868765E+03  0.25500000920E-02 0.  1.
    10030    2    1    2    0    0  0.00000000000E+00  0.00000000000E+00  0.60685093390E+02  0.11034024687E+04  0.11017324209E+04 0.  0.
        3    1    3    3  502    0  0.43524414463E+03 -0.60576838248E+02 -0.30234550748E+03  0.53340400717E+03  0.10100000352E+00 0.  1.
       -3    1    3    3    0  502 -0.43524414463E+03  0.60576838248E+02  0.36303060088E+03  0.56999846152E+03  0.10100000352E+00 0. -1.
</event>
<event>
 5   0  0.8657442E-05  0.1100823E+04  0.7818609E-02  0.9204390E-01
       -1   -1    0    0    0  501  0.00000000000E+00  0.00000000000E+00  0.30877770237E+03  0.30877770241E+03  0.50400001928E-02 0.  1.
        1   -1    0    0  501    0  0.00000000000E+00  0.00000000000E+00 -0.98113561966E+03  0.98113561967E+03  0.50400001928E-02 0. -1.
    10030    2    1    2    0    0  0.00000000000E+00  0.00000000000E+00 -0.67235791729E+03  0.12899133221E+04  0.11008229692E+04 0.  0.
        1    1    3    3  502    0  0.25236166138E+03  0.21295941705E+03 -0.85217740066E+03  0.91391708796E+03  0.50400001928E-02 0. -1.
       -1    1    3    3    0  502 -0.25236166138E+03 -0.21295941705E+03  0.17981948337E+03  0.37599623411E+03  0.50400001928E-02 0.  1.
</event>
<event>
 5   0  0.1574101E-04  0.1099955E+04  0.7818609E-02  0.9205236E-01
       -2   -1    0    0    0  501  0.00000000000E+00  0.00000000000E+00  0.34449421298E+03  0.34449421299E+03  0.25500000920E-02 0.  1.
        2   -1    0    0  501    0  0.00000000000E+00  0.00000000000E+00 -0.87802661693E+03  0.87802661694E+03  0.25500000920E-02 0. -1.
    10030    2    1    2    0    0  0.00000000000E+00  0.00000000000E+00 -0.53353240395E+03  0.12225208299E+04  0.10999547052E+04 0.  0.
        4    1    3    3  502    0  0.22898947529E+03  0.14033005955E+03 -0.80018785863E+03  0.84405623474E+03  0.12699999809E+01 0. -1.
       -4    1    3    3    0  502 -0.22898947529E+03 -0.14033005955E+03  0.26665545468E+03  0.37846459519E+03  0.12699999809E+01 0.  1.
</event>
<event>
 5   0  0.1574101E-04  0.1099910E+04  0.7818609E-02  0.9205279E-01
       -2   -1    0    0    0  501  0.00000000000E+00  0.00000000000E+00  0.41600522642E+03  0.41600522643E+03  0.25500000920E-02 0. -1.
        2   -1    0    0  501    0  0.00000000000E+00  0.00000000000E+00 -0.72703563704E+03  0.72703563705E+03  0.25500000920E-02 0.  1.
    10030    2    1    2    0    0  0.00000000000E+00  0.00000000000E+00 -0.31103041062E+03  0.11430408635E+04  0.10999102233E+04 0.  0.
        4    1    3    3  502    0 -0.39502218837E+01 -0.54524588720E+03 -0.23002271105E+03  0.59179451016E+03  0.12699999809E+01 0. -1.
       -4    1    3    3    0  502  0.39502218837E+01  0.54524588720E+03 -0.81007699568E+02  0.55124635332E+03  0.12699999809E+01 0.  1.
</event>
<event>
 5   0  0.9346836E-05  0.1091796E+04  0.7818609E-02  0.9213225E-01
       -1   -1    0    0    0  501  0.00000000000E+00  0.00000000000E+00  0.76140233343E+03  0.76140233344E+03  0.50400001928E-02 0.  1.
        1   -1    0    0  501    0  0.00000000000E+00  0.00000000000E+00 -0.39138901096E+03  0.39138901100E+03  0.50400001928E-02 0. -1.
    10030    2    1    2    0    0  0.00000000000E+00  0.00000000000E+00  0.37001332246E+03  0.11527913444E+04  0.10917957799E+04 0.  0.
        5    1    3    3  502    0  0.77218653690E+02 -0.48147745346E+03 -0.74055809170E+02  0.49324396757E+03  0.46999998093E+01 0. -1.
       -5    1    3    3    0  502 -0.77218653690E+02  0.48147745346E+03  0.44406913163E+03  0.65954737687E+03  0.46999998093E+01 0.  1.
</event>
<event>
 5   0  0.8921459E-05  0.1099635E+04  0.7818609E-02  0.9205547E-01
        1   -1    0    0  501    0  0.00000000000E+00  0.00000000000E+00  0.14668789343E+04  0.14668789343E+04  0.50400001928E-02 0.  1.
       -1   -1    0    0    0  501  0.00000000000E+00  0.00000000000E+00 -0.20608347715E+03  0.20608347721E+03  0.50400001928E-02 0. -1.
    10030    2    1    2    0    0  0.00000000000E+00  0.00000000000E+00  0.12607954571E+04  0.16729624115E+04  0.10996354148E+04 0.  0.
        3    1    3    3  502    0  0.51017997558E+03  0.17746921513E+03  0.78644534122E+03  0.95408344222E+03  0.10100000352E+00 0. -1.
       -3    1    3    3    0  502 -0.51017997558E+03 -0.17746921513E+03  0.47435011590E+03  0.71887896927E+03  0.10100000352E+00 0.  1.
</event>
<event>
 5   0  0.8621738E-05  0.1099976E+04  0.7818609E-02  0.9205215E-01
       -1   -1    0    0    0  501  0.00000000000E+00  0.00000000000E+00  0.35353866059E+03  0.35353866062E+03  0.50400001928E-02 0. -1.
        1   -1    0    0  501    0  0.00000000000E+00  0.00000000000E+00 -0.85559715230E+03  0.85559715232E+03  0.50400001928E-02 0.  1.
    10030    2    1    2    0    0  0.00000000000E+00  0.00000000000E+00 -0.50205849172E+03  0.12091358129E+04  0.10999757657E+04 0.  0.
        2    1    3    3  502    0 -0.74677428180E+02  0.52329101021E+03 -0.84044549784E+02  0.53523236637E+03  0.25500000920E-02 0.  1.
       -2    1    3    3    0  502  0.74677428180E+02 -0.52329101021E+03 -0.41801394193E+03  0.67390344657E+03  0.25500000920E-02 0. -1.
</event>
<event>
 5   0  0.1574101E-04  0.1099756E+04  0.7818609E-02  0.9205429E-01
       -2   -1    0    0    0  501  0.00000000000E+00  0.00000000000E+00  0.38424072608E+03  0.38424072609E+03  0.25500000920E-02 0.  1.
        2   -1    0    0  501    0  0.00000000000E+00  0.00000000000E+00 -0.78691827702E+03  0.78691827703E+03  0.25500000920E-02 0. -1.
    10030    2    1    2    0    0  0.00000000000E+00  0.00000000000E+00 -0.40267755094E+03  0.11711590031E+04  0.10997564278E+04 0.  0.
        4    1    3    3  502    0  0.27577129429E+03  0.26936915506E+03  0.21623557963E+03  0.44200564165E+03  0.12699999809E+01 0.  1.
       -4    1    3    3    0  502 -0.27577129429E+03 -0.26936915506E+03 -0.61891313057E+03  0.72915336147E+03  0.12699999809E+01 0. -1.
</event>
<event>
 5   0  0.8921459E-05  0.1100131E+04  0.7818609E-02  0.9205064E-01
       -1   -1    0    0    0  501  0.00000000000E+00  0.00000000000E+00  0.67111248056E+03  0.67111248058E+03  0.50400001928E-02 0. -1.
        1   -1    0    0  501    0  0.00000000000E+00  0.00000000000E+00 -0.45085161192E+03  0.45085161194E+03  0.50400001928E-02 0.  1.
    10030    2    1    2    0    0  0.00000000000E+00  0.00000000000E+00  0.22026086865E+03  0.11219640925E+04  0.11001311625E+04 0.  0.
        3    1    3    3  502    0 -0.19096675437E+03 -0.28391394187E+02  0.63542303519E+03  0.66410602798E+03  0.10100000352E+00 0. -1.
       -3    1    3    3    0  502  0.19096675437E+03  0.28391394187E+02 -0.41516216655E+03  0.45785806455E+03  0.10100000352E+00 0.  1.
</event>
<event>
 5   0  0.1540772E-04  0.1099879E+04  0.7818609E-02  0.9205310E-01
        2   -1    0    0  501    0  0.00000000000E+00  0.00000000000E+00  0.93957553450E+03  0.93957553450E+03  0.25500000920E-02 0.  1.
       -2   -1    0    0    0  501  0.00000000000E+00  0.00000000000E+00 -0.32188318672E+03  0.32188318673E+03  0.25500000920E-02 0. -1.
    10030    2    1    2    0    0  0.00000000000E+00  0.00000000000E+00  0.61769234779E+03  0.12614587212E+04  0.10998792065E+04 0.  0.
        2    1    3    3  502    0  0.36290577211E+03  0.23588919689E+03  0.69793202710E+03  0.82125113522E+03  0.25500000920E-02 0. -1.
       -2    1    3    3    0  502 -0.36290577211E+03 -0.23588919689E+03 -0.80239679311E+02  0.44020758601E+03  0.25500000920E-02 0.  1.
</event>
<event>
 5   0  0.1574101E-04  0.1101389E+04  0.7818609E-02  0.9203839E-01
       -2   -1    0    0    0  501  0.00000000000E+00  0.00000000000E+00  0.83491328835E+03  0.83491328835E+03  0.25500000920E-02 0.  1.
        2   -1    0    0  501    0  0.00000000000E+00  0.00000000000E+00 -0.36322887559E+03  0.36322887560E+03  0.25500000920E-02 0. -1.
    10030    2    1    2    0    0  0.00000000000E+00  0.00000000000E+00  0.47168441276E+03  0.11981421640E+04  0.11013893316E+04 0.  0.
        4    1    3    3  502    0  0.37704155703E+02 -0.41349369747E+03  0.62937250986E+03  0.75399602802E+03  0.12699999809E+01 0.  1.
       -4    1    3    3    0  502 -0.37704155703E+02  0.41349369747E+03 -0.15768809710E+03  0.44414613594E+03  0.12699999809E+01 0. -1.
</event>
<event>
 5   0  0.9346836E-05  0.1101003E+04  0.7818609E-02  0.9204215E-01
       -1   -1    0    0    0  501  0.00000000000E+00  0.00000000000E+00  0.20027589615E+03  0.20027589621E+03  0.50400001928E-02 0. -1.
        1   -1    0    0  501    0  0.00000000000E+00  0.00000000000E+00 -0.15131721383E+04  0.15131721383E+04  0.50400001928E-02 0.  1.
    10030    2    1    2    0    0  0.00000000000E+00  0.00000000000E+00 -0.13128962421E+04  0.17134480345E+04  0.11010030083E+04 0.  0.
        5    1    3    3  502    0  0.14365355026E+02  0.36968429660E+03 -0.22079461953E+02  0.37065136614E+03  0.46999998093E+01 0. -1.
       -5    1    3    3    0  502 -0.14365355026E+02 -0.36968429660E+03 -0.12908167802E+04  0.13427966684E+04  0.46999998093E+01 0.  1.
</event>
<event>
 5   0  0.6010125E-05  0.1099858E+04  0.7818609E-02  0.9205331E-01
        4   -1    0    0  501    0  0.00000000000E+00  0.00000000000E+00  0.15305130780E+04  0.15305136049E+04  0.12699999809E+01 0.  1.
       -4   -1    0    0    0  501  0.00000000000E+00  0.00000000000E+00 -0.19759238817E+03  0.19759646951E+03  0.12699999809E+01 0. -1.
    10030    2    1    2    0    0  0.00000000000E+00  0.00000000000E+00  0.13329206898E+04  0.17281100744E+04  0.10998576562E+04 0.  0.
        4    1    3    3  502    0 -0.34834670565E+03  0.23741831301E+03  0.11160379212E+03  0.43608474177E+03  0.12699999809E+01 0. -1.
       -4    1    3    3    0  502  0.34834670565E+03 -0.23741831301E+03  0.12213168977E+04  0.12920253326E+04  0.12699999809E+01 0.  1.
</event>
<event>
 5   0  0.1540772E-04  0.1100673E+04  0.7818609E-02  0.9204536E-01
        2   -1    0    0  501    0  0.00000000000E+00  0.00000000000E+00  0.46256046724E+03  0.46256046725E+03  0.25500000920E-02 0. -1.
       -2   -1    0    0    0  501  0.00000000000E+00  0.00000000000E+00 -0.65476943407E+03  0.65476943407E+03  0.25500000920E-02 0.  1.
    10030    2    1    2    0    0  0.00000000000E+00  0.00000000000E+00 -0.19220896683E+03  0.11173299013E+04  0.11006733491E+04 0.  0.
        2    1    3    3  502    0  0.47764607973E+03 -0.27096624715E+03 -0.13273335922E+03  0.56496604255E+03  0.25500000920E-02 0.  1.
       -2    1    3    3    0  502 -0.47764607973E+03  0.27096624715E+03 -0.59475607601E+02  0.55236385877E+03  0.25500000920E-02 0. -1.
</event>
<event>
 5   0  0.1464205E-04  0.1098351E+04  0.7818609E-02  0.9206800E-01
        2   -1    0    0  501    0  0.00000000000E+00  0.00000000000E+00  0.95152211215E+03  0.95152211215E+03  0.25500000920E-02 0.  1.
       -2   -1    0    0    0  501  0.00000000000E+00  0.00000000000E+00 -0.31695933380E+03  0.31695933381E+03  0.25500000920E-02 0. -1.
    10030    2    1    2    0    0  0.00000000000E+00  0.00000000000E+00  0.63456277835E+03  0.12684814460E+04  0.10983511547E+04 0.  0.
        3    1    3    3  502    0 -0.19407972321E+03  0.49755111081E+03  0.46504382248E+03  0.70815945511E+03  0.10100000352E+00 0.  1.
       -3    1    3    3    0  502  0.19407972321E+03 -0.49755111081E+03  0.16951895588E+03  0.56032199085E+03  0.10100000352E+00 0. -1.
</event>
<event>
 5   0  0.1503277E-04  0.1098025E+04  0.7818609E-02  0.9207119E-01
        2   -1    0    0  501    0  0.00000000000E+00  0.00000000000E+00  0.45491403432E+03  0.45491403433E+03  0.25500000920E-02 0.  1.
       -2   -1    0    0    0  501  0.00000000000E+00  0.00000000000E+00 -0.66257496258E+03  0.66257496258E+03  0.25500000920E-02 0. -1.
    10030    2    1    2    0    0  0.00000000000E+00  0.00000000000E+00 -0.20766092825E+03  0.11174889969E+04  0.10980248618E+04 0.  0.
        5    1    3    3  502    0  0.78637815330E+02 -0.17447233128E+03 -0.62750791960E+03  0.65605851838E+03  0.46999998093E+01 0. -1.
       -5    1    3    3    0  502 -0.78637815330E+02  0.17447233128E+03  0.41984699134E+03  0.46143047853E+03  0.46999998093E+01 0.  1.
</event>
<event>
 5   0  0.8621738E-05  0.1099737E+04  0.7818609E-02  0.9205449E-01
        1   -1    0    0  501    0  0.00000000000E+00  0.00000000000E+00  0.19768191535E+04  0.19768191535E+04  0.50400001928E-02 0.  1.
       -1   -1    0    0    0  501  0.00000000000E+00  0.00000000000E+00 -0.15295034630E+03  0.15295034638E+03  0.50400001928E-02 0. -1.
    10030    2    1    2    0    0  0.00000000000E+00  0.00000000000E+00  0.18238688072E+04  0.21297694999E+04  0.10997366488E+04 0.  0.
        2    1    3    3  502    0 -0.50934851847E+03  0.20552809809E+03  0.86152792974E+03  0.10217182029E+04  0.25500000920E-02 0.  1.
       -2    1    3    3    0  502  0.50934851847E+03 -0.20552809809E+03  0.96234087746E+03  0.11080512970E+04  0.25500000920E-02 0. -1.
</event>
<event>
 5   0  0.1540772E-04  0.1100000E+04  0.7818609E-02  0.9205191E-01
       -2   -1    0    0    0  501  0.00000000000E+00  0.00000000000E+00  0.41493687190E+03  0.41493687191E+03  0.25500000920E-02 0. -1.
        2   -1    0    0  501    0  0.00000000000E+00  0.00000000000E+00 -0.72902719501E+03  0.72902719501E+03  0.25500000920E-02 0.  1.
    10030    2    1    2    0    0  0.00000000000E+00  0.00000000000E+00 -0.31409032311E+03  0.11439640669E+04  0.11000004797E+04 0.  0.
        2    1    3    3  502    0  0.47366559068E+03 -0.16790349282E+03 -0.38947156853E+03  0.63579774881E+03  0.25500000920E-02 0.  1.
       -2    1    3    3    0  502 -0.47366559068E+03  0.16790349282E+03  0.75381245424E+02  0.50816631811E+03  0.25500000920E-02 0. -1.
</event>
<event>
 5   0  0.6010125E-05  0.1100408E+04  0.7818609E-02  0.9204794E-01
       -4   -1    0    0    0  501  0.00000000000E+00  0.00000000000E+00  0.38056561457E+03  0.38056773364E+03  0.12699999809E+01 0. -1.
        4   -1    0    0  501    0  0.00000000000E+00  0.00000000000E+00 -0.79545463693E+03  0.79545565076E+03  0.12699999809E+01 0.  1.
    10030    2    1    2    0    0  0.00000000000E+00  0.00000000000E+00 -0.41488902237E+03  0.11760233844E+04  0.11004081514E+04 0.  0.
        5    1    3    3  502    0  0.53927095801E+03 -0.10753923021E+03 -0.18819033755E+03  0.58121901666E+03  0.46999998093E+01 0.  1.
       -5    1    3    3    0  502 -0.53927095801E+03  0.10753923021E+03 -0.22669868482E+03  0.59480436774E+03  0.46999998093E+01 0. -1.
</event>
<event>
 5   0  0.1503277E-04  0.1099879E+04  0.7818609E-02  0.9205309E-01
        2   -1    0    0  501    0  0.00000000000E+00  0.00000000000E+00  0.56636129442E+03  0.56636129442E+03  0.25500000920E-02 0. -1.
       -2   -1    0    0    0  501  0.00000000000E+00  0.00000000000E+00 -0.53399419517E+03  0.53399419517E+03  0.25500000920E-02 0.  1.
    10030    2    1    2    0    0  0.00000000000E+00  0.00000000000E+00  0.32367099252E+02  0.11003554896E+04  0.10998793454E+04 0.  0.
        5    1    3    3  502    0 -0.25990911126E+03  0.13786284299E+03  0.48098412214E+03  0.56384991384E+03  0.46999998093E+01 0. -1.
       -5    1    3    3    0  502  0.25990911126E+03 -0.13786284299E+03 -0.44861702288E+03  0.53650557575E+03  0.46999998093E+01 0.  1.
</event>
<event>
 5   0  0.9016738E-05  0.1101541E+04  0.7818609E-02  0.9203691E-01
       -1   -1    0    0    0  501  0.00000000000E+00  0.00000000000E+00  0.25917312992E+03  0.25917312997E+03  0.50400001928E-02 0.  1.
        1   -1    0    0  501    0  0.00000000000E+00  0.00000000000E+00 -0.11704462618E+04  0.11704462618E+04  0.50400001928E-02 0. -1.
    10030    2    1    2    0    0  0.00000000000E+00  0.00000000000E+00 -0.91127313184E+03  0.14296193917E+04  0.11015411406E+04 0.  0.
        4    1    3    3  502    0 -0.10636284671E+03 -0.14370977468E+03 -0.11317342849E+04  0.11457703343E+04  0.12699999809E+01 0. -1.
       -4    1    3    3    0  502  0.10636284671E+03  0.14370977468E+03  0.22046115304E+03  0.28384905743E+03  0.12699999809E+01 0.  1.
</event>
<event>
 5   0  0.8621738E-05  0.1099558E+04  0.7818609E-02  0.9205623E-01
       -1   -1    0    0    0  501  0.00000000000E+00  0.00000000000E+00  0.58284945443E+03  0.58284945445E+03  0.50400001928E-02 0. -1.
        1   -1    0    0  501    0  0.00000000000E+00  0.00000000000E+00 -0.51858481117E+03  0.51858481120E+03  0.50400001928E-02 0.  1.
    10030    2    1    2    0    0  0.00000000000E+00  0.00000000000E+00  0.64264643260E+02  0.11014342656E+04  0.10995578644E+04 0.  0.
        2    1    3    3  502    0  0.48578332269E+03  0.15000559223E+03 -0.17743693685E+03  0.53848953645E+03  0.25500000920E-02 0.  1.
       -2    1    3    3    0  502 -0.48578332269E+03 -0.15000559223E+03  0.24170158011E+03  0.56294472920E+03  0.25500000920E-02 0. -1.
</event>
<event>
 5   0  0.8657442E-05  0.1099888E+04  0.7818609E-02  0.9205301E-01
       -1   -1    0    0    0  501  0.00000000000E+00  0.00000000000E+00  0.47254775960E+03  0.47254775963E+03  0.50400001928E-02 0.  1.
        1   -1    0    0  501    0  0.00000000000E+00  0.00000000000E+00 -0.64001653071E+03  0.64001653073E+03  0.50400001928E-02 0. -1.
    10030    2    1    2    0    0  0.00000000000E+00  0.00000000000E+00 -0.16746877111E+03  0.11125642904E+04  0.10998879538E+04 0.  0.
        1    1    3    3  502    0 -0.32149268585E+03 -0.37681542493E+03  0.15795655246E+03  0.51990160993E+03  0.50400001928E-02 0.  1.
       -1    1    3    3    0  502  0.32149268585E+03  0.37681542493E+03 -0.32542532356E+03  0.59266268042E+03  0.50400001928E-02 0. -1.
</event>
<event>
 5   0  0.1503277E-04  0.1099639E+04  0.7818609E-02  0.9205544E-01
        2   -1    0    0  501    0  0.00000000000E+00  0.00000000000E+00  0.12831562401E+04  0.12831562401E+04  0.25500000920E-02 0.  1.
       -2   -1    0    0    0  501  0.00000000000E+00  0.00000000000E+00 -0.23559199244E+03  0.23559199245E+03  0.25500000920E-02 0. -1.
    10030    2    1    2    0    0  0.00000000000E+00  0.00000000000E+00  0.10475642476E+04  0.15187482325E+04  0.10996387320E+04 0.  0.
        5    1    3    3  502    0 -0.20690144533E+03  0.25048822530E+03  0.11363685866E+04  0.11819087163E+04  0.46999998093E+01 0.  1.
       -5    1    3    3    0  502  0.20690144533E+03 -0.25048822530E+03 -0.88804338926E+02  0.33683951625E+03  0.46999998093E+01 0. -1.
</event>
<event>
 5   0  0.9346836E-05  0.1100242E+04  0.7818609E-02  0.9204956E-01
       -1   -1    0    0    0  501  0.00000000000E+00  0.00000000000E+00  0.23360790857E+03  0.23360790862E+03  0.50400001928E-02 0.  1.
        1   -1    0    0  501    0  0.00000000000E+00  0.00000000000E+00 -0.12954752502E+04  0.12954752502E+04  0.50400001928E-02 0. -1.
    10030    2    1    2    0    0  0.00000000000E+00  0.00000000000E+00 -0.10618673416E+04  0.15290831588E+04  0.11002422712E+04 0.  0.
        5    1    3    3  502    0 -0.28224373366E+03  0.45376432384E+03 -0.34947645746E+03  0.63852914663E+03  0.46999998093E+01 0. -1.
       -5    1    3    3    0  502  0.28224373366E+03 -0.45376432384E+03 -0.71239088414E+03  0.89055401217E+03  0.46999998093E+01 0.  1.
</event>
<event>
 5   0  0.8921459E-05  0.1099960E+04  0.7818609E-02  0.9205231E-01
       -1   -1    0    0    0  501  0.00000000000E+00  0.00000000000E+00  0.18707499559E+03  0.18707499566E+03  0.50400001928E-02 0.  1.
        1   -1    0    0  501    0  0.00000000000E+00  0.00000000000E+00 -0.16168797254E+04  0.16168797254E+04  0.50400001928E-02 0. -1.
    10030    2    1    2    0    0  0.00000000000E+00  0.00000000000E+00 -0.14298047298E+04  0.18039547210E+04  0.10999595766E+04 0.  0.
        3    1    3    3  502    0  0.43547584008E+03 -0.16248426911E+02 -0.16464103248E+03  0.46584321230E+03  0.10100000352E+00 0.  1.
       -3    1    3    3    0  502 -0.43547584008E+03  0.16248426911E+02 -0.12651636973E+04  0.13381115087E+04  0.10100000352E+00 0. -1.
</event>
<event>
 5   0  0.1553937E-04  0.1099598E+04  0.7818609E-02  0.9205584E-01
       -2   -1    0    0    0  501  0.00000000000E+00  0.00000000000E+00  0.79254566649E+03  0.79254566650E+03  0.25500000920E-02 0. -1.
        2   -1    0    0  501    0  0.00000000000E+00  0.00000000000E+00 -0.38140246448E+03  0.38140246449E+03  0.25500000920E-02 0.  1.
    10030    2    1    2    0    0  0.00000000000E+00  0.00000000000E+00  0.41114320201E+03  0.11739481310E+04  0.10995978727E+04 0.  0.
        1    1    3    3  502    0 -0.31057623276E+03  0.44887980048E+03  0.27580903165E+03  0.61157280318E+03  0.50400001928E-02 0. -1.
       -1    1    3    3    0  502  0.31057623276E+03 -0.44887980048E+03  0.13533417037E+03  0.56237532781E+03  0.50400001928E-02 0.  1.
</event>
<event>
 5   0  0.8657442E-05  0.1100952E+04  0.7818609E-02  0.9204264E-01
       -1   -1    0    0    0  501  0.00000000000E+00  0.00000000000E+00  0.30490157544E+03  0.30490157548E+03  0.50400001928E-02 0.  1.
        1   -1    0    0  501    0  0.00000000000E+00  0.00000000000E+00 -0.99384218321E+03  0.99384218322E+03  0.50400001928E-02 0. -1.
    10030    2    1    2    0    0  0.00000000000E+00  0.00000000000E+00 -0.68894060777E+03  0.12987437587E+04  0.11009524012E+04 0.  0.
        1    1    3    3  502    0 -0.36646566399E+03  0.39008280226E+03 -0.19265477509E+03  0.56883876265E+03  0.50400001928E-02 0. -1.
       -1    1    3    3    0  502  0.36646566399E+03 -0.39008280226E+03 -0.49628583268E+03  0.72990499605E+03  0.50400001928E-02 0.  1.
</event>
<event>
 5   0  0.1464205E-04  0.1100956E+04  0.7818609E-02  0.9204260E-01
        2   -1    0    0  501    0  0.00000000000E+00  0.00000000000E+00  0.10865840287E+04  0.10865840287E+04  0.25500000920E-02 0. -1.
       -2   -1    0    0    0  501  0.00000000000E+00  0.00000000000E+00 -0.27887976573E+03  0.27887976574E+03  0.25500000920E-02 0.  1.
    10030    2    1    2    0    0  0.00000000000E+00  0.00000000000E+00  0.80770426299E+03  0.13654637945E+04  0.11009564921E+04 0.  0.
        3    1    3    3  502    0 -0.18302863637E+03 -0.24974380750E+03 -0.16063958427E+03  0.34882164117E+03  0.10100000352E+00 0.  1.
       -3    1    3    3    0  502  0.18302863637E+03  0.24974380750E+03  0.96834384726E+03  0.10166421533E+04  0.10100000352E+00 0. -1.
</event>
<event>
 5   0  0.8657442E-05  0.1099986E+04  0.7818609E-02  0.9205205E-01
        1   -1    0    0  501    0  0.00000000000E+00  0.00000000000E+00  0.66522437636E+03  0.66522437638E+03  0.50400001928E-02 0. -1.
       -1   -1    0    0    0  501  0.00000000000E+00  0.00000000000E+00 -0.45472253369E+03  0.45472253372E+03  0.50400001928E-02 0.  1.
    10030    2    1    2    0    0  0.00000000000E+00  0.00000000000E+00  0.21050184267E+03  0.11199469101E+04  0.10999863889E+04 0.  0.
        1    1    3    3  502    0  0.94323462416E+02 -0.53038285788E+03 -0.76193045655E+01  0.53875870789E+03  0.50400001928E-02 0.  1.
       -1    1    3    3    0  502 -0.94323462416E+02  0.53038285788E+03  0.21812114723E+03  0.58118820222E+03  0.50400001928E-02 0. -1.
</event>
<event>
 5   0  0.9016738E-05  0.1098720E+04  0.7818609E-02  0.9206440E-01
       -1   -1    0    0    0  501  0.00000000000E+00  0.00000000000E+00  0.50447273145E+03  0.50447273148E+03  0.50400001928E-02 0. -1.
        1   -1    0    0  501    0  0.00000000000E+00  0.00000000000E+00 -0.59824135785E+03  0.59824135787E+03  0.50400001928E-02 0.  1.
    10030    2    1    2    0    0  0.00000000000E+00  0.00000000000E+00 -0.93768626399E+02  0.11027140893E+04  0.10987200770E+04 0.  0.
        4    1    3    3  502    0  0.74582756104E+02  0.50538870673E+03 -0.24964471279E+03  0.56859865276E+03  0.12699999809E+01 0.  1.
       -4    1    3    3    0  502 -0.74582756104E+02 -0.50538870673E+03  0.15587608639E+03  0.53411543659E+03  0.12699999809E+01 0. -1.
</event>
<event>
 5   0  0.1553937E-04  0.1099740E+04  0.7818609E-02  0.9205445E-01
        2   -1    0    0  501    0  0.00000000000E+00  0.00000000000E+00  0.60967128500E+03  0.60967128501E+03  0.25500000920E-02 0. -1.
       -2   -1    0    0    0  501  0.00000000000E+00  0.00000000000E+00 -0.49593474962E+03  0.49593474962E+03  0.25500000920E-02 0.  1.
    10030    2    1    2    0    0  0.00000000000E+00  0.00000000000E+00  0.11373653538E+03  0.11056060346E+04  0.10997402895E+04 0.  0.
        1    1    3    3  502    0 -0.69692911919E+02 -0.29040581662E+03  0.52102829918E+03  0.60055235315E+03  0.50400001928E-02 0. -1.
       -1    1    3    3    0  502  0.69692911919E+02  0.29040581662E+03 -0.40729176380E+03  0.50505368148E+03  0.50400001928E-02 0.  1.
</event>
<event>
 5   0  0.8657442E-05  0.1100217E+04  0.7818609E-02  0.9204981E-01
        1   -1    0    0  501    0  0.00000000000E+00  0.00000000000E+00  0.47319256077E+03  0.47319256080E+03  0.50400001928E-02 0.  1.
       -1   -1    0    0    0  501  0.00000000000E+00  0.00000000000E+00 -0.63952639232E+03  0.63952639234E+03  0.50400001928E-02 0. -1.
    10030    2    1    2    0    0  0.00000000000E+00  0.00000000000E+00 -0.16633383155E+03  0.11127189531E+04  0.11002165810E+04 0.  0.
        1    1    3    3  502    0 -0.68155903122E+02  0.14688842650E+03  0.44854269170E+03  0.47687732518E+03  0.50400001928E-02 0.  1.
       -1    1    3    3    0  502  0.68155903122E+02 -0.14688842650E+03 -0.61487652325E+03  0.63584162796E+03  0.50400001928E-02 0. -1.
</event>
<event>
 5   0  0.8657442E-05  0.1099955E+04  0.7818609E-02  0.9205235E-01
        1   -1    0    0  501    0  0.00000000000E+00  0.00000000000E+00  0.73420538608E+03  0.73420538610E+03  0.50400001928E-02 0.  1.
       -1   -1    0    0    0  501  0.00000000000E+00  0.00000000000E+00 -0.41197654036E+03  0.41197654039E+03  0.50400001928E-02 0. -1.
    10030    2    1    2    0    0  0.00000000000E+00  0.00000000000E+00  0.32222884573E+03  0.11461819265E+04  0.10999552625E+04 0.  0.
        1    1    3    3  502    0 -0.10881129920E+03 -0.65126183479E+02  0.71876293729E+03  0.72986401381E+03  0.50400001928E-02 0.  1.
       -1    1    3    3    0  502  0.10881129920E+03  0.65126183479E+02 -0.39653409157E+03  0.41631791267E+03  0.50400001928E-02 0. -1.
</event>
<event>
 5   0  0.1464205E-04  0.1100415E+04  0.7818609E-02  0.9204788E-01
        2   -1    0    0  501    0  0.00000000000E+00  0.00000000000E+00  0.88815697826E+03  0.88815697826E+03  0.25500000920E-02 0. -1.
       -2   -1    0    0    0  501  0.00000000000E+00  0.00000000000E+00 -0.34084978991E+03  0.34084978992E+03  0.25500000920E-02 0.  1.
    10030    2    1    2    0    0  0.00000000000E+00  0.00000000000E+00  0.54730718835E+03  0.12290067682E+04  0.11004146845E+04 0.  0.
        3    1    3    3  502    0 -0.46939219815E+02  0.32985856075E+03  0.76267684778E+03  0.83227756475E+03  0.10100000352E+00 0. -1.
       -3    1    3    3    0  502  0.46939219815E+02 -0.32985856075E+03 -0.21536965943E+03  0.39672920343E+03  0.10100000352E+00 0.  1.
</event>
<event>
 5   0  0.1503277E-04  0.1100078E+04  0.7818609E-02  0.9205116E-01
        2   -1    0    0  501    0  0.00000000000E+00  0.00000000000E+00  0.25508042453E+04  0.25508042453E+04  0.25500000920E-02 0.  1.
       -2   -1    0    0    0  501  0.00000000000E+00  0.00000000000E+00 -0.11860689957E+03  0.11860689960E+03  0.25500000920E-02 0. -1.
    10030    2    1    2    0    0  0.00000000000E+00  0.00000000000E+00  0.24321973457E+04  0.26694111449E+04  0.11000781481E+04 0.  0.
        5    1    3    3  502    0 -0.46865446820E+03 -0.21024547252E+03  0.16933412991E+04  0.17695386445E+04  0.46999998093E+01 0.  1.
       -5    1    3    3    0  502  0.46865446820E+03  0.21024547252E+03  0.73885604667E+03  0.89987250040E+03  0.46999998093E+01 0. -1.
</event>
<event>
 5   0  0.1540772E-04  0.1100084E+04  0.7818609E-02  0.9205110E-01
        2   -1    0    0  501    0  0.00000000000E+00  0.00000000000E+00  0.91281419342E+03  0.91281419342E+03  0.25500000920E-02 0.  1.
       -2   -1    0    0    0  501  0.00000000000E+00  0.00000000000E+00 -0.33144331675E+03  0.33144331676E+03  0.25500000920E-02 0. -1.
    10030    2    1    2    0    0  0.00000000000E+00  0.00000000000E+00  0.58137087667E+03  0.12442575102E+04  0.11000839311E+04 0.  0.
        2    1    3    3  502    0 -0.28802880542E+03 -0.17908625231E+03  0.78046531156E+03  0.85097507664E+03  0.25500000920E-02 0.  1.
       -2    1    3    3    0  502  0.28802880542E+03  0.17908625231E+03 -0.19909443489E+03  0.39328243353E+03  0.25500000920E-02 0. -1.
</event>
<event>
 5   0  0.1540772E-04  0.1100188E+04  0.7818609E-02  0.9205008E-01
       -2   -1    0    0    0  501  0.00000000000E+00  0.00000000000E+00  0.13573743886E+04  0.13573743886E+04  0.25500000920E-02 0. -1.
        2   -1    0    0  501    0  0.00000000000E+00  0.00000000000E+00 -0.22293298761E+03  0.22293298762E+03  0.25500000920E-02 0.  1.
    10030    2    1    2    0    0  0.00000000000E+00  0.00000000000E+00  0.11344414010E+04  0.15803073762E+04  0.11001882162E+04 0.  0.
        2    1    3    3  502    0 -0.19399796217E+03  0.35340184344E+03  0.29625231313E+02  0.40423474196E+03  0.25500000920E-02 0.  1.
       -2    1    3    3    0  502  0.19399796217E+03 -0.35340184344E+03  0.11048161696E+04  0.11760726342E+04  0.25500000920E-02 0. -1.
</event>
<event>
 5   0  0.1464205E-04  0.1099797E+04  0.7818609E-02  0.9205390E-01
       -2   -1    0    0    0  501  0.00000000000E+00  0.00000000000E+00  0.23068010786E+03  0.23068010787E+03  0.25500000920E-02 0. -1.
        2   -1    0    0  501    0  0.00000000000E+00  0.00000000000E+00 -0.13108552793E+04  0.13108552793E+04  0.25500000920E-02 0.  1.
    10030    2    1    2    0    0  0.00000000000E+00  0.00000000000E+00 -0.10801751715E+04  0.15415353872E+04  0.10997967762E+04 0.  0.
        3    1    3    3  502    0  0.50495398516E+03 -0.12696912446E+03 -0.78802023151E+03  0.94449752840E+03  0.10100000352E+00 0. -1.
       -3    1    3    3    0  502 -0.50495398516E+03  0.12696912446E+03 -0.29215493997E+03  0.59703785881E+03  0.10100000352E+00 0.  1.
</event>
<event>
 5   0  0.8621738E-05  0.1100407E+04  0.7818609E-02  0.9204796E-01
        1   -1    0    0  501    0  0.00000000000E+00  0.00000000000E+00  0.17000537111E+03  0.17000537118E+03  0.50400001928E-02 0.  1.
       -1   -1    0    0    0  501  0.00000000000E+00  0.00000000000E+00 -0.17806716228E+04  0.17806716228E+04  0.50400001928E-02 0. -1.
    10030    2    1    2    0    0  0.00000000000E+00  0.00000000000E+00 -0.16106662517E+04  0.19506769940E+04  0.11004067251E+04 0.  0.
        2    1    3    3  502    0  0.96389008393E+02 -0.44426795331E+03 -0.25591763986E+03  0.52168831085E+03  0.25500000920E-02 0.  1.
       -2    1    3    3    0  502 -0.96389008393E+02  0.44426795331E+03 -0.13547486118E+04  0.14289886832E+04  0.25500000920E-02 0. -1.
</event>
<event>
 5   0  0.1553937E-04  0.1100389E+04  0.7818609E-02  0.9204813E-01
       -2   -1    0    0    0  501  0.00000000000E+00  0.00000000000E+00  0.38140169320E+03  0.38140169321E+03  0.25500000920E-02 0. -1.
        2   -1    0    0  501    0  0.00000000000E+00  0.00000000000E+00 -0.79368816916E+03  0.79368816916E+03  0.25500000920E-02 0.  1.
    10030    2    1    2    0    0  0.00000000000E+00  0.00000000000E+00 -0.41228647596E+03  0.11750898624E+04  0.11003890432E+04 0.  0.
        1    1    3    3  502    0 -0.45858497294E+03  0.36432290035E+02 -0.52843698745E+03  0.70062339306E+03  0.50400001928E-02 0.  1.
       -1    1    3    3    0  502  0.45858497294E+03 -0.36432290035E+02  0.11615051150E+03  0.47446646932E+03  0.50400001928E-02 0. -1.
</event>
<event>
 5   0  0.8657442E-05  0.1099903E+04  0.7818609E-02  0.9205286E-01
       -1   -1    0    0    0  501  0.00000000000E+00  0.00000000000E+00  0.24083984324E+03  0.24083984329E+03  0.50400001928E-02 0. -1.
        1   -1    0    0  501    0  0.00000000000E+00  0.00000000000E+00 -0.12558005489E+04  0.12558005489E+04  0.50400001928E-02 0.  1.
    10030    2    1    2    0    0  0.00000000000E+00  0.00000000000E+00 -0.10149607057E+04  0.14966403922E+04  0.10999032819E+04 0.  0.
        1    1    3    3  502    0 -0.34526198629E+03 -0.31429657683E+03 -0.11203636207E+03  0.48014614841E+03  0.50400001928E-02 0. -1.
       -1    1    3    3    0  502  0.34526198629E+03  0.31429657683E+03 -0.90292434358E+03  0.10164942438E+04  0.50400001928E-02 0.  1.
</event>
<event>
 5   0  0.8921459E-05  0.1099774E+04  0.7818609E-02  0.9205412E-01
        1   -1    0    0  501    0  0.00000000000E+00  0.00000000000E+00  0.51306373844E+03  0.51306373847E+03  0.50400001928E-02 0. -1.
       -1   -1    0    0    0  501  0.00000000000E+00  0.00000000000E+00 -0.58935310015E+03  0.58935310017E+03  0.50400001928E-02 0.  1.
    10030    2    1    2    0    0  0.00000000000E+00  0.00000000000E+00 -0.76289361710E+02  0.11024168386E+04  0.10997739856E+04 0.  0.
        3    1    3    3  502    0  0.97305779983E+02  0.49965103878E+03 -0.24662553262E+03  0.56563569451E+03  0.10100000352E+00 0.  1.
       -3    1    3    3    0  502 -0.97305779983E+02 -0.49965103878E+03  0.17033617091E+03  0.53678114413E+03  0.10100000352E+00 0. -1.
</event>
<event>
 5   0  0.9016738E-05  0.1100050E+04  0.7818609E-02  0.9205143E-01
       -1   -1    0    0    0  501  0.00000000000E+00  0.00000000000E+00  0.29287120557E+03  0.29287120561E+03  0.50400001928E-02 0.  1.
        1   -1    0    0  501    0  0.00000000000E+00  0.00000000000E+00 -0.10329712816E+04  0.10329712816E+04  0.50400001928E-02 0. -1.
    10030    2    1    2    0    0  0.00000000000E+00  0.00000000000E+00 -0.74010007603E+03  0.13258424872E+04  0.11000500799E+04 0.  0.
        4    1    3    3  502    0 -0.28006864142E+03  0.23690539508E+03  0.12390418458E+03  0.38719048281E+03  0.12699999809E+01 0.  1.
       -4    1    3    3    0  502  0.28006864142E+03 -0.23690539508E+03 -0.86400426061E+03  0.93865200441E+03  0.12699999809E+01 0. -1.
</event>
<event>
 5   0  0.1574101E-04  0.1101092E+04  0.7818609E-02  0.9204128E-01
        2   -1    0    0  501    0  0.00000000000E+00  0.00000000000E+00  0.35369433778E+03  0.35369433779E+03  0.25500000920E-02 0.  1.
       -2   -1    0    0    0  501  0.00000000000E+00  0.00000000000E+00 -0.85695789034E+03  0.85695789034E+03  0.25500000920E-02 0. -1.
    10030    2    1    2    0    0  0.00000000000E+00  0.00000000000E+00 -0.50326355256E+03  0.12106522281E+04  0.11010924639E+04 0.  0.
        4    1    3    3  502    0  0.37722729062E+03  0.39401498323E+03 -0.33355238173E+03  0.63938019993E+03  0.12699999809E+01 0. -1.
       -4    1    3    3    0  502 -0.37722729062E+03 -0.39401498323E+03 -0.16971117083E+03  0.57127202820E+03  0.12699999809E+01 0.  1.
</event>
<event>
 5   0  0.8921459E-05  0.1096589E+04  0.7818609E-02  0.9208523E-01
       -1   -1    0    0    0  501  0.00000000000E+00  0.00000000000E+00  0.36230622717E+03  0.36230622721E+03  0.50400001928E-02 0.  1.
        1   -1    0    0  501    0  0.00000000000E+00  0.00000000000E+00 -0.82975906091E+03  0.82975906093E+03  0.50400001928E-02 0. -1.
    10030    2    1    2    0    0  0.00000000000E+00  0.00000000000E+00 -0.46745283374E+03  0.11920652881E+04  0.10965890294E+04 0.  0.
        3    1    3    3  502    0  0.53116321277E+03 -0.27404471445E+02 -0.37852066998E+03  0.65281181934E+03  0.10100000352E+00 0. -1.
       -3    1    3    3    0  502 -0.53116321277E+03  0.27404471445E+02 -0.88932163757E+02  0.53925346880E+03  0.10100000352E+00 0.  1.
</event>
<event>
 5   0  0.1503277E-04  0.1095627E+04  0.7818609E-02  0.9209464E-01
       -2   -1    0    0    0  501  0.00000000000E+00  0.00000000000E+00  0.53945592562E+03  0.53945592562E+03  0.25500000920E-02 0.  1.
        2   -1    0    0  501    0  0.00000000000E+00  0.00000000000E+00 -0.55630066146E+03  0.55630066147E+03  0.25500000920E-02 0. -1.
    10030    2    1    2    0    0  0.00000000000E+00  0.00000000000E+00 -0.16844735843E+02  0.10957565871E+04  0.10956271049E+04 0.  0.
        5    1    3    3  502    0 -0.43689904300E+03  0.23775026254E+02 -0.33805436042E+03  0.55294562684E+03  0.46999998093E+01 0. -1.
       -5    1    3    3    0  502  0.43689904300E+03 -0.23775026254E+02  0.32120962457E+03  0.54281096025E+03  0.46999998093E+01 0.  1.
</event>
<event>
 5   0  0.8921459E-05  0.1100115E+04  0.7818609E-02  0.9205080E-01
        1   -1    0    0  501    0  0.00000000000E+00  0.00000000000E+00  0.56976233713E+03  0.56976233715E+03  0.50400001928E-02 0.  1.
       -1   -1    0    0    0  501  0.00000000000E+00  0.00000000000E+00 -0.53103421937E+03  0.53103421939E+03  0.50400001928E-02 0. -1.
    10030    2    1    2    0    0  0.00000000000E+00  0.00000000000E+00  0.38728117759E+02  0.11007965565E+04  0.11001150812E+04 0.  0.
        3    1    3    3  502    0 -0.13237553578E+02 -0.40379628060E+03  0.39287349465E+03  0.56353905104E+03  0.10100000352E+00 0.  1.
       -3    1    3    3    0  502  0.13237553578E+02  0.40379628060E+03 -0.35414537689E+03  0.53725750551E+03  0.10100000352E+00 0. -1.
</event>
<event>
 5   0  0.1553937E-04  0.1100036E+04  0.7818609E-02  0.9205157E-01
        2   -1    0    0  501    0  0.00000000000E+00  0.00000000000E+00  0.53264249559E+03  0.53264249560E+03  0.25500000920E-02 0. -1.
       -2   -1    0    0    0  501  0.00000000000E+00  0.00000000000E+00 -0.56796056286E+03  0.56796056287E+03  0.25500000920E-02 0.  1.
    10030    2    1    2    0    0  0.00000000000E+00  0.00000000000E+00 -0.35318067271E+02  0.11006030585E+04  0.11000362387E+04 0.  0.
        1    1    3    3  502    0 -0.31264984100E+03  0.30108108094E+03 -0.35564990300E+03  0.56114756874E+03  0.50400001928E-02 0.  1.
       -1    1    3    3    0  502  0.31264984100E+03 -0.30108108094E+03  0.32033183573E+03  0.53945548972E+03  0.50400001928E-02 0. -1.
</event>
<event>
 5   0  0.8921459E-05  0.1099657E+04  0.7818609E-02  0.9205527E-01
        1   -1    0    0  501    0  0.00000000000E+00  0.00000000000E+00  0.84890326761E+03  0.84890326762E+03  0.50400001928E-02 0. -1.
       -1   -1    0    0    0  501  0.00000000000E+00  0.00000000000E+00 -0.35611972741E+03  0.35611972744E+03  0.50400001928E-02 0.  1.
    10030    2    1    2    0    0  0.00000000000E+00  0.00000000000E+00  0.49278354020E+03  0.12050229951E+04  0.10996566742E+04 0.  0.
        3    1    3    3  502    0  0.46244224958E+03  0.10330041209E+03 -0.59235986884E+02  0.47752771823E+03  0.10100000352E+00 0.  1.
       -3    1    3    3    0  502 -0.46244224958E+03 -0.10330041209E+03  0.55201952709E+03  0.72749527684E+03  0.10100000352E+00 0. -1.
</event>
<event>
 5   0  0.1503277E-04  0.1100156E+04  0.7818609E-02  0.9205040E-01
        2   -1    0    0  501    0  0.00000000000E+00  0.00000000000E+00  0.11615610659E+04  0.11615610660E+04  0.25500000920E-02 0. -1.
       -2   -1    0    0    0  501  0.00000000000E+00  0.00000000000E+00 -0.26049938856E+03  0.26049938857E+03  0.25500000920E-02 0.  1.
    10030    2    1    2    0    0  0.00000000000E+00  0.00000000000E+00  0.90106167739E+03  0.14220604545E+04  0.11001562570E+04 0.  0.
        5    1    3    3  502    0  0.53412747349E+02 -0.49408249343E+03  0.75530307662E+03  0.90414338434E+03  0.46999998093E+01 0. -1.
       -5    1    3    3    0  502 -0.53412747349E+02  0.49408249343E+03  0.14575860077E+03  0.51791707019E+03  0.46999998093E+01 0.  1.
</event>
<event>
 5   0  0.1464205E-04  0.1100147E+04  0.7818609E-02  0.9205048E-01
       -2   -1    0    0    0  501  0.00000000000E+00  0.00000000000E+00  0.23254923092E+03  0.23254923093E+03  0.25500000920E-02 0. -1.
        2   -1    0    0  501    0  0.00000000000E+00  0.00000000000E+00 -0.13011478511E+04  0.13011478511E+04  0.25500000920E-02 0.  1.
    10030    2    1    2    0    0  0.00000000000E+00  0.00000000000E+00 -0.10685986202E+04  0.15336970820E+04  0.11001471394E+04 0.  0.
        3    1    3    3  502    0  0.11915247500E+03  0.16684275309E+03 -0.12458927631E+04  0.12626490422E+04  0.10100000352E+00 0.  1.
       -3    1    3    3    0  502 -0.11915247500E+03 -0.16684275309E+03  0.17729414291E+03  0.27104803979E+03  0.10100000352E+00 0. -1.
</event>
<event>
 5   0  0.6010125E-05  0.1098969E+04  0.7818609E-02  0.9206197E-01
       -3   -1    0    0    0  501  0.00000000000E+00  0.00000000000E+00  0.12949812379E+04  0.12949812419E+04  0.10100000352E+00 0. -1.
        3   -1    0    0  501    0  0.00000000000E+00  0.00000000000E+00 -0.23315647298E+03  0.23315649486E+03  0.10100000352E+00 0.  1.
    10030    2    1    2    0    0  0.00000000000E+00  0.00000000000E+00  0.10618247650E+04  0.15281377367E+04  0.10989691128E+04 0.  0.
        3    1    3    3  502    0  0.82879961526E+02  0.35487913438E+03 -0.40935994145E+02  0.36672067553E+03  0.10100000352E+00 0.  1.
       -3    1    3    3    0  502 -0.82879961526E+02 -0.35487913438E+03  0.11027607591E+04  0.11614170612E+04  0.10100000352E+00 0. -1.
</event>
<event>
 5   0  0.1464205E-04  0.1100595E+04  0.7818609E-02  0.9204612E-01
        2   -1    0    0  501    0  0.00000000000E+00  0.00000000000E+00  0.42724712471E+03  0.42724712471E+03  0.25500000920E-02 0.  1.
       -2   -1    0    0    0  501  0.00000000000E+00  0.00000000000E+00 -0.70878692525E+03  0.70878692526E+03  0.25500000920E-02 0. -1.
    10030    2    1    2    0    0  0.00000000000E+00  0.00000000000E+00 -0.28153980055E+03  0.11360340500E+04  0.11005947044E+04 0.  0.
        3    1    3    3  502    0 -0.70015584004E+02  0.43531954722E+03 -0.48064737855E+03  0.65224780790E+03  0.10100000352E+00 0. -1.
       -3    1    3    3    0  502  0.70015584004E+02 -0.43531954722E+03  0.19910757801E+03  0.48378624207E+03  0.10100000352E+00 0.  1.
</event>
<event>
 5   0  0.9016738E-05  0.1099848E+04  0.7818609E-02  0.9205340E-01
       -1   -1    0    0    0  501  0.00000000000E+00  0.00000000000E+00  0.35808769382E+03  0.35808769386E+03  0.50400001928E-02 0.  1.
        1   -1    0    0  501    0  0.00000000000E+00  0.00000000000E+00 -0.84453137200E+03  0.84453137202E+03  0.50400001928E-02 0. -1.
    10030    2    1    2    0    0  0.00000000000E+00  0.00000000000E+00 -0.48644367818E+03  0.12026190659E+04  0.10998477920E+04 0.  0.
        4    1    3    3  502    0  0.31875333854E+02  0.13569222988E+03  0.33845017939E+03  0.36603081153E+03  0.12699999809E+01 0.  1.
       -4    1    3    3    0  502 -0.31875333854E+02 -0.13569222988E+03 -0.82489385757E+03  0.83658825435E+03  0.12699999809E+01 0. -1.
</event>
<event>
 5   0  0.9016738E-05  0.1100348E+04  0.7818609E-02  0.9204853E-01
        1   -1    0    0  501    0  0.00000000000E+00  0.00000000000E+00  0.66367409783E+03  0.66367409785E+03  0.50400001928E-02 0.  1.
       -1   -1    0    0    0  501  0.00000000000E+00  0.00000000000E+00 -0.45608423394E+03  0.45608423397E+03  0.50400001928E-02 0. -1.
    10030    2    1    2    0    0  0.00000000000E+00  0.00000000000E+00  0.20758986390E+03  0.11197583318E+04  0.11003477496E+04 0.  0.
        4    1    3    3  502    0  0.28162243944E+03  0.43649343592E+03  0.28824337618E+03  0.59407371160E+03  0.12699999809E+01 0.  1.
       -4    1    3    3    0  502 -0.28162243944E+03 -0.43649343592E+03 -0.80653512287E+02  0.52568462022E+03  0.12699999809E+01 0. -1.
</event>
<event>
 5   0  0.8657442E-05  0.1099830E+04  0.7818609E-02  0.9205358E-01
        1   -1    0    0  501    0  0.00000000000E+00  0.00000000000E+00  0.38155210154E+03  0.38155210157E+03  0.50400001928E-02 0. -1.
       -1   -1    0    0    0  501  0.00000000000E+00  0.00000000000E+00 -0.79256930134E+03  0.79256930135E+03  0.50400001928E-02 0.  1.
    10030    2    1    2    0    0  0.00000000000E+00  0.00000000000E+00 -0.41101719980E+03  0.11741214029E+04  0.10998299552E+04 0.  0.
        1    1    3    3  502    0  0.43490929728E+03  0.29192975318E+03 -0.26754353508E+02  0.52448534118E+03  0.50400001928E-02 0. -1.
       -1    1    3    3    0  502 -0.43490929728E+03 -0.29192975318E+03 -0.38426284629E+03  0.64963606174E+03  0.50400001928E-02 0.  1.
</event>
<event>
 5   0  0.9346836E-05  0.1100416E+04  0.7818609E-02  0.9204787E-01
        1   -1    0    0  501    0  0.00000000000E+00  0.00000000000E+00  0.53504524343E+03  0.53504524345E+03  0.50400001928E-02 0. -1.
       -1   -1    0    0    0  501  0.00000000000E+00  0.00000000000E+00 -0.56580040860E+03  0.56580040862E+03  0.50400001928E-02 0.  1.
    10030    2    1    2    0    0  0.00000000000E+00  0.00000000000E+00 -0.30755165169E+02  0.11008456521E+04  0.11004159529E+04 0.  0.
        5    1    3    3  502    0  0.81610894899E+02 -0.43818051325E+03 -0.33806241165E+03  0.55943791839E+03  0.46999998093E+01 0.  1.
       -5    1    3    3    0  502 -0.81610894899E+02  0.43818051325E+03  0.30730724648E+03  0.54140773369E+03  0.46999998093E+01 0. -1.
</event>
<event>
 5   0  0.8921459E-05  0.1099899E+04  0.7818609E-02  0.9205290E-01
        1   -1    0    0  501    0  0.00000000000E+00  0.00000000000E+00  0.20129931329E+03  0.20129931335E+03  0.50400001928E-02 0.  1.
       -1   -1    0    0    0  501  0.00000000000E+00  0.00000000000E+00 -0.15024614997E+04  0.15024614997E+04  0.50400001928E-02 0. -1.
    10030    2    1    2    0    0  0.00000000000E+00  0.00000000000E+00 -0.13011621864E+04  0.17037608130E+04  0.10998990284E+04 0.  0.
        3    1    3    3  502    0  0.26273971217E+03  0.48249771296E+03 -0.68878431120E+03  0.88105620531E+03  0.10100000352E+00 0.  1.
       -3    1    3    3    0  502 -0.26273971217E+03 -0.48249771296E+03 -0.61237787518E+03  0.82270460772E+03  0.10100000352E+00 0. -1.
</event>
<event>
 5   0  0.8621738E-05  0.1099782E+04  0.7818609E-02  0.9205404E-01
        1   -1    0    0  501    0  0.00000000000E+00  0.00000000000E+00  0.11282156007E+04  0.11282156007E+04  0.50400001928E-02 0.  1.
       -1   -1    0    0    0  501  0.00000000000E+00  0.00000000000E+00 -0.26801631799E+03  0.26801631804E+03  0.50400001928E-02 0. -1.
    10030    2    1    2    0    0  0.00000000000E+00  0.00000000000E+00  0.86019928268E+03  0.13962319187E+04  0.10997821443E+04 0.  0.
        2    1    3    3  502    0  0.33867391723E+03 -0.82187039518E+02 -0.10990903771E+03  0.36542403897E+03  0.25500000920E-02 0. -1.
       -2    1    3    3    0  502 -0.33867391723E+03  0.82187039518E+02  0.97010832039E+03  0.10308078798E+04  0.25500000920E-02 0.  1.
</event>
<event>
 5   0  0.8621738E-05  0.1099953E+04  0.7818609E-02  0.9205238E-01
        1   -1    0    0  501    0  0.00000000000E+00  0.00000000000E+00  0.12065133303E+04  0.12065133303E+04  0.50400001928E-02 0.  1.
       -1   -1    0    0    0  501  0.00000000000E+00  0.00000000000E+00 -0.25070083687E+03  0.25070083692E+03  0.50400001928E-02 0. -1.
    10030    2    1    2    0    0  0.00000000000E+00  0.00000000000E+00  0.95581249345E+03  0.14572141673E+04  0.10999525474E+04 0.  0.
        2    1    3    3  502    0  0.54473147099E+03 -0.75377558475E+02  0.46766582597E+03  0.72189021090E+03  0.25500000920E-02 0.  1.
       -2    1    3    3    0  502 -0.54473147099E+03  0.75377558475E+02  0.48814666748E+03  0.73532395635E+03  0.25500000920E-02 0. -1.
</event>
<event>
 5   0  0.1540772E-04  0.1099987E+04  0.7818609E-02  0.9205204E-01
       -2   -1    0    0    0  501  0.00000000000E+00  0.00000000000E+00  0.16809734541E+03  0.16809734543E+03  0.25500000920E-02 0. -1.
        2   -1    0    0  501    0  0.00000000000E+00  0.00000000000E+00 -0.17995108994E+04  0.17995108994E+04  0.25500000920E-02 0.  1.
    10030    2    1    2    0    0  0.00000000000E+00  0.00000000000E+00 -0.16314135540E+04  0.19676082448E+04  0.10999872822E+04 0.  0.
        2    1    3    3  502    0 -0.14662313962E+03 -0.26367291498E+03 -0.16382839248E+04  0.16658319151E+04  0.25500000920E-02 0.  1.
       -2    1    3    3    0  502  0.14662313962E+03  0.26367291498E+03  0.68703708255E+01  0.30177632970E+03  0.25500000920E-02 0. -1.
</event>
<event>
 5   0  0.8921459E-05  0.1099754E+04  0.7818609E-02  0.9205432E-01
        1   -1    0    0  501    0  0.00000000000E+00  0.00000000000E+00  0.31242606612E+03  0.31242606616E+03  0.50400001928E-02 0. -1.
       -1   -1    0    0    0  501  0.00000000000E+00  0.00000000000E+00 -0.96779547086E+03  0.96779547087E+03  0.50400001928E-02 0.  1.
    10030    2    1    2    0    0  0.00000000000E+00  0.00000000000E+00 -0.65536940474E+03  0.12802215370E+04  0.10997536666E+04 0.  0.
        3    1    3    3  502    0 -0.44514481553E+03  0.25517186087E+03 -0.55786419444E+03  0.75794396561E+03  0.10100000352E+00 0.  1.
       -3    1    3    3    0  502  0.44514481553E+03 -0.25517186087E+03 -0.97505210300E+02  0.52227757142E+03  0.10100000352E+00 0. -1.
</event>
<event>
 5   0  0.8657442E-05  0.1097474E+04  0.7818609E-02  0.9207657E-01
        1   -1    0    0  501    0  0.00000000000E+00  0.00000000000E+00  0.81906769433E+03  0.81906769435E+03  0.50400001928E-02 0.  1.
       -1   -1    0    0    0  501  0.00000000000E+00  0.00000000000E+00 -0.36762835091E+03  0.36762835094E+03  0.50400001928E-02 0. -1.
    10030    2    1    2    0    0  0.00000000000E+00  0.00000000000E+00  0.45143934343E+03  0.11866960453E+04  0.10974743838E+04 0.  0.
        1    1    3    3  502    0 -0.22777551939E+03 -0.33757713578E+02 -0.31286106207E+03  0.38846275838E+03  0.50400001928E-02 0. -1.
       -1    1    3    3    0  502  0.22777551939E+03  0.33757713578E+02  0.76430040550E+03  0.79823328691E+03  0.50400001928E-02 0.  1.
</event>
<event>
 5   0  0.1540772E-04  0.1092265E+04  0.7818609E-02  0.9212764E-01
       -2   -1    0    0    0  501  0.00000000000E+00  0.00000000000E+00  0.29237749527E+03  0.29237749528E+03  0.25500000920E-02 0.  1.
        2   -1    0    0  501    0  0.00000000000E+00  0.00000000000E+00 -0.10201220197E+04  0.10201220197E+04  0.25500000920E-02 0. -1.
    10030    2    1    2    0    0  0.00000000000E+00  0.00000000000E+00 -0.72774452442E+03  0.13124995150E+04  0.10922650246E+04 0.  0.
        2    1    3    3  502    0 -0.52458681123E+03 -0.60686014068E+02 -0.53118230806E+03  0.74901853062E+03  0.25500000920E-02 0. -1.
       -2    1    3    3    0  502  0.52458681123E+03  0.60686014068E+02 -0.19656221637E+03  0.56348098435E+03  0.25500000920E-02 0.  1.
</event>
<event>
 5   0  0.8621738E-05  0.1098701E+04  0.7818609E-02  0.9206459E-01
       -1   -1    0    0    0  501  0.00000000000E+00  0.00000000000E+00  0.24692057569E+04  0.24692057569E+04  0.50400001928E-02 0.  1.
        1   -1    0    0  501    0  0.00000000000E+00  0.00000000000E+00 -0.12221989192E+03  0.12221989202E+03  0.50400001928E-02 0. -1.
    10030    2    1    2    0    0  0.00000000000E+00  0.00000000000E+00  0.23469858650E+04  0.25914256490E+04  0.10987011620E+04 0.  0.
        2    1    3    3  502    0  0.26669064295E+03 -0.48758317646E+02  0.46561076266E+02  0.27508036354E+03  0.25500000920E-02 0. -1.
       -2    1    3    3    0  502 -0.26669064295E+03  0.48758317646E+02  0.23004247887E+04  0.23163452854E+04  0.25500000920E-02 0.  1.
</event>
<event>
 5   0  0.8921459E-05  0.1100363E+04  0.7818609E-02  0.9204838E-01
        1   -1    0    0  501    0  0.00000000000E+00  0.00000000000E+00  0.16427221625E+04  0.16427221625E+04  0.50400001928E-02 0. -1.
       -1   -1    0    0    0  501  0.00000000000E+00  0.00000000000E+00 -0.18426724189E+03  0.18426724196E+03  0.50400001928E-02 0.  1.
    10030    2    1    2    0    0  0.00000000000E+00  0.00000000000E+00  0.14584549206E+04  0.18269894045E+04  0.11003633621E+04 0.  0.
        3    1    3    3  502    0 -0.33531272050E+03 -0.28778973574E+03  0.18499104845E+03  0.47903992603E+03  0.10100000352E+00 0.  1.
       -3    1    3    3    0  502  0.33531272050E+03  0.28778973574E+03  0.12734638722E+04  0.13479494784E+04  0.10100000352E+00 0. -1.
</event>
<event>
 5   0  0.1553937E-04  0.1099641E+04  0.7818609E-02  0.9205541E-01
       -2   -1    0    0    0  501  0.00000000000E+00  0.00000000000E+00  0.24979166197E+03  0.24979166199E+03  0.25500000920E-02 0. -1.
        2   -1    0    0  501    0  0.00000000000E+00  0.00000000000E+00 -0.12102197324E+04  0.12102197324E+04  0.25500000920E-02 0.  1.
    10030    2    1    2    0    0  0.00000000000E+00  0.00000000000E+00 -0.96042807040E+03  0.14600113944E+04  0.10996413930E+04 0.  0.
        1    1    3    3  502    0  0.92001612731E+02 -0.44070400369E+03 -0.61155078794E+02  0.45433936578E+03  0.50400001928E-02 0. -1.
       -1    1    3    3    0  502 -0.92001612731E+02  0.44070400369E+03 -0.89927299160E+03  0.10056720286E+04  0.50400001928E-02 0.  1.
</event>
<event>
 5   0  0.1540772E-04  0.1099893E+04  0.7818609E-02  0.9205296E-01
       -2   -1    0    0    0  501  0.00000000000E+00  0.00000000000E+00  0.61204904931E+03  0.61204904932E+03  0.25500000920E-02 0. -1.
        2   -1    0    0  501    0  0.00000000000E+00  0.00000000000E+00 -0.49414523196E+03  0.49414523197E+03  0.25500000920E-02 0.  1.
    10030    2    1    2    0    0  0.00000000000E+00  0.00000000000E+00  0.11790381735E+03  0.11061942813E+04  0.10998929392E+04 0.  0.
        2    1    3    3  502    0  0.49730701620E+02 -0.39420742117E+03 -0.32344802747E+03  0.51233900892E+03  0.25500000920E-02 0.  1.
       -2    1    3    3    0  502 -0.49730701620E+02  0.39420742117E+03  0.44135184481E+03  0.59385527236E+03  0.25500000920E-02 0. -1.
</event>
<event>
 5   0  0.1574101E-04  0.1096486E+04  0.7818609E-02  0.9208623E-01
       -2   -1    0    0    0  501  0.00000000000E+00  0.00000000000E+00  0.26048204165E+03  0.26048204166E+03  0.25500000920E-02 0.  1.
        2   -1    0    0  501    0  0.00000000000E+00  0.00000000000E+00 -0.11539010239E+04  0.11539010239E+04  0.25500000920E-02 0. -1.
    10030    2    1    2    0    0  0.00000000000E+00  0.00000000000E+00 -0.89341898226E+03  0.14143830656E+04  0.10964861961E+04 0.  0.
        4    1    3    3  502    0 -0.20720757227E+03  0.49035525725E+03 -0.61581063658E+03  0.81400713101E+03  0.12699999809E+01 0. -1.
       -4    1    3    3    0  502  0.20720757227E+03 -0.49035525725E+03 -0.27760834568E+03  0.60037593457E+03  0.12699999809E+01 0.  1.
</event>
<event>
 5   0  0.1503277E-04  0.1100791E+04  0.7818609E-02  0.9204421E-01
       -2   -1    0    0    0  501  0.00000000000E+00  0.00000000000E+00  0.14192995803E+03  0.14192995806E+03  0.25500000920E-02 0.  1.
        2   -1    0    0  501    0  0.00000000000E+00  0.00000000000E+00 -0.21343992360E+04  0.21343992360E+04  0.25500000920E-02 0. -1.
    10030    2    1    2    0    0  0.00000000000E+00  0.00000000000E+00 -0.19924692779E+04  0.22763291940E+04  0.11007909775E+04 0.  0.
        5    1    3    3  502    0  0.12992739698E+03 -0.20258869671E+03 -0.20197731896E+04  0.20340671415E+04  0.46999998093E+01 0. -1.
       -5    1    3    3    0  502 -0.12992739698E+03  0.20258869671E+03  0.27303911672E+02  0.24226205256E+03  0.46999998093E+01 0.  1.
</event>
<event>
 5   0  0.1574101E-04  0.1103363E+04  0.7818609E-02  0.9201920E-01
       -2   -1    0    0    0  501  0.00000000000E+00  0.00000000000E+00  0.18568427817E+03  0.18568427819E+03  0.25500000920E-02 0.  1.
        2   -1    0    0  501    0  0.00000000000E+00  0.00000000000E+00 -0.16390862921E+04  0.16390862921E+04  0.25500000920E-02 0. -1.
    10030    2    1    2    0    0  0.00000000000E+00  0.00000000000E+00 -0.14534020139E+04  0.18247705703E+04  0.11033631406E+04 0.  0.
        4    1    3    3  502    0  0.31212428212E+03  0.39733186582E+03 -0.36039904855E+03  0.62063134483E+03  0.12699999809E+01 0.  1.
       -4    1    3    3    0  502 -0.31212428212E+03 -0.39733186582E+03 -0.10930029654E+04  0.12041392255E+04  0.12699999809E+01 0. -1.
</event>
<event>
 5   0  0.1553937E-04  0.1096184E+04  0.7818609E-02  0.9208919E-01
       -2   -1    0    0    0  501  0.00000000000E+00  0.00000000000E+00  0.27720003822E+03  0.27720003823E+03  0.25500000920E-02 0.  1.
        2   -1    0    0  501    0  0.00000000000E+00  0.00000000000E+00 -0.10837120632E+04  0.10837120632E+04  0.25500000920E-02 0. -1.
    10030    2    1    2    0    0  0.00000000000E+00  0.00000000000E+00 -0.80651202496E+03  0.13609121014E+04  0.10961843373E+04 0.  0.
        1    1    3    3  502    0  0.50471956956E+03 -0.47194200552E+02 -0.66200034152E+03  0.83379469215E+03  0.50400001928E-02 0.  1.
       -1    1    3    3    0  502 -0.50471956956E+03  0.47194200552E+02 -0.14451168344E+03  0.52711740925E+03  0.50400001928E-02 0. -1.
</event>
<event>
 5   0  0.8621738E-05  0.1099908E+04  0.7818609E-02  0.9205282E-01
       -1   -1    0    0    0  501  0.00000000000E+00  0.00000000000E+00  0.45994581157E+03  0.45994581160E+03  0.50400001928E-02 0. -1.
        1   -1    0    0  501    0  0.00000000000E+00  0.00000000000E+00 -0.65757568868E+03  0.65757568870E+03  0.50400001928E-02 0.  1.
    10030    2    1    2    0    0  0.00000000000E+00  0.00000000000E+00 -0.19762987711E+03  0.11175215003E+04  0.10999076031E+04 0.  0.
        2    1    3    3  502    0 -0.37390356382E+03  0.56526470418E+02 -0.50452150436E+03  0.63050857668E+03  0.25500000920E-02 0.  1.
       -2    1    3    3    0  502  0.37390356382E+03 -0.56526470418E+02  0.30689162725E+03  0.48701292363E+03  0.25500000920E-02 0. -1.
</event>
<event>
 5   0  0.1540772E-04  0.1100366E+04  0.7818609E-02  0.9204835E-01
       -2   -1    0    0    0  501  0.00000000000E+00  0.00000000000E+00  0.37947313442E+03  0.37947313443E+03  0.25500000920E-02 0. -1.
        2   -1    0    0  501    0  0.00000000000E+00  0.00000000000E+00 -0.79768804104E+03  0.79768804105E+03  0.25500000920E-02 0.  1.
    10030    2    1    2    0    0  0.00000000000E+00  0.00000000000E+00 -0.41821490662E+03  0.11771611755E+04  0.11003657233E+04 0.  0.
        2    1    3    3  502    0  0.33758633934E+03  0.43437638899E+03 -0.20126088898E+03  0.58579290646E+03  0.25500000920E-02 0.  1.
       -2    1    3    3    0  502 -0.33758633934E+03 -0.43437638899E+03 -0.21695401764E+03  0.59136826902E+03  0.25500000920E-02 0. -1.
</event>
<event>
 5   0  0.1464205E-04  0.1098822E+04  0.7818609E-02  0.9206341E-01
       -2   -1    0    0    0  501  0.00000000000E+00  0.00000000000E+00  0.12720487292E+03  0.12720487294E+03  0.25500000920E-02 0.  1.
        2   -1    0    0  501    0  0.00000000000E+00  0.00000000000E+00 -0.23729636295E+04  0.23729636295E+04  0.25500000920E-02 0. -1.
    10030    2    1    2    0    0  0.00000000000E+00  0.00000000000E+00 -0.22457587566E+04  0.25001685025E+04  0.10988221639E+04 0.  0.
        3    1    3    3  502    0 -0.28380771281E+03  0.20962466689E+03 -0.20811179234E+04  0.21108152786E+04  0.10100000352E+00 0. -1.
       -3    1    3    3    0  502  0.28380771281E+03 -0.20962466689E+03 -0.16464083321E+03  0.38935322393E+03  0.10100000352E+00 0.  1.
</event>
<event>
 5   0  0.1503277E-04  0.1098719E+04  0.7818609E-02  0.9206441E-01
        2   -1    0    0  501    0  0.00000000000E+00  0.00000000000E+00  0.53635116780E+03  0.53635116781E+03  0.25500000920E-02 0. -1.
       -2   -1    0    0    0  501  0.00000000000E+00  0.00000000000E+00 -0.56268367412E+03  0.56268367413E+03  0.25500000920E-02 0.  1.
    10030    2    1    2    0    0  0.00000000000E+00  0.00000000000E+00 -0.26332506317E+02  0.10990348419E+04  0.10987193376E+04 0.  0.
        5    1    3    3  502    0  0.10826709680E+03 -0.11344060077E+03  0.51346704851E+03  0.53689946364E+03  0.46999998093E+01 0. -1.
       -5    1    3    3    0  502 -0.10826709680E+03  0.11344060077E+03 -0.53979955482E+03  0.56213537830E+03  0.46999998093E+01 0.  1.
</event>
<event>
 5   0  0.1553937E-04  0.1100539E+04  0.7818609E-02  0.9204667E-01
        2   -1    0    0  501    0  0.00000000000E+00  0.00000000000E+00  0.11377872901E+04  0.11377872901E+04  0.25500000920E-02 0.  1.
       -2   -1    0    0    0  501  0.00000000000E+00  0.00000000000E+00 -0.26612755566E+03  0.26612755568E+03  0.25500000920E-02 0. -1.
    10030    2    1    2    0    0  0.00000000000E+00  0.00000000000E+00  0.87165973445E+03  0.14039148458E+04  0.11005390505E+04 0.  0.
        1    1    3    3  502    0  0.11788465629E+03 -0.53733191709E+03  0.45266516521E+03  0.71241008775E+03  0.50400001928E-02 0.  1.
       -1    1    3    3    0  502 -0.11788465629E+03  0.53733191709E+03  0.41899456924E+03  0.69150475804E+03  0.50400001928E-02 0. -1.
</event>
<event>
 5   0  0.8657442E-05  0.1100064E+04  0.7818609E-02  0.9205130E-01
        1   -1    0    0  501    0  0.00000000000E+00  0.00000000000E+00  0.66792465058E+03  0.66792465060E+03  0.50400001928E-02 0. -1.
       -1   -1    0    0    0  501  0.00000000000E+00  0.00000000000E+00 -0.45294771025E+03  0.45294771027E+03  0.50400001928E-02 0.  1.
    10030    2    1    2    0    0  0.00000000000E+00  0.00000000000E+00  0.21497694033E+03  0.11208723609E+04  0.11000635275E+04 0.  0.
        1    1    3    3  502    0 -0.44703431753E+03 -0.18350224358E+03  0.37517884214E+03  0.61177767045E+03  0.50400001928E-02 0. -1.
       -1    1    3    3    0  502  0.44703431753E+03  0.18350224358E+03 -0.16020190181E+03  0.50909469042E+03  0.50400001928E-02 0.  1.
</event>
<event>
 5   0  0.1540772E-04  0.1099798E+04  0.7818609E-02  0.9205389E-01
       -2   -1    0    0    0  501  0.00000000000E+00  0.00000000000E+00  0.44068895541E+03  0.44068895542E+03  0.25500000920E-02 0. -1.
        2   -1    0    0  501    0  0.00000000000E+00  0.00000000000E+00 -0.68617256860E+03  0.68617256861E+03  0.25500000920E-02 0.  1.
    10030    2    1    2    0    0  0.00000000000E+00  0.00000000000E+00 -0.24548361319E+03  0.11268615240E+04  0.10997975677E+04 0.  0.
        2    1    3    3  502    0 -0.41729911048E+03  0.33481177934E+03 -0.25295654919E+03  0.59179767740E+03  0.25500000920E-02 0.  1.
       -2    1    3    3    0  502  0.41729911048E+03 -0.33481177934E+03  0.74729360037E+01  0.53506384663E+03  0.25500000920E-02 0. -1.
</event>
<event>
 5   0  0.8921459E-05  0.1099221E+04  0.7818609E-02  0.9205952E-01
       -1   -1    0    0    0  501  0.00000000000E+00  0.00000000000E+00  0.61704316245E+03  0.61704316247E+03  0.50400001928E-02 0.  1.
        1   -1    0    0  501    0  0.00000000000E+00  0.00000000000E+00 -0.48954671330E+03  0.48954671332E+03  0.50400001928E-02 0. -1.
    10030    2    1    2    0    0  0.00000000000E+00  0.00000000000E+00  0.12749644916E+03  0.11065898758E+04  0.10992205460E+04 0.  0.
        3    1    3    3  502    0 -0.82840368898E+01  0.35455037015E+02 -0.48833126092E+03  0.48968675243E+03  0.10100000352E+00 0. -1.
       -3    1    3    3    0  502  0.82840368898E+01 -0.35455037015E+02  0.61582771008E+03  0.61690312336E+03  0.10100000352E+00 0.  1.
</event>
<event>
 5   0  0.1503277E-04  0.1098140E+04  0.7818609E-02  0.9207007E-01
       -2   -1    0    0    0  501  0.00000000000E+00  0.00000000000E+00  0.23899937992E+03  0.23899937993E+03  0.25500000920E-02 0.  1.
        2   -1    0    0  501    0  0.00000000000E+00  0.00000000000E+00 -0.12614162561E+04  0.12614162561E+04  0.25500000920E-02 0. -1.
    10030    2    1    2    0    0  0.00000000000E+00  0.00000000000E+00 -0.10224168762E+04  0.15004156361E+04  0.10981397052E+04 0.  0.
        5    1    3    3  502    0  0.11641765660E+03  0.26294783711E+03 -0.11502644344E+04  0.11856749111E+04  0.46999998093E+01 0. -1.
       -5    1    3    3    0  502 -0.11641765660E+03 -0.26294783711E+03  0.12784755819E+03  0.31474072495E+03  0.46999998093E+01 0.  1.
</event>
<event>
 5   0  0.8621738E-05  0.1100622E+04  0.7818609E-02  0.9204586E-01
       -1   -1    0    0    0  501  0.00000000000E+00  0.00000000000E+00  0.32326307001E+03  0.32326307004E+03  0.50400001928E-02 0.  1.
        1   -1    0    0  501    0  0.00000000000E+00  0.00000000000E+00 -0.93682867940E+03  0.93682867941E+03  0.50400001928E-02 0. -1.
    10030    2    1    2    0    0  0.00000000000E+00  0.00000000000E+00 -0.61356560939E+03  0.12600917495E+04  0.11006218515E+04 0.  0.
        2    1    3    3  502    0 -0.14236878829E+03 -0.48603492357E+03 -0.55324907722E+03  0.75005557145E+03  0.25500000920E-02 0.  1.
       -2    1    3    3    0  502  0.14236878829E+03  0.48603492357E+03 -0.60316532171E+02  0.51003617800E+03  0.25500000920E-02 0. -1.
</event>
<event>
 5   0  0.1574101E-04  0.1100416E+04  0.7818609E-02  0.9204786E-01
        2   -1    0    0  501    0  0.00000000000E+00  0.00000000000E+00  0.10526467964E+04  0.10526467964E+04  0.25500000920E-02 0.  1.
       -2   -1    0    0    0  501  0.00000000000E+00  0.00000000000E+00 -0.28758837842E+03  0.28758837843E+03  0.25500000920E-02 0. -1.
    10030    2    1    2    0    0  0.00000000000E+00  0.00000000000E+00  0.76505841802E+03  0.13402351749E+04  0.11004162581E+04 0.  0.
        4    1    3    3  502    0 -0.58547215253E+02 -0.47868641745E+03  0.59928416980E+02  0.48596449533E+03  0.12699999809E+01 0. -1.
       -4    1    3    3    0  502  0.58547215253E+02  0.47868641745E+03  0.70513000104E+03  0.85427067955E+03  0.12699999809E+01 0.  1.
</event>
<event>
 5   0  0.8657442E-05  0.1104283E+04  0.7818609E-02  0.9201027E-01
        1   -1    0    0  501    0  0.00000000000E+00  0.00000000000E+00  0.44367419370E+03  0.44367419373E+03  0.50400001928E-02 0.  1.
       -1   -1    0    0    0  501  0.00000000000E+00  0.00000000000E+00 -0.68712643648E+03  0.68712643650E+03  0.50400001928E-02 0. -1.
    10030    2    1    2    0    0  0.00000000000E+00  0.00000000000E+00 -0.24345224278E+03  0.11308006302E+04  0.11042830574E+04 0.  0.
        1    1    3    3  502    0 -0.19278918291E+03 -0.27363489884E+03  0.32792716970E+03  0.46859359317E+03  0.50400001928E-02 0.  1.
       -1    1    3    3    0  502  0.19278918291E+03  0.27363489884E+03 -0.57137941248E+03  0.66220703706E+03  0.50400001928E-02 0. -1.
</event>
<event>
 5   0  0.1553937E-04  0.1100301E+04  0.7818609E-02  0.9204899E-01
        2   -1    0    0  501    0  0.00000000000E+00  0.00000000000E+00  0.67089215457E+03  0.67089215457E+03  0.25500000920E-02 0. -1.
       -2   -1    0    0    0  501  0.00000000000E+00  0.00000000000E+00 -0.45113855527E+03  0.45113855527E+03  0.25500000920E-02 0.  1.
    10030    2    1    2    0    0  0.00000000000E+00  0.00000000000E+00  0.21975359930E+03  0.11220307098E+04  0.11003005360E+04 0.  0.
        1    1    3    3  502    0  0.41252706334E+03 -0.37108616881E+02 -0.25936496196E+03  0.48869807750E+03  0.50400001928E-02 0.  1.
       -1    1    3    3    0  502 -0.41252706334E+03  0.37108616881E+02  0.47911856125E+03  0.63333263235E+03  0.50400001928E-02 0. -1.
</event>
<event>
 5   0  0.9016738E-05  0.1100523E+04  0.7818609E-02  0.9204682E-01
        1   -1    0    0  501    0  0.00000000000E+00  0.00000000000E+00  0.14934435646E+04  0.14934435646E+04  0.50400001928E-02 0. -1.
       -1   -1    0    0    0  501  0.00000000000E+00  0.00000000000E+00 -0.20274473051E+03  0.20274473057E+03  0.50400001928E-02 0.  1.
    10030    2    1    2    0    0  0.00000000000E+00  0.00000000000E+00  0.12906988341E+04  0.16961882952E+04  0.11005231721E+04 0.  0.
        4    1    3    3  502    0 -0.30307333376E+03  0.45536697724E+03  0.55321282810E+03  0.77798366029E+03  0.12699999809E+01 0. -1.
       -4    1    3    3    0  502  0.30307333376E+03 -0.45536697724E+03  0.73748600599E+03  0.91820463489E+03  0.12699999809E+01 0.  1.
</event>
<event>
 5   0  0.6010125E-05  0.1100359E+04  0.7818609E-02  0.9204842E-01
        3   -1    0    0  501    0  0.00000000000E+00  0.00000000000E+00  0.62316141251E+03  0.62316142070E+03  0.10100000352E+00 0.  1.
       -3   -1    0    0    0  501  0.00000000000E+00  0.00000000000E+00 -0.48574469132E+03  0.48574470182E+03  0.10100000352E+00 0. -1.
    10030    2    1    2    0    0  0.00000000000E+00  0.00000000000E+00  0.13741672119E+03  0.11089061225E+04  0.11003587748E+04 0.  0.
        2    1    3    3  502    0  0.52878229330E+03 -0.10126172211E+03  0.18286985115E+03  0.56860006379E+03  0.25500000920E-02 0.  1.
       -2    1    3    3    0  502 -0.52878229330E+03  0.10126172211E+03 -0.45453129956E+02  0.54030605873E+03  0.25500000920E-02 0. -1.
</event>
<event>
 5   0  0.1464205E-04  0.1100339E+04  0.7818609E-02  0.9204862E-01
       -2   -1    0    0    0  501  0.00000000000E+00  0.00000000000E+00  0.37319736763E+03  0.37319736764E+03  0.25500000920E-02 0.  1.
        2   -1    0    0  501    0  0.00000000000E+00  0.00000000000E+00 -0.81106221784E+03  0.81106221784E+03  0.25500000920E-02 0. -1.
    10030    2    1    2    0    0  0.00000000000E+00  0.00000000000E+00 -0.43786485021E+03  0.11842595855E+04  0.11003386473E+04 0.  0.
        3    1    3    3  502    0 -0.49791675701E+02 -0.17841163449E+03 -0.77649377957E+03  0.79828097948E+03  0.10100000352E+00 0. -1.
       -3    1    3    3    0  502  0.49791675701E+02  0.17841163449E+03  0.33862892936E+03  0.38597860600E+03  0.10100000352E+00 0.  1.
</event>
<event>
 5   0  0.8921459E-05  0.1100206E+04  0.7818609E-02  0.9204991E-01
        1   -1    0    0  501    0  0.00000000000E+00  0.00000000000E+00  0.10962780016E+04  0.10962780016E+04  0.50400001928E-02 0.  1.
       -1   -1    0    0    0  501  0.00000000000E+00  0.00000000000E+00 -0.27603718619E+03  0.27603718623E+03  0.50400001928E-02 0. -1.
    10030    2    1    2    0    0  0.00000000000E+00  0.00000000000E+00  0.82024081542E+03  0.13723151878E+04  0.11002063350E+04 0.  0.
        3    1    3    3  502    0  0.33582667033E+03 -0.15699808050E+03  0.91707111762E+03  0.98916499875E+03  0.10100000352E+00 0.  1.
       -3    1    3    3    0  502 -0.33582667033E+03  0.15699808050E+03 -0.96830302197E+02  0.38315018910E+03  0.10100000352E+00 0. -1.
</event>
<event>
 5   0  0.1553937E-04  0.1099643E+04  0.7818609E-02  0.9205540E-01
       -2   -1    0    0    0  501  0.00000000000E+00  0.00000000000E+00  0.81133349422E+03  0.81133349422E+03  0.25500000920E-02 0. -1.
        2   -1    0    0  501    0  0.00000000000E+00  0.00000000000E+00 -0.37260113810E+03  0.37260113810E+03  0.25500000920E-02 0.  1.
    10030    2    1    2    0    0  0.00000000000E+00  0.00000000000E+00  0.43873235612E+03  0.11839346323E+04  0.10996431845E+04 0.  0.
        1    1    3    3  502    0 -0.36296202487E+03  0.13804869301E+03  0.63843880259E+03  0.74726366017E+03  0.50400001928E-02 0. -1.
       -1    1    3    3    0  502  0.36296202487E+03 -0.13804869301E+03 -0.19970644647E+03  0.43667097215E+03  0.50400001928E-02 0.  1.
</event>
<event>
 5   0  0.9016738E-05  0.1100457E+04  0.7818609E-02  0.9204747E-01
       -1   -1    0    0    0  501  0.00000000000E+00  0.00000000000E+00  0.14822300924E+04  0.14822300924E+04  0.50400001928E-02 0.  1.
        1   -1    0    0  501    0  0.00000000000E+00  0.00000000000E+00 -0.20425388210E+03  0.20425388216E+03  0.50400001928E-02 0. -1.
    10030    2    1    2    0    0  0.00000000000E+00  0.00000000000E+00  0.12779762103E+04  0.16864839745E+04  0.11004567244E+04 0.  0.
        4    1    3    3  502    0 -0.29867369838E+03 -0.50270958516E+02 -0.65003447432E+02  0.30977444770E+03  0.12699999809E+01 0. -1.
       -4    1    3    3    0  502  0.29867369838E+03  0.50270958516E+02  0.13429796577E+04  0.13767095268E+04  0.12699999809E+01 0.  1.
</event>
<event>
 5   0  0.1464205E-04  0.1100075E+04  0.7818609E-02  0.9205119E-01
       -2   -1    0    0    0  501  0.00000000000E+00  0.00000000000E+00  0.40280048700E+03  0.40280048701E+03  0.25500000920E-02 0.  1.
        2   -1    0    0  501    0  0.00000000000E+00  0.00000000000E+00 -0.75109429056E+03  0.75109429056E+03  0.25500000920E-02 0. -1.
    10030    2    1    2    0    0  0.00000000000E+00  0.00000000000E+00 -0.34829380355E+03  0.11538947776E+04  0.11000748084E+04 0.  0.
        3    1    3    3  502    0  0.31756036896E+02 -0.54227300872E+03 -0.26482074115E+03  0.60431655365E+03  0.10100000352E+00 0. -1.
       -3    1    3    3    0  502 -0.31756036896E+02  0.54227300872E+03 -0.83473062400E+02  0.54957822393E+03  0.10100000352E+00 0.  1.
</event>
<event>
 5   0  0.9016738E-05  0.1099913E+04  0.7818609E-02  0.9205276E-01
        1   -1    0    0  501    0  0.00000000000E+00  0.00000000000E+00  0.20475032316E+04  0.20475032317E+04  0.50400001928E-02 0. -1.
       -1   -1    0    0    0  501  0.00000000000E+00  0.00000000000E+00 -0.14771761467E+03  0.14771761475E+03  0.50400001928E-02 0.  1.
    10030    2    1    2    0    0  0.00000000000E+00  0.00000000000E+00  0.18997856170E+04  0.21952208464E+04  0.10999132575E+04 0.  0.
        4    1    3    3  502    0  0.51141616208E+03 -0.13306718902E+03  0.12538683371E+04  0.13606765918E+04  0.12699999809E+01 0. -1.
       -4    1    3    3    0  502 -0.51141616208E+03  0.13306718902E+03  0.64591727984E+03  0.83454425462E+03  0.12699999809E+01 0.  1.
</event>
<event>
 5   0  0.9346836E-05  0.1099947E+04  0.7818609E-02  0.9205243E-01
       -1   -1    0    0    0  501  0.00000000000E+00  0.00000000000E+00  0.27941708933E+03  0.27941708937E+03  0.50400001928E-02 0.  1.
        1   -1    0    0  501    0  0.00000000000E+00  0.00000000000E+00 -0.10825073185E+04  0.10825073185E+04  0.50400001928E-02 0. -1.
    10030    2    1    2    0    0  0.00000000000E+00  0.00000000000E+00 -0.80309022920E+03  0.13619244079E+04  0.10999473518E+04 0.  0.
        5    1    3    3  502    0 -0.32207318260E+03  0.42307651967E+03 -0.57543705645E+03  0.78350160969E+03  0.46999998093E+01 0. -1.
       -5    1    3    3    0  502  0.32207318260E+03 -0.42307651967E+03 -0.22765317274E+03  0.57842279822E+03  0.46999998093E+01 0.  1.
</event>
<event>
 5   0  0.9016738E-05  0.1101569E+04  0.7818609E-02  0.9203664E-01
        1   -1    0    0  501    0  0.00000000000E+00  0.00000000000E+00  0.15736526544E+04  0.15736526544E+04  0.50400001928E-02 0. -1.
       -1   -1    0    0    0  501  0.00000000000E+00  0.00000000000E+00 -0.19277656383E+03  0.19277656389E+03  0.50400001928E-02 0.  1.
    10030    2    1    2    0    0  0.00000000000E+00  0.00000000000E+00  0.13808760906E+04  0.17664292183E+04  0.11015686115E+04 0.  0.
        4    1    3    3  502    0  0.17155200042E+03 -0.48813297556E+03  0.99324249377E+03  0.11199268525E+04  0.12699999809E+01 0. -1.
       -4    1    3    3    0  502 -0.17155200042E+03  0.48813297556E+03  0.38763359679E+03  0.64650236576E+03  0.12699999809E+01 0.  1.
</event>
<event>
 5   0  0.8921459E-05  0.1099999E+04  0.7818609E-02  0.9205193E-01
        1   -1    0    0  501    0  0.00000000000E+00  0.00000000000E+00  0.58592311639E+03  0.58592311641E+03  0.50400001928E-02 0. -1.
       -1   -1    0    0    0  501  0.00000000000E+00  0.00000000000E+00 -0.51627820603E+03  0.51627820605E+03  0.50400001928E-02 0.  1.
    10030    2    1    2    0    0  0.00000000000E+00  0.00000000000E+00  0.69644910360E+02  0.11022013225E+04  0.10999987917E+04 0.  0.
        3    1    3    3  502    0 -0.24917809728E+03 -0.40126295798E+02 -0.45482715080E+03  0.52016112031E+03  0.10100000352E+00 0.  1.
       -3    1    3    3    0  502  0.24917809728E+03  0.40126295798E+02  0.52447206116E+03  0.58204020215E+03  0.10100000352E+00 0. -1.
</event>
<event>
 5   0  0.1540772E-04  0.1100426E+04  0.7818609E-02  0.9204777E-01
        2   -1    0    0  501    0  0.00000000000E+00  0.00000000000E+00  0.32650982232E+03  0.32650982233E+03  0.25500000920E-02 0. -1.
       -2   -1    0    0    0  501  0.00000000000E+00  0.00000000000E+00 -0.92718295545E+03  0.92718295545E+03  0.25500000920E-02 0.  1.
    10030    2    1    2    0    0  0.00000000000E+00  0.00000000000E+00 -0.60067313313E+03  0.12536927778E+04  0.11004259940E+04 0.  0.
        2    1    3    3  502    0  0.33843486679E+03 -0.64052370583E+02  0.18848401495E+03  0.39264117096E+03  0.25500000920E-02 0. -1.
       -2    1    3    3    0  502 -0.33843486679E+03  0.64052370583E+02 -0.78915714808E+03  0.86105160682E+03  0.25500000920E-02 0.  1.
</event>
<event>
 5   0  0.1574101E-04  0.1100273E+04  0.7818609E-02  0.9204926E-01
        2   -1    0    0  501    0  0.00000000000E+00  0.00000000000E+00  0.18851900533E+04  0.18851900533E+04  0.25500000920E-02 0.  1.
       -2   -1    0    0    0  501  0.00000000000E+00  0.00000000000E+00 -0.16054095469E+03  0.16054095471E+03  0.25500000920E-02 0. -1.
    10030    2    1    2    0    0  0.00000000000E+00  0.00000000000E+00  0.17246490986E+04  0.20457310080E+04  0.11002730769E+04 0.  0.
        4    1    3    3  502    0 -0.53714427954E+02 -0.18588422967E+03 -0.95185468709E+02  0.21563875571E+03  0.12699999809E+01 0. -1.
       -4    1    3    3    0  502  0.53714427954E+02  0.18588422967E+03  0.18198345674E+04  0.18300922523E+04  0.12699999809E+01 0.  1.
</event>
<event>
 5   0  0.1464205E-04  0.1095945E+04  0.7818609E-02  0.9209153E-01
        2   -1    0    0  501    0  0.00000000000E+00  0.00000000000E+00  0.82473753556E+03  0.82473753557E+03  0.25500000920E-02 0. -1.
       -2   -1    0    0    0  501  0.00000000000E+00  0.00000000000E+00 -0.36408421140E+03  0.36408421141E+03  0.25500000920E-02 0.  1.
    10030    2    1    2    0    0  0.00000000000E+00  0.00000000000E+00  0.46065332416E+03  0.11888217470E+04  0.10959450995E+04 0.  0.
        3    1    3    3  502    0 -0.34146334350E+03 -0.20565424742E+03  0.63820117669E+03  0.75245706626E+03  0.10100000352E+00 0. -1.
       -3    1    3    3    0  502  0.34146334350E+03  0.20565424742E+03 -0.17754785253E+03  0.43636468071E+03  0.10100000352E+00 0.  1.
</event>
<event>
 5   0  0.1503277E-04  0.1099684E+04  0.7818609E-02  0.9205500E-01
        2   -1    0    0  501    0  0.00000000000E+00  0.00000000000E+00  0.98704075364E+03  0.98704075364E+03  0.25500000920E-02 0.  1.
       -2   -1    0    0    0  501  0.00000000000E+00  0.00000000000E+00 -0.30629547378E+03  0.30629547379E+03  0.25500000920E-02 0. -1.
    10030    2    1    2    0    0  0.00000000000E+00  0.00000000000E+00  0.68074527986E+03  0.12933362274E+04  0.10996838005E+04 0.  0.
        5    1    3    3  502    0  0.41387807556E+03  0.31843370754E+03  0.54274678577E+03  0.75318739434E+03  0.46999998093E+01 0.  1.
       -5    1    3    3    0  502 -0.41387807556E+03 -0.31843370754E+03  0.13799849409E+03  0.54014883310E+03  0.46999998093E+01 0. -1.
</event>
<event>
 5   0  0.8621738E-05  0.1102569E+04  0.7818609E-02  0.9202691E-01
       -1   -1    0    0    0  501  0.00000000000E+00  0.00000000000E+00  0.91083170553E+03  0.91083170554E+03  0.50400001928E-02 0. -1.
        1   -1    0    0  501    0  0.00000000000E+00  0.00000000000E+00 -0.33366735166E+03  0.33366735170E+03  0.50400001928E-02 0.  1.
    10030    2    1    2    0    0  0.00000000000E+00  0.00000000000E+00  0.57716435386E+03  0.12444990572E+04  0.11025693684E+04 0.  0.
        2    1    3    3  502    0 -0.24632059106E+03  0.44549923747E+03  0.52741223332E+03  0.73301232460E+03  0.25500000920E-02 0. -1.
       -2    1    3    3    0  502  0.24632059106E+03 -0.44549923747E+03  0.49752120545E+02  0.51148673264E+03  0.25500000920E-02 0.  1.
</event>
<event>
 5   0  0.9016738E-05  0.1100087E+04  0.7818609E-02  0.9205107E-01
       -1   -1    0    0    0  501  0.00000000000E+00  0.00000000000E+00  0.27833625381E+03  0.27833625386E+03  0.50400001928E-02 0. -1.
        1   -1    0    0  501    0  0.00000000000E+00  0.00000000000E+00 -0.10869871805E+04  0.10869871805E+04  0.50400001928E-02 0.  1.
    10030    2    1    2    0    0  0.00000000000E+00  0.00000000000E+00 -0.80865092668E+03  0.13653234344E+04  0.11000871598E+04 0.  0.
        4    1    3    3  502    0  0.12777235349E+03  0.27623634549E+03  0.16430377412E+03  0.34587517398E+03  0.12699999809E+01 0. -1.
       -4    1    3    3    0  502 -0.12777235349E+03 -0.27623634549E+03 -0.97295470080E+03  0.10194482604E+04  0.12699999809E+01 0.  1.
</event>
<event>
 5   0  0.1464205E-04  0.1100201E+04  0.7818609E-02  0.9204996E-01
       -2   -1    0    0    0  501  0.00000000000E+00  0.00000000000E+00  0.59374351285E+03  0.59374351286E+03  0.25500000920E-02 0.  1.
        2   -1    0    0  501    0  0.00000000000E+00  0.00000000000E+00 -0.50966511947E+03  0.50966511948E+03  0.25500000920E-02 0. -1.
    10030    2    1    2    0    0  0.00000000000E+00  0.00000000000E+00  0.84078393380E+02  0.11034086323E+04  0.11002006334E+04 0.  0.
        3    1    3    3  502    0  0.42012163382E+03 -0.27862487433E+03  0.26285461777E+03  0.56853018221E+03  0.10100000352E+00 0. -1.
       -3    1    3    3    0  502 -0.42012163382E+03  0.27862487433E+03 -0.17877622439E+03  0.53487845013E+03  0.10100000352E+00 0.  1.
</event>
<event>
 5   0  0.1553937E-04  0.1099767E+04  0.7818609E-02  0.9205419E-01
        2   -1    0    0  501    0  0.00000000000E+00  0.00000000000E+00  0.18605036251E+04  0.18605036251E+04  0.25500000920E-02 0. -1.
       -2   -1    0    0    0  501  0.00000000000E+00  0.00000000000E+00 -0.16252147888E+03  0.16252147890E+03  0.25500000920E-02 0.  1.
    10030    2    1    2    0    0  0.00000000000E+00  0.00000000000E+00  0.16979821462E+04  0.20230251040E+04  0.10997668855E+04 0.  0.
        1    1    3    3  502    0 -0.46999049519E+03 -0.27678038503E+03  0.97740572857E+03  0.11192946017E+04  0.50400001928E-02 0. -1.
       -1    1    3    3    0  502  0.46999049519E+03  0.27678038503E+03  0.72057641761E+03  0.90373050228E+03  0.50400001928E-02 0.  1.
</event>
<event>
 5   0  0.6010125E-05  0.1101273E+04  0.7818609E-02  0.9203952E-01
        3   -1    0    0  501    0  0.00000000000E+00  0.00000000000E+00  0.20152756425E+04  0.20152756451E+04  0.10100000352E+00 0. -1.
       -3   -1    0    0    0  501  0.00000000000E+00  0.00000000000E+00 -0.15045121212E+03  0.15045124602E+03  0.10100000352E+00 0.  1.
    10030    2    1    2    0    0  0.00000000000E+00  0.00000000000E+00  0.18648244304E+04  0.21657268911E+04  0.11012732679E+04 0.  0.
        2    1    3    3  502    0 -0.29201602068E+02  0.23758400488E+03 -0.42778267437E+02  0.24316429243E+03  0.25500000920E-02 0.  1.
       -2    1    3    3    0  502  0.29201602068E+02 -0.23758400488E+03  0.19076026979E+04  0.19225625987E+04  0.25500000920E-02 0. -1.
</event>
<event>
 5   0  0.1464205E-04  0.1100329E+04  0.7818609E-02  0.9204871E-01
       -2   -1    0    0    0  501  0.00000000000E+00  0.00000000000E+00  0.19875941756E+03  0.19875941758E+03  0.25500000920E-02 0.  1.
        2   -1    0    0  501    0  0.00000000000E+00  0.00000000000E+00 -0.15228511240E+04  0.15228511240E+04  0.25500000920E-02 0. -1.
    10030    2    1    2    0    0  0.00000000000E+00  0.00000000000E+00 -0.13240917064E+04  0.17216105415E+04  0.11003290462E+04 0.  0.
        3    1    3    3  502    0  0.15148102925E+03 -0.45547321754E+03 -0.10826923886E+04  0.11843247750E+04  0.10100000352E+00 0.  1.
       -3    1    3    3    0  502 -0.15148102925E+03  0.45547321754E+03 -0.24139931782E+03  0.53728576657E+03  0.10100000352E+00 0. -1.
</event>
<event>
 5   0  0.8921459E-05  0.1099663E+04  0.7818609E-02  0.9205520E-01
        1   -1    0    0  501    0  0.00000000000E+00  0.00000000000E+00  0.10911977465E+04  0.10911977465E+04  0.50400001928E-02 0. -1.
       -1   -1    0    0    0  501  0.00000000000E+00  0.00000000000E+00 -0.27704870932E+03  0.27704870936E+03  0.50400001928E-02 0.  1.
    10030    2    1    2    0    0  0.00000000000E+00  0.00000000000E+00  0.81414903720E+03  0.13682464559E+04  0.10996634527E+04 0.  0.
        3    1    3    3  502    0  0.37760280787E+03  0.19662652141E+02 -0.89601242258E+02  0.38858576044E+03  0.10100000352E+00 0.  1.
       -3    1    3    3    0  502 -0.37760280787E+03 -0.19662652141E+02  0.90375027945E+03  0.97966069545E+03  0.10100000352E+00 0. -1.
</event>
<event>
 5   0  0.6010125E-05  0.1099928E+04  0.7818609E-02  0.9205262E-01
        3   -1    0    0  501    0  0.00000000000E+00  0.00000000000E+00  0.94867932952E+03  0.94867933490E+03  0.10100000352E+00 0.  1.
       -3   -1    0    0    0  501  0.00000000000E+00  0.00000000000E+00 -0.31882252709E+03  0.31882254309E+03  0.10100000352E+00 0. -1.
    10030    2    1    2    0    0  0.00000000000E+00  0.00000000000E+00  0.62985680243E+03  0.12675018780E+04  0.10999279154E+04 0.  0.
        4    1    3    3  502    0 -0.31060924932E+03  0.28478462169E+03  0.72214734434E+03  0.83610931483E+03  0.12699999809E+01 0.  1.
       -4    1    3    3    0  502  0.31060924932E+03 -0.28478462169E+03 -0.92290541905E+02  0.43139256315E+03  0.12699999809E+01 0. -1.
</event>
<event>
 5   0  0.1540772E-04  0.1100014E+04  0.7818609E-02  0.9205178E-01
        2   -1    0    0  501    0  0.00000000000E+00  0.00000000000E+00  0.24253409267E+03  0.24253409269E+03  0.25500000920E-02 0. -1.
       -2   -1    0    0    0  501  0.00000000000E+00  0.00000000000E+00 -0.12472799205E+04  0.12472799205E+04  0.25500000920E-02 0.  1.
    10030    2    1    2    0    0  0.00000000000E+00  0.00000000000E+00 -0.10047458278E+04  0.14898140132E+04  0.11000143705E+04 0.  0.
        2    1    3    3  502    0  0.13775173378E+03  0.42479353602E+03 -0.93721025544E+03  0.10381657629E+04  0.25500000920E-02 0.  1.
       -2    1    3    3    0  502 -0.13775173378E+03 -0.42479353602E+03 -0.67535572360E+02  0.45164825024E+03  0.25500000920E-02 0. -1.
</event>
<event>
 5   0  0.8657442E-05  0.1101012E+04  0.7818609E-02  0.9204206E-01
       -1   -1    0    0    0  501  0.00000000000E+00  0.00000000000E+00  0.64330787416E+03  0.64330787418E+03  0.50400001928E-02 0.  1.
        1   -1    0    0  501    0  0.00000000000E+00  0.00000000000E+00 -0.47109122040E+03  0.47109122042E+03  0.50400001928E-02 0. -1.
    10030    2    1    2    0    0  0.00000000000E+00  0.00000000000E+00  0.17221665376E+03  0.11143990946E+04  0.11010117012E+04 0.  0.
        1    1    3    3  502    0  0.35251057206E+03  0.16025702646E+03  0.48215972394E+03  0.61840441246E+03  0.50400001928E-02 0.  1.
       -1    1    3    3    0  502 -0.35251057206E+03 -0.16025702646E+03 -0.30994307017E+03  0.49599468214E+03  0.50400001928E-02 0. -1.
</event>
<event>
 5   0  0.1464205E-04  0.1100264E+04  0.7818609E-02  0.9204935E-01
       -2   -1    0    0    0  501  0.00000000000E+00  0.00000000000E+00  0.17890679337E+03  0.17890679339E+03  0.25500000920E-02 0.  1.
        2   -1    0    0  501    0  0.00000000000E+00  0.00000000000E+00 -0.16916364710E+04  0.16916364710E+04  0.25500000920E-02 0. -1.
    10030    2    1    2    0    0  0.00000000000E+00  0.00000000000E+00 -0.15127296776E+04  0.18705432644E+04  0.11002640712E+04 0.  0.
        3    1    3    3  502    0  0.15690840549E+03  0.13731111976E+03  0.10912851924E+03  0.23533727974E+03  0.10100000352E+00 0.  1.
       -3    1    3    3    0  502 -0.15690840549E+03 -0.13731111976E+03 -0.16218581969E+04  0.16352059847E+04  0.10100000352E+00 0. -1.
</event>
<event>
 5   0  0.1540772E-04  0.1099823E+04  0.7818609E-02  0.9205364E-01
        2   -1    0    0  501    0  0.00000000000E+00  0.00000000000E+00  0.38914386878E+03  0.38914386879E+03  0.25500000920E-02 0. -1.
       -2   -1    0    0    0  501  0.00000000000E+00  0.00000000000E+00 -0.77709755189E+03  0.77709755190E+03  0.25500000920E-02 0.  1.
    10030    2    1    2    0    0  0.00000000000E+00  0.00000000000E+00 -0.38795368311E+03  0.11662414207E+04  0.10998231636E+04 0.  0.
        2    1    3    3  502    0 -0.36225926464E+03  0.27657959988E+03 -0.52025091400E+03  0.69165675259E+03  0.25500000920E-02 0.  1.
       -2    1    3    3    0  502  0.36225926464E+03 -0.27657959988E+03  0.13229723089E+03  0.47458466809E+03  0.25500000920E-02 0. -1.
</event>
<event>
 5   0  0.8657442E-05  0.1102240E+04  0.7818609E-02  0.9203011E-01
       -1   -1    0    0    0  501  0.00000000000E+00  0.00000000000E+00  0.13259676026E+03  0.13259676036E+03  0.50400001928E-02 0.  1.
        1   -1    0    0  501    0  0.00000000000E+00  0.00000000000E+00 -0.22906541514E+04  0.22906541514E+04  0.50400001928E-02 0. -1.
    10030    2    1    2    0    0  0.00000000000E+00  0.00000000000E+00 -0.21580573912E+04  0.24232509118E+04  0.11022401181E+04 0.  0.
        1    1    3    3  502    0 -0.17030486992E+03 -0.33299659774E+02  0.70968148118E+02  0.18748091672E+03  0.50400001928E-02 0.  1.
       -1    1    3    3    0  502  0.17030486992E+03  0.33299659774E+02 -0.22290255393E+04  0.22357699951E+04  0.50400001928E-02 0. -1.
</event>
<event>
 5   0  0.1503277E-04  0.1100176E+04  0.7818609E-02  0.9205020E-01
       -2   -1    0    0    0  501  0.00000000000E+00  0.00000000000E+00  0.59681256891E+03  0.59681256892E+03  0.25500000920E-02 0.  1.
        2   -1    0    0  501    0  0.00000000000E+00  0.00000000000E+00 -0.50702169550E+03  0.50702169551E+03  0.25500000920E-02 0. -1.
    10030    2    1    2    0    0  0.00000000000E+00  0.00000000000E+00  0.89790873409E+02  0.11038342644E+04  0.11001762051E+04 0.  0.
        5    1    3    3  502    0 -0.19244476952E+03  0.45298437679E+03 -0.20157353519E+03  0.53186823088E+03  0.46999998093E+01 0. -1.
       -5    1    3    3    0  502  0.19244476952E+03 -0.45298437679E+03  0.29136440860E+03  0.57196603354E+03  0.46999998093E+01 0.  1.
</event>
<event>
 5   0  0.1540772E-04  0.1099522E+04  0.7818609E-02  0.9205658E-01
        2   -1    0    0  501    0  0.00000000000E+00  0.00000000000E+00  0.50200450601E+03  0.50200450602E+03  0.25500000920E-02 0.  1.
       -2   -1    0    0    0  501  0.00000000000E+00  0.00000000000E+00 -0.60206019939E+03  0.60206019940E+03  0.25500000920E-02 0. -1.
    10030    2    1    2    0    0  0.00000000000E+00  0.00000000000E+00 -0.10005569338E+03  0.11040647054E+04  0.10995215923E+04 0.  0.
        2    1    3    3  502    0  0.28410563720E+02  0.39078431731E+03 -0.43726020576E+03  0.58712522543E+03  0.25500000920E-02 0. -1.
       -2    1    3    3    0  502 -0.28410563720E+02 -0.39078431731E+03  0.33720451238E+03  0.51693947998E+03  0.25500000920E-02 0.  1.
</event>
<event>
 5   0  0.1503277E-04  0.1100236E+04  0.7818609E-02  0.9204962E-01
        2   -1    0    0  501    0  0.00000000000E+00  0.00000000000E+00  0.76445690537E+03  0.76445690538E+03  0.25500000920E-02 0. -1.
       -2   -1    0    0    0  501  0.00000000000E+00  0.00000000000E+00 -0.39587546182E+03  0.39587546183E+03  0.25500000920E-02 0.  1.
    10030    2    1    2    0    0  0.00000000000E+00  0.00000000000E+00  0.36858144355E+03  0.11603323672E+04  0.11002358483E+04 0.  0.
        5    1    3    3  502    0  0.26850099684E+03 -0.32230938454E+02 -0.32091152337E+03  0.41968787751E+03  0.46999998093E+01 0.  1.
       -5    1    3    3    0  502 -0.26850099684E+03  0.32230938454E+02  0.68949296692E+03  0.74064448970E+03  0.46999998093E+01 0. -1.
</event>
<event>
 5   0  0.9016738E-05  0.1099527E+04  0.7818609E-02  0.9205653E-01
        1   -1    0    0  501    0  0.00000000000E+00  0.00000000000E+00  0.59322682521E+03  0.59322682523E+03  0.50400001928E-02 0. -1.
       -1   -1    0    0    0  501  0.00000000000E+00  0.00000000000E+00 -0.50948414714E+03  0.50948414716E+03  0.50400001928E-02 0.  1.
    10030    2    1    2    0    0  0.00000000000E+00  0.00000000000E+00  0.83742678070E+02  0.11027109724E+04  0.10995265583E+04 0.  0.
        4    1    3    3  502    0  0.33323278307E+02 -0.15339263941E+03 -0.48653057129E+03  0.51122730014E+03  0.12699999809E+01 0.  1.
       -4    1    3    3    0  502 -0.33323278307E+02  0.15339263941E+03  0.57027324936E+03  0.59148367225E+03  0.12699999809E+01 0. -1.
</event>
<event>
 5   0  0.1574101E-04  0.1099846E+04  0.7818609E-02  0.9205342E-01
       -2   -1    0    0    0  501  0.00000000000E+00  0.00000000000E+00  0.29879560603E+03  0.29879560604E+03  0.25500000920E-02 0.  1.
        2   -1    0    0  501    0  0.00000000000E+00  0.00000000000E+00 -0.10121142618E+04  0.10121142618E+04  0.25500000920E-02 0. -1.
    10030    2    1    2    0    0  0.00000000000E+00  0.00000000000E+00 -0.71331865573E+03  0.13109098678E+04  0.10998459787E+04 0.  0.
        4    1    3    3  502    0 -0.16736467771E+03 -0.36976870425E+02 -0.97946202682E+03  0.99434687066E+03  0.12699999809E+01 0. -1.
       -4    1    3    3    0  502  0.16736467771E+03  0.36976870425E+02  0.26614337110E+03  0.31656299716E+03  0.12699999809E+01 0.  1.
</event>
<event>
 5   0  0.1464205E-04  0.1101493E+04  0.7818609E-02  0.9203738E-01
        2   -1    0    0  501    0  0.00000000000E+00  0.00000000000E+00  0.84061787719E+03  0.84061787719E+03  0.25500000920E-02 0.  1.
       -2   -1    0    0    0  501  0.00000000000E+00  0.00000000000E+00 -0.36083175917E+03  0.36083175918E+03  0.25500000920E-02 0. -1.
    10030    2    1    2    0    0  0.00000000000E+00  0.00000000000E+00  0.47978611801E+03  0.12014496364E+04  0.11014928550E+04 0.  0.
        3    1    3    3  502    0 -0.42082070790E+03  0.33183427105E+03  0.37836877170E+03  0.65602361942E+03  0.10100000352E+00 0.  1.
       -3    1    3    3    0  502  0.42082070790E+03 -0.33183427105E+03  0.10141734632E+03  0.54542601696E+03  0.10100000352E+00 0. -1.
</event>
<event>
 5   0  0.1503277E-04  0.1100180E+04  0.7818609E-02  0.9205016E-01
        2   -1    0    0  501    0  0.00000000000E+00  0.00000000000E+00  0.28139945983E+04  0.28139945983E+04  0.25500000920E-02 0. -1.
       -2   -1    0    0    0  501  0.00000000000E+00  0.00000000000E+00 -0.10753366741E+03  0.10753366744E+03  0.25500000920E-02 0.  1.
    10030    2    1    2    0    0  0.00000000000E+00  0.00000000000E+00  0.27064609308E+04  0.29215282657E+04  0.11001802748E+04 0.  0.
        5    1    3    3  502    0 -0.18749169457E+03  0.50223987169E+03  0.10260642405E+04  0.11576821412E+04  0.46999998093E+01 0.  1.
       -5    1    3    3    0  502  0.18749169457E+03 -0.50223987169E+03  0.16803966903E+04  0.17638461245E+04  0.46999998093E+01 0. -1.
</event>
<event>
 5   0  0.1464205E-04  0.1099606E+04  0.7818609E-02  0.9205576E-01
       -2   -1    0    0    0  501  0.00000000000E+00  0.00000000000E+00  0.24721657540E+03  0.24721657541E+03  0.25500000920E-02 0. -1.
        2   -1    0    0  501    0  0.00000000000E+00  0.00000000000E+00 -0.12227466411E+04  0.12227466411E+04  0.25500000920E-02 0.  1.
    10030    2    1    2    0    0  0.00000000000E+00  0.00000000000E+00 -0.97553006566E+03  0.14699632165E+04  0.10996058152E+04 0.  0.
        3    1    3    3  502    0 -0.19609134208E+03  0.51135690658E+03 -0.42302250899E+03  0.69201571778E+03  0.10100000352E+00 0. -1.
       -3    1    3    3    0  502  0.19609134208E+03 -0.51135690658E+03 -0.55250755667E+03  0.77794749869E+03  0.10100000352E+00 0.  1.
</event>
<event>
 5   0  0.8921459E-05  0.1099886E+04  0.7818609E-02  0.9205303E-01
       -1   -1    0    0    0  501  0.00000000000E+00  0.00000000000E+00  0.25918567199E+03  0.25918567203E+03  0.50400001928E-02 0.  1.
        1   -1    0    0  501    0  0.00000000000E+00  0.00000000000E+00 -0.11668744723E+04  0.11668744723E+04  0.50400001928E-02 0. -1.
    10030    2    1    2    0    0  0.00000000000E+00  0.00000000000E+00 -0.90768880031E+03  0.14260601443E+04  0.10998857109E+04 0.  0.
        3    1    3    3  502    0 -0.29740381036E+02 -0.15874369929E+03  0.22774438877E+03  0.27919808228E+03  0.10100000352E+00 0. -1.
       -3    1    3    3    0  502  0.29740381036E+02  0.15874369929E+03 -0.11354331891E+04  0.11468620621E+04  0.10100000352E+00 0.  1.
</event>
<event>
 5   0  0.8921459E-05  0.1100531E+04  0.7818609E-02  0.9204674E-01
        1   -1    0    0  501    0  0.00000000000E+00  0.00000000000E+00  0.40055092830E+03  0.40055092833E+03  0.50400001928E-02 0.  1.
       -1   -1    0    0    0  501  0.00000000000E+00  0.00000000000E+00 -0.75593926926E+03  0.75593926928E+03  0.50400001928E-02 0. -1.
    10030    2    1    2    0    0  0.00000000000E+00  0.00000000000E+00 -0.35538834096E+03  0.11564901976E+04  0.11005311010E+04 0.  0.
        3    1    3    3  502    0 -0.36297975104E+03 -0.67797685803E+02 -0.60641070909E+03  0.70998928454E+03  0.10100000352E+00 0. -1.
       -3    1    3    3    0  502  0.36297975104E+03  0.67797685803E+02  0.25102236812E+03  0.44650091307E+03  0.10100000352E+00 0.  1.
</event>
<event>
 5   0  0.1574101E-04  0.1099609E+04  0.7818609E-02  0.9205573E-01
       -2   -1    0    0    0  501  0.00000000000E+00  0.00000000000E+00  0.31023637342E+03  0.31023637343E+03  0.25500000920E-02 0.  1.
        2   -1    0    0  501    0  0.00000000000E+00  0.00000000000E+00 -0.97437070437E+03  0.97437070437E+03  0.25500000920E-02 0. -1.
    10030    2    1    2    0    0  0.00000000000E+00  0.00000000000E+00 -0.66413433095E+03  0.12846070778E+04  0.10996094465E+04 0.  0.
        4    1    3    3  502    0 -0.39588179484E+03 -0.33630791208E+03 -0.54253908178E+03  0.75111628619E+03  0.12699999809E+01 0. -1.
       -4    1    3    3    0  502  0.39588179484E+03  0.33630791208E+03 -0.12159524917E+03  0.53349079161E+03  0.12699999809E+01 0.  1.
</event>
<event>
 5   0  0.9346836E-05  0.1099384E+04  0.7818609E-02  0.9205793E-01
       -1   -1    0    0    0  501  0.00000000000E+00  0.00000000000E+00  0.39228037545E+03  0.39228037548E+03  0.50400001928E-02 0. -1.
        1   -1    0    0  501    0  0.00000000000E+00  0.00000000000E+00 -0.77026838267E+03  0.77026838268E+03  0.50400001928E-02 0.  1.
    10030    2    1    2    0    0  0.00000000000E+00  0.00000000000E+00 -0.37798800722E+03  0.11625487582E+04  0.10993837735E+04 0.  0.
        5    1    3    3  502    0  0.57957169490E+02  0.13013967998E+03 -0.75038575584E+03  0.76380379835E+03  0.46999998093E+01 0.  1.
       -5    1    3    3    0  502 -0.57957169490E+02 -0.13013967998E+03  0.37239774862E+03  0.39874495981E+03  0.46999998093E+01 0. -1.
</event>
<event>
 5   0  0.9346836E-05  0.1098738E+04  0.7818609E-02  0.9206423E-01
        1   -1    0    0  501    0  0.00000000000E+00  0.00000000000E+00  0.96398281091E+03  0.96398281092E+03  0.50400001928E-02 0.  1.
       -1   -1    0    0    0  501  0.00000000000E+00  0.00000000000E+00 -0.31308254575E+03  0.31308254579E+03  0.50400001928E-02 0. -1.
    10030    2    1    2    0    0  0.00000000000E+00  0.00000000000E+00  0.65090026516E+03  0.12770653567E+04  0.10987378077E+04 0.  0.
        5    1    3    3  502    0 -0.49138800894E+03 -0.14511806175E+03  0.95142145534E+02  0.52114829466E+03  0.46999998093E+01 0. -1.
       -5    1    3    3    0  502  0.49138800894E+03  0.14511806175E+03  0.55575811962E+03  0.75591706205E+03  0.46999998093E+01 0.  1.
</event>
<event>
 5   0  0.8921459E-05  0.1099792E+04  0.7818609E-02  0.9205394E-01
       -1   -1    0    0    0  501  0.00000000000E+00  0.00000000000E+00  0.24706759809E+03  0.24706759815E+03  0.50400001928E-02 0.  1.
        1   -1    0    0  501    0  0.00000000000E+00  0.00000000000E+00 -0.12238987420E+04  0.12238987420E+04  0.50400001928E-02 0. -1.
    10030    2    1    2    0    0  0.00000000000E+00  0.00000000000E+00 -0.97683114391E+03  0.14709663402E+04  0.10997922032E+04 0.  0.
        3    1    3    3  502    0 -0.11410624380E+00 -0.23859431122E+03 -0.11510608319E+04  0.11755289479E+04  0.10100000352E+00 0. -1.
       -3    1    3    3    0  502  0.11410624380E+00  0.23859431122E+03  0.17422968800E+03  0.29543739227E+03  0.10100000352E+00 0.  1.
</event>
<event>
 5   0  0.9346836E-05  0.1099930E+04  0.7818609E-02  0.9205260E-01
       -1   -1    0    0    0  501  0.00000000000E+00  0.00000000000E+00  0.12087768015E+03  0.12087768025E+03  0.50400001928E-02 0. -1.
        1   -1    0    0  501    0  0.00000000000E+00  0.00000000000E+00 -0.25022111005E+04  0.25022111005E+04  0.50400001928E-02 0.  1.
    10030    2    1    2    0    0  0.00000000000E+00  0.00000000000E+00 -0.23813334204E+04  0.26230887808E+04  0.10999299491E+04 0.  0.
        5    1    3    3  502    0  0.19435958303E+03  0.48490082309E+03 -0.16005081957E+04  0.16836130881E+04  0.46999998093E+01 0. -1.
       -5    1    3    3    0  502 -0.19435958303E+03 -0.48490082309E+03 -0.78082522467E+03  0.93947569273E+03  0.46999998093E+01 0.  1.
</event>
<event>
 5   0  0.8657442E-05  0.1098317E+04  0.7818609E-02  0.9206834E-01
       -1   -1    0    0    0  501  0.00000000000E+00  0.00000000000E+00  0.20853913724E+03  0.20853913730E+03  0.50400001928E-02 0. -1.
        1   -1    0    0  501    0  0.00000000000E+00  0.00000000000E+00 -0.14461308902E+04  0.14461308902E+04  0.50400001928E-02 0.  1.
    10030    2    1    2    0    0  0.00000000000E+00  0.00000000000E+00 -0.12375917530E+04  0.16546700275E+04  0.10983166906E+04 0.  0.
        1    1    3    3  502    0 -0.28308795445E+03  0.31199771881E+02 -0.13261735537E+04  0.13564101556E+04  0.50400001928E-02 0.  1.
       -1    1    3    3    0  502  0.28308795445E+03 -0.31199771881E+02  0.88581800752E+02  0.29825987187E+03  0.50400001928E-02 0. -1.
</event>
<event>
 5   0  0.1553937E-04  0.1099893E+04  0.7818609E-02  0.9205296E-01
        2   -1    0    0  501    0  0.00000000000E+00  0.00000000000E+00  0.10450082930E+04  0.10450082930E+04  0.25500000920E-02 0. -1.
       -2   -1    0    0    0  501  0.00000000000E+00  0.00000000000E+00 -0.28941499491E+03  0.28941499492E+03  0.25500000920E-02 0.  1.
    10030    2    1    2    0    0  0.00000000000E+00  0.00000000000E+00  0.75559329806E+03  0.13344232879E+04  0.10998928490E+04 0.  0.
        1    1    3    3  502    0 -0.33387780270E+03 -0.42739660430E+03  0.26727393416E+03  0.60463013521E+03  0.50400001928E-02 0. -1.
       -1    1    3    3    0  502  0.33387780270E+03  0.42739660430E+03  0.48831936390E+03  0.72979315267E+03  0.50400001928E-02 0.  1.
</event>
<event>
 5   0  0.8621738E-05  0.1099454E+04  0.7818609E-02  0.9205724E-01
        1   -1    0    0  501    0  0.00000000000E+00  0.00000000000E+00  0.69348459085E+03  0.69348459087E+03  0.50400001928E-02 0.  1.
       -1   -1    0    0    0  501  0.00000000000E+00  0.00000000000E+00 -0.43577009709E+03  0.43577009712E+03  0.50400001928E-02 0. -1.
    10030    2    1    2    0    0  0.00000000000E+00  0.00000000000E+00  0.25771449376E+03  0.11292546880E+04  0.10994541328E+04 0.  0.
        2    1    3    3  502    0 -0.36598829850E+02 -0.31758211339E+03 -0.33048027980E+03  0.45979896524E+03  0.25500000920E-02 0. -1.
       -2    1    3    3    0  502  0.36598829850E+02  0.31758211339E+03  0.58819477356E+03  0.66945572276E+03  0.25500000920E-02 0.  1.
</event>
<event>
 5   0  0.8921459E-05  0.1099708E+04  0.7818609E-02  0.9205476E-01
        1   -1    0    0  501    0  0.00000000000E+00  0.00000000000E+00  0.75801681188E+03  0.75801681190E+03  0.50400001928E-02 0.  1.
       -1   -1    0    0    0  501  0.00000000000E+00  0.00000000000E+00 -0.39885600332E+03  0.39885600336E+03  0.50400001928E-02 0. -1.
    10030    2    1    2    0    0  0.00000000000E+00  0.00000000000E+00  0.35916080856E+03  0.11568728153E+04  0.10997082451E+04 0.  0.
        3    1    3    3  502    0 -0.16587235494E+03 -0.10275885536E+03 -0.36121029274E+03  0.41054342800E+03  0.10100000352E+00 0. -1.
       -3    1    3    3    0  502  0.16587235494E+03  0.10275885536E+03  0.72037110130E+03  0.74632938725E+03  0.10100000352E+00 0.  1.
</event>
<event>
 5   0  0.8621738E-05  0.1100303E+04  0.7818609E-02  0.9204896E-01
       -1   -1    0    0    0  501  0.00000000000E+00  0.00000000000E+00  0.51672286564E+03  0.51672286566E+03  0.50400001928E-02 0.  1.
        1   -1    0    0  501    0  0.00000000000E+00  0.00000000000E+00 -0.58574289269E+03  0.58574289272E+03  0.50400001928E-02 0. -1.
    10030    2    1    2    0    0  0.00000000000E+00  0.00000000000E+00 -0.69020027058E+02  0.11024657584E+04  0.11003031329E+04 0.  0.
        2    1    3    3  502    0 -0.30409290340E+03 -0.26567580537E+03  0.33986942249E+03  0.52779480085E+03  0.25500000920E-02 0.  1.
       -2    1    3    3    0  502  0.30409290340E+03  0.26567580537E+03 -0.40888944955E+03  0.57467095752E+03  0.25500000920E-02 0. -1.
</event>
<event>
 5   0  0.8921459E-05  0.1100098E+04  0.7818609E-02  0.9205096E-01
        1   -1    0    0  501    0  0.00000000000E+00  0.00000000000E+00  0.70557056970E+03  0.70557056972E+03  0.50400001928E-02 0.  1.
       -1   -1    0    0    0  501  0.00000000000E+00  0.00000000000E+00 -0.42880765849E+03  0.42880765852E+03  0.50400001928E-02 0. -1.
    10030    2    1    2    0    0  0.00000000000E+00  0.00000000000E+00  0.27676291121E+03  0.11343782282E+04  0.11000982936E+04 0.  0.
        3    1    3    3  502    0 -0.11612951118E+03 -0.38360356854E+03 -0.25007515823E+03  0.47241439026E+03  0.10100000352E+00 0. -1.
       -3    1    3    3    0  502  0.11612951118E+03  0.38360356854E+03  0.52683806944E+03  0.66196383797E+03  0.10100000352E+00 0.  1.
</event>
<event>
 5   0  0.1503277E-04  0.1100034E+04  0.7818609E-02  0.9205158E-01
        2   -1    0    0  501    0  0.00000000000E+00  0.00000000000E+00  0.73260339317E+03  0.73260339318E+03  0.25500000920E-02 0. -1.
       -2   -1    0    0    0  501  0.00000000000E+00  0.00000000000E+00 -0.41293682191E+03  0.41293682192E+03  0.25500000920E-02 0.  1.
    10030    2    1    2    0    0  0.00000000000E+00  0.00000000000E+00  0.31966657126E+03  0.11455402151E+04  0.11000343938E+04 0.  0.
        5    1    3    3  502    0  0.32765849668E+03  0.22955477429E+02  0.61922843958E+03  0.70096575863E+03  0.46999998093E+01 0. -1.
       -5    1    3    3    0  502 -0.32765849668E+03 -0.22955477429E+02 -0.29956186832E+03  0.44457445646E+03  0.46999998093E+01 0.  1.
</event>
<event>
 5   0  0.1553937E-04  0.1100172E+04  0.7818609E-02  0.9205024E-01
       -2   -1    0    0    0  501  0.00000000000E+00  0.00000000000E+00  0.35058963569E+03  0.35058963570E+03  0.25500000920E-02 0.  1.
        2   -1    0    0  501    0  0.00000000000E+00  0.00000000000E+00 -0.86310156456E+03  0.86310156457E+03  0.25500000920E-02 0. -1.
    10030    2    1    2    0    0  0.00000000000E+00  0.00000000000E+00 -0.51251192888E+03  0.12136912003E+04  0.11001717377E+04 0.  0.
        1    1    3    3  502    0 -0.74090854866E+02 -0.14317258486E+03 -0.83645767291E+03  0.85185050474E+03  0.50400001928E-02 0. -1.
       -1    1    3    3    0  502  0.74090854866E+02  0.14317258486E+03  0.32394574404E+03  0.36184069552E+03  0.50400001928E-02 0.  1.
</event>
<event>
 5   0  0.8657442E-05  0.1099892E+04  0.7818609E-02  0.9205297E-01
        1   -1    0    0  501    0  0.00000000000E+00  0.00000000000E+00  0.20550674859E+03  0.20550674865E+03  0.50400001928E-02 0.  1.
       -1   -1    0    0    0  501  0.00000000000E+00  0.00000000000E+00 -0.14716833498E+04  0.14716833498E+04  0.50400001928E-02 0. -1.
    10030    2    1    2    0    0  0.00000000000E+00  0.00000000000E+00 -0.12661766012E+04  0.16771900985E+04  0.10998924679E+04 0.  0.
        1    1    3    3  502    0  0.47191930188E+03  0.21842397619E+03 -0.36020946958E+03  0.63258811470E+03  0.50400001928E-02 0.  1.
       -1    1    3    3    0  502 -0.47191930188E+03 -0.21842397619E+03 -0.90596713164E+03  0.10446019838E+04  0.50400001928E-02 0. -1.
</event>
<event>
 5   0  0.1540772E-04  0.1100024E+04  0.7818609E-02  0.9205168E-01
       -2   -1    0    0    0  501  0.00000000000E+00  0.00000000000E+00  0.21700588271E+03  0.21700588273E+03  0.25500000920E-02 0. -1.
        2   -1    0    0  501    0  0.00000000000E+00  0.00000000000E+00 -0.13940334193E+04  0.13940334193E+04  0.25500000920E-02 0.  1.
    10030    2    1    2    0    0  0.00000000000E+00  0.00000000000E+00 -0.11770275366E+04  0.16110393020E+04  0.11000244592E+04 0.  0.
        2    1    3    3  502    0 -0.14941789923E+03  0.15162585418E+03  0.15422660840E+03  0.26287250714E+03  0.25500000920E-02 0. -1.
       -2    1    3    3    0  502  0.14941789923E+03 -0.15162585418E+03 -0.13312541450E+04  0.13481667949E+04  0.25500000920E-02 0.  1.
</event>
<event>
 5   0  0.1503277E-04  0.1100529E+04  0.7818609E-02  0.9204677E-01
        2   -1    0    0  501    0  0.00000000000E+00  0.00000000000E+00  0.39436461079E+03  0.39436461079E+03  0.25500000920E-02 0.  1.
       -2   -1    0    0    0  501  0.00000000000E+00  0.00000000000E+00 -0.76779431856E+03  0.76779431857E+03  0.25500000920E-02 0. -1.
    10030    2    1    2    0    0  0.00000000000E+00  0.00000000000E+00 -0.37342970778E+03  0.11621589294E+04  0.11005287958E+04 0.  0.
        5    1    3    3  502    0 -0.27188284705E+03 -0.15556786798E+03 -0.66442777513E+03  0.73458015385E+03  0.46999998093E+01 0. -1.
       -5    1    3    3    0  502  0.27188284705E+03  0.15556786798E+03  0.29099806735E+03  0.42757877551E+03  0.46999998093E+01 0.  1.
</event>
<event>
 5   0  0.8621738E-05  0.1102564E+04  0.7818609E-02  0.9202697E-01
        1   -1    0    0  501    0  0.00000000000E+00  0.00000000000E+00  0.11453464497E+04  0.11453464497E+04  0.50400001928E-02 0. -1.
       -1   -1    0    0    0  501  0.00000000000E+00  0.00000000000E+00 -0.26534481463E+03  0.26534481468E+03  0.50400001928E-02 0.  1.
    10030    2    1    2    0    0  0.00000000000E+00  0.00000000000E+00  0.88000163506E+03  0.14106912644E+04  0.11025638148E+04 0.  0.
        2    1    3    3  502    0 -0.24976619509E+03  0.75962435735E+00  0.10688000390E+04  0.10975961246E+04  0.25500000920E-02 0. -1.
       -2    1    3    3    0  502  0.24976619509E+03 -0.75962435735E+00 -0.18879840395E+03  0.31309513982E+03  0.25500000920E-02 0.  1.
</event>
<event>
 5   0  0.1540772E-04  0.1099647E+04  0.7818609E-02  0.9205536E-01
        2   -1    0    0  501    0  0.00000000000E+00  0.00000000000E+00  0.15047078776E+04  0.15047078776E+04  0.25500000920E-02 0.  1.
       -2   -1    0    0    0  501  0.00000000000E+00  0.00000000000E+00 -0.20090667441E+03  0.20090667443E+03  0.25500000920E-02 0. -1.
    10030    2    1    2    0    0  0.00000000000E+00  0.00000000000E+00  0.13038012032E+04  0.17056145520E+04  0.10996469537E+04 0.  0.
        2    1    3    3  502    0 -0.23563942676E+03 -0.35439961074E+03  0.11196174508E+03  0.44006869453E+03  0.25500000920E-02 0. -1.
       -2    1    3    3    0  502  0.23563942676E+03  0.35439961074E+03  0.11918394581E+04  0.12655458575E+04  0.25500000920E-02 0.  1.
</event>
<event>
 5   0  0.1464205E-04  0.1099302E+04  0.7818609E-02  0.9205872E-01
        2   -1    0    0  501    0  0.00000000000E+00  0.00000000000E+00  0.36909149048E+03  0.36909149049E+03  0.25500000920E-02 0. -1.
       -2   -1    0    0    0  501  0.00000000000E+00  0.00000000000E+00 -0.81854088452E+03  0.81854088452E+03  0.25500000920E-02 0.  1.
    10030    2    1    2    0    0  0.00000000000E+00  0.00000000000E+00 -0.44944939404E+03  0.11876323750E+04  0.10993024608E+04 0.  0.
        3    1    3    3  502    0  0.18877170941E+03  0.48921073046E+03 -0.40275186180E+03  0.66118905727E+03  0.10100000352E+00 0.  1.
       -3    1    3    3    0  502 -0.18877170941E+03 -0.48921073046E+03 -0.46697532238E+02  0.52644331773E+03  0.10100000352E+00 0. -1.
</event>
<event>
 5   0  0.9346836E-05  0.1099450E+04  0.7818609E-02  0.9205728E-01
        1   -1    0    0  501    0  0.00000000000E+00  0.00000000000E+00  0.11724057444E+04  0.11724057444E+04  0.50400001928E-02 0. -1.
       -1   -1    0    0    0  501  0.00000000000E+00  0.00000000000E+00 -0.25775855292E+03  0.25775855297E+03  0.50400001928E-02 0.  1.
    10030    2    1    2    0    0  0.00000000000E+00  0.00000000000E+00  0.91464719144E+03  0.14301642973E+04  0.10994500592E+04 0.  0.
        5    1    3    3  502    0 -0.88797923262E+02  0.21775660233E+02 -0.24777255517E+03  0.26414499739E+03  0.46999998093E+01 0.  1.
       -5    1    3    3    0  502  0.88797923262E+02 -0.21775660233E+02  0.11624197466E+04  0.11660193000E+04  0.46999998093E+01 0. -1.
</event>
<event>
 5   0  0.8921459E-05  0.1103353E+04  0.7818609E-02  0.9201930E-01
       -1   -1    0    0    0  501  0.00000000000E+00  0.00000000000E+00  0.68567974719E+03  0.68567974721E+03  0.50400001928E-02 0.  1.
        1   -1    0    0  501    0  0.00000000000E+00  0.00000000000E+00 -0.44386143623E+03  0.44386143626E+03  0.50400001928E-02 0. -1.
    10030    2    1    2    0    0  0.00000000000E+00  0.00000000000E+00  0.24181831096E+03  0.11295411835E+04  0.11033527041E+04 0.  0.
        3    1    3    3  502    0  0.11527133413E+03 -0.33841600213E+03  0.55104118598E+03  0.65685559282E+03  0.10100000352E+00 0.  1.
       -3    1    3    3    0  502 -0.11527133413E+03  0.33841600213E+03 -0.30922287502E+03  0.47268559065E+03  0.10100000352E+00 0. -1.
</event>
<event>
 5   0  0.1553937E-04  0.1100556E+04  0.7818609E-02  0.9204650E-01
        2   -1    0    0  501    0  0.00000000000E+00  0.00000000000E+00  0.52656044433E+03  0.52656044433E+03  0.25500000920E-02 0. -1.
       -2   -1    0    0    0  501  0.00000000000E+00  0.00000000000E+00 -0.57506362393E+03  0.57506362394E+03  0.25500000920E-02 0.  1.
    10030    2    1    2    0    0  0.00000000000E+00  0.00000000000E+00 -0.48503179603E+02  0.11016240683E+04  0.11005557820E+04 0.  0.
        1    1    3    3  502    0  0.14304944393E+03 -0.10212310469E+03  0.49770781757E+03  0.52783079071E+03  0.50400001928E-02 0. -1.
       -1    1    3    3    0  502 -0.14304944393E+03  0.10212310469E+03 -0.54621099717E+03  0.57379327757E+03  0.50400001928E-02 0.  1.
</event>
<event>
 5   0  0.9016738E-05  0.1099868E+04  0.7818609E-02  0.9205321E-01
        1   -1    0    0  501    0  0.00000000000E+00  0.00000000000E+00  0.55644338848E+03  0.55644338850E+03  0.50400001928E-02 0. -1.
       -1   -1    0    0    0  501  0.00000000000E+00  0.00000000000E+00 -0.54350059835E+03  0.54350059837E+03  0.50400001928E-02 0.  1.
    10030    2    1    2    0    0  0.00000000000E+00  0.00000000000E+00  0.12942790128E+02  0.10999439869E+04  0.10998678368E+04 0.  0.
        4    1    3    3  502    0 -0.84636552586E+02 -0.33482017787E+03 -0.42152763197E+03  0.54493582646E+03  0.12699999809E+01 0.  1.
       -4    1    3    3    0  502  0.84636552586E+02  0.33482017787E+03  0.43447042210E+03  0.55500816041E+03  0.12699999809E+01 0. -1.
</event>
<event>
 5   0  0.8621738E-05  0.1098643E+04  0.7818609E-02  0.9206515E-01
       -1   -1    0    0    0  501  0.00000000000E+00  0.00000000000E+00  0.79685489608E+03  0.79685489609E+03  0.50400001928E-02 0. -1.
        1   -1    0    0  501    0  0.00000000000E+00  0.00000000000E+00 -0.37868145498E+03  0.37868145502E+03  0.50400001928E-02 0.  1.
    10030    2    1    2    0    0  0.00000000000E+00  0.00000000000E+00  0.41817344109E+03  0.11755363511E+04  0.10986431113E+04 0.  0.
        2    1    3    3  502    0 -0.16620844880E+02  0.25205605224E+03 -0.31285056840E+03  0.40209947042E+03  0.25500000920E-02 0.  1.
       -2    1    3    3    0  502  0.16620844880E+02 -0.25205605224E+03  0.73102400949E+03  0.77343688069E+03  0.25500000920E-02 0. -1.
</event>
<event>
 5   0  0.1574101E-04  0.1099970E+04  0.7818609E-02  0.9205221E-01
       -2   -1    0    0    0  501  0.00000000000E+00  0.00000000000E+00  0.10508103001E+04  0.10508103001E+04  0.25500000920E-02 0. -1.
        2   -1    0    0  501    0  0.00000000000E+00  0.00000000000E+00 -0.28785722796E+03  0.28785722797E+03  0.25500000920E-02 0.  1.
    10030    2    1    2    0    0  0.00000000000E+00  0.00000000000E+00  0.76295307214E+03  0.13386675281E+04  0.10999697089E+04 0.  0.
        4    1    3    3  502    0 -0.37001511814E+03  0.32988631224E+03  0.91570038968E+02  0.50410599242E+03  0.12699999809E+01 0.  1.
       -4    1    3    3    0  502  0.37001511814E+03 -0.32988631224E+03  0.67138303317E+03  0.83456153565E+03  0.12699999809E+01 0. -1.
</event>
<event>
 5   0  0.1540772E-04  0.1097671E+04  0.7818609E-02  0.9207465E-01
        2   -1    0    0  501    0  0.00000000000E+00  0.00000000000E+00  0.19854962337E+03  0.19854962339E+03  0.25500000920E-02 0.  1.
       -2   -1    0    0    0  501  0.00000000000E+00  0.00000000000E+00 -0.15171033579E+04  0.15171033579E+04  0.25500000920E-02 0. -1.
    10030    2    1    2    0    0  0.00000000000E+00  0.00000000000E+00 -0.13185537345E+04  0.17156529813E+04  0.10976708074E+04 0.  0.
        2    1    3    3  502    0 -0.32410687501E+03 -0.36523278490E+03 -0.26765390119E+03  0.55684725412E+03  0.25500000920E-02 0.  1.
       -2    1    3    3    0  502  0.32410687501E+03  0.36523278490E+03 -0.10508998333E+04  0.11588057272E+04  0.25500000920E-02 0. -1.
</event>
<event>
 5   0  0.1464205E-04  0.1099971E+04  0.7818609E-02  0.9205221E-01
       -2   -1    0    0    0  501  0.00000000000E+00  0.00000000000E+00  0.62733863499E+03  0.62733863499E+03  0.25500000920E-02 0.  1.
        2   -1    0    0  501    0  0.00000000000E+00  0.00000000000E+00 -0.48216985236E+03  0.48216985237E+03  0.25500000920E-02 0. -1.
    10030    2    1    2    0    0  0.00000000000E+00  0.00000000000E+00  0.14516878263E+03  0.11095084874E+04  0.10999705033E+04 0.  0.
        3    1    3    3  502    0  0.11409342594E+03  0.64515678076E+02  0.61135470745E+03  0.62524728794E+03  0.10100000352E+00 0.  1.
       -3    1    3    3    0  502 -0.11409342594E+03 -0.64515678076E+02 -0.46618592482E+03  0.48426119942E+03  0.10100000352E+00 0. -1.
</event>
<event>
 5   0  0.6010125E-05  0.1099972E+04  0.7818609E-02  0.9205219E-01
       -4   -1    0    0    0  501  0.00000000000E+00  0.00000000000E+00  0.21172544855E+03  0.21172925745E+03  0.12699999809E+01 0. -1.
        4   -1    0    0  501    0  0.00000000000E+00  0.00000000000E+00 -0.14286486520E+04  0.14286492165E+04  0.12699999809E+01 0.  1.
    10030    2    1    2    0    0  0.00000000000E+00  0.00000000000E+00 -0.12169232035E+04  0.16403784739E+04  0.10999724790E+04 0.  0.
        2    1    3    3  502    0  0.22005445109E+02  0.27771500566E+03  0.98723055834E+02  0.29556066339E+03  0.25500000920E-02 0. -1.
       -2    1    3    3    0  502 -0.22005445109E+02 -0.27771500566E+03 -0.13156462593E+04  0.13448178105E+04  0.25500000920E-02 0.  1.
</event>
<event>
 5   0  0.1574101E-04  0.1100682E+04  0.7818609E-02  0.9204528E-01
        2   -1    0    0  501    0  0.00000000000E+00  0.00000000000E+00  0.85630013572E+03  0.85630013573E+03  0.25500000920E-02 0. -1.
       -2   -1    0    0    0  501  0.00000000000E+00  0.00000000000E+00 -0.35370188662E+03  0.35370188663E+03  0.25500000920E-02 0.  1.
    10030    2    1    2    0    0  0.00000000000E+00  0.00000000000E+00  0.50259824910E+03  0.12100020224E+04  0.11006815589E+04 0.  0.
        4    1    3    3  502    0  0.18965980616E+03  0.51661282683E+03  0.25536894354E+03  0.60669149091E+03  0.12699999809E+01 0.  1.
       -4    1    3    3    0  502 -0.18965980616E+03 -0.51661282683E+03  0.24722930556E+03  0.60331053144E+03  0.12699999809E+01 0. -1.
</event>
<event>
 5   0  0.1464205E-04  0.1100470E+04  0.7818609E-02  0.9204734E-01
       -2   -1    0    0    0  501  0.00000000000E+00  0.00000000000E+00  0.10925334727E+03  0.10925334730E+03  0.25500000920E-02 0. -1.
        2   -1    0    0  501    0  0.00000000000E+00  0.00000000000E+00 -0.27711597036E+04  0.27711597036E+04  0.25500000920E-02 0.  1.
    10030    2    1    2    0    0  0.00000000000E+00  0.00000000000E+00 -0.26619063563E+04  0.28804130509E+04  0.11004698514E+04 0.  0.
        3    1    3    3  502    0  0.31723679523E+03  0.23229801491E+03 -0.23384358347E+04  0.23712620512E+04  0.10100000352E+00 0.  1.
       -3    1    3    3    0  502 -0.31723679523E+03 -0.23229801491E+03 -0.32347052158E+03  0.50915099972E+03  0.10100000352E+00 0. -1.
</event>
<event>
 5   0  0.8921459E-05  0.1107894E+04  0.7818609E-02  0.9197532E-01
       -1   -1    0    0    0  501  0.00000000000E+00  0.00000000000E+00  0.41420919948E+03  0.41420919951E+03  0.50400001928E-02 0. -1.
        1   -1    0    0  501    0  0.00000000000E+00  0.00000000000E+00 -0.74082701953E+03  0.74082701955E+03  0.50400001928E-02 0.  1.
    10030    2    1    2    0    0  0.00000000000E+00  0.00000000000E+00 -0.32661782006E+03  0.11550362191E+04  0.11078941587E+04 0.  0.
        3    1    3    3  502    0 -0.69252062600E+02  0.18512133163E+03 -0.70281432254E+03  0.73007789842E+03  0.10100000352E+00 0.  1.
       -3    1    3    3    0  502  0.69252062600E+02 -0.18512133163E+03  0.37619650248E+03  0.42495832064E+03  0.10100000352E+00 0. -1.
</event>
<event>
 5   0  0.1464205E-04  0.1101172E+04  0.7818609E-02  0.9204050E-01
        2   -1    0    0  501    0  0.00000000000E+00  0.00000000000E+00  0.12922795717E+04  0.12922795717E+04  0.25500000920E-02 0.  1.
       -2   -1    0    0    0  501  0.00000000000E+00  0.00000000000E+00 -0.23458161111E+03  0.23458161112E+03  0.25500000920E-02 0. -1.
    10030    2    1    2    0    0  0.00000000000E+00  0.00000000000E+00  0.10576979606E+04  0.15268611828E+04  0.11011721463E+04 0.  0.
        3    1    3    3  502    0  0.12314685817E+03  0.19708212048E+01 -0.21523588285E+03  0.24798291934E+03  0.10100000352E+00 0. -1.
       -3    1    3    3    0  502 -0.12314685817E+03 -0.19708212048E+01  0.12729338435E+04  0.12788782635E+04  0.10100000352E+00 0.  1.
</event>
<event>
 5   0  0.8621738E-05  0.1099744E+04  0.7818609E-02  0.9205442E-01
       -1   -1    0    0    0  501  0.00000000000E+00  0.00000000000E+00  0.45219764542E+03  0.45219764544E+03  0.50400001928E-02 0. -1.
        1   -1    0    0  501    0  0.00000000000E+00  0.00000000000E+00 -0.66864344125E+03  0.66864344127E+03  0.50400001928E-02 0.  1.
    10030    2    1    2    0    0  0.00000000000E+00  0.00000000000E+00 -0.21644579583E+03  0.11208410867E+04  0.10997435879E+04 0.  0.
        2    1    3    3  502    0  0.47088362968E+03 -0.27298612112E+03 -0.28581803675E+02  0.54504103931E+03  0.25500000920E-02 0. -1.
       -2    1    3    3    0  502 -0.47088362968E+03  0.27298612112E+03 -0.18786399216E+03  0.57580004740E+03  0.25500000920E-02 0.  1.
</event>
<event>
 5   0  0.8657442E-05  0.1098425E+04  0.7818609E-02  0.9206728E-01
       -1   -1    0    0    0  501  0.00000000000E+00  0.00000000000E+00  0.37049524416E+03  0.37049524419E+03  0.50400001928E-02 0.  1.
        1   -1    0    0  501    0  0.00000000000E+00  0.00000000000E+00 -0.81413895538E+03  0.81413895540E+03  0.50400001928E-02 0. -1.
    10030    2    1    2    0    0  0.00000000000E+00  0.00000000000E+00 -0.44364371122E+03  0.11846341996E+04  0.10984254387E+04 0.  0.
        1    1    3    3  502    0 -0.83567917763E+02 -0.69390621403E+01 -0.80719415339E+03  0.81153813758E+03  0.50400001928E-02 0. -1.
       -1    1    3    3    0  502  0.83567917763E+02  0.69390621403E+01  0.36355044216E+03  0.37309606201E+03  0.50400001928E-02 0.  1.
</event>
<event>
 5   0  0.1574101E-04  0.1100064E+04  0.7818609E-02  0.9205129E-01
       -2   -1    0    0    0  501  0.00000000000E+00  0.00000000000E+00  0.17375103578E+03  0.17375103580E+03  0.25500000920E-02 0. -1.
        2   -1    0    0  501    0  0.00000000000E+00  0.00000000000E+00 -0.17412000265E+04  0.17412000265E+04  0.25500000920E-02 0.  1.
    10030    2    1    2    0    0  0.00000000000E+00  0.00000000000E+00 -0.15674489907E+04  0.19149510623E+04  0.11000641947E+04 0.  0.
        4    1    3    3  502    0 -0.27708006021E+02  0.27499729305E+03  0.44085559834E+02  0.27988639529E+03  0.12699999809E+01 0. -1.
       -4    1    3    3    0  502  0.27708006021E+02 -0.27499729305E+03 -0.16115345506E+04  0.16350646670E+04  0.12699999809E+01 0.  1.
</event>
<event>
 5   0  0.1574101E-04  0.1108281E+04  0.7818609E-02  0.9197158E-01
       -2   -1    0    0    0  501  0.00000000000E+00  0.00000000000E+00  0.39965060519E+03  0.39965060520E+03  0.25500000920E-02 0.  1.
        2   -1    0    0  501    0  0.00000000000E+00  0.00000000000E+00 -0.76835024907E+03  0.76835024908E+03  0.25500000920E-02 0. -1.
    10030    2    1    2    0    0  0.00000000000E+00  0.00000000000E+00 -0.36869964388E+03  0.11680008543E+04  0.11082809067E+04 0.  0.
        4    1    3    3  502    0  0.49471591331E+02 -0.53983218317E+03 -0.30544946329E+03  0.62222762062E+03  0.12699999809E+01 0. -1.
       -4    1    3    3    0  502 -0.49471591331E+02  0.53983218317E+03 -0.63250180590E+02  0.54577323366E+03  0.12699999809E+01 0.  1.
</event>
<event>
 5   0  0.1574101E-04  0.1095703E+04  0.7818609E-02  0.9209390E-01
        2   -1    0    0  501    0  0.00000000000E+00  0.00000000000E+00  0.12590224866E+04  0.12590224866E+04  0.25500000920E-02 0.  1.
       -2   -1    0    0    0  501  0.00000000000E+00  0.00000000000E+00 -0.23839233329E+03  0.23839233331E+03  0.25500000920E-02 0. -1.
    10030    2    1    2    0    0  0.00000000000E+00  0.00000000000E+00  0.10206301533E+04  0.14974148199E+04  0.10957030770E+04 0.  0.
        4    1    3    3  502    0  0.10564727223E+03  0.40241526008E+03  0.99741719042E+03  0.10807136773E+04  0.12699999809E+01 0.  1.
       -4    1    3    3    0  502 -0.10564727223E+03 -0.40241526008E+03  0.23212962854E+02  0.41670114257E+03  0.12699999809E+01 0. -1.
</event>
<event>
 5   0  0.6010125E-05  0.1099939E+04  0.7818609E-02  0.9205251E-01
       -3   -1    0    0    0  501  0.00000000000E+00  0.00000000000E+00  0.27132216320E+03  0.27132218200E+03  0.10100000352E+00 0.  1.
        3   -1    0    0  501    0  0.00000000000E+00  0.00000000000E+00 -0.11147871179E+04  0.11147871224E+04  0.10100000352E+00 0. -1.
    10030    2    1    2    0    0  0.00000000000E+00  0.00000000000E+00 -0.84346495467E+03  0.13861093044E+04  0.10999390320E+04 0.  0.
        2    1    3    3  502    0  0.20759949165E+03 -0.58019209684E+02 -0.10593366204E+04  0.10810447970E+04  0.25500000920E-02 0. -1.
       -2    1    3    3    0  502 -0.20759949165E+03  0.58019209684E+02  0.21587166578E+03  0.30506450747E+03  0.25500000920E-02 0.  1.
</event>
<event>
 5   0  0.8657442E-05  0.1099400E+04  0.7818609E-02  0.9205777E-01
        1   -1    0    0  501    0  0.00000000000E+00  0.00000000000E+00  0.88008190411E+03  0.88008190412E+03  0.50400001928E-02 0. -1.
       -1   -1    0    0    0  501  0.00000000000E+00  0.00000000000E+00 -0.34334292408E+03  0.34334292411E+03  0.50400001928E-02 0.  1.
    10030    2    1    2    0    0  0.00000000000E+00  0.00000000000E+00  0.53673898003E+03  0.12234248282E+04  0.10993996442E+04 0.  0.
        1    1    3    3  502    0 -0.36540594981E+02 -0.43994037246E+03 -0.96128844333E+02  0.45180028900E+03  0.50400001928E-02 0.  1.
       -1    1    3    3    0  502  0.36540594981E+02  0.43994037246E+03  0.63286782436E+03  0.77162453923E+03  0.50400001928E-02 0. -1.
</event>
<event>
 5   0  0.6010125E-05  0.1100245E+04  0.7818609E-02  0.9204953E-01
        3   -1    0    0  501    0  0.00000000000E+00  0.00000000000E+00  0.73662023582E+03  0.73662024274E+03  0.10100000352E+00 0.  1.
       -3   -1    0    0    0  501  0.00000000000E+00  0.00000000000E+00 -0.41084218717E+03  0.41084219958E+03  0.10100000352E+00 0. -1.
    10030    2    1    2    0    0  0.00000000000E+00  0.00000000000E+00  0.32577804865E+03  0.11474624423E+04  0.11002448453E+04 0.  0.
        2    1    3    3  502    0  0.21936149093E+03 -0.49997942854E+03  0.23312756398E+03  0.59367276656E+03  0.25500000920E-02 0.  1.
       -2    1    3    3    0  502 -0.21936149093E+03  0.49997942854E+03  0.92650484671E+02  0.55378967576E+03  0.25500000920E-02 0. -1.
</event>
<event>
 5   0  0.1464205E-04  0.1102524E+04  0.7818609E-02  0.9202735E-01
       -2   -1    0    0    0  501  0.00000000000E+00  0.00000000000E+00  0.21950938347E+03  0.21950938349E+03  0.25500000920E-02 0.  1.
        2   -1    0    0  501    0  0.00000000000E+00  0.00000000000E+00 -0.13844040992E+04  0.13844040992E+04  0.25500000920E-02 0. -1.
    10030    2    1    2    0    0  0.00000000000E+00  0.00000000000E+00 -0.11648947157E+04  0.16039134826E+04  0.11025238143E+04 0.  0.
        3    1    3    3  502    0 -0.27542066647E+03 -0.41461374246E+03 -0.92710268150E+03  0.10522739621E+04  0.10100000352E+00 0. -1.
       -3    1    3    3    0  502  0.27542066647E+03  0.41461374246E+03 -0.23779203418E+03  0.55163952059E+03  0.10100000352E+00 0.  1.
</event>
<event>
 5   0  0.6010125E-05  0.1104437E+04  0.7818609E-02  0.9200878E-01
       -3   -1    0    0    0  501  0.00000000000E+00  0.00000000000E+00  0.38556570034E+03  0.38556571357E+03  0.10100000352E+00 0. -1.
        3   -1    0    0  501    0  0.00000000000E+00  0.00000000000E+00 -0.79090293548E+03  0.79090294193E+03  0.10100000352E+00 0.  1.
    10030    2    1    2    0    0  0.00000000000E+00  0.00000000000E+00 -0.40533723514E+03  0.11764686555E+04  0.11044366089E+04 0.  0.
        1    1    3    3  502    0  0.31857766719E+02  0.33398955067E+03  0.26455069887E+03  0.42725988526E+03  0.50400001928E-02 0. -1.
       -1    1    3    3    0  502 -0.31857766719E+02 -0.33398955067E+03 -0.66988793401E+03  0.74920877024E+03  0.50400001928E-02 0.  1.
</event>
<event>
 5   0  0.1553937E-04  0.1099926E+04  0.7818609E-02  0.9205264E-01
        2   -1    0    0  501    0  0.00000000000E+00  0.00000000000E+00  0.12198223370E+04  0.12198223371E+04  0.25500000920E-02 0. -1.
       -2   -1    0    0    0  501  0.00000000000E+00  0.00000000000E+00 -0.24795366227E+03  0.24795366228E+03  0.25500000920E-02 0.  1.
    10030    2    1    2    0    0  0.00000000000E+00  0.00000000000E+00  0.97186867478E+03  0.14677759993E+04  0.10999262081E+04 0.  0.
        1    1    3    3  502    0  0.23840734422E+03 -0.15130555437E+03 -0.14383806332E+03  0.31689244397E+03  0.50400001928E-02 0.  1.
       -1    1    3    3    0  502 -0.23840734422E+03  0.15130555437E+03  0.11157067381E+04  0.11508835554E+04  0.50400001928E-02 0. -1.
</event>
<event>
 5   0  0.6010125E-05  0.1100034E+04  0.7818609E-02  0.9205158E-01
        4   -1    0    0  501    0  0.00000000000E+00  0.00000000000E+00  0.56919598124E+03  0.56919739806E+03  0.12699999809E+01 0.  1.
       -4   -1    0    0    0  501  0.00000000000E+00  0.00000000000E+00 -0.53148180169E+03  0.53148331905E+03  0.12699999809E+01 0. -1.
    10030    2    1    2    0    0  0.00000000000E+00  0.00000000000E+00  0.37714179544E+02  0.11006807171E+04  0.11000344002E+04 0.  0.
        2    1    3    3  502    0 -0.16241056227E+03  0.22060516327E+03  0.49608080322E+03  0.56669214934E+03  0.25500000920E-02 0.  1.
       -2    1    3    3    0  502  0.16241056227E+03 -0.22060516327E+03 -0.45836662368E+03  0.53398856777E+03  0.25500000920E-02 0. -1.
</event>
<event>
 5   0  0.8657442E-05  0.1100218E+04  0.7818609E-02  0.9204979E-01
        1   -1    0    0  501    0  0.00000000000E+00  0.00000000000E+00  0.47984969694E+03  0.47984969697E+03  0.50400001928E-02 0. -1.
       -1   -1    0    0    0  501  0.00000000000E+00  0.00000000000E+00 -0.63065573045E+03  0.63065573047E+03  0.50400001928E-02 0.  1.
    10030    2    1    2    0    0  0.00000000000E+00  0.00000000000E+00 -0.15080603351E+03  0.11105054274E+04  0.11002180896E+04 0.  0.
        1    1    3    3  502    0  0.28614636217E+03 -0.44109357309E+03 -0.23870790654E+03  0.57742942900E+03  0.50400001928E-02 0.  1.
       -1    1    3    3    0  502 -0.28614636217E+03  0.44109357309E+03  0.87901873030E+02  0.53307599844E+03  0.50400001928E-02 0. -1.
</event>
<event>
 5   0  0.8621738E-05  0.1100067E+04  0.7818609E-02  0.9205126E-01
       -1   -1    0    0    0  501  0.00000000000E+00  0.00000000000E+00  0.59211993878E+03  0.59211993880E+03  0.50400001928E-02 0. -1.
        1   -1    0    0  501    0  0.00000000000E+00  0.00000000000E+00 -0.51093891650E+03  0.51093891653E+03  0.50400001928E-02 0.  1.
    10030    2    1    2    0    0  0.00000000000E+00  0.00000000000E+00  0.81181022281E+02  0.11030588553E+04  0.11000674888E+04 0.  0.
        2    1    3    3  502    0  0.81295075337E+01 -0.26303061865E+03  0.52490072023E+03  0.58717285475E+03  0.25500000920E-02 0. -1.
       -2    1    3    3    0  502 -0.81295075337E+01  0.26303061865E+03 -0.44371969795E+03  0.51588600058E+03  0.25500000920E-02 0.  1.
</event>
<event>
 5   0  0.1464205E-04  0.1100012E+04  0.7818609E-02  0.9205181E-01
       -2   -1    0    0    0  501  0.00000000000E+00  0.00000000000E+00  0.64340611613E+03  0.64340611613E+03  0.25500000920E-02 0. -1.
        2   -1    0    0  501    0  0.00000000000E+00  0.00000000000E+00 -0.47016397127E+03  0.47016397128E+03  0.25500000920E-02 0.  1.
    10030    2    1    2    0    0  0.00000000000E+00  0.00000000000E+00  0.17324214486E+03  0.11135700874E+04  0.11000115903E+04 0.  0.
        3    1    3    3  502    0  0.15750977491E+03  0.27965828868E+03  0.53876737614E+03  0.62712708713E+03  0.10100000352E+00 0. -1.
       -3    1    3    3    0  502 -0.15750977491E+03 -0.27965828868E+03 -0.36552523128E+03  0.48644300028E+03  0.10100000352E+00 0.  1.
</event>
<event>
 5   0  0.8621738E-05  0.1099810E+04  0.7818609E-02  0.9205377E-01
       -1   -1    0    0    0  501  0.00000000000E+00  0.00000000000E+00  0.31747231585E+03  0.31747231589E+03  0.50400001928E-02 0.  1.
        1   -1    0    0  501    0  0.00000000000E+00  0.00000000000E+00 -0.95251057614E+03  0.95251057616E+03  0.50400001928E-02 0. -1.
    10030    2    1    2    0    0  0.00000000000E+00  0.00000000000E+00 -0.63503826029E+03  0.12699828921E+04  0.10998104173E+04 0.  0.
        2    1    3    3  502    0 -0.34526167201E+03  0.22609125114E+03  0.10213049257E+03  0.42515116549E+03  0.25500000920E-02 0.  1.
       -2    1    3    3    0  502  0.34526167201E+03 -0.22609125114E+03 -0.73716875285E+03  0.84483172656E+03  0.25500000920E-02 0. -1.
</event>
<event>
 5   0  0.1540772E-04  0.1100517E+04  0.7818609E-02  0.9204688E-01
        2   -1    0    0  501    0  0.00000000000E+00  0.00000000000E+00  0.16668879364E+04  0.16668879364E+04  0.25500000920E-02 0. -1.
       -2   -1    0    0    0  501  0.00000000000E+00  0.00000000000E+00 -0.18164669648E+03  0.18164669650E+03  0.25500000920E-02 0.  1.
    10030    2    1    2    0    0  0.00000000000E+00  0.00000000000E+00  0.14852412399E+04  0.18485346329E+04  0.11005174911E+04 0.  0.
        2    1    3    3  502    0 -0.16247653532E+03  0.15465195630E+03 -0.10136399550E+03  0.24615139997E+03  0.25500000920E-02 0.  1.
       -2    1    3    3    0  502  0.16247653532E+03 -0.15465195630E+03  0.15866052354E+04  0.16023832329E+04  0.25500000920E-02 0. -1.
</event>
<event>
 5   0  0.8921459E-05  0.1099359E+04  0.7818609E-02  0.9205817E-01
       -1   -1    0    0    0  501  0.00000000000E+00  0.00000000000E+00  0.68074630532E+03  0.68074630534E+03  0.50400001928E-02 0. -1.
        1   -1    0    0  501    0  0.00000000000E+00  0.00000000000E+00 -0.44384742094E+03  0.44384742097E+03  0.50400001928E-02 0.  1.
    10030    2    1    2    0    0  0.00000000000E+00  0.00000000000E+00  0.23689888438E+03  0.11245937263E+04  0.10993588895E+04 0.  0.
        3    1    3    3  502    0  0.25953838749E+03 -0.39282151287E+03  0.40864868781E+03  0.62342816411E+03  0.10100000352E+00 0. -1.
       -3    1    3    3    0  502 -0.25953838749E+03  0.39282151287E+03 -0.17174980343E+03  0.50116556220E+03  0.10100000352E+00 0.  1.
</event>
<event>
 5   0  0.8657442E-05  0.1106122E+04  0.7818609E-02  0.9199245E-01
        1   -1    0    0  501    0  0.00000000000E+00  0.00000000000E+00  0.60491007761E+03  0.60491007763E+03  0.50400001928E-02 0. -1.
       -1   -1    0    0    0  501  0.00000000000E+00  0.00000000000E+00 -0.50565605008E+03  0.50565605010E+03  0.50400001928E-02 0.  1.
    10030    2    1    2    0    0  0.00000000000E+00  0.00000000000E+00  0.99254027531E+02  0.11105661277E+04  0.11061219472E+04 0.  0.
        1    1    3    3  502    0 -0.13471196197E+03  0.50036156450E+03  0.24371025822E+03  0.57262876099E+03  0.50400001928E-02 0. -1.
       -1    1    3    3    0  502  0.13471196197E+03 -0.50036156450E+03 -0.14445623069E+03  0.53793736674E+03  0.50400001928E-02 0.  1.
</event>
<event>
 5   0  0.1574101E-04  0.1099636E+04  0.7818609E-02  0.9205546E-01
        2   -1    0    0  501    0  0.00000000000E+00  0.00000000000E+00  0.18322857011E+04  0.18322857011E+04  0.25500000920E-02 0. -1.
       -2   -1    0    0    0  501  0.00000000000E+00  0.00000000000E+00 -0.16498517943E+03  0.16498517945E+03  0.25500000920E-02 0.  1.
    10030    2    1    2    0    0  0.00000000000E+00  0.00000000000E+00  0.16673005217E+04  0.19972708806E+04  0.10996362766E+04 0.  0.
        4    1    3    3  502    0  0.82045246003E+02  0.50071687414E+03  0.44899912974E+03  0.67753276072E+03  0.12699999809E+01 0.  1.
       -4    1    3    3    0  502 -0.82045246003E+02 -0.50071687414E+03  0.12183013920E+04  0.13197381199E+04  0.12699999809E+01 0. -1.
</event>
<event>
 5   0  0.1503277E-04  0.1100558E+04  0.7818609E-02  0.9204648E-01
       -2   -1    0    0    0  501  0.00000000000E+00  0.00000000000E+00  0.22418484394E+03  0.22418484395E+03  0.25500000920E-02 0.  1.
        2   -1    0    0  501    0  0.00000000000E+00  0.00000000000E+00 -0.13507031863E+04  0.13507031863E+04  0.25500000920E-02 0. -1.
    10030    2    1    2    0    0  0.00000000000E+00  0.00000000000E+00 -0.11265183424E+04  0.15748880303E+04  0.11005583729E+04 0.  0.
        5    1    3    3  502    0  0.77437798394E+01 -0.44311577349E+03 -0.10299759373E+04  0.11212867948E+04  0.46999998093E+01 0. -1.
       -5    1    3    3    0  502 -0.77437798394E+01  0.44311577349E+03 -0.96542405103E+02  0.45360123547E+03  0.46999998093E+01 0.  1.
</event>
<event>
 5   0  0.8621738E-05  0.1099935E+04  0.7818609E-02  0.9205256E-01
        1   -1    0    0  501    0  0.00000000000E+00  0.00000000000E+00  0.45055090859E+03  0.45055090862E+03  0.50400001928E-02 0. -1.
       -1   -1    0    0    0  501  0.00000000000E+00  0.00000000000E+00 -0.67132049250E+03  0.67132049252E+03  0.50400001928E-02 0.  1.
    10030    2    1    2    0    0  0.00000000000E+00  0.00000000000E+00 -0.22076958391E+03  0.11218714011E+04  0.10999346487E+04 0.  0.
        2    1    3    3  502    0 -0.15665698645E+03  0.11976072184E+03 -0.63402433380E+03  0.66398109744E+03  0.25500000920E-02 0.  1.
       -2    1    3    3    0  502  0.15665698645E+03 -0.11976072184E+03  0.41325474989E+03  0.45789030369E+03  0.25500000920E-02 0. -1.
</event>
<event>
 5   0  0.8621738E-05  0.1099889E+04  0.7818609E-02  0.9205300E-01
        1   -1    0    0  501    0  0.00000000000E+00  0.00000000000E+00  0.12753459720E+04  0.12753459720E+04  0.50400001928E-02 0.  1.
       -1   -1    0    0    0  501  0.00000000000E+00  0.00000000000E+00 -0.23714281358E+03  0.23714281363E+03  0.50400001928E-02 0. -1.
    10030    2    1    2    0    0  0.00000000000E+00  0.00000000000E+00  0.10382031584E+04  0.15124887857E+04  0.10998893256E+04 0.  0.
        2    1    3    3  502    0  0.27353588695E+03 -0.44722732927E+03  0.29062757701E+03  0.59941517667E+03  0.25500000920E-02 0. -1.
       -2    1    3    3    0  502 -0.27353588695E+03  0.44722732927E+03  0.74757558143E+03  0.91307360900E+03  0.25500000920E-02 0.  1.
</event>
<event>
 5   0  0.8657442E-05  0.1100392E+04  0.7818609E-02  0.9204810E-01
        1   -1    0    0  501    0  0.00000000000E+00  0.00000000000E+00  0.59802326052E+03  0.59802326054E+03  0.50400001928E-02 0. -1.
       -1   -1    0    0    0  501  0.00000000000E+00  0.00000000000E+00 -0.50619406054E+03  0.50619406056E+03  0.50400001928E-02 0.  1.
    10030    2    1    2    0    0  0.00000000000E+00  0.00000000000E+00  0.91829199984E+02  0.11042173211E+04  0.11003923347E+04 0.  0.
        1    1    3    3  502    0 -0.17237658100E+03  0.30329900579E+03 -0.38101916407E+03  0.51660388694E+03  0.50400001928E-02 0.  1.
       -1    1    3    3    0  502  0.17237658100E+03 -0.30329900579E+03  0.47284836405E+03  0.58761343416E+03  0.50400001928E-02 0. -1.
</event>
<event>
 5   0  0.9346836E-05  0.1099933E+04  0.7818609E-02  0.9205257E-01
       -1   -1    0    0    0  501  0.00000000000E+00  0.00000000000E+00  0.77208870435E+03  0.77208870437E+03  0.50400001928E-02 0. -1.
        1   -1    0    0  501    0  0.00000000000E+00  0.00000000000E+00 -0.39174663235E+03  0.39174663238E+03  0.50400001928E-02 0.  1.
    10030    2    1    2    0    0  0.00000000000E+00  0.00000000000E+00  0.38034207201E+03  0.11638353368E+04  0.10999329977E+04 0.  0.
        5    1    3    3  502    0  0.16923180108E+03 -0.90237158239E+02 -0.35519426656E+03  0.40369196700E+03  0.46999998093E+01 0.  1.
       -5    1    3    3    0  502 -0.16923180108E+03  0.90237158239E+02  0.73553633857E+03  0.76014336975E+03  0.46999998093E+01 0. -1.
</event>
<event>
 5   0  0.8921459E-05  0.1100064E+04  0.7818609E-02  0.9205129E-01
        1   -1    0    0  501    0  0.00000000000E+00  0.00000000000E+00  0.53932781714E+03  0.53932781717E+03  0.50400001928E-02 0. -1.
       -1   -1    0    0    0  501  0.00000000000E+00  0.00000000000E+00 -0.56094878689E+03  0.56094878691E+03  0.50400001928E-02 0.  1.
    10030    2    1    2    0    0  0.00000000000E+00  0.00000000000E+00 -0.21620969743E+02  0.11002766041E+04  0.11000641523E+04 0.  0.
        3    1    3    3  502    0  0.23259096849E+03 -0.47152803056E+02  0.48548422501E+03  0.54038586991E+03  0.10100000352E+00 0. -1.
       -3    1    3    3    0  502 -0.23259096849E+03  0.47152803056E+02 -0.50710519476E+03  0.55989073417E+03  0.10100000352E+00 0.  1.
</event>
<event>
 5   0  0.1553937E-04  0.1091957E+04  0.7818609E-02  0.9213067E-01
        2   -1    0    0  501    0  0.00000000000E+00  0.00000000000E+00  0.40650794754E+03  0.40650794755E+03  0.25500000920E-02 0. -1.
       -2   -1    0    0    0  501  0.00000000000E+00  0.00000000000E+00 -0.73330029913E+03  0.73330029913E+03  0.25500000920E-02 0.  1.
    10030    2    1    2    0    0  0.00000000000E+00  0.00000000000E+00 -0.32679235159E+03  0.11398082467E+04  0.10919567748E+04 0.  0.
        1    1    3    3  502    0 -0.30222447252E+03 -0.32923820985E+02 -0.63677687186E+03  0.70562624266E+03  0.50400001928E-02 0.  1.
       -1    1    3    3    0  502  0.30222447252E+03  0.32923820985E+02  0.30998452027E+03  0.43418200401E+03  0.50400001928E-02 0. -1.
</event>
<event>
 5   0  0.8921459E-05  0.1099971E+04  0.7818609E-02  0.9205221E-01
       -1   -1    0    0    0  501  0.00000000000E+00  0.00000000000E+00  0.28975515029E+03  0.28975515033E+03  0.50400001928E-02 0.  1.
        1   -1    0    0  501    0  0.00000000000E+00  0.00000000000E+00 -0.10439290639E+04  0.10439290640E+04  0.50400001928E-02 0. -1.
    10030    2    1    2    0    0  0.00000000000E+00  0.00000000000E+00 -0.75417391366E+03  0.13336842143E+04  0.10999705866E+04 0.  0.
        3    1    3    3  502    0  0.32550675971E+03 -0.13919685095E+03  0.13323785369E+03  0.37826280519E+03  0.10100000352E+00 0.  1.
       -3    1    3    3    0  502 -0.32550675971E+03  0.13919685095E+03 -0.88741176735E+03  0.95542140910E+03  0.10100000352E+00 0. -1.
</event>
<event>
 5   0  0.8657442E-05  0.1099988E+04  0.7818609E-02  0.9205204E-01
       -1   -1    0    0    0  501  0.00000000000E+00  0.00000000000E+00  0.40219018494E+03  0.40219018497E+03  0.50400001928E-02 0. -1.
        1   -1    0    0  501    0  0.00000000000E+00  0.00000000000E+00 -0.75211475037E+03  0.75211475039E+03  0.50400001928E-02 0.  1.
    10030    2    1    2    0    0  0.00000000000E+00  0.00000000000E+00 -0.34992456543E+03  0.11543049354E+04  0.10999875828E+04 0.  0.
        1    1    3    3  502    0  0.24523530642E+03  0.14523370825E+03  0.31864801253E+03  0.42751577917E+03  0.50400001928E-02 0. -1.
       -1    1    3    3    0  502 -0.24523530642E+03 -0.14523370825E+03 -0.66857257796E+03  0.72678915619E+03  0.50400001928E-02 0.  1.
</event>
<event>
 5   0  0.8657442E-05  0.1099995E+04  0.7818609E-02  0.9205197E-01
       -1   -1    0    0    0  501  0.00000000000E+00  0.00000000000E+00  0.31136920276E+03  0.31136920280E+03  0.50400001928E-02 0.  1.
        1   -1    0    0  501    0  0.00000000000E+00  0.00000000000E+00 -0.97150660554E+03  0.97150660556E+03  0.50400001928E-02 0. -1.
    10030    2    1    2    0    0  0.00000000000E+00  0.00000000000E+00 -0.66013740278E+03  0.12828758084E+04  0.10999949769E+04 0.  0.
        1    1    3    3  502    0  0.35218048993E+03 -0.22465131409E+03 -0.74731777526E+03  0.85614436145E+03  0.50400001928E-02 0.  1.
       -1    1    3    3    0  502 -0.35218048993E+03  0.22465131409E+03  0.87180372477E+02  0.42673144691E+03  0.50400001928E-02 0. -1.
</event>
<event>
 5   0  0.8621738E-05  0.1099894E+04  0.7818609E-02  0.9205296E-01
        1   -1    0    0  501    0  0.00000000000E+00  0.00000000000E+00  0.86596172055E+03  0.86596172056E+03  0.50400001928E-02 0.  1.
       -1   -1    0    0    0  501  0.00000000000E+00  0.00000000000E+00 -0.34925500665E+03  0.34925500668E+03  0.50400001928E-02 0. -1.
    10030    2    1    2    0    0  0.00000000000E+00  0.00000000000E+00  0.51670671390E+03  0.12152167272E+04  0.10998935703E+04 0.  0.
        2    1    3    3  502    0  0.20740877489E+03 -0.14799498368E+03  0.79681363608E+03  0.83656015070E+03  0.25500000920E-02 0.  1.
       -2    1    3    3    0  502 -0.20740877489E+03  0.14799498368E+03 -0.28010692218E+03  0.37865657654E+03  0.25500000920E-02 0. -1.
</event>
<event>
 5   0  0.8921459E-05  0.1100581E+04  0.7818609E-02  0.9204625E-01
        1   -1    0    0  501    0  0.00000000000E+00  0.00000000000E+00  0.20481055259E+04  0.20481055259E+04  0.50400001928E-02 0. -1.
       -1   -1    0    0    0  501  0.00000000000E+00  0.00000000000E+00 -0.14785364014E+03  0.14785364022E+03  0.50400001928E-02 0.  1.
    10030    2    1    2    0    0  0.00000000000E+00  0.00000000000E+00  0.19002518858E+04  0.21959591661E+04  0.11005814054E+04 0.  0.
        3    1    3    3  502    0  0.19023557249E+03 -0.31066911685E+03  0.17730757746E+04  0.18101112082E+04  0.10100000352E+00 0. -1.
       -3    1    3    3    0  502 -0.19023557249E+03  0.31066911685E+03  0.12717611112E+03  0.38584795793E+03  0.10100000352E+00 0.  1.
</event>
<event>
 5   0  0.1553937E-04  0.1100426E+04  0.7818609E-02  0.9204776E-01
        2   -1    0    0  501    0  0.00000000000E+00  0.00000000000E+00  0.96232354784E+03  0.96232354784E+03  0.25500000920E-02 0. -1.
       -2   -1    0    0    0  501  0.00000000000E+00  0.00000000000E+00 -0.31458703959E+03  0.31458703960E+03  0.25500000920E-02 0.  1.
    10030    2    1    2    0    0  0.00000000000E+00  0.00000000000E+00  0.64773650824E+03  0.12769105874E+04  0.11004263102E+04 0.  0.
        1    1    3    3  502    0 -0.24475835444E+03 -0.48974464097E+03  0.26054465975E+03  0.60633322949E+03  0.50400001928E-02 0.  1.
       -1    1    3    3    0  502  0.24475835444E+03  0.48974464097E+03  0.38719184850E+03  0.67057735795E+03  0.50400001928E-02 0. -1.
</event>
<event>
 5   0  0.1464205E-04  0.1099889E+04  0.7818609E-02  0.9205301E-01
        2   -1    0    0  501    0  0.00000000000E+00  0.00000000000E+00  0.10118447403E+04  0.10118447403E+04  0.25500000920E-02 0. -1.
       -2   -1    0    0    0  501  0.00000000000E+00  0.00000000000E+00 -0.29889831741E+03  0.29889831742E+03  0.25500000920E-02 0.  1.
    10030    2    1    2    0    0  0.00000000000E+00  0.00000000000E+00  0.71294642289E+03  0.13107430577E+04  0.10998885223E+04 0.  0.
        3    1    3    3  502    0  0.27162563568E+03  0.71389555969E+01 -0.21331554662E+03  0.34544895901E+03  0.10100000352E+00 0.  1.
       -3    1    3    3    0  502 -0.27162563568E+03 -0.71389555969E+01  0.92626196951E+03  0.96529409872E+03  0.10100000352E+00 0. -1.
</event>
<event>
 5   0  0.8921459E-05  0.1099864E+04  0.7818609E-02  0.9205325E-01
       -1   -1    0    0    0  501  0.00000000000E+00  0.00000000000E+00  0.33027786996E+03  0.33027787000E+03  0.50400001928E-02 0. -1.
        1   -1    0    0  501    0  0.00000000000E+00  0.00000000000E+00 -0.91566866499E+03  0.91566866500E+03  0.50400001928E-02 0.  1.
    10030    2    1    2    0    0  0.00000000000E+00  0.00000000000E+00 -0.58539079502E+03  0.12459465350E+04  0.10998638030E+04 0.  0.
        3    1    3    3  502    0  0.20740746932E+03  0.40295603335E+03  0.60180267973E+02  0.45717950303E+03  0.10100000352E+00 0. -1.
       -3    1    3    3    0  502 -0.20740746932E+03 -0.40295603335E+03 -0.64557106300E+03  0.78876703197E+03  0.10100000352E+00 0.  1.
</event>
<event>
 5   0  0.1503277E-04  0.1099760E+04  0.7818609E-02  0.9205426E-01
       -2   -1    0    0    0  501  0.00000000000E+00  0.00000000000E+00  0.26568465487E+03  0.26568465488E+03  0.25500000920E-02 0. -1.
        2   -1    0    0  501    0  0.00000000000E+00  0.00000000000E+00 -0.11380711903E+04  0.11380711903E+04  0.25500000920E-02 0.  1.
    10030    2    1    2    0    0  0.00000000000E+00  0.00000000000E+00 -0.87238653544E+03  0.14037558452E+04  0.10997600673E+04 0.  0.
        5    1    3    3  502    0  0.13701124845E+03 -0.81742738335E+02  0.23546573244E+03  0.28446468784E+03  0.46999998093E+01 0. -1.
       -5    1    3    3    0  502 -0.13701124845E+03  0.81742738335E+02 -0.11078522679E+04  0.11192911573E+04  0.46999998093E+01 0.  1.
</event>
<event>
 5   0  0.8621738E-05  0.1099968E+04  0.7818609E-02  0.9205223E-01
       -1   -1    0    0    0  501  0.00000000000E+00  0.00000000000E+00  0.57632414570E+03  0.57632414572E+03  0.50400001928E-02 0. -1.
        1   -1    0    0  501    0  0.00000000000E+00  0.00000000000E+00 -0.52484776065E+03  0.52484776067E+03  0.50400001928E-02 0.  1.
    10030    2    1    2    0    0  0.00000000000E+00  0.00000000000E+00  0.51476385055E+02  0.11011719064E+04  0.10999680674E+04 0.  0.
        2    1    3    3  502    0  0.17354425223E+03 -0.28239755888E+03  0.46509942210E+03  0.57112473347E+03  0.25500000920E-02 0. -1.
       -2    1    3    3    0  502 -0.17354425223E+03  0.28239755888E+03 -0.41362303704E+03  0.53004717292E+03  0.25500000920E-02 0.  1.
</event>
<event>
 5   0  0.8621738E-05  0.1100416E+04  0.7818609E-02  0.9204786E-01
       -1   -1    0    0    0  501  0.00000000000E+00  0.00000000000E+00  0.24262221232E+03  0.24262221237E+03  0.50400001928E-02 0. -1.
        1   -1    0    0  501    0  0.00000000000E+00  0.00000000000E+00 -0.12477379226E+04  0.12477379226E+04  0.50400001928E-02 0.  1.
    10030    2    1    2    0    0  0.00000000000E+00  0.00000000000E+00 -0.10051157102E+04  0.14903601349E+04  0.11004161671E+04 0.  0.
        2    1    3    3  502    0  0.25827953425E+03 -0.48112071263E+03 -0.59384895570E+03  0.80674781693E+03  0.25500000920E-02 0.  1.
       -2    1    3    3    0  502 -0.25827953425E+03  0.48112071263E+03 -0.41126675454E+03  0.68361231801E+03  0.25500000920E-02 0. -1.
</event>
<event>
 5   0  0.8657442E-05  0.1099810E+04  0.7818609E-02  0.9205377E-01
       -1   -1    0    0    0  501  0.00000000000E+00  0.00000000000E+00  0.71746442669E+03  0.71746442671E+03  0.50400001928E-02 0.  1.
        1   -1    0    0  501    0  0.00000000000E+00  0.00000000000E+00 -0.42147784086E+03  0.42147784089E+03  0.50400001928E-02 0. -1.
    10030    2    1    2    0    0  0.00000000000E+00  0.00000000000E+00  0.29598658583E+03  0.11389422676E+04  0.10998097244E+04 0.  0.
        1    1    3    3  502    0 -0.12343414435E+03 -0.53522881542E+03  0.17518562425E+03  0.57653783554E+03  0.50400001928E-02 0.  1.
       -1    1    3    3    0  502  0.12343414435E+03  0.53522881542E+03  0.12080096159E+03  0.56240443205E+03  0.50400001928E-02 0. -1.
</event>
<event>
 5   0  0.8921459E-05  0.1099686E+04  0.7818609E-02  0.9205498E-01
       -1   -1    0    0    0  501  0.00000000000E+00  0.00000000000E+00  0.39338086746E+03  0.39338086749E+03  0.50400001928E-02 0.  1.
        1   -1    0    0  501    0  0.00000000000E+00  0.00000000000E+00 -0.76853524867E+03  0.76853524868E+03  0.50400001928E-02 0. -1.
    10030    2    1    2    0    0  0.00000000000E+00  0.00000000000E+00 -0.37515438121E+03  0.11619161162E+04  0.10996855238E+04 0.  0.
        3    1    3    3  502    0  0.27208179320E+03 -0.23089659119E+03  0.25440733945E+03  0.43825203089E+03  0.10100000352E+00 0.  1.
       -3    1    3    3    0  502 -0.27208179320E+03  0.23089659119E+03 -0.62956172065E+03  0.72366408528E+03  0.10100000352E+00 0. -1.
</event>
<event>
 5   0  0.1503277E-04  0.1099531E+04  0.7818609E-02  0.9205649E-01
       -2   -1    0    0    0  501  0.00000000000E+00  0.00000000000E+00  0.22828984686E+03  0.22828984687E+03  0.25500000920E-02 0.  1.
        2   -1    0    0  501    0  0.00000000000E+00  0.00000000000E+00 -0.13239413067E+04  0.13239413067E+04  0.25500000920E-02 0. -1.
    10030    2    1    2    0    0  0.00000000000E+00  0.00000000000E+00 -0.10956514599E+04  0.15522311536E+04  0.10995314605E+04 0.  0.
        5    1    3    3  502    0 -0.25848820521E+03  0.47606669191E+03 -0.67999037717E+03  0.86940476788E+03  0.46999998093E+01 0.  1.
       -5    1    3    3    0  502  0.25848820521E+03 -0.47606669191E+03 -0.41566108271E+03  0.68282638573E+03  0.46999998093E+01 0. -1.
</event>
<event>
 5   0  0.1574101E-04  0.1100013E+04  0.7818609E-02  0.9205180E-01
       -2   -1    0    0    0  501  0.00000000000E+00  0.00000000000E+00  0.27292687946E+03  0.27292687948E+03  0.25500000920E-02 0. -1.
        2   -1    0    0  501    0  0.00000000000E+00  0.00000000000E+00 -0.11083808612E+04  0.11083808612E+04  0.25500000920E-02 0.  1.
    10030    2    1    2    0    0  0.00000000000E+00  0.00000000000E+00 -0.83545398177E+03  0.13813077407E+04  0.11000125994E+04 0.  0.
        4    1    3    3  502    0  0.17360295043E+03 -0.52116144917E+03 -0.38315302062E+03  0.66974255547E+03  0.12699999809E+01 0.  1.
       -4    1    3    3    0  502 -0.17360295043E+03  0.52116144917E+03 -0.45230096115E+03  0.71156518524E+03  0.12699999809E+01 0. -1.
</event>
<event>
 5   0  0.9346836E-05  0.1100250E+04  0.7818609E-02  0.9204948E-01
        1   -1    0    0  501    0  0.00000000000E+00  0.00000000000E+00  0.78955262613E+03  0.78955262615E+03  0.50400001928E-02 0. -1.
       -1   -1    0    0    0  501  0.00000000000E+00  0.00000000000E+00 -0.38330257685E+03  0.38330257689E+03  0.50400001928E-02 0.  1.
    10030    2    1    2    0    0  0.00000000000E+00  0.00000000000E+00  0.40625004928E+03  0.11728552030E+04  0.11002500737E+04 0.  0.
        5    1    3    3  502    0  0.35103350080E+03  0.24925947922E+03 -0.16190547993E+03  0.45998943585E+03  0.46999998093E+01 0.  1.
       -5    1    3    3    0  502 -0.35103350080E+03 -0.24925947922E+03  0.56815552921E+03  0.71286576719E+03  0.46999998093E+01 0. -1.
</event>
<event>
 5   0  0.9346836E-05  0.1097952E+04  0.7818609E-02  0.9207190E-01
       -1   -1    0    0    0  501  0.00000000000E+00  0.00000000000E+00  0.28669729256E+03  0.28669729260E+03  0.50400001928E-02 0.  1.
        1   -1    0    0  501    0  0.00000000000E+00  0.00000000000E+00 -0.10511946530E+04  0.10511946530E+04  0.50400001928E-02 0. -1.
    10030    2    1    2    0    0  0.00000000000E+00  0.00000000000E+00 -0.76449736044E+03  0.13378919456E+04  0.10979520226E+04 0.  0.
        5    1    3    3  502    0 -0.28614264533E+03 -0.41572688500E+03 -0.64542415412E+03  0.81932953389E+03  0.46999998093E+01 0.  1.
       -5    1    3    3    0  502  0.28614264533E+03  0.41572688500E+03 -0.11907320632E+03  0.51856241172E+03  0.46999998093E+01 0. -1.
</event>
<event>
 5   0  0.1553937E-04  0.1099910E+04  0.7818609E-02  0.9205279E-01
       -2   -1    0    0    0  501  0.00000000000E+00  0.00000000000E+00  0.78052795261E+03  0.78052795262E+03  0.25500000920E-02 0.  1.
        2   -1    0    0  501    0  0.00000000000E+00  0.00000000000E+00 -0.38749499212E+03  0.38749499213E+03  0.25500000920E-02 0. -1.
    10030    2    1    2    0    0  0.00000000000E+00  0.00000000000E+00  0.39303296050E+03  0.11680229447E+04  0.10999103106E+04 0.  0.
        1    1    3    3  502    0  0.15709279553E+03 -0.13548810876E+03  0.73738544322E+03  0.76601074791E+03  0.50400001928E-02 0.  1.
       -1    1    3    3    0  502 -0.15709279553E+03  0.13548810876E+03 -0.34435248272E+03  0.40201219683E+03  0.50400001928E-02 0. -1.
</event>
<event>
 5   0  0.1574101E-04  0.1100518E+04  0.7818609E-02  0.9204687E-01
       -2   -1    0    0    0  501  0.00000000000E+00  0.00000000000E+00  0.15386519367E+03  0.15386519370E+03  0.25500000920E-02 0. -1.
        2   -1    0    0  501    0  0.00000000000E+00  0.00000000000E+00 -0.19678596172E+04  0.19678596172E+04  0.25500000920E-02 0.  1.
    10030    2    1    2    0    0  0.00000000000E+00  0.00000000000E+00 -0.18139944235E+04  0.21217248109E+04  0.11005182436E+04 0.  0.
        4    1    3    3  502    0  0.21459772597E+03  0.38456379693E+03 -0.27094898524E+03  0.51706524095E+03  0.12699999809E+01 0. -1.
       -4    1    3    3    0  502 -0.21459772597E+03 -0.38456379693E+03 -0.15430454383E+04  0.16046595699E+04  0.12699999809E+01 0.  1.
</event>
<event>
 5   0  0.1574101E-04  0.1093466E+04  0.7818609E-02  0.9211584E-01
        2   -1    0    0  501    0  0.00000000000E+00  0.00000000000E+00  0.15732668294E+04  0.15732668294E+04  0.25500000920E-02 0. -1.
       -2   -1    0    0    0  501  0.00000000000E+00  0.00000000000E+00 -0.18999759122E+03  0.18999759124E+03  0.25500000920E-02 0.  1.
    10030    2    1    2    0    0  0.00000000000E+00  0.00000000000E+00  0.13832692382E+04  0.17632644206E+04  0.10934658805E+04 0.  0.
        4    1    3    3  502    0  0.16624637411E+02 -0.19756708597E+03  0.15132521689E+04  0.15261857265E+04  0.12699999809E+01 0. -1.
       -4    1    3    3    0  502 -0.16624637411E+02  0.19756708597E+03 -0.12998293077E+03  0.23707869415E+03  0.12699999809E+01 0.  1.
</event>
<event>
 5   0  0.9016738E-05  0.1100382E+04  0.7818609E-02  0.9204820E-01
       -1   -1    0    0    0  501  0.00000000000E+00  0.00000000000E+00  0.67601567479E+03  0.67601567481E+03  0.50400001928E-02 0. -1.
        1   -1    0    0  501    0  0.00000000000E+00  0.00000000000E+00 -0.44778567163E+03  0.44778567166E+03  0.50400001928E-02 0.  1.
    10030    2    1    2    0    0  0.00000000000E+00  0.00000000000E+00  0.22823000315E+03  0.11238013465E+04  0.11003819937E+04 0.  0.
        4    1    3    3  502    0 -0.18091041463E+03 -0.16745865089E+03 -0.38822493361E+03  0.45988171290E+03  0.12699999809E+01 0.  1.
       -4    1    3    3    0  502  0.18091041463E+03  0.16745865089E+03  0.61645493677E+03  0.66391963357E+03  0.12699999809E+01 0. -1.
</event>
<event>
 5   0  0.8921459E-05  0.1102538E+04  0.7818609E-02  0.9202721E-01
       -1   -1    0    0    0  501  0.00000000000E+00  0.00000000000E+00  0.42872435964E+03  0.42872435967E+03  0.50400001928E-02 0.  1.
        1   -1    0    0  501    0  0.00000000000E+00  0.00000000000E+00 -0.70884179547E+03  0.70884179549E+03  0.50400001928E-02 0. -1.
    10030    2    1    2    0    0  0.00000000000E+00  0.00000000000E+00 -0.28011743583E+03  0.11375661552E+04  0.11025384254E+04 0.  0.
        3    1    3    3  502    0  0.96858380215E+02 -0.19175377613E+03  0.38375813447E+03  0.43979696730E+03  0.10100000352E+00 0.  1.
       -3    1    3    3    0  502 -0.96858380215E+02  0.19175377613E+03 -0.66387557030E+03  0.69776918786E+03  0.10100000352E+00 0. -1.
</event>
<event>
 5   0  0.8657442E-05  0.1099978E+04  0.7818609E-02  0.9205214E-01
        1   -1    0    0  501    0  0.00000000000E+00  0.00000000000E+00  0.63858224088E+03  0.63858224090E+03  0.50400001928E-02 0.  1.
       -1   -1    0    0    0  501  0.00000000000E+00  0.00000000000E+00 -0.47368648607E+03  0.47368648610E+03  0.50400001928E-02 0. -1.
    10030    2    1    2    0    0  0.00000000000E+00  0.00000000000E+00  0.16489575481E+03  0.11122687270E+04  0.10999777775E+04 0.  0.
        1    1    3    3  502    0  0.12923889081E+03  0.54173910552E+02 -0.45533146696E+03  0.47640764930E+03  0.50400001928E-02 0. -1.
       -1    1    3    3    0  502 -0.12923889081E+03 -0.54173910552E+02  0.62022722177E+03  0.63586107770E+03  0.50400001928E-02 0.  1.
</event>
<event>
 5   0  0.1574101E-04  0.1100194E+04  0.7818609E-02  0.9205003E-01
        2   -1    0    0  501    0  0.00000000000E+00  0.00000000000E+00  0.11134249392E+04  0.11134249392E+04  0.25500000920E-02 0. -1.
       -2   -1    0    0    0  501  0.00000000000E+00  0.00000000000E+00 -0.27178006285E+03  0.27178006287E+03  0.25500000920E-02 0.  1.
    10030    2    1    2    0    0  0.00000000000E+00  0.00000000000E+00  0.84164487639E+03  0.13852050021E+04  0.11001939829E+04 0.  0.
        4    1    3    3  502    0  0.12432695443E+03 -0.19053653572E+03 -0.20976658356E+03  0.30945919847E+03  0.12699999809E+01 0.  1.
       -4    1    3    3    0  502 -0.12432695443E+03  0.19053653572E+03  0.10514114599E+04  0.10757458036E+04  0.12699999809E+01 0. -1.
</event>
<event>
 5   0  0.9016738E-05  0.1099780E+04  0.7818609E-02  0.9205406E-01
        1   -1    0    0  501    0  0.00000000000E+00  0.00000000000E+00  0.46647945775E+03  0.46647945777E+03  0.50400001928E-02 0.  1.
       -1   -1    0    0    0  501  0.00000000000E+00  0.00000000000E+00 -0.64821557006E+03  0.64821557008E+03  0.50400001928E-02 0. -1.
    10030    2    1    2    0    0  0.00000000000E+00  0.00000000000E+00 -0.18173611232E+03  0.11146950279E+04  0.10997804284E+04 0.  0.
        4    1    3    3  502    0  0.14026085342E+03 -0.44909176029E+03 -0.37937029958E+03  0.60438394524E+03  0.12699999809E+01 0. -1.
       -4    1    3    3    0  502 -0.14026085342E+03  0.44909176029E+03  0.19763418727E+03  0.51031108261E+03  0.12699999809E+01 0.  1.
</event>
<event>
 5   0  0.1553937E-04  0.1099979E+04  0.7818609E-02  0.9205212E-01
        2   -1    0    0  501    0  0.00000000000E+00  0.00000000000E+00  0.43287894625E+03  0.43287894625E+03  0.25500000920E-02 0. -1.
       -2   -1    0    0    0  501  0.00000000000E+00  0.00000000000E+00 -0.69878358682E+03  0.69878358683E+03  0.25500000920E-02 0.  1.
    10030    2    1    2    0    0  0.00000000000E+00  0.00000000000E+00 -0.26590464057E+03  0.11316625331E+04  0.10999794593E+04 0.  0.
        1    1    3    3  502    0  0.98499923821E+02 -0.41555518269E+03 -0.48948924397E+03  0.64960608436E+03  0.50400001928E-02 0.  1.
       -1    1    3    3    0  502 -0.98499923821E+02  0.41555518269E+03  0.22358460339E+03  0.48205644872E+03  0.50400001928E-02 0. -1.
</event>
<event>
 5   0  0.8921459E-05  0.1099796E+04  0.7818609E-02  0.9205391E-01
        1   -1    0    0  501    0  0.00000000000E+00  0.00000000000E+00  0.45514972531E+03  0.45514972534E+03  0.50400001928E-02 0. -1.
       -1   -1    0    0    0  501  0.00000000000E+00  0.00000000000E+00 -0.66437010803E+03  0.66437010805E+03  0.50400001928E-02 0.  1.
    10030    2    1    2    0    0  0.00000000000E+00  0.00000000000E+00 -0.20922038272E+03  0.11195198334E+04  0.10997961124E+04 0.  0.
        3    1    3    3  502    0 -0.16665991275E+03 -0.59803045060E+02 -0.63455793372E+03  0.65879868865E+03  0.10100000352E+00 0.  1.
       -3    1    3    3    0  502  0.16665991275E+03  0.59803045060E+02  0.42533755101E+03  0.46072114474E+03  0.10100000352E+00 0. -1.
</event>
<event>
 5   0  0.1464205E-04  0.1096818E+04  0.7818609E-02  0.9208299E-01
        2   -1    0    0  501    0  0.00000000000E+00  0.00000000000E+00  0.63480500494E+03  0.63480500495E+03  0.25500000920E-02 0.  1.
       -2   -1    0    0    0  501  0.00000000000E+00  0.00000000000E+00 -0.47377128342E+03  0.47377128343E+03  0.25500000920E-02 0. -1.
    10030    2    1    2    0    0  0.00000000000E+00  0.00000000000E+00  0.16103372152E+03  0.11085762884E+04  0.10968179100E+04 0.  0.
        3    1    3    3  502    0 -0.50058705907E+02 -0.29738668373E+03  0.54347499558E+03  0.62153824880E+03  0.10100000352E+00 0.  1.
       -3    1    3    3    0  502  0.50058705907E+02  0.29738668373E+03 -0.38244127406E+03  0.48703803958E+03  0.10100000352E+00 0. -1.
</event>
<event>
 5   0  0.1553937E-04  0.1100190E+04  0.7818609E-02  0.9205006E-01
        2   -1    0    0  501    0  0.00000000000E+00  0.00000000000E+00  0.22864324823E+04  0.22864324823E+04  0.25500000920E-02 0.  1.
       -2   -1    0    0    0  501  0.00000000000E+00  0.00000000000E+00 -0.13234799420E+03  0.13234799422E+03  0.25500000920E-02 0. -1.
    10030    2    1    2    0    0  0.00000000000E+00  0.00000000000E+00  0.21540844881E+04  0.24187804765E+04  0.11001904434E+04 0.  0.
        1    1    3    3  502    0  0.91311131896E+02  0.36037565369E+03  0.18563786758E+03  0.41553550088E+03  0.50400001928E-02 0. -1.
       -1    1    3    3    0  502 -0.91311131896E+02 -0.36037565369E+03  0.19684466205E+04  0.20032449756E+04  0.50400001928E-02 0.  1.
</event>
<event>
 5   0  0.9346836E-05  0.1100234E+04  0.7818609E-02  0.9204964E-01
       -1   -1    0    0    0  501  0.00000000000E+00  0.00000000000E+00  0.39742750869E+03  0.39742750872E+03  0.50400001928E-02 0.  1.
        1   -1    0    0  501    0  0.00000000000E+00  0.00000000000E+00 -0.76146846418E+03  0.76146846419E+03  0.50400001928E-02 0. -1.
    10030    2    1    2    0    0  0.00000000000E+00  0.00000000000E+00 -0.36404095548E+03  0.11588959729E+04  0.11002336383E+04 0.  0.
        5    1    3    3  502    0 -0.30743547547E+03 -0.42279478553E+03 -0.36242536804E+03  0.63611810196E+03  0.46999998093E+01 0. -1.
       -5    1    3    3    0  502  0.30743547547E+03  0.42279478553E+03 -0.16155874455E+01  0.52277787096E+03  0.46999998093E+01 0.  1.
</event>
<event>
 5   0  0.8621738E-05  0.1098941E+04  0.7818609E-02  0.9206225E-01
        1   -1    0    0  501    0  0.00000000000E+00  0.00000000000E+00  0.46281149677E+03  0.46281149679E+03  0.50400001928E-02 0. -1.
       -1   -1    0    0    0  501  0.00000000000E+00  0.00000000000E+00 -0.65235597031E+03  0.65235597033E+03  0.50400001928E-02 0.  1.
    10030    2    1    2    0    0  0.00000000000E+00  0.00000000000E+00 -0.18954447355E+03  0.11151674671E+04  0.10989410231E+04 0.  0.
        2    1    3    3  502    0  0.33820720036E+03  0.34727784884E+03 -0.35730411759E+03  0.60220615002E+03  0.25500000920E-02 0.  1.
       -2    1    3    3    0  502 -0.33820720036E+03 -0.34727784884E+03  0.16775964405E+03  0.51296131711E+03  0.25500000920E-02 0. -1.
</event>
<event>
 5   0  0.1540772E-04  0.1103460E+04  0.7818609E-02  0.9201826E-01
       -2   -1    0    0    0  501  0.00000000000E+00  0.00000000000E+00  0.20346957822E+03  0.20346957823E+03  0.25500000920E-02 0.  1.
        2   -1    0    0  501    0  0.00000000000E+00  0.00000000000E+00 -0.14960755721E+04  0.14960755721E+04  0.25500000920E-02 0. -1.
    10030    2    1    2    0    0  0.00000000000E+00  0.00000000000E+00 -0.12926059939E+04  0.16995451504E+04  0.11034597694E+04 0.  0.
        2    1    3    3  502    0  0.36391766504E+03  0.19822058726E+03 -0.12073203714E+04  0.12764599278E+04  0.25500000920E-02 0. -1.
       -2    1    3    3    0  502 -0.36391766504E+03 -0.19822058726E+03 -0.85285622547E+02  0.42308522257E+03  0.25500000920E-02 0.  1.
</event>
<event>
 5   0  0.1540772E-04  0.1100049E+04  0.7818609E-02  0.9205144E-01
        2   -1    0    0  501    0  0.00000000000E+00  0.00000000000E+00  0.11589041148E+04  0.11589041148E+04  0.25500000920E-02 0. -1.
       -2   -1    0    0    0  501  0.00000000000E+00  0.00000000000E+00 -0.26104554504E+03  0.26104554505E+03  0.25500000920E-02 0.  1.
    10030    2    1    2    0    0  0.00000000000E+00  0.00000000000E+00  0.89785856977E+03  0.14199496599E+04  0.11000486468E+04 0.  0.
        2    1    3    3  502    0  0.34386527146E+03  0.42080557882E+03  0.33935438429E+03  0.64068873739E+03  0.25500000920E-02 0.  1.
       -2    1    3    3    0  502 -0.34386527146E+03 -0.42080557882E+03  0.55850418548E+03  0.77926092247E+03  0.25500000920E-02 0. -1.
</event>
<event>
 5   0  0.8657442E-05  0.1098610E+04  0.7818609E-02  0.9206548E-01
        1   -1    0    0  501    0  0.00000000000E+00  0.00000000000E+00  0.47777863038E+03  0.47777863041E+03  0.50400001928E-02 0.  1.
       -1   -1    0    0    0  501  0.00000000000E+00  0.00000000000E+00 -0.63153913842E+03  0.63153913844E+03  0.50400001928E-02 0. -1.
    10030    2    1    2    0    0  0.00000000000E+00  0.00000000000E+00 -0.15376050804E+03  0.11093177689E+04  0.10986098573E+04 0.  0.
        1    1    3    3  502    0  0.28107699876E+03  0.44958268030E+03 -0.22183093964E+03  0.57475023398E+03  0.50400001928E-02 0. -1.
       -1    1    3    3    0  502 -0.28107699876E+03 -0.44958268030E+03  0.68070431596E+02  0.53456753487E+03  0.50400001928E-02 0.  1.
</event>
<event>
 5   0  0.8621738E-05  0.1099625E+04  0.7818609E-02  0.9205557E-01
       -1   -1    0    0    0  501  0.00000000000E+00  0.00000000000E+00  0.52868187051E+03  0.52868187053E+03  0.50400001928E-02 0. -1.
        1   -1    0    0  501    0  0.00000000000E+00  0.00000000000E+00 -0.57178812536E+03  0.57178812538E+03  0.50400001928E-02 0.  1.
    10030    2    1    2    0    0  0.00000000000E+00  0.00000000000E+00 -0.43106254850E+02  0.11004699959E+04  0.10996254193E+04 0.  0.
        2    1    3    3  502    0  0.75671787673E+02 -0.22203852360E+03 -0.51919422971E+03  0.56972798210E+03  0.25500000920E-02 0.  1.
       -2    1    3    3    0  502 -0.75671787673E+02  0.22203852360E+03  0.47608797486E+03  0.53074201381E+03  0.25500000920E-02 0. -1.
</event>
<event>
 5   0  0.1553937E-04  0.1099046E+04  0.7818609E-02  0.9206122E-01
       -2   -1    0    0    0  501  0.00000000000E+00  0.00000000000E+00  0.46804365464E+03  0.46804365465E+03  0.25500000920E-02 0. -1.
        2   -1    0    0  501    0  0.00000000000E+00  0.00000000000E+00 -0.64518710430E+03  0.64518710430E+03  0.25500000920E-02 0.  1.
    10030    2    1    2    0    0  0.00000000000E+00  0.00000000000E+00 -0.17714344966E+03  0.11132307589E+04  0.10990463689E+04 0.  0.
        1    1    3    3  502    0  0.33352636430E+02 -0.15500224497E+02 -0.64393906726E+03  0.64498850973E+03  0.50400001928E-02 0.  1.
       -1    1    3    3    0  502 -0.33352636430E+02  0.15500224497E+02  0.46679561760E+03  0.46824224922E+03  0.50400001928E-02 0. -1.
</event>
<event>
 5   0  0.9016738E-05  0.1099542E+04  0.7818609E-02  0.9205639E-01
        1   -1    0    0  501    0  0.00000000000E+00  0.00000000000E+00  0.29632733018E+03  0.29632733023E+03  0.50400001928E-02 0.  1.
       -1   -1    0    0    0  501  0.00000000000E+00  0.00000000000E+00 -0.10199798386E+04  0.10199798386E+04  0.50400001928E-02 0. -1.
    10030    2    1    2    0    0  0.00000000000E+00  0.00000000000E+00 -0.72365250840E+03  0.13163071688E+04  0.10995415453E+04 0.  0.
        4    1    3    3  502    0 -0.50544846207E+03  0.17253462249E+03 -0.20573830621E+03  0.57234273588E+03  0.12699999809E+01 0.  1.
       -4    1    3    3    0  502  0.50544846207E+03 -0.17253462249E+03 -0.51791420219E+03  0.74396443295E+03  0.12699999809E+01 0. -1.
</event>
<event>
 5   0  0.1553937E-04  0.1099868E+04  0.7818609E-02  0.9205321E-01
       -2   -1    0    0    0  501  0.00000000000E+00  0.00000000000E+00  0.20645228559E+03  0.20645228561E+03  0.25500000920E-02 0. -1.
        2   -1    0    0  501    0  0.00000000000E+00  0.00000000000E+00 -0.14648778158E+04  0.14648778158E+04  0.25500000920E-02 0.  1.
    10030    2    1    2    0    0  0.00000000000E+00  0.00000000000E+00 -0.12584255302E+04  0.16713301014E+04  0.10998679433E+04 0.  0.
        1    1    3    3  502    0  0.13189267143E+03  0.50594736674E+03 -0.37022039280E+03  0.64065712668E+03  0.50400001928E-02 0. -1.
       -1    1    3    3    0  502 -0.13189267143E+03 -0.50594736674E+03 -0.88820513739E+03  0.10306729747E+04  0.50400001928E-02 0.  1.
</event>
<event>
 5   0  0.8657442E-05  0.1099815E+04  0.7818609E-02  0.9205372E-01
       -1   -1    0    0    0  501  0.00000000000E+00  0.00000000000E+00  0.70489221611E+03  0.70489221613E+03  0.50400001928E-02 0.  1.
        1   -1    0    0  501    0  0.00000000000E+00  0.00000000000E+00 -0.42899917180E+03  0.42899917183E+03  0.50400001928E-02 0. -1.
    10030    2    1    2    0    0  0.00000000000E+00  0.00000000000E+00  0.27589304431E+03  0.11338913880E+04  0.10998148516E+04 0.  0.
        1    1    3    3  502    0  0.91078456333E+02 -0.49138104293E+03 -0.98613313963E+02  0.50938708295E+03  0.50400001928E-02 0. -1.
       -1    1    3    3    0  502 -0.91078456333E+02  0.49138104293E+03  0.37450635827E+03  0.62450430501E+03  0.50400001928E-02 0.  1.
</event>
<event>
 5   0  0.1574101E-04  0.1099230E+04  0.7818609E-02  0.9205943E-01
       -2   -1    0    0    0  501  0.00000000000E+00  0.00000000000E+00  0.46451478048E+03  0.46451478048E+03  0.25500000920E-02 0.  1.
        2   -1    0    0  501    0  0.00000000000E+00  0.00000000000E+00 -0.65030580216E+03  0.65030580217E+03  0.25500000920E-02 0. -1.
    10030    2    1    2    0    0  0.00000000000E+00  0.00000000000E+00 -0.18579102169E+03  0.11148205826E+04  0.10992300159E+04 0.  0.
        4    1    3    3  502    0 -0.17531788375E+03  0.33468956109E+03 -0.49770781451E+03  0.62487450275E+03  0.12699999809E+01 0. -1.
       -4    1    3    3    0  502  0.17531788375E+03 -0.33468956109E+03  0.31191679282E+03  0.48994607990E+03  0.12699999809E+01 0.  1.
</event>
<event>
 5   0  0.9346836E-05  0.1101188E+04  0.7818609E-02  0.9204035E-01
        1   -1    0    0  501    0  0.00000000000E+00  0.00000000000E+00  0.90438965921E+03  0.90438965923E+03  0.50400001928E-02 0.  1.
       -1   -1    0    0    0  501  0.00000000000E+00  0.00000000000E+00 -0.33520243543E+03  0.33520243547E+03  0.50400001928E-02 0. -1.
    10030    2    1    2    0    0  0.00000000000E+00  0.00000000000E+00  0.56918722378E+03  0.12395920947E+04  0.11011877522E+04 0.  0.
        5    1    3    3  502    0 -0.33091101870E+03 -0.38826776316E+03  0.51498858349E+02  0.51276522954E+03  0.46999998093E+01 0.  1.
       -5    1    3    3    0  502  0.33091101870E+03  0.38826776316E+03  0.51768836543E+03  0.72682686516E+03  0.46999998093E+01 0. -1.
</event>
<event>
 5   0  0.1464205E-04  0.1100044E+04  0.7818609E-02  0.9205149E-01
       -2   -1    0    0    0  501  0.00000000000E+00  0.00000000000E+00  0.50438770239E+03  0.50438770240E+03  0.25500000920E-02 0.  1.
        2   -1    0    0  501    0  0.00000000000E+00  0.00000000000E+00 -0.59978500342E+03  0.59978500343E+03  0.25500000920E-02 0. -1.
    10030    2    1    2    0    0  0.00000000000E+00  0.00000000000E+00 -0.95397301028E+02  0.11041727058E+04  0.11000439624E+04 0.  0.
        3    1    3    3  502    0  0.20942993067E+03 -0.29525494009E+03  0.36796645991E+03  0.51617409982E+03  0.10100000352E+00 0.  1.
       -3    1    3    3    0  502 -0.20942993067E+03  0.29525494009E+03 -0.46336376094E+03  0.58799860600E+03  0.10100000352E+00 0. -1.
</event>
<event>
 5   0  0.1540772E-04  0.1100132E+04  0.7818609E-02  0.9205063E-01
       -2   -1    0    0    0  501  0.00000000000E+00  0.00000000000E+00  0.45552329727E+03  0.45552329727E+03  0.25500000920E-02 0.  1.
        2   -1    0    0  501    0  0.00000000000E+00  0.00000000000E+00 -0.66423054865E+03  0.66423054866E+03  0.25500000920E-02 0. -1.
    10030    2    1    2    0    0  0.00000000000E+00  0.00000000000E+00 -0.20870725139E+03  0.11197538459E+04  0.11001317915E+04 0.  0.
        2    1    3    3  502    0  0.98001126440E+02  0.53316219355E+03 -0.19932566540E+03  0.57757845035E+03  0.25500000920E-02 0. -1.
       -2    1    3    3    0  502 -0.98001126440E+02 -0.53316219355E+03 -0.93815859857E+01  0.54217539558E+03  0.25500000920E-02 0.  1.
</event>
<event>
 5   0  0.1553937E-04  0.1099659E+04  0.7818609E-02  0.9205524E-01
        2   -1    0    0  501    0  0.00000000000E+00  0.00000000000E+00  0.10773497594E+04  0.10773497594E+04  0.25500000920E-02 0.  1.
       -2   -1    0    0    0  501  0.00000000000E+00  0.00000000000E+00 -0.28060745332E+03  0.28060745333E+03  0.25500000920E-02 0. -1.
    10030    2    1    2    0    0  0.00000000000E+00  0.00000000000E+00  0.79674230611E+03  0.13579572128E+04  0.10996588059E+04 0.  0.
        1    1    3    3  502    0  0.54011469816E+03  0.51055570778E+02  0.28804488519E+03  0.61424784443E+03  0.50400001928E-02 0. -1.
       -1    1    3    3    0  502 -0.54011469816E+03 -0.51055570778E+02  0.50869742092E+03  0.74370936834E+03  0.50400001928E-02 0.  1.
</event>
<event>
 5   0  0.8621738E-05  0.1100304E+04  0.7818609E-02  0.9204896E-01
       -1   -1    0    0    0  501  0.00000000000E+00  0.00000000000E+00  0.47196097530E+03  0.47196097533E+03  0.50400001928E-02 0.  1.
        1   -1    0    0  501    0  0.00000000000E+00  0.00000000000E+00 -0.64129704853E+03  0.64129704855E+03  0.50400001928E-02 0. -1.
    10030    2    1    2    0    0  0.00000000000E+00  0.00000000000E+00 -0.16933607323E+03  0.11132580239E+04  0.11003039226E+04 0.  0.
        2    1    3    3  502    0  0.47641695806E+03 -0.10457499775E+03  0.17280415548E+03  0.51746528795E+03  0.25500000920E-02 0.  1.
       -2    1    3    3    0  502 -0.47641695806E+03  0.10457499775E+03 -0.34214022871E+03  0.59579273593E+03  0.25500000920E-02 0. -1.
</event>
<event>
 5   0  0.1540772E-04  0.1100977E+04  0.7818609E-02  0.9204240E-01
       -2   -1    0    0    0  501  0.00000000000E+00  0.00000000000E+00  0.26453889398E+03  0.26453889399E+03  0.25500000920E-02 0.  1.
        2   -1    0    0  501    0  0.00000000000E+00  0.00000000000E+00 -0.11455315242E+04  0.11455315242E+04  0.25500000920E-02 0. -1.
    10030    2    1    2    0    0  0.00000000000E+00  0.00000000000E+00 -0.88099263026E+03  0.14100704182E+04  0.11009770978E+04 0.  0.
        2    1    3    3  502    0 -0.26870862209E+03  0.43984361832E+03 -0.19290845009E+03  0.55034571161E+03  0.25500000920E-02 0.  1.
       -2    1    3    3    0  502  0.26870862209E+03 -0.43984361832E+03 -0.68808418017E+03  0.85972470662E+03  0.25500000920E-02 0. -1.
</event>
<event>
 5   0  0.8921459E-05  0.1099549E+04  0.7818609E-02  0.9205631E-01
        1   -1    0    0  501    0  0.00000000000E+00  0.00000000000E+00  0.12043375908E+04  0.12043375909E+04  0.50400001928E-02 0. -1.
       -1   -1    0    0    0  501  0.00000000000E+00  0.00000000000E+00 -0.25096971976E+03  0.25096971981E+03  0.50400001928E-02 0.  1.
    10030    2    1    2    0    0  0.00000000000E+00  0.00000000000E+00  0.95336787108E+03  0.14553073107E+04  0.10995494854E+04 0.  0.
        3    1    3    3  502    0  0.46417032713E+03 -0.12762190322E+03  0.82813737499E+03  0.95788985005E+03  0.10100000352E+00 0. -1.
       -3    1    3    3    0  502 -0.46417032713E+03  0.12762190322E+03  0.12523049609E+03  0.49741746061E+03  0.10100000352E+00 0.  1.
</event>
<event>
 5   0  0.8621738E-05  0.1099969E+04  0.7818609E-02  0.9205222E-01
        1   -1    0    0  501    0  0.00000000000E+00  0.00000000000E+00  0.42917059754E+03  0.42917059757E+03  0.50400001928E-02 0. -1.
       -1   -1    0    0    0  501  0.00000000000E+00  0.00000000000E+00 -0.70480834505E+03  0.70480834507E+03  0.50400001928E-02 0.  1.
    10030    2    1    2    0    0  0.00000000000E+00  0.00000000000E+00 -0.27563774751E+03  0.11339789426E+04  0.10999691243E+04 0.  0.
        2    1    3    3  502    0 -0.15012856169E+03  0.52848315568E+03 -0.11153574407E+03  0.56060079655E+03  0.25500000920E-02 0. -1.
       -2    1    3    3    0  502  0.15012856169E+03 -0.52848315568E+03 -0.16410200344E+03  0.57337814609E+03  0.25500000920E-02 0.  1.
</event>
<event>
 5   0  0.8621738E-05  0.1099698E+04  0.7818609E-02  0.9205486E-01
        1   -1    0    0  501    0  0.00000000000E+00  0.00000000000E+00  0.62822435290E+03  0.62822435292E+03  0.50400001928E-02 0. -1.
       -1   -1    0    0    0  501  0.00000000000E+00  0.00000000000E+00 -0.48125191898E+03  0.48125191900E+03  0.50400001928E-02 0.  1.
    10030    2    1    2    0    0  0.00000000000E+00  0.00000000000E+00  0.14697243392E+03  0.11094762719E+04  0.10996984594E+04 0.  0.
        2    1    3    3  502    0 -0.10280913096E+02  0.64572300121E+02 -0.47731570415E+03  0.48177334978E+03  0.25500000920E-02 0.  1.
       -2    1    3    3    0  502  0.10280913096E+02 -0.64572300121E+02  0.62428813807E+03  0.62770292214E+03  0.25500000920E-02 0. -1.
</event>
<event>
 5   0  0.9346836E-05  0.1099753E+04  0.7818609E-02  0.9205433E-01
       -1   -1    0    0    0  501  0.00000000000E+00  0.00000000000E+00  0.20356711258E+03  0.20356711264E+03  0.50400001928E-02 0. -1.
        1   -1    0    0  501    0  0.00000000000E+00  0.00000000000E+00 -0.14853284219E+04  0.14853284219E+04  0.50400001928E-02 0.  1.
    10030    2    1    2    0    0  0.00000000000E+00  0.00000000000E+00 -0.12817613094E+04  0.16888955346E+04  0.10997527325E+04 0.  0.
        5    1    3    3  502    0  0.56152652653E+02  0.57319438395E+02  0.19449657726E+03  0.21045105602E+03  0.46999998093E+01 0. -1.
       -5    1    3    3    0  502 -0.56152652653E+02 -0.57319438395E+02 -0.14762578866E+04  0.14784444786E+04  0.46999998093E+01 0.  1.
</event>
<event>
 5   0  0.1553937E-04  0.1097346E+04  0.7818609E-02  0.9207783E-01
        2   -1    0    0  501    0  0.00000000000E+00  0.00000000000E+00  0.96469389052E+03  0.96469389052E+03  0.25500000920E-02 0.  1.
       -2   -1    0    0    0  501  0.00000000000E+00  0.00000000000E+00 -0.31205948588E+03  0.31205948589E+03  0.25500000920E-02 0. -1.
    10030    2    1    2    0    0  0.00000000000E+00  0.00000000000E+00  0.65263440464E+03  0.12767533764E+04  0.10973456694E+04 0.  0.
        1    1    3    3  502    0 -0.34435281793E+03  0.19474921720E+03  0.76865211032E+03  0.86448376939E+03  0.50400001928E-02 0.  1.
       -1    1    3    3    0  502  0.34435281793E+03 -0.19474921720E+03 -0.11601770568E+03  0.41226960702E+03  0.50400001928E-02 0. -1.
</event>
<event>
 5   0  0.1574101E-04  0.1100263E+04  0.7818609E-02  0.9204936E-01
        2   -1    0    0  501    0  0.00000000000E+00  0.00000000000E+00  0.12293227838E+04  0.12293227838E+04  0.25500000920E-02 0. -1.
       -2   -1    0    0    0  501  0.00000000000E+00  0.00000000000E+00 -0.24618803850E+03  0.24618803851E+03  0.25500000920E-02 0.  1.
    10030    2    1    2    0    0  0.00000000000E+00  0.00000000000E+00  0.98313474529E+03  0.14755108223E+04  0.11002628138E+04 0.  0.
        4    1    3    3  502    0  0.17205081381E+03 -0.18462556467E+03  0.11471144831E+04  0.11745472880E+04  0.12699999809E+01 0. -1.
       -4    1    3    3    0  502 -0.17205081381E+03  0.18462556467E+03 -0.16397973777E+03  0.30096353428E+03  0.12699999809E+01 0.  1.
</event>
<event>
 5   0  0.1464205E-04  0.1100040E+04  0.7818609E-02  0.9205153E-01
       -2   -1    0    0    0  501  0.00000000000E+00  0.00000000000E+00  0.58451199777E+03  0.58451199777E+03  0.25500000920E-02 0. -1.
        2   -1    0    0  501    0  0.00000000000E+00  0.00000000000E+00 -0.51756293818E+03  0.51756293819E+03  0.25500000920E-02 0.  1.
    10030    2    1    2    0    0  0.00000000000E+00  0.00000000000E+00  0.66949059586E+02  0.11020749360E+04  0.11000395392E+04 0.  0.
        3    1    3    3  502    0  0.42448880089E+03 -0.46244508723E+02 -0.31385475824E+03  0.52993784177E+03  0.10100000352E+00 0.  1.
       -3    1    3    3    0  502 -0.42448880089E+03  0.46244508723E+02  0.38080381783E+03  0.57213709419E+03  0.10100000352E+00 0. -1.
</event>
<event>
 5   0  0.8621738E-05  0.1099589E+04  0.7818609E-02  0.9205592E-01
        1   -1    0    0  501    0  0.00000000000E+00  0.00000000000E+00  0.55298462238E+03  0.55298462240E+03  0.50400001928E-02 0. -1.
       -1   -1    0    0    0  501  0.00000000000E+00  0.00000000000E+00 -0.54662314428E+03  0.54662314430E+03  0.50400001928E-02 0.  1.
    10030    2    1    2    0    0  0.00000000000E+00  0.00000000000E+00  0.63614781052E+01  0.10996077667E+04  0.10995893653E+04 0.  0.
        2    1    3    3  502    0 -0.48526217088E+03  0.10937324535E+02 -0.25503898347E+03  0.54831002421E+03  0.25500000920E-02 0.  1.
       -2    1    3    3    0  502  0.48526217088E+03 -0.10937324535E+02  0.26140046157E+03  0.55129774249E+03  0.25500000920E-02 0. -1.
</event>
<event>
 5   0  0.6010125E-05  0.1099544E+04  0.7818609E-02  0.9205637E-01
       -4   -1    0    0    0  501  0.00000000000E+00  0.00000000000E+00  0.27252354798E+03  0.27252650716E+03  0.12699999809E+01 0.  1.
        4   -1    0    0  501    0  0.00000000000E+00  0.00000000000E+00 -0.11090658320E+04  0.11090665591E+04  0.12699999809E+01 0. -1.
    10030    2    1    2    0    0  0.00000000000E+00  0.00000000000E+00 -0.83654228398E+03  0.13815930663E+04  0.10995437271E+04 0.  0.
        2    1    3    3  502    0  0.25762490761E+03 -0.24722733415E+03  0.10700191104E+03  0.37274838262E+03  0.25500000920E-02 0.  1.
       -2    1    3    3    0  502 -0.25762490761E+03  0.24722733415E+03 -0.94354419502E+03  0.10088446837E+04  0.25500000920E-02 0. -1.
</event>
<event>
 5   0  0.9346836E-05  0.1099833E+04  0.7818609E-02  0.9205355E-01
       -1   -1    0    0    0  501  0.00000000000E+00  0.00000000000E+00  0.47872506771E+03  0.47872506773E+03  0.50400001928E-02 0. -1.
        1   -1    0    0  501    0  0.00000000000E+00  0.00000000000E+00 -0.63169494053E+03  0.63169494055E+03  0.50400001928E-02 0.  1.
    10030    2    1    2    0    0  0.00000000000E+00  0.00000000000E+00 -0.15296987282E+03  0.11104200083E+04  0.10998330841E+04 0.  0.
        5    1    3    3  502    0  0.42588143499E+03 -0.22161495272E+03  0.19423403437E+03  0.51791614576E+03  0.46999998093E+01 0. -1.
       -5    1    3    3    0  502 -0.42588143499E+03  0.22161495272E+03 -0.34720390719E+03  0.59250386252E+03  0.46999998093E+01 0.  1.
</event>
<event>
 5   0  0.9346836E-05  0.1099720E+04  0.7818609E-02  0.9205465E-01
       -1   -1    0    0    0  501  0.00000000000E+00  0.00000000000E+00  0.52860736283E+03  0.52860736285E+03  0.50400001928E-02 0. -1.
        1   -1    0    0  501    0  0.00000000000E+00  0.00000000000E+00 -0.57196689645E+03  0.57196689647E+03  0.50400001928E-02 0.  1.
    10030    2    1    2    0    0  0.00000000000E+00  0.00000000000E+00 -0.43359533624E+02  0.11005742593E+04  0.10997198057E+04 0.  0.
        5    1    3    3  502    0 -0.16223555260E+03  0.52535936983E+03 -0.20688653705E+02  0.55024808259E+03  0.46999998093E+01 0. -1.
       -5    1    3    3    0  502  0.16223555260E+03 -0.52535936983E+03 -0.22670879919E+02  0.55032617673E+03  0.46999998093E+01 0.  1.
</event>
<event>
 5   0  0.9016738E-05  0.1100526E+04  0.7818609E-02  0.9204680E-01
       -1   -1    0    0    0  501  0.00000000000E+00  0.00000000000E+00  0.17261565467E+03  0.17261565474E+03  0.50400001928E-02 0.  1.
        1   -1    0    0  501    0  0.00000000000E+00  0.00000000000E+00 -0.17541239853E+04  0.17541239854E+04  0.50400001928E-02 0. -1.
    10030    2    1    2    0    0  0.00000000000E+00  0.00000000000E+00 -0.15815083307E+04  0.19267396401E+04  0.11005258019E+04 0.  0.
        4    1    3    3  502    0  0.52584330258E+03 -0.11471599071E+03 -0.59024452410E+03  0.79878729868E+03  0.12699999809E+01 0.  1.
       -4    1    3    3    0  502 -0.52584330258E+03  0.11471599071E+03 -0.99126380657E+03  0.11279523414E+04  0.12699999809E+01 0. -1.
</event>
<event>
 5   0  0.8657442E-05  0.1100142E+04  0.7818609E-02  0.9205054E-01
       -1   -1    0    0    0  501  0.00000000000E+00  0.00000000000E+00  0.41829626580E+03  0.41829626583E+03  0.50400001928E-02 0.  1.
        1   -1    0    0  501    0  0.00000000000E+00  0.00000000000E+00 -0.72335773859E+03  0.72335773861E+03  0.50400001928E-02 0. -1.
    10030    2    1    2    0    0  0.00000000000E+00  0.00000000000E+00 -0.30506147280E+03  0.11416540044E+04  0.11001415198E+04 0.  0.
        1    1    3    3  502    0 -0.17653230585E+03 -0.22843253260E+03  0.33336006625E+03  0.44099207561E+03  0.50400001928E-02 0.  1.
       -1    1    3    3    0  502  0.17653230585E+03  0.22843253260E+03 -0.63842153905E+03  0.70066192882E+03  0.50400001928E-02 0. -1.
</event>
<event>
 5   0  0.1574101E-04  0.1100166E+04  0.7818609E-02  0.9205030E-01
       -2   -1    0    0    0  501  0.00000000000E+00  0.00000000000E+00  0.22230756892E+03  0.22230756894E+03  0.25500000920E-02 0.  1.
        2   -1    0    0  501    0  0.00000000000E+00  0.00000000000E+00 -0.13611376898E+04  0.13611376898E+04  0.25500000920E-02 0. -1.
    10030    2    1    2    0    0  0.00000000000E+00  0.00000000000E+00 -0.11388301208E+04  0.15834452587E+04  0.11001658253E+04 0.  0.
        4    1    3    3  502    0  0.40090806746E+03 -0.24353063901E+03 -0.98295454469E+03  0.10891444810E+04  0.12699999809E+01 0. -1.
       -4    1    3    3    0  502 -0.40090806746E+03  0.24353063901E+03 -0.15587557614E+03  0.49430077769E+03  0.12699999809E+01 0.  1.
</event>
<event>
 5   0  0.1503277E-04  0.1098138E+04  0.7818609E-02  0.9207009E-01
        2   -1    0    0  501    0  0.00000000000E+00  0.00000000000E+00  0.12262027400E+04  0.12262027400E+04  0.25500000920E-02 0. -1.
       -2   -1    0    0    0  501  0.00000000000E+00  0.00000000000E+00 -0.24586202943E+03  0.24586202944E+03  0.25500000920E-02 0.  1.
    10030    2    1    2    0    0  0.00000000000E+00  0.00000000000E+00  0.98034071059E+03  0.14720647695E+04  0.10981378678E+04 0.  0.
        5    1    3    3  502    0  0.35928434577E+03 -0.39722635181E+03  0.32830363123E+03  0.62823513111E+03  0.46999998093E+01 0.  1.
       -5    1    3    3    0  502 -0.35928434577E+03  0.39722635181E+03  0.65203707937E+03  0.84382963835E+03  0.46999998093E+01 0. -1.
</event>
<event>
 5   0  0.9346836E-05  0.1100725E+04  0.7818609E-02  0.9204485E-01
       -1   -1    0    0    0  501  0.00000000000E+00  0.00000000000E+00  0.54333438895E+03  0.54333438898E+03  0.50400001928E-02 0. -1.
        1   -1    0    0  501    0  0.00000000000E+00  0.00000000000E+00 -0.55748197549E+03  0.55748197551E+03  0.50400001928E-02 0.  1.
    10030    2    1    2    0    0  0.00000000000E+00  0.00000000000E+00 -0.14147586537E+02  0.11008163645E+04  0.11007254490E+04 0.  0.
        5    1    3    3  502    0 -0.35911566759E+03  0.41689092828E+03 -0.17795207662E+02  0.55054597284E+03  0.46999998093E+01 0. -1.
       -5    1    3    3    0  502  0.35911566759E+03 -0.41689092828E+03  0.36476211257E+01  0.55027039165E+03  0.46999998093E+01 0.  1.
</event>
<event>
 5   0  0.1553937E-04  0.1100017E+04  0.7818609E-02  0.9205175E-01
       -2   -1    0    0    0  501  0.00000000000E+00  0.00000000000E+00  0.19375649077E+03  0.19375649079E+03  0.25500000920E-02 0. -1.
        2   -1    0    0  501    0  0.00000000000E+00  0.00000000000E+00 -0.15612866352E+04  0.15612866352E+04  0.25500000920E-02 0.  1.
    10030    2    1    2    0    0  0.00000000000E+00  0.00000000000E+00 -0.13675301444E+04  0.17550431260E+04  0.11000171263E+04 0.  0.
        1    1    3    3  502    0 -0.73957368931E+02 -0.47231556043E+03 -0.11176555880E+04  0.12156091866E+04  0.50400001928E-02 0. -1.
       -1    1    3    3    0  502  0.73957368931E+02  0.47231556043E+03 -0.24987455644E+03  0.53943393944E+03  0.50400001928E-02 0.  1.
</event>
<event>
 5   0  0.1540772E-04  0.1105791E+04  0.7818609E-02  0.9199566E-01
       -2   -1    0    0    0  501  0.00000000000E+00  0.00000000000E+00  0.24484023288E+03  0.24484023289E+03  0.25500000920E-02 0. -1.
        2   -1    0    0  501    0  0.00000000000E+00  0.00000000000E+00 -0.12485415006E+04  0.12485415006E+04  0.25500000920E-02 0.  1.
    10030    2    1    2    0    0  0.00000000000E+00  0.00000000000E+00 -0.10037012678E+04  0.14933817335E+04  0.11057905621E+04 0.  0.
        2    1    3    3  502    0  0.14635685292E+02  0.54798643686E+03 -0.40455899793E+03  0.68130119703E+03  0.25500000920E-02 0.  1.
       -2    1    3    3    0  502 -0.14635685292E+02 -0.54798643686E+03 -0.59914226983E+03  0.81208053650E+03  0.25500000920E-02 0. -1.
</event>
<event>
 5   0  0.1540772E-04  0.1099594E+04  0.7818609E-02  0.9205588E-01
       -2   -1    0    0    0  501  0.00000000000E+00  0.00000000000E+00  0.22584337545E+03  0.22584337546E+03  0.25500000920E-02 0.  1.
        2   -1    0    0  501    0  0.00000000000E+00  0.00000000000E+00 -0.13384354874E+04  0.13384354874E+04  0.25500000920E-02 0. -1.
    10030    2    1    2    0    0  0.00000000000E+00  0.00000000000E+00 -0.11125921120E+04  0.15642788629E+04  0.10995940857E+04 0.  0.
        2    1    3    3  502    0 -0.52963713081E+03  0.13924065772E+03 -0.48699154460E+03  0.73284665218E+03  0.25500000920E-02 0. -1.
       -2    1    3    3    0  502  0.52963713081E+03 -0.13924065772E+03 -0.62560056738E+03  0.83143221071E+03  0.25500000920E-02 0.  1.
</event>
<event>
 5   0  0.9016738E-05  0.1100135E+04  0.7818609E-02  0.9205061E-01
       -1   -1    0    0    0  501  0.00000000000E+00  0.00000000000E+00  0.21511854920E+03  0.21511854926E+03  0.50400001928E-02 0. -1.
        1   -1    0    0  501    0  0.00000000000E+00  0.00000000000E+00 -0.14065456707E+04  0.14065456708E+04  0.50400001928E-02 0.  1.
    10030    2    1    2    0    0  0.00000000000E+00  0.00000000000E+00 -0.11914271215E+04  0.16216642200E+04  0.11001346538E+04 0.  0.
        4    1    3    3  502    0  0.72529590510E+02  0.58532682799E+02  0.20339248516E+03  0.22373361923E+03  0.12699999809E+01 0. -1.
       -4    1    3    3    0  502 -0.72529590510E+02 -0.58532682799E+02 -0.13948196067E+04  0.13979306008E+04  0.12699999809E+01 0.  1.
</event>
<event>
 5   0  0.8657442E-05  0.1100109E+04  0.7818609E-02  0.9205086E-01
        1   -1    0    0  501    0  0.00000000000E+00  0.00000000000E+00  0.13872495633E+04  0.13872495633E+04  0.50400001928E-02 0.  1.
       -1   -1    0    0    0  501  0.00000000000E+00  0.00000000000E+00 -0.21810062849E+03  0.21810062855E+03  0.50400001928E-02 0. -1.
    10030    2    1    2    0    0  0.00000000000E+00  0.00000000000E+00  0.11691489348E+04  0.16053501919E+04  0.11001090886E+04 0.  0.
        1    1    3    3  502    0 -0.21445223028E+03 -0.93951571661E+02 -0.14175728459E+03  0.27370017291E+03  0.50400001928E-02 0. -1.
       -1    1    3    3    0  502  0.21445223028E+03  0.93951571661E+02  0.13109062194E+04  0.13316500190E+04  0.50400001928E-02 0.  1.
</event>
<event>
 5   0  0.1503277E-04  0.1099934E+04  0.7818609E-02  0.9205256E-01
        2   -1    0    0  501    0  0.00000000000E+00  0.00000000000E+00  0.98876834762E+03  0.98876834762E+03  0.25500000920E-02 0.  1.
       -2   -1    0    0    0  501  0.00000000000E+00  0.00000000000E+00 -0.30589970263E+03  0.30589970264E+03  0.25500000920E-02 0. -1.
    10030    2    1    2    0    0  0.00000000000E+00  0.00000000000E+00  0.68286864498E+03  0.12946680503E+04  0.10999344408E+04 0.  0.
        5    1    3    3  502    0 -0.23744286069E+03  0.44343109958E+03  0.79740199369E+02  0.50930427208E+03  0.46999998093E+01 0. -1.
       -5    1    3    3    0  502  0.23744286069E+03 -0.44343109958E+03  0.60312844561E+03  0.78536377818E+03  0.46999998093E+01 0.  1.
</event>
<event>
 5   0  0.9346836E-05  0.1100468E+04  0.7818609E-02  0.9204736E-01
        1   -1    0    0  501    0  0.00000000000E+00  0.00000000000E+00  0.10067529297E+04  0.10067529297E+04  0.50400001928E-02 0. -1.
       -1   -1    0    0    0  501  0.00000000000E+00  0.00000000000E+00 -0.30072659731E+03  0.30072659735E+03  0.50400001928E-02 0.  1.
    10030    2    1    2    0    0  0.00000000000E+00  0.00000000000E+00  0.70602633238E+03  0.13074795271E+04  0.11004678694E+04 0.  0.
        5    1    3    3  502    0 -0.10198967349E+03 -0.47299380629E+02  0.99293735473E+03  0.99929265249E+03  0.46999998093E+01 0. -1.
       -5    1    3    3    0  502  0.10198967349E+03  0.47299380629E+02 -0.28691102235E+03  0.30818687456E+03  0.46999998093E+01 0.  1.
</event>
<event>
 5   0  0.1540772E-04  0.1099985E+04  0.7818609E-02  0.9205207E-01
        2   -1    0    0  501    0  0.00000000000E+00  0.00000000000E+00  0.11918773341E+04  0.11918773341E+04  0.25500000920E-02 0.  1.
       -2   -1    0    0    0  501  0.00000000000E+00  0.00000000000E+00 -0.25379415092E+03  0.25379415094E+03  0.25500000920E-02 0. -1.
    10030    2    1    2    0    0  0.00000000000E+00  0.00000000000E+00  0.93808318320E+03  0.14456714851E+04  0.10999845381E+04 0.  0.
        2    1    3    3  502    0 -0.35749801466E+03  0.66306165680E+02  0.10113892988E+04  0.10747602764E+04  0.25500000920E-02 0.  1.
       -2    1    3    3    0  502  0.35749801466E+03 -0.66306165680E+02 -0.73306115594E+02  0.37091120862E+03  0.25500000920E-02 0. -1.
</event>
<event>
 5   0  0.1574101E-04  0.1100947E+04  0.7818609E-02  0.9204269E-01
        2   -1    0    0  501    0  0.00000000000E+00  0.00000000000E+00  0.11984364777E+04  0.11984364778E+04  0.25500000920E-02 0.  1.
       -2   -1    0    0    0  501  0.00000000000E+00  0.00000000000E+00 -0.25284704332E+03  0.25284704334E+03  0.25500000920E-02 0. -1.
    10030    2    1    2    0    0  0.00000000000E+00  0.00000000000E+00  0.94558943442E+03  0.14512835211E+04  0.11009470832E+04 0.  0.
        4    1    3    3  502    0  0.12779767283E+03  0.30136343641E+03 -0.11060583079E+03  0.34552485973E+03  0.12699999809E+01 0. -1.
       -4    1    3    3    0  502 -0.12779767283E+03 -0.30136343641E+03  0.10561952652E+04  0.11057586614E+04  0.12699999809E+01 0.  1.
</event>
<event>
 5   0  0.9016738E-05  0.1099476E+04  0.7818609E-02  0.9205703E-01
        1   -1    0    0  501    0  0.00000000000E+00  0.00000000000E+00  0.92926169168E+03  0.92926169169E+03  0.50400001928E-02 0.  1.
       -1   -1    0    0    0  501  0.00000000000E+00  0.00000000000E+00 -0.32521703075E+03  0.32521703079E+03  0.50400001928E-02 0. -1.
    10030    2    1    2    0    0  0.00000000000E+00  0.00000000000E+00  0.60404466093E+03  0.12544787225E+04  0.10994757445E+04 0.  0.
        4    1    3    3  502    0 -0.82651057242E+01  0.20155192771E+03  0.88550633879E+03  0.90819303040E+03  0.12699999809E+01 0.  1.
       -4    1    3    3    0  502  0.82651057242E+01 -0.20155192771E+03 -0.28146167786E+03  0.34628569208E+03  0.12699999809E+01 0. -1.
</event>
<event>
 5   0  0.1503277E-04  0.1099744E+04  0.7818609E-02  0.9205441E-01
       -2   -1    0    0    0  501  0.00000000000E+00  0.00000000000E+00  0.38366346468E+03  0.38366346468E+03  0.25500000920E-02 0. -1.
        2   -1    0    0  501    0  0.00000000000E+00  0.00000000000E+00 -0.78808510679E+03  0.78808510679E+03  0.25500000920E-02 0.  1.
    10030    2    1    2    0    0  0.00000000000E+00  0.00000000000E+00 -0.40442164211E+03  0.11717485715E+04  0.10997444477E+04 0.  0.
        5    1    3    3  502    0 -0.46844550788E+03 -0.26782525389E+03 -0.89623933903E+02  0.54701563048E+03  0.46999998093E+01 0. -1.
       -5    1    3    3    0  502  0.46844550788E+03  0.26782525389E+03 -0.31479770821E+03  0.62473294099E+03  0.46999998093E+01 0.  1.
</event>
<event>
 5   0  0.1464205E-04  0.1099351E+04  0.7818609E-02  0.9205824E-01
        2   -1    0    0  501    0  0.00000000000E+00  0.00000000000E+00  0.98589481701E+03  0.98589481701E+03  0.25500000920E-02 0.  1.
       -2   -1    0    0    0  501  0.00000000000E+00  0.00000000000E+00 -0.30646600604E+03  0.30646600605E+03  0.25500000920E-02 0. -1.
    10030    2    1    2    0    0  0.00000000000E+00  0.00000000000E+00  0.67942881097E+03  0.12923608231E+04  0.10993511667E+04 0.  0.
        3    1    3    3  502    0  0.38633888374E+03 -0.29966241955E+03  0.63498521107E+03  0.80141220808E+03  0.10100000352E+00 0. -1.
       -3    1    3    3    0  502 -0.38633888374E+03  0.29966241955E+03  0.44443599906E+02  0.49094861498E+03  0.10100000352E+00 0.  1.
</event>
<event>
 5   0  0.1574101E-04  0.1106845E+04  0.7818609E-02  0.9198546E-01
        2   -1    0    0  501    0  0.00000000000E+00  0.00000000000E+00  0.12001874004E+04  0.12001874004E+04  0.25500000920E-02 0. -1.
       -2   -1    0    0    0  501  0.00000000000E+00  0.00000000000E+00 -0.25519038351E+03  0.25519038352E+03  0.25500000920E-02 0.  1.
    10030    2    1    2    0    0  0.00000000000E+00  0.00000000000E+00  0.94499701689E+03  0.14553777839E+04  0.11068446738E+04 0.  0.
        4    1    3    3  502    0 -0.80499569658E+02  0.10046566258E+03 -0.23522588317E+03  0.26815361099E+03  0.12699999809E+01 0.  1.
       -4    1    3    3    0  502  0.80499569658E+02 -0.10046566258E+03  0.11802229001E+04  0.11872241729E+04  0.12699999809E+01 0. -1.
</event>
<event>
 5   0  0.8621738E-05  0.1100958E+04  0.7818609E-02  0.9204258E-01
       -1   -1    0    0    0  501  0.00000000000E+00  0.00000000000E+00  0.53508965696E+03  0.53508965698E+03  0.50400001928E-02 0.  1.
        1   -1    0    0  501    0  0.00000000000E+00  0.00000000000E+00 -0.56631136769E+03  0.56631136771E+03  0.50400001928E-02 0. -1.
    10030    2    1    2    0    0  0.00000000000E+00  0.00000000000E+00 -0.31221710733E+02  0.11014010247E+04  0.11009584106E+04 0.  0.
        2    1    3    3  502    0  0.25933155232E+03  0.44674825825E+03 -0.20592533225E+03  0.55609540795E+03  0.25500000920E-02 0. -1.
       -2    1    3    3    0  502 -0.25933155232E+03 -0.44674825825E+03  0.17470362152E+03  0.54530561674E+03  0.25500000920E-02 0.  1.
</event>
<event>
 5   0  0.1464205E-04  0.1099564E+04  0.7818609E-02  0.9205617E-01
        2   -1    0    0  501    0  0.00000000000E+00  0.00000000000E+00  0.19113327414E+04  0.19113327414E+04  0.25500000920E-02 0.  1.
       -2   -1    0    0    0  501  0.00000000000E+00  0.00000000000E+00 -0.15814100503E+03  0.15814100505E+03  0.25500000920E-02 0. -1.
    10030    2    1    2    0    0  0.00000000000E+00  0.00000000000E+00  0.17531917364E+04  0.20694737464E+04  0.10995636965E+04 0.  0.
        3    1    3    3  502    0  0.18288478532E+03  0.25144565881E+02  0.18512566976E+04  0.18604382453E+04  0.10100000352E+00 0.  1.
       -3    1    3    3    0  502 -0.18288478532E+03 -0.25144565881E+02 -0.98064961283E+02  0.20903550111E+03  0.10100000352E+00 0. -1.
</event>
<event>
 5   0  0.8921459E-05  0.1100183E+04  0.7818609E-02  0.9205014E-01
        1   -1    0    0  501    0  0.00000000000E+00  0.00000000000E+00  0.63842892480E+03  0.63842892482E+03  0.50400001928E-02 0. -1.
       -1   -1    0    0    0  501  0.00000000000E+00  0.00000000000E+00 -0.47397698368E+03  0.47397698370E+03  0.50400001928E-02 0.  1.
    10030    2    1    2    0    0  0.00000000000E+00  0.00000000000E+00  0.16445194112E+03  0.11124059085E+04  0.11001829231E+04 0.  0.
        3    1    3    3  502    0  0.24030948648E+03 -0.13314436964E+02 -0.41791554284E+03  0.48226479726E+03  0.10100000352E+00 0.  1.
       -3    1    3    3    0  502 -0.24030948648E+03  0.13314436964E+02  0.58236748396E+03  0.63014111126E+03  0.10100000352E+00 0. -1.
</event>
<event>
 5   0  0.1574101E-04  0.1099037E+04  0.7818609E-02  0.9206131E-01
       -2   -1    0    0    0  501  0.00000000000E+00  0.00000000000E+00  0.20373908983E+03  0.20373908984E+03  0.25500000920E-02 0.  1.
        2   -1    0    0  501    0  0.00000000000E+00  0.00000000000E+00 -0.14821426071E+04  0.14821426071E+04  0.25500000920E-02 0. -1.
    10030    2    1    2    0    0  0.00000000000E+00  0.00000000000E+00 -0.12784035173E+04  0.16858816970E+04  0.10990366432E+04 0.  0.
        4    1    3    3  502    0  0.29000169147E+03 -0.34332093534E+03 -0.15412359486E+03  0.47510624190E+03  0.12699999809E+01 0.  1.
       -4    1    3    3    0  502 -0.29000169147E+03  0.34332093534E+03 -0.11242799224E+04  0.12107754551E+04  0.12699999809E+01 0. -1.
</event>
<event>
 5   0  0.8657442E-05  0.1099313E+04  0.7818609E-02  0.9205861E-01
       -1   -1    0    0    0  501  0.00000000000E+00  0.00000000000E+00  0.81877781035E+03  0.81877781037E+03  0.50400001928E-02 0. -1.
        1   -1    0    0  501    0  0.00000000000E+00  0.00000000000E+00 -0.36899192702E+03  0.36899192706E+03  0.50400001928E-02 0.  1.
    10030    2    1    2    0    0  0.00000000000E+00  0.00000000000E+00  0.44978588333E+03  0.11877697374E+04  0.10993132439E+04 0.  0.
        1    1    3    3  502    0 -0.29555870706E+01 -0.41683012774E+03  0.61200466732E+03  0.74047674084E+03  0.50400001928E-02 0. -1.
       -1    1    3    3    0  502  0.29555870706E+01  0.41683012774E+03 -0.16221878399E+03  0.44729299658E+03  0.50400001928E-02 0.  1.
</event>
<event>
 5   0  0.1503277E-04  0.1099576E+04  0.7818609E-02  0.9205605E-01
       -2   -1    0    0    0  501  0.00000000000E+00  0.00000000000E+00  0.44355450872E+03  0.44355450872E+03  0.25500000920E-02 0. -1.
        2   -1    0    0  501    0  0.00000000000E+00  0.00000000000E+00 -0.68146463612E+03  0.68146463612E+03  0.25500000920E-02 0.  1.
    10030    2    1    2    0    0  0.00000000000E+00  0.00000000000E+00 -0.23791012740E+03  0.11250191448E+04  0.10995757580E+04 0.  0.
        5    1    3    3  502    0  0.93238499641E+02 -0.70746464379E+01  0.43533827919E+03  0.44529201179E+03  0.46999998093E+01 0. -1.
       -5    1    3    3    0  502 -0.93238499641E+02  0.70746464379E+01 -0.67324840659E+03  0.67972713306E+03  0.46999998093E+01 0.  1.
</event>
<event>
 5   0  0.9346836E-05  0.1097096E+04  0.7818609E-02  0.9208027E-01
       -1   -1    0    0    0  501  0.00000000000E+00  0.00000000000E+00  0.13075403995E+03  0.13075404004E+03  0.50400001928E-02 0. -1.
        1   -1    0    0  501    0  0.00000000000E+00  0.00000000000E+00 -0.23013065158E+04  0.23013065158E+04  0.50400001928E-02 0.  1.
    10030    2    1    2    0    0  0.00000000000E+00  0.00000000000E+00 -0.21705524759E+04  0.24320605559E+04  0.10970963936E+04 0.  0.
        5    1    3    3  502    0 -0.13657662923E+03 -0.42570959177E+02 -0.22591792288E+04  0.22637089787E+04  0.46999998093E+01 0.  1.
       -5    1    3    3    0  502  0.13657662923E+03  0.42570959177E+02  0.88626752926E+02  0.16835157721E+03  0.46999998093E+01 0. -1.
</event>
<event>
 5   0  0.9346836E-05  0.1102885E+04  0.7818609E-02  0.9202385E-01
       -1   -1    0    0    0  501  0.00000000000E+00  0.00000000000E+00  0.36024626635E+03  0.36024626638E+03  0.50400001928E-02 0. -1.
        1   -1    0    0  501    0  0.00000000000E+00  0.00000000000E+00 -0.84411351538E+03  0.84411351539E+03  0.50400001928E-02 0.  1.
    10030    2    1    2    0    0  0.00000000000E+00  0.00000000000E+00 -0.48386724903E+03  0.12043597818E+04  0.11028848395E+04 0.  0.
        5    1    3    3  502    0 -0.17721508713E+03 -0.24678994580E+03  0.26057570873E+03  0.40029021276E+03  0.46999998093E+01 0. -1.
       -5    1    3    3    0  502  0.17721508713E+03  0.24678994580E+03 -0.74444295776E+03  0.80406956902E+03  0.46999998093E+01 0.  1.
</event>
<event>
 5   0  0.1503277E-04  0.1099604E+04  0.7818609E-02  0.9205578E-01
        2   -1    0    0  501    0  0.00000000000E+00  0.00000000000E+00  0.11542102043E+04  0.11542102043E+04  0.25500000920E-02 0.  1.
       -2   -1    0    0    0  501  0.00000000000E+00  0.00000000000E+00 -0.26189523958E+03  0.26189523960E+03  0.25500000920E-02 0. -1.
    10030    2    1    2    0    0  0.00000000000E+00  0.00000000000E+00  0.89231496467E+03  0.14161054439E+04  0.10996038523E+04 0.  0.
        5    1    3    3  502    0 -0.40870393862E+02  0.84690577617E+02 -0.25143551563E+03  0.26848611053E+03  0.46999998093E+01 0. -1.
       -5    1    3    3    0  502  0.40870393862E+02 -0.84690577617E+02  0.11437504803E+04  0.11476193333E+04  0.46999998093E+01 0.  1.
</event>
<event>
 5   0  0.9016738E-05  0.1100660E+04  0.7818609E-02  0.9204549E-01
       -1   -1    0    0    0  501  0.00000000000E+00  0.00000000000E+00  0.23297352094E+03  0.23297352099E+03  0.50400001928E-02 0. -1.
        1   -1    0    0  501    0  0.00000000000E+00  0.00000000000E+00 -0.12999888407E+04  0.12999888407E+04  0.50400001928E-02 0.  1.
    10030    2    1    2    0    0  0.00000000000E+00  0.00000000000E+00 -0.10670153197E+04  0.15329623617E+04  0.11006597611E+04 0.  0.
        4    1    3    3  502    0  0.16921592172E+03 -0.41754282493E+03 -0.97368658698E+03  0.10728668237E+04  0.12699999809E+01 0.  1.
       -4    1    3    3    0  502 -0.16921592172E+03  0.41754282493E+03 -0.93328732748E+02  0.46009553798E+03  0.12699999809E+01 0. -1.
</event>
<event>
 5   0  0.9016738E-05  0.1099660E+04  0.7818609E-02  0.9205523E-01
        1   -1    0    0  501    0  0.00000000000E+00  0.00000000000E+00  0.12027739888E+04  0.12027739888E+04  0.50400001928E-02 0. -1.
       -1   -1    0    0    0  501  0.00000000000E+00  0.00000000000E+00 -0.25134672067E+03  0.25134672072E+03  0.50400001928E-02 0.  1.
    10030    2    1    2    0    0  0.00000000000E+00  0.00000000000E+00  0.95142726810E+03  0.14541207095E+04  0.10996604891E+04 0.  0.
        4    1    3    3  502    0 -0.45365302454E+03  0.30749801159E+03  0.41723720199E+03  0.68879938258E+03  0.12699999809E+01 0.  1.
       -4    1    3    3    0  502  0.45365302454E+03 -0.30749801159E+03  0.53419006611E+03  0.76532132692E+03  0.12699999809E+01 0. -1.
</event>
<event>
 5   0  0.9346836E-05  0.1100230E+04  0.7818609E-02  0.9204967E-01
        1   -1    0    0  501    0  0.00000000000E+00  0.00000000000E+00  0.11301364243E+04  0.11301364243E+04  0.50400001928E-02 0.  1.
       -1   -1    0    0    0  501  0.00000000000E+00  0.00000000000E+00 -0.26777897916E+03  0.26777897921E+03  0.50400001928E-02 0. -1.
    10030    2    1    2    0    0  0.00000000000E+00  0.00000000000E+00  0.86235744518E+03  0.13979154036E+04  0.11002304814E+04 0.  0.
        5    1    3    3  502    0 -0.38291421308E+03 -0.13453755264E+03 -0.40612105389E+02  0.40791553139E+03  0.46999998093E+01 0. -1.
       -5    1    3    3    0  502  0.38291421308E+03  0.13453755264E+03  0.90296955056E+03  0.98999987217E+03  0.46999998093E+01 0.  1.
</event>
<event>
 5   0  0.8621738E-05  0.1099979E+04  0.7818609E-02  0.9205212E-01
       -1   -1    0    0    0  501  0.00000000000E+00  0.00000000000E+00  0.41710595223E+03  0.41710595227E+03  0.50400001928E-02 0.  1.
        1   -1    0    0  501    0  0.00000000000E+00  0.00000000000E+00 -0.72520764182E+03  0.72520764184E+03  0.50400001928E-02 0. -1.
    10030    2    1    2    0    0  0.00000000000E+00  0.00000000000E+00 -0.30810168959E+03  0.11423135941E+04  0.10999789526E+04 0.  0.
        2    1    3    3  502    0 -0.58280760923E+01  0.39881546099E+03  0.23920626561E+03  0.46508856782E+03  0.25500000920E-02 0.  1.
       -2    1    3    3    0  502  0.58280760923E+01 -0.39881546099E+03 -0.54730795520E+03  0.67722502629E+03  0.25500000920E-02 0. -1.
</event>
<event>
 5   0  0.9016738E-05  0.1099982E+04  0.7818609E-02  0.9205210E-01
        1   -1    0    0  501    0  0.00000000000E+00  0.00000000000E+00  0.61282397558E+03  0.61282397560E+03  0.50400001928E-02 0.  1.
       -1   -1    0    0    0  501  0.00000000000E+00  0.00000000000E+00 -0.49360007365E+03  0.49360007368E+03  0.50400001928E-02 0. -1.
    10030    2    1    2    0    0  0.00000000000E+00  0.00000000000E+00  0.11922390193E+03  0.11064240493E+04  0.10999817444E+04 0.  0.
        4    1    3    3  502    0 -0.13517128365E+03  0.37436065520E+03  0.44140205895E+03  0.59435222439E+03  0.12699999809E+01 0.  1.
       -4    1    3    3    0  502  0.13517128365E+03 -0.37436065520E+03 -0.32217815703E+03  0.51207182489E+03  0.12699999809E+01 0. -1.
</event>
<event>
 5   0  0.9016738E-05  0.1100207E+04  0.7818609E-02  0.9204990E-01
        1   -1    0    0  501    0  0.00000000000E+00  0.00000000000E+00  0.47641585264E+03  0.47641585267E+03  0.50400001928E-02 0. -1.
       -1   -1    0    0    0  501  0.00000000000E+00  0.00000000000E+00 -0.63518811886E+03  0.63518811888E+03  0.50400001928E-02 0.  1.
    10030    2    1    2    0    0  0.00000000000E+00  0.00000000000E+00 -0.15877226621E+03  0.11116039715E+04  0.11002066883E+04 0.  0.
        4    1    3    3  502    0 -0.44665741103E+03  0.12622206812E+03 -0.37770266704E+03  0.59841103841E+03  0.12699999809E+01 0. -1.
       -4    1    3    3    0  502  0.44665741103E+03 -0.12622206812E+03  0.21893040082E+03  0.51319293313E+03  0.12699999809E+01 0.  1.
</event>
<event>
 5   0  0.8657442E-05  0.1099887E+04  0.7818609E-02  0.9205302E-01
        1   -1    0    0  501    0  0.00000000000E+00  0.00000000000E+00  0.54475694720E+03  0.54475694722E+03  0.50400001928E-02 0.  1.
       -1   -1    0    0    0  501  0.00000000000E+00  0.00000000000E+00 -0.55517906309E+03  0.55517906311E+03  0.50400001928E-02 0. -1.
    10030    2    1    2    0    0  0.00000000000E+00  0.00000000000E+00 -0.10422115890E+02  0.10999360103E+04  0.10998866334E+04 0.  0.
        1    1    3    3  502    0 -0.20641344287E+03 -0.36515094313E+03 -0.36088968908E+03  0.55333813204E+03  0.50400001928E-02 0. -1.
       -1    1    3    3    0  502  0.20641344287E+03  0.36515094313E+03  0.35046757319E+03  0.54659787829E+03  0.50400001928E-02 0.  1.
</event>
<event>
 5   0  0.1540772E-04  0.1101188E+04  0.7818609E-02  0.9204035E-01
        2   -1    0    0  501    0  0.00000000000E+00  0.00000000000E+00  0.64795538007E+03  0.64795538007E+03  0.25500000920E-02 0. -1.
       -2   -1    0    0    0  501  0.00000000000E+00  0.00000000000E+00 -0.46786168344E+03  0.46786168344E+03  0.25500000920E-02 0.  1.
    10030    2    1    2    0    0  0.00000000000E+00  0.00000000000E+00  0.18009369663E+03  0.11158170635E+04  0.11011875316E+04 0.  0.
        2    1    3    3  502    0 -0.33912185395E+03  0.13930098861E+03 -0.32619648954E+03  0.49072655018E+03  0.25500000920E-02 0.  1.
       -2    1    3    3    0  502  0.33912185395E+03 -0.13930098861E+03  0.50629018617E+03  0.62509051334E+03  0.25500000920E-02 0. -1.
</event>
<event>
 5   0  0.8657442E-05  0.1099792E+04  0.7818609E-02  0.9205394E-01
       -1   -1    0    0    0  501  0.00000000000E+00  0.00000000000E+00  0.22760625241E+03  0.22760625246E+03  0.50400001928E-02 0.  1.
        1   -1    0    0  501    0  0.00000000000E+00  0.00000000000E+00 -0.13285477012E+04  0.13285477012E+04  0.50400001928E-02 0. -1.
    10030    2    1    2    0    0  0.00000000000E+00  0.00000000000E+00 -0.11009414488E+04  0.15561539537E+04  0.10997922776E+04 0.  0.
        1    1    3    3  502    0  0.13642114588E+03 -0.22953000012E+02 -0.13035235969E+04  0.13108437500E+04  0.50400001928E-02 0. -1.
       -1    1    3    3    0  502 -0.13642114588E+03  0.22953000012E+02  0.20258214812E+03  0.24531020365E+03  0.50400001928E-02 0.  1.
</event>
<event>
 5   0  0.9016738E-05  0.1099874E+04  0.7818609E-02  0.9205314E-01
       -1   -1    0    0    0  501  0.00000000000E+00  0.00000000000E+00  0.56222028224E+03  0.56222028226E+03  0.50400001928E-02 0. -1.
        1   -1    0    0  501    0  0.00000000000E+00  0.00000000000E+00 -0.53792256532E+03  0.53792256534E+03  0.50400001928E-02 0.  1.
    10030    2    1    2    0    0  0.00000000000E+00  0.00000000000E+00  0.24297716922E+02  0.11001428476E+04  0.10998744956E+04 0.  0.
        4    1    3    3  502    0  0.56991678133E+02 -0.11801602370E+02 -0.53483192300E+03  0.53799082516E+03  0.12699999809E+01 0.  1.
       -4    1    3    3    0  502 -0.56991678133E+02  0.11801602370E+02  0.55912963993E+03  0.56215202244E+03  0.12699999809E+01 0. -1.
</event>
<event>
 5   0  0.1503277E-04  0.1100043E+04  0.7818609E-02  0.9205150E-01
       -2   -1    0    0    0  501  0.00000000000E+00  0.00000000000E+00  0.16404539873E+04  0.16404539873E+04  0.25500000920E-02 0. -1.
        2   -1    0    0  501    0  0.00000000000E+00  0.00000000000E+00 -0.18441446954E+03  0.18441446955E+03  0.25500000920E-02 0.  1.
    10030    2    1    2    0    0  0.00000000000E+00  0.00000000000E+00  0.14560395178E+04  0.18248684569E+04  0.11000426390E+04 0.  0.
        5    1    3    3  502    0  0.46917094915E+02  0.11673830948E+03  0.16162282529E+04  0.16211245795E+04  0.46999998093E+01 0. -1.
       -5    1    3    3    0  502 -0.46917094915E+02 -0.11673830948E+03 -0.16018873516E+03  0.20374387736E+03  0.46999998093E+01 0.  1.
</event>
<event>
 5   0  0.1503277E-04  0.1100424E+04  0.7818609E-02  0.9204779E-01
       -2   -1    0    0    0  501  0.00000000000E+00  0.00000000000E+00  0.18133871157E+03  0.18133871159E+03  0.25500000920E-02 0.  1.
        2   -1    0    0  501    0  0.00000000000E+00  0.00000000000E+00 -0.16694347909E+04  0.16694347909E+04  0.25500000920E-02 0. -1.
    10030    2    1    2    0    0  0.00000000000E+00  0.00000000000E+00 -0.14880960794E+04  0.18507735025E+04  0.11004238348E+04 0.  0.
        5    1    3    3  502    0 -0.92238411030E+02  0.54204965518E+03 -0.71103397947E+03  0.89884212357E+03  0.46999998093E+01 0.  1.
       -5    1    3    3    0  502  0.92238411030E+02 -0.54204965518E+03 -0.77706209989E+03  0.95193137895E+03  0.46999998093E+01 0. -1.
</event>
<event>
 5   0  0.8921459E-05  0.1099862E+04  0.7818609E-02  0.9205326E-01
       -1   -1    0    0    0  501  0.00000000000E+00  0.00000000000E+00  0.21296073324E+03  0.21296073330E+03  0.50400001928E-02 0. -1.
        1   -1    0    0  501    0  0.00000000000E+00  0.00000000000E+00 -0.14200936635E+04  0.14200936635E+04  0.50400001928E-02 0.  1.
    10030    2    1    2    0    0  0.00000000000E+00  0.00000000000E+00 -0.12071329302E+04  0.16330543968E+04  0.10998621512E+04 0.  0.
        3    1    3    3  502    0  0.20995547016E+03 -0.62427741327E+01 -0.13581857171E+04  0.13743321011E+04  0.10100000352E+00 0.  1.
       -3    1    3    3    0  502 -0.20995547016E+03  0.62427741327E+01  0.15105278687E+03  0.25872229572E+03  0.10100000352E+00 0. -1.
</event>
<event>
 5   0  0.9016738E-05  0.1100045E+04  0.7818609E-02  0.9205148E-01
        1   -1    0    0  501    0  0.00000000000E+00  0.00000000000E+00  0.75617860780E+03  0.75617860781E+03  0.50400001928E-02 0. -1.
       -1   -1    0    0    0  501  0.00000000000E+00  0.00000000000E+00 -0.40007040202E+03  0.40007040205E+03  0.50400001928E-02 0.  1.
    10030    2    1    2    0    0  0.00000000000E+00  0.00000000000E+00  0.35610820578E+03  0.11562490099E+04  0.11000448712E+04 0.  0.
        4    1    3    3  502    0 -0.15277309958E+03 -0.11719128127E+03  0.71959598769E+03  0.74491168253E+03  0.12699999809E+01 0. -1.
       -4    1    3    3    0  502  0.15277309958E+03  0.11719128127E+03 -0.36348778191E+03  0.41133732734E+03  0.12699999809E+01 0.  1.
</event>
<event>
 5   0  0.8621738E-05  0.1101312E+04  0.7818609E-02  0.9203914E-01
        1   -1    0    0  501    0  0.00000000000E+00  0.00000000000E+00  0.95325328496E+03  0.95325328497E+03  0.50400001928E-02 0. -1.
       -1   -1    0    0    0  501  0.00000000000E+00  0.00000000000E+00 -0.31809164838E+03  0.31809164842E+03  0.50400001928E-02 0.  1.
    10030    2    1    2    0    0  0.00000000000E+00  0.00000000000E+00  0.63516163658E+03  0.12713449334E+04  0.11013117792E+04 0.  0.
        2    1    3    3  502    0  0.27625300721E+03 -0.17423348795E+03  0.82936681072E+03  0.89135982580E+03  0.25500000920E-02 0. -1.
       -2    1    3    3    0  502 -0.27625300721E+03  0.17423348795E+03 -0.19420517414E+03  0.37998510758E+03  0.25500000920E-02 0.  1.
</event>
<event>
 5   0  0.1574101E-04  0.1100090E+04  0.7818609E-02  0.9205104E-01
       -2   -1    0    0    0  501  0.00000000000E+00  0.00000000000E+00  0.29499328058E+03  0.29499328060E+03  0.25500000920E-02 0.  1.
        2   -1    0    0  501    0  0.00000000000E+00  0.00000000000E+00 -0.10256142614E+04  0.10256142614E+04  0.25500000920E-02 0. -1.
    10030    2    1    2    0    0  0.00000000000E+00  0.00000000000E+00 -0.73062098082E+03  0.13206075420E+04  0.11000896611E+04 0.  0.
        4    1    3    3  502    0 -0.13382918587E+03 -0.52138248990E+03 -0.22950650448E+03  0.58517074454E+03  0.12699999809E+01 0.  1.
       -4    1    3    3    0  502  0.13382918587E+03  0.52138248990E+03 -0.50111447634E+03  0.73543679746E+03  0.12699999809E+01 0. -1.
</event>
<event>
 5   0  0.9346836E-05  0.1100205E+04  0.7818609E-02  0.9204992E-01
        1   -1    0    0  501    0  0.00000000000E+00  0.00000000000E+00  0.69911233047E+03  0.69911233049E+03  0.50400001928E-02 0. -1.
       -1   -1    0    0    0  501  0.00000000000E+00  0.00000000000E+00 -0.43285265083E+03  0.43285265086E+03  0.50400001928E-02 0.  1.
    10030    2    1    2    0    0  0.00000000000E+00  0.00000000000E+00  0.26625967965E+03  0.11319649814E+04  0.11002047546E+04 0.  0.
        5    1    3    3  502    0 -0.33804724430E+02  0.30499458554E+03  0.60284600150E+03  0.67646866012E+03  0.46999998093E+01 0. -1.
       -5    1    3    3    0  502  0.33804724430E+02 -0.30499458554E+03 -0.33658632185E+03  0.45549632123E+03  0.46999998093E+01 0.  1.
</event>
<event>
 5   0  0.8921459E-05  0.1099567E+04  0.7818609E-02  0.9205614E-01
        1   -1    0    0  501    0  0.00000000000E+00  0.00000000000E+00  0.10430925177E+04  0.10430925178E+04  0.50400001928E-02 0.  1.
       -1   -1    0    0    0  501  0.00000000000E+00  0.00000000000E+00 -0.28977479217E+03  0.28977479222E+03  0.50400001928E-02 0. -1.
    10030    2    1    2    0    0  0.00000000000E+00  0.00000000000E+00  0.75331772558E+03  0.13328673100E+04  0.10995670377E+04 0.  0.
        3    1    3    3  502    0  0.17419849264E+03  0.29013971905E+03 -0.14855802153E+03  0.36958851087E+03  0.10100000352E+00 0. -1.
       -3    1    3    3    0  502 -0.17419849264E+03 -0.29013971905E+03  0.90187574710E+03  0.96327879911E+03  0.10100000352E+00 0.  1.
</event>
<event>
 5   0  0.1540772E-04  0.1101323E+04  0.7818609E-02  0.9203904E-01
        2   -1    0    0  501    0  0.00000000000E+00  0.00000000000E+00  0.10419451507E+04  0.10419451507E+04  0.25500000920E-02 0. -1.
       -2   -1    0    0    0  501  0.00000000000E+00  0.00000000000E+00 -0.29102096640E+03  0.29102096642E+03  0.25500000920E-02 0.  1.
    10030    2    1    2    0    0  0.00000000000E+00  0.00000000000E+00  0.75092418430E+03  0.13329661171E+04  0.11013226316E+04 0.  0.
        2    1    3    3  502    0  0.89632077035E+02  0.12738884449E+02  0.10328759954E+04  0.10368360576E+04  0.25500000920E-02 0. -1.
       -2    1    3    3    0  502 -0.89632077035E+02 -0.12738884449E+02 -0.28195181107E+03  0.29613005958E+03  0.25500000920E-02 0.  1.
</event>
<event>
 5   0  0.1503277E-04  0.1100082E+04  0.7818609E-02  0.9205112E-01
        2   -1    0    0  501    0  0.00000000000E+00  0.00000000000E+00  0.78537344191E+03  0.78537344191E+03  0.25500000920E-02 0. -1.
       -2   -1    0    0    0  501  0.00000000000E+00  0.00000000000E+00 -0.38522476394E+03  0.38522476395E+03  0.25500000920E-02 0.  1.
    10030    2    1    2    0    0  0.00000000000E+00  0.00000000000E+00  0.40014867796E+03  0.11705982059E+04  0.11000823583E+04 0.  0.
        5    1    3    3  502    0 -0.10347766813E+03  0.26422328676E+03 -0.30129842858E+03  0.41391352494E+03  0.46999998093E+01 0.  1.
       -5    1    3    3    0  502  0.10347766813E+03 -0.26422328676E+03  0.70144710654E+03  0.75668468092E+03  0.46999998093E+01 0. -1.
</event>
<event>
 5   0  0.1464205E-04  0.1100422E+04  0.7818609E-02  0.9204781E-01
       -2   -1    0    0    0  501  0.00000000000E+00  0.00000000000E+00  0.19223465533E+03  0.19223465535E+03  0.25500000920E-02 0.  1.
        2   -1    0    0  501    0  0.00000000000E+00  0.00000000000E+00 -0.15748043105E+04  0.15748043105E+04  0.25500000920E-02 0. -1.
    10030    2    1    2    0    0  0.00000000000E+00  0.00000000000E+00 -0.13825696552E+04  0.17670389659E+04  0.11004216717E+04 0.  0.
        3    1    3    3  502    0 -0.18685978741E+03 -0.43487968631E+03 -0.24082024595E+03  0.53106621317E+03  0.10100000352E+00 0.  1.
       -3    1    3    3    0  502  0.18685978741E+03  0.43487968631E+03 -0.11417494093E+04  0.12359727527E+04  0.10100000352E+00 0. -1.
</event>
<event>
 5   0  0.6010125E-05  0.1099528E+04  0.7818609E-02  0.9205652E-01
       -4   -1    0    0    0  501  0.00000000000E+00  0.00000000000E+00  0.16382323232E+04  0.16382328154E+04  0.12699999809E+01 0.  1.
        4   -1    0    0  501    0  0.00000000000E+00  0.00000000000E+00 -0.18448898282E+03  0.18449335403E+03  0.12699999809E+01 0. -1.
    10030    2    1    2    0    0  0.00000000000E+00  0.00000000000E+00  0.14537433404E+04  0.18227261695E+04  0.10995276210E+04 0.  0.
        3    1    3    3  502    0  0.37360672893E+02  0.54650065241E+03  0.80429793895E+03  0.97311559836E+03  0.10100000352E+00 0. -1.
       -3    1    3    3    0  502 -0.37360672893E+02 -0.54650065241E+03  0.64944540140E+03  0.84961057112E+03  0.10100000352E+00 0.  1.
</event>
<event>
 5   0  0.1464205E-04  0.1100542E+04  0.7818609E-02  0.9204664E-01
       -2   -1    0    0    0  501  0.00000000000E+00  0.00000000000E+00  0.16746363642E+03  0.16746363644E+03  0.25500000920E-02 0.  1.
        2   -1    0    0  501    0  0.00000000000E+00  0.00000000000E+00 -0.18081416211E+04  0.18081416211E+04  0.25500000920E-02 0. -1.
    10030    2    1    2    0    0  0.00000000000E+00  0.00000000000E+00 -0.16406779847E+04  0.19756052575E+04  0.11005416322E+04 0.  0.
        3    1    3    3  502    0 -0.32645627060E+02  0.31431757028E+03 -0.11664057360E+02  0.31622354813E+03  0.10100000352E+00 0.  1.
       -3    1    3    3    0  502  0.32645627060E+02 -0.31431757028E+03 -0.16290139273E+04  0.16593817094E+04  0.10100000352E+00 0. -1.
</event>
<event>
 5   0  0.9346836E-05  0.1100889E+04  0.7818609E-02  0.9204326E-01
       -1   -1    0    0    0  501  0.00000000000E+00  0.00000000000E+00  0.49826177829E+03  0.49826177831E+03  0.50400001928E-02 0. -1.
        1   -1    0    0  501    0  0.00000000000E+00  0.00000000000E+00 -0.60809235525E+03  0.60809235527E+03  0.50400001928E-02 0.  1.
    10030    2    1    2    0    0  0.00000000000E+00  0.00000000000E+00 -0.10983057697E+03  0.11063541336E+04  0.11008890558E+04 0.  0.
        5    1    3    3  502    0  0.17733129703E+03  0.23094917891E+03 -0.52433490931E+03  0.59977754148E+03  0.46999998093E+01 0.  1.
       -5    1    3    3    0  502 -0.17733129703E+03 -0.23094917891E+03  0.41450433234E+03  0.50657659211E+03  0.46999998093E+01 0. -1.
</event>
<event>
 5   0  0.8921459E-05  0.1099956E+04  0.7818609E-02  0.9205235E-01
        1   -1    0    0  501    0  0.00000000000E+00  0.00000000000E+00  0.39871097382E+03  0.39871097385E+03  0.50400001928E-02 0.  1.
       -1   -1    0    0    0  501  0.00000000000E+00  0.00000000000E+00 -0.75863406391E+03  0.75863406393E+03  0.50400001928E-02 0. -1.
    10030    2    1    2    0    0  0.00000000000E+00  0.00000000000E+00 -0.35992309009E+03  0.11573450378E+04  0.10999558653E+04 0.  0.
        3    1    3    3  502    0  0.16379563990E+03  0.52211778998E+03 -0.23797172853E+03  0.59671312374E+03  0.10100000352E+00 0.  1.
       -3    1    3    3    0  502 -0.16379563990E+03 -0.52211778998E+03 -0.12195136156E+03  0.56063191404E+03  0.10100000352E+00 0. -1.
</event>
<event>
 5   0  0.6010125E-05  0.1099477E+04  0.7818609E-02  0.9205702E-01
        3   -1    0    0  501    0  0.00000000000E+00  0.00000000000E+00  0.13322085582E+04  0.13322085620E+04  0.10100000352E+00 0. -1.
       -3   -1    0    0    0  501  0.00000000000E+00  0.00000000000E+00 -0.22685076233E+03  0.22685078481E+03  0.10100000352E+00 0.  1.
    10030    2    1    2    0    0  0.00000000000E+00  0.00000000000E+00  0.11053577958E+04  0.15590593468E+04  0.10994772349E+04 0.  0.
        1    1    3    3  502    0 -0.38295831572E+03 -0.17139052141E+03  0.48977699792E+02  0.42241046093E+03  0.50400001928E-02 0.  1.
       -1    1    3    3    0  502  0.38295831572E+03  0.17139052141E+03  0.10563800961E+04  0.11366488859E+04  0.50400001928E-02 0. -1.
</event>
<event>
 5   0  0.9016738E-05  0.1099080E+04  0.7818609E-02  0.9206089E-01
       -1   -1    0    0    0  501  0.00000000000E+00  0.00000000000E+00  0.12568678186E+03  0.12568678196E+03  0.50400001928E-02 0. -1.
        1   -1    0    0  501    0  0.00000000000E+00  0.00000000000E+00 -0.24027525368E+04  0.24027525368E+04  0.50400001928E-02 0.  1.
    10030    2    1    2    0    0  0.00000000000E+00  0.00000000000E+00 -0.22770657550E+04  0.25284393188E+04  0.10990800409E+04 0.  0.
        4    1    3    3  502    0 -0.30592982614E+03  0.18198961973E+03 -0.21016710146E+04  0.21316040784E+04  0.12699999809E+01 0.  1.
       -4    1    3    3    0  502  0.30592982614E+03 -0.18198961973E+03 -0.17539474031E+03  0.39683524042E+03  0.12699999809E+01 0. -1.
</event>
<event>
 5   0  0.1574101E-04  0.1100859E+04  0.7818609E-02  0.9204355E-01
       -2   -1    0    0    0  501  0.00000000000E+00  0.00000000000E+00  0.29848755272E+03  0.29848755273E+03  0.25500000920E-02 0.  1.
        2   -1    0    0  501    0  0.00000000000E+00  0.00000000000E+00 -0.10150260348E+04  0.10150260348E+04  0.25500000920E-02 0. -1.
    10030    2    1    2    0    0  0.00000000000E+00  0.00000000000E+00 -0.71653848211E+03  0.13135135876E+04  0.11008590048E+04 0.  0.
        4    1    3    3  502    0 -0.27791291581E+03  0.22783638830E+03  0.13919315599E+03  0.38538468597E+03  0.12699999809E+01 0.  1.
       -4    1    3    3    0  502  0.27791291581E+03 -0.22783638830E+03 -0.85573163810E+03  0.92812890159E+03  0.12699999809E+01 0. -1.
</event>
<event>
 5   0  0.9016738E-05  0.1100143E+04  0.7818609E-02  0.9205052E-01
        1   -1    0    0  501    0  0.00000000000E+00  0.00000000000E+00  0.99271067002E+03  0.99271067003E+03  0.50400001928E-02 0.  1.
       -1   -1    0    0    0  501  0.00000000000E+00  0.00000000000E+00 -0.30480057811E+03  0.30480057815E+03  0.50400001928E-02 0. -1.
    10030    2    1    2    0    0  0.00000000000E+00  0.00000000000E+00  0.68791009191E+03  0.12975112482E+04  0.11001432382E+04 0.  0.
        4    1    3    3  502    0  0.31770841050E+03 -0.44903669155E+03  0.34648149602E+03  0.65009508877E+03  0.12699999809E+01 0. -1.
       -4    1    3    3    0  502 -0.31770841050E+03  0.44903669155E+03  0.34142859590E+03  0.64741615941E+03  0.12699999809E+01 0.  1.
</event>
<event>
 5   0  0.1503277E-04  0.1100083E+04  0.7818609E-02  0.9205111E-01
       -2   -1    0    0    0  501  0.00000000000E+00  0.00000000000E+00  0.35762568199E+03  0.35762568199E+03  0.25500000920E-02 0.  1.
        2   -1    0    0  501    0  0.00000000000E+00  0.00000000000E+00 -0.84598431123E+03  0.84598431123E+03  0.25500000920E-02 0. -1.
    10030    2    1    2    0    0  0.00000000000E+00  0.00000000000E+00 -0.48835862924E+03  0.12036099932E+04  0.11000831173E+04 0.  0.
        5    1    3    3  502    0 -0.25975249043E+03 -0.24916190370E+03  0.21085741231E+03  0.41717616047E+03  0.46999998093E+01 0.  1.
       -5    1    3    3    0  502  0.25975249043E+03  0.24916190370E+03 -0.69921604155E+03  0.78643383275E+03  0.46999998093E+01 0. -1.
</event>
<event>
 5   0  0.8921459E-05  0.1100377E+04  0.7818609E-02  0.9204825E-01
        1   -1    0    0  501    0  0.00000000000E+00  0.00000000000E+00  0.93969069289E+03  0.93969069291E+03  0.50400001928E-02 0.  1.
       -1   -1    0    0    0  501  0.00000000000E+00  0.00000000000E+00 -0.32213485639E+03  0.32213485643E+03  0.50400001928E-02 0. -1.
    10030    2    1    2    0    0  0.00000000000E+00  0.00000000000E+00  0.61755583651E+03  0.12618255493E+04  0.11003765291E+04 0.  0.
        3    1    3    3  502    0 -0.20435877425E+02  0.20369315633E+03  0.89439079446E+03  0.91752026159E+03  0.10100000352E+00 0.  1.
       -3    1    3    3    0  502  0.20435877425E+02 -0.20369315633E+03 -0.27683495795E+03  0.34430528774E+03  0.10100000352E+00 0. -1.
</event>
<event>
 5   0  0.1540772E-04  0.1098415E+04  0.7818609E-02  0.9206739E-01
       -2   -1    0    0    0  501  0.00000000000E+00  0.00000000000E+00  0.36023814067E+03  0.36023814068E+03  0.25500000920E-02 0. -1.
        2   -1    0    0  501    0  0.00000000000E+00  0.00000000000E+00 -0.83730339062E+03  0.83730339063E+03  0.25500000920E-02 0.  1.
    10030    2    1    2    0    0  0.00000000000E+00  0.00000000000E+00 -0.47706524996E+03  0.11975415313E+04  0.10984145240E+04 0.  0.
        2    1    3    3  502    0 -0.67596260127E+01  0.22203379413E+03 -0.78613976348E+03  0.81692130956E+03  0.25500000920E-02 0.  1.
       -2    1    3    3    0  502  0.67596260127E+01 -0.22203379413E+03  0.30907451353E+03  0.38062022174E+03  0.25500000920E-02 0. -1.
</event>
<event>
 5   0  0.1574101E-04  0.1100027E+04  0.7818609E-02  0.9205166E-01
        2   -1    0    0  501    0  0.00000000000E+00  0.00000000000E+00  0.27233087134E+03  0.27233087135E+03  0.25500000920E-02 0. -1.
       -2   -1    0    0    0  501  0.00000000000E+00  0.00000000000E+00 -0.11108353370E+04  0.11108353370E+04  0.25500000920E-02 0.  1.
    10030    2    1    2    0    0  0.00000000000E+00  0.00000000000E+00 -0.83850446563E+03  0.13831662083E+04  0.11000268274E+04 0.  0.
        4    1    3    3  502    0 -0.14276346747E+03 -0.52879597146E+03 -0.35630020329E+03  0.65342025898E+03  0.12699999809E+01 0. -1.
       -4    1    3    3    0  502  0.14276346747E+03  0.52879597146E+03 -0.48220426235E+03  0.72974594936E+03  0.12699999809E+01 0.  1.
</event>
<event>
 5   0  0.1540772E-04  0.1101224E+04  0.7818609E-02  0.9204000E-01
       -2   -1    0    0    0  501  0.00000000000E+00  0.00000000000E+00  0.14959196202E+03  0.14959196204E+03  0.25500000920E-02 0.  1.
        2   -1    0    0  501    0  0.00000000000E+00  0.00000000000E+00 -0.20266698971E+04  0.20266698971E+04  0.25500000920E-02 0. -1.
    10030    2    1    2    0    0  0.00000000000E+00  0.00000000000E+00 -0.18770779351E+04  0.21762618591E+04  0.11012239124E+04 0.  0.
        2    1    3    3  502    0  0.23763805108E+03 -0.49591292647E+03 -0.88362802639E+03  0.10407689287E+04  0.25500000920E-02 0. -1.
       -2    1    3    3    0  502 -0.23763805108E+03  0.49591292647E+03 -0.99344990867E+03  0.11354929304E+04  0.25500000920E-02 0.  1.
</event>
<event>
 5   0  0.9016738E-05  0.1099157E+04  0.7818609E-02  0.9206014E-01
       -1   -1    0    0    0  501  0.00000000000E+00  0.00000000000E+00  0.14036204178E+03  0.14036204187E+03  0.50400001928E-02 0. -1.
        1   -1    0    0  501    0  0.00000000000E+00  0.00000000000E+00 -0.21518401550E+04  0.21518401550E+04  0.50400001928E-02 0.  1.
    10030    2    1    2    0    0  0.00000000000E+00  0.00000000000E+00 -0.20114781132E+04  0.22922021969E+04  0.10991572733E+04 0.  0.
        4    1    3    3  502    0 -0.17441059526E+02 -0.76174801200E+02  0.12871344465E+03  0.15058404507E+03  0.12699999809E+01 0. -1.
       -4    1    3    3    0  502  0.17441059526E+02  0.76174801200E+02 -0.21401915579E+04  0.21416181518E+04  0.12699999809E+01 0.  1.
</event>
<event>
 5   0  0.1503277E-04  0.1101465E+04  0.7818609E-02  0.9203765E-01
       -2   -1    0    0    0  501  0.00000000000E+00  0.00000000000E+00  0.19805595753E+04  0.19805595753E+04  0.25500000920E-02 0. -1.
        2   -1    0    0  501    0  0.00000000000E+00  0.00000000000E+00 -0.15314183625E+03  0.15314183627E+03  0.25500000920E-02 0.  1.
    10030    2    1    2    0    0  0.00000000000E+00  0.00000000000E+00  0.18274177391E+04  0.21337014116E+04  0.11014654424E+04 0.  0.
        5    1    3    3  502    0 -0.35434747262E+03 -0.28659626574E+03  0.15126131116E+04  0.15797848164E+04  0.46999998093E+01 0. -1.
       -5    1    3    3    0  502  0.35434747262E+03  0.28659626574E+03  0.31480462747E+03  0.55391659513E+03  0.46999998093E+01 0.  1.
</event>
<event>
 5   0  0.8621738E-05  0.1100172E+04  0.7818609E-02  0.9205024E-01
       -1   -1    0    0    0  501  0.00000000000E+00  0.00000000000E+00  0.78132411710E+03  0.78132411711E+03  0.50400001928E-02 0.  1.
        1   -1    0    0  501    0  0.00000000000E+00  0.00000000000E+00 -0.38728453706E+03  0.38728453709E+03  0.50400001928E-02 0. -1.
    10030    2    1    2    0    0  0.00000000000E+00  0.00000000000E+00  0.39403958004E+03  0.11686086542E+04  0.11001722574E+04 0.  0.
        2    1    3    3  502    0 -0.34222226076E+03 -0.10627781499E+03  0.64033452197E+03  0.73378426649E+03  0.25500000920E-02 0.  1.
       -2    1    3    3    0  502  0.34222226076E+03  0.10627781499E+03 -0.24629494193E+03  0.43482438771E+03  0.25500000920E-02 0. -1.
</event>
<event>
 5   0  0.9016738E-05  0.1100189E+04  0.7818609E-02  0.9205008E-01
        1   -1    0    0  501    0  0.00000000000E+00  0.00000000000E+00  0.89741973669E+03  0.89741973670E+03  0.50400001928E-02 0. -1.
       -1   -1    0    0    0  501  0.00000000000E+00  0.00000000000E+00 -0.33719306383E+03  0.33719306386E+03  0.50400001928E-02 0.  1.
    10030    2    1    2    0    0  0.00000000000E+00  0.00000000000E+00  0.56022667286E+03  0.12346128006E+04  0.11001885485E+04 0.  0.
        4    1    3    3  502    0  0.10717846477E+03  0.51938725220E+03  0.44408940155E+03  0.69171334419E+03  0.12699999809E+01 0.  1.
       -4    1    3    3    0  502 -0.10717846477E+03 -0.51938725220E+03  0.11613727131E+03  0.54289945638E+03  0.12699999809E+01 0. -1.
</event>
<event>
 5   0  0.9346836E-05  0.1100020E+04  0.7818609E-02  0.9205173E-01
       -1   -1    0    0    0  501  0.00000000000E+00  0.00000000000E+00  0.19856407326E+03  0.19856407333E+03  0.50400001928E-02 0. -1.
        1   -1    0    0  501    0  0.00000000000E+00  0.00000000000E+00 -0.15234918193E+04  0.15234918193E+04  0.50400001928E-02 0.  1.
    10030    2    1    2    0    0  0.00000000000E+00  0.00000000000E+00 -0.13249277461E+04  0.17220558927E+04  0.11000195294E+04 0.  0.
        5    1    3    3  502    0 -0.41177913606E+03 -0.20362792139E+03 -0.18902074039E+03  0.49676686439E+03  0.46999998093E+01 0.  1.
       -5    1    3    3    0  502  0.41177913606E+03  0.20362792139E+03 -0.11359070057E+04  0.12252890283E+04  0.46999998093E+01 0. -1.
</event>
<event>
 5   0  0.8621738E-05  0.1100988E+04  0.7818609E-02  0.9204229E-01
       -1   -1    0    0    0  501  0.00000000000E+00  0.00000000000E+00  0.38728477666E+03  0.38728477670E+03  0.50400001928E-02 0. -1.
        1   -1    0    0  501    0  0.00000000000E+00  0.00000000000E+00 -0.78248262983E+03  0.78248262985E+03  0.50400001928E-02 0.  1.
    10030    2    1    2    0    0  0.00000000000E+00  0.00000000000E+00 -0.39519785317E+03  0.11697674065E+04  0.11009879392E+04 0.  0.
        2    1    3    3  502    0 -0.14589241627E+03 -0.43945350363E+02  0.36443482791E+03  0.39500447434E+03  0.25500000920E-02 0. -1.
       -2    1    3    3    0  502  0.14589241627E+03  0.43945350363E+02 -0.75963268108E+03  0.77476293220E+03  0.25500000920E-02 0.  1.
</event>
<event>
 5   0  0.1553937E-04  0.1099771E+04  0.7818609E-02  0.9205415E-01
       -2   -1    0    0    0  501  0.00000000000E+00  0.00000000000E+00  0.12572540769E+04  0.12572540769E+04  0.25500000920E-02 0.  1.
        2   -1    0    0  501    0  0.00000000000E+00  0.00000000000E+00 -0.24050359785E+03  0.24050359787E+03  0.25500000920E-02 0. -1.
    10030    2    1    2    0    0  0.00000000000E+00  0.00000000000E+00  0.10167504791E+04  0.14977576748E+04  0.10997711197E+04 0.  0.
        1    1    3    3  502    0 -0.48331870320E+03 -0.49244074273E+02  0.15756937512E+03  0.51073481937E+03  0.50400001928E-02 0. -1.
       -1    1    3    3    0  502  0.48331870320E+03  0.49244074273E+02  0.85918110397E+03  0.98702285544E+03  0.50400001928E-02 0.  1.
</event>
<event>
 5   0  0.9016738E-05  0.1099002E+04  0.7818609E-02  0.9206165E-01
       -1   -1    0    0    0  501  0.00000000000E+00  0.00000000000E+00  0.48797705932E+03  0.48797705934E+03  0.50400001928E-02 0. -1.
        1   -1    0    0  501    0  0.00000000000E+00  0.00000000000E+00 -0.61878145038E+03  0.61878145040E+03  0.50400001928E-02 0.  1.
    10030    2    1    2    0    0  0.00000000000E+00  0.00000000000E+00 -0.13080439106E+03  0.11067585097E+04  0.10990016425E+04 0.  0.
        4    1    3    3  502    0  0.48728579204E+03 -0.10406044732E+02  0.19014822023E+03  0.52317653565E+03  0.12699999809E+01 0. -1.
       -4    1    3    3    0  502 -0.48728579204E+03  0.10406044732E+02 -0.32095261129E+03  0.58358197410E+03  0.12699999809E+01 0.  1.
</event>
<event>
 5   0  0.1464205E-04  0.1099776E+04  0.7818609E-02  0.9205410E-01
        2   -1    0    0  501    0  0.00000000000E+00  0.00000000000E+00  0.39483965838E+03  0.39483965839E+03  0.25500000920E-02 0. -1.
       -2   -1    0    0    0  501  0.00000000000E+00  0.00000000000E+00 -0.76582244925E+03  0.76582244925E+03  0.25500000920E-02 0.  1.
    10030    2    1    2    0    0  0.00000000000E+00  0.00000000000E+00 -0.37098279087E+03  0.11606621076E+04  0.10997764759E+04 0.  0.
        3    1    3    3  502    0 -0.25549504275E+03 -0.18876097597E+03  0.28821048511E+03  0.42892157424E+03  0.10100000352E+00 0. -1.
       -3    1    3    3    0  502  0.25549504275E+03  0.18876097597E+03 -0.65919327598E+03  0.73174053340E+03  0.10100000352E+00 0.  1.
</event>
<event>
 5   0  0.1553937E-04  0.1100004E+04  0.7818609E-02  0.9205188E-01
       -2   -1    0    0    0  501  0.00000000000E+00  0.00000000000E+00  0.63586858163E+03  0.63586858164E+03  0.25500000920E-02 0.  1.
        2   -1    0    0  501    0  0.00000000000E+00  0.00000000000E+00 -0.47573104094E+03  0.47573104095E+03  0.25500000920E-02 0. -1.
    10030    2    1    2    0    0  0.00000000000E+00  0.00000000000E+00  0.16013754069E+03  0.11115996226E+04  0.11000044041E+04 0.  0.
        1    1    3    3  502    0  0.78981909037E+01 -0.47139682435E+03  0.36629473784E+03  0.59703365267E+03  0.50400001928E-02 0.  1.
       -1    1    3    3    0  502 -0.78981909037E+01  0.47139682435E+03 -0.20615719715E+03  0.51456596991E+03  0.50400001928E-02 0. -1.
</event>
<event>
 5   0  0.1553937E-04  0.1099778E+04  0.7818609E-02  0.9205408E-01
       -2   -1    0    0    0  501  0.00000000000E+00  0.00000000000E+00  0.89836271458E+03  0.89836271459E+03  0.25500000920E-02 0.  1.
        2   -1    0    0  501    0  0.00000000000E+00  0.00000000000E+00 -0.33658770997E+03  0.33658770998E+03  0.25500000920E-02 0. -1.
    10030    2    1    2    0    0  0.00000000000E+00  0.00000000000E+00  0.56177500462E+03  0.12349504246E+04  0.10997778845E+04 0.  0.
        1    1    3    3  502    0  0.44589014914E+03 -0.21163060625E+03  0.55311433022E+03  0.74131032701E+03  0.50400001928E-02 0.  1.
       -1    1    3    3    0  502 -0.44589014914E+03  0.21163060625E+03  0.86606743934E+01  0.49364009755E+03  0.50400001928E-02 0. -1.
</event>
<event>
 5   0  0.1503277E-04  0.1099609E+04  0.7818609E-02  0.9205573E-01
        2   -1    0    0  501    0  0.00000000000E+00  0.00000000000E+00  0.10076788852E+04  0.10076788853E+04  0.25500000920E-02 0. -1.
       -2   -1    0    0    0  501  0.00000000000E+00  0.00000000000E+00 -0.29998153372E+03  0.29998153373E+03  0.25500000920E-02 0.  1.
    10030    2    1    2    0    0  0.00000000000E+00  0.00000000000E+00  0.70769735153E+03  0.13076604190E+04  0.10996091260E+04 0.  0.
        5    1    3    3  502    0 -0.60069531211E+02  0.24680338557E+03 -0.22599409288E+03  0.34002305763E+03  0.46999998093E+01 0.  1.
       -5    1    3    3    0  502  0.60069531211E+02 -0.24680338557E+03  0.93369144441E+03  0.96763736135E+03  0.46999998093E+01 0. -1.
</event>
<event>
 5   0  0.9346836E-05  0.1099967E+04  0.7818609E-02  0.9205224E-01
       -1   -1    0    0    0  501  0.00000000000E+00  0.00000000000E+00  0.54302624636E+03  0.54302624639E+03  0.50400001928E-02 0.  1.
        1   -1    0    0  501    0  0.00000000000E+00  0.00000000000E+00 -0.55702962232E+03  0.55702962234E+03  0.50400001928E-02 0. -1.
    10030    2    1    2    0    0  0.00000000000E+00  0.00000000000E+00 -0.14003375954E+02  0.11000558687E+04  0.10999667358E+04 0.  0.
        5    1    3    3  502    0  0.12990015921E+03  0.49061626663E+03 -0.21887079018E+03  0.55272496346E+03  0.46999998093E+01 0. -1.
       -5    1    3    3    0  502 -0.12990015921E+03 -0.49061626663E+03  0.20486741423E+03  0.54733090526E+03  0.46999998093E+01 0.  1.
</event>
<event>
 5   0  0.1464205E-04  0.1100647E+04  0.7818609E-02  0.9204562E-01
       -2   -1    0    0    0  501  0.00000000000E+00  0.00000000000E+00  0.38558306578E+03  0.38558306579E+03  0.25500000920E-02 0.  1.
        2   -1    0    0  501    0  0.00000000000E+00  0.00000000000E+00 -0.78544877502E+03  0.78544877503E+03  0.25500000920E-02 0. -1.
    10030    2    1    2    0    0  0.00000000000E+00  0.00000000000E+00 -0.39986570924E+03  0.11710318408E+04  0.11006466221E+04 0.  0.
        3    1    3    3  502    0  0.42346186112E+03 -0.15322581624E+03 -0.53648000827E+03  0.70043479930E+03  0.10100000352E+00 0. -1.
       -3    1    3    3    0  502 -0.42346186112E+03  0.15322581624E+03  0.13661429903E+03  0.47059704152E+03  0.10100000352E+00 0.  1.
</event>
<event>
 5   0  0.8621738E-05  0.1097867E+04  0.7818609E-02  0.9207274E-01
       -1   -1    0    0    0  501  0.00000000000E+00  0.00000000000E+00  0.24395992558E+03  0.24395992563E+03  0.50400001928E-02 0.  1.
        1   -1    0    0  501    0  0.00000000000E+00  0.00000000000E+00 -0.12351531327E+04  0.12351531327E+04  0.50400001928E-02 0. -1.
    10030    2    1    2    0    0  0.00000000000E+00  0.00000000000E+00 -0.99119320711E+03  0.14791130583E+04  0.10978667795E+04 0.  0.
        2    1    3    3  502    0  0.10990286282E+03 -0.53724739760E+03 -0.46220026545E+03  0.71717675010E+03  0.25500000920E-02 0. -1.
       -2    1    3    3    0  502 -0.10990286282E+03  0.53724739760E+03 -0.52899294166E+03  0.76193630824E+03  0.25500000920E-02 0.  1.
</event>
<event>
 5   0  0.8657442E-05  0.1099918E+04  0.7818609E-02  0.9205272E-01
        1   -1    0    0  501    0  0.00000000000E+00  0.00000000000E+00  0.97175161922E+03  0.97175161923E+03  0.50400001928E-02 0. -1.
       -1   -1    0    0    0  501  0.00000000000E+00  0.00000000000E+00 -0.31124684914E+03  0.31124684918E+03  0.50400001928E-02 0.  1.
    10030    2    1    2    0    0  0.00000000000E+00  0.00000000000E+00  0.66050477008E+03  0.12829984684E+04  0.10999175054E+04 0.  0.
        1    1    3    3  502    0 -0.64775543352E+02 -0.14039176530E+03  0.94587810579E+03  0.95843158849E+03  0.50400001928E-02 0. -1.
       -1    1    3    3    0  502  0.64775543352E+02  0.14039176530E+03 -0.28537333571E+03  0.32456687992E+03  0.50400001928E-02 0.  1.
</event>
<event>
 5   0  0.8657442E-05  0.1099743E+04  0.7818609E-02  0.9205442E-01
       -1   -1    0    0    0  501  0.00000000000E+00  0.00000000000E+00  0.18641177457E+03  0.18641177464E+03  0.50400001928E-02 0.  1.
        1   -1    0    0  501    0  0.00000000000E+00  0.00000000000E+00 -0.16219939051E+04  0.16219939052E+04  0.50400001928E-02 0. -1.
    10030    2    1    2    0    0  0.00000000000E+00  0.00000000000E+00 -0.14355821306E+04  0.18084056798E+04  0.10997431742E+04 0.  0.
        1    1    3    3  502    0  0.21147887029E+03 -0.23019568231E+03 -0.14616756828E+04  0.14947271210E+04  0.50400001928E-02 0. -1.
       -1    1    3    3    0  502 -0.21147887029E+03  0.23019568231E+03  0.26093552194E+02  0.31367855876E+03  0.50400001928E-02 0.  1.
</event>
<event>
 5   0  0.8921459E-05  0.1102301E+04  0.7818609E-02  0.9202953E-01
        1   -1    0    0  501    0  0.00000000000E+00  0.00000000000E+00  0.97998512768E+03  0.97998512770E+03  0.50400001928E-02 0. -1.
       -1   -1    0    0    0  501  0.00000000000E+00  0.00000000000E+00 -0.30997063228E+03  0.30997063232E+03  0.50400001928E-02 0.  1.
    10030    2    1    2    0    0  0.00000000000E+00  0.00000000000E+00  0.67001449541E+03  0.12899557600E+04  0.11023005211E+04 0.  0.
        3    1    3    3  502    0 -0.20547414786E+03  0.40035002584E+03  0.70740616776E+03  0.83840519143E+03  0.10100000352E+00 0. -1.
       -3    1    3    3    0  502  0.20547414786E+03 -0.40035002584E+03 -0.37391672356E+02  0.45155056858E+03  0.10100000352E+00 0.  1.
</event>
<event>
 5   0  0.1540772E-04  0.1099974E+04  0.7818609E-02  0.9205217E-01
       -2   -1    0    0    0  501  0.00000000000E+00  0.00000000000E+00  0.36134690526E+03  0.36134690527E+03  0.25500000920E-02 0.  1.
        2   -1    0    0  501    0  0.00000000000E+00  0.00000000000E+00 -0.83710575522E+03  0.83710575522E+03  0.25500000920E-02 0. -1.
    10030    2    1    2    0    0  0.00000000000E+00  0.00000000000E+00 -0.47575884996E+03  0.11984526605E+04  0.10999737706E+04 0.  0.
        2    1    3    3  502    0 -0.10763131854E+03  0.39731574908E+03  0.15952412614E+03  0.44146602591E+03  0.25500000920E-02 0.  1.
       -2    1    3    3    0  502  0.10763131854E+03 -0.39731574908E+03 -0.63528297610E+03  0.75698663458E+03  0.25500000920E-02 0. -1.
</event>
<event>
 5   0  0.9346836E-05  0.1099435E+04  0.7818609E-02  0.9205743E-01
        1   -1    0    0  501    0  0.00000000000E+00  0.00000000000E+00  0.35835463739E+03  0.35835463742E+03  0.50400001928E-02 0.  1.
       -1   -1    0    0    0  501  0.00000000000E+00  0.00000000000E+00 -0.84326841314E+03  0.84326841315E+03  0.50400001928E-02 0. -1.
    10030    2    1    2    0    0  0.00000000000E+00  0.00000000000E+00 -0.48491377575E+03  0.12016230506E+04  0.10994346664E+04 0.  0.
        5    1    3    3  502    0 -0.29974673523E+03 -0.37670468213E+03  0.47560348599E+02  0.48377536066E+03  0.46999998093E+01 0. -1.
       -5    1    3    3    0  502  0.29974673523E+03  0.37670468213E+03 -0.53247412435E+03  0.71784768992E+03  0.46999998093E+01 0.  1.
</event>
<event>
 5   0  0.1503277E-04  0.1098389E+04  0.7818609E-02  0.9206763E-01
       -2   -1    0    0    0  501  0.00000000000E+00  0.00000000000E+00  0.51837120577E+03  0.51837120578E+03  0.25500000920E-02 0. -1.
        2   -1    0    0  501    0  0.00000000000E+00  0.00000000000E+00 -0.58185062572E+03  0.58185062573E+03  0.25500000920E-02 0.  1.
    10030    2    1    2    0    0  0.00000000000E+00  0.00000000000E+00 -0.63479419948E+02  0.11002218315E+04  0.10983890211E+04 0.  0.
        5    1    3    3  502    0  0.21504055607E+03  0.14362284444E+03 -0.51702987508E+03  0.57811066754E+03  0.46999998093E+01 0.  1.
       -5    1    3    3    0  502 -0.21504055607E+03 -0.14362284444E+03  0.45355045513E+03  0.52211116397E+03  0.46999998093E+01 0. -1.
</event>
<event>
 5   0  0.6010125E-05  0.1099804E+04  0.7818609E-02  0.9205383E-01
        4   -1    0    0  501    0  0.00000000000E+00  0.00000000000E+00  0.31240215076E+03  0.31240473220E+03  0.12699999809E+01 0. -1.
       -4   -1    0    0    0  501  0.00000000000E+00  0.00000000000E+00 -0.96795111469E+03  0.96795194785E+03  0.12699999809E+01 0.  1.
    10030    2    1    2    0    0  0.00000000000E+00  0.00000000000E+00 -0.65554896394E+03  0.12803566800E+04  0.10998039753E+04 0.  0.
        3    1    3    3  502    0  0.52475607184E+03 -0.13393707147E+03 -0.43873204783E+03  0.69698916350E+03  0.10100000352E+00 0.  1.
       -3    1    3    3    0  502 -0.52475607184E+03  0.13393707147E+03 -0.21681691611E+03  0.58336751654E+03  0.10100000352E+00 0. -1.
</event>
<event>
 5   0  0.1503277E-04  0.1099899E+04  0.7818609E-02  0.9205290E-01
        2   -1    0    0  501    0  0.00000000000E+00  0.00000000000E+00  0.16993800584E+04  0.16993800584E+04  0.25500000920E-02 0. -1.
       -2   -1    0    0    0  501  0.00000000000E+00  0.00000000000E+00 -0.17797350288E+03  0.17797350290E+03  0.25500000920E-02 0.  1.
    10030    2    1    2    0    0  0.00000000000E+00  0.00000000000E+00  0.15214065555E+04  0.18773535613E+04  0.10998993076E+04 0.  0.
        5    1    3    3  502    0  0.18820637557E+02  0.54856702579E+03  0.70300967967E+03  0.89192191244E+03  0.46999998093E+01 0.  1.
       -5    1    3    3    0  502 -0.18820637557E+02 -0.54856702579E+03  0.81839687581E+03  0.98543164883E+03  0.46999998093E+01 0. -1.
</event>
<event>
 5   0  0.8657442E-05  0.1100992E+04  0.7818609E-02  0.9204225E-01
        1   -1    0    0  501    0  0.00000000000E+00  0.00000000000E+00  0.86052996307E+03  0.86052996309E+03  0.50400001928E-02 0. -1.
       -1   -1    0    0    0  501  0.00000000000E+00  0.00000000000E+00 -0.35216193098E+03  0.35216193102E+03  0.50400001928E-02 0.  1.
    10030    2    1    2    0    0  0.00000000000E+00  0.00000000000E+00  0.50836803209E+03  0.12126918941E+04  0.11009920862E+04 0.  0.
        1    1    3    3  502    0 -0.11678147551E+03 -0.53778482674E+03  0.23878489732E+03  0.59989054010E+03  0.50400001928E-02 0.  1.
       -1    1    3    3    0  502  0.11678147551E+03  0.53778482674E+03  0.26958313477E+03  0.61280135400E+03  0.50400001928E-02 0. -1.
</event>
<event>
 5   0  0.8621738E-05  0.1099851E+04  0.7818609E-02  0.9205337E-01
       -1   -1    0    0    0  501  0.00000000000E+00  0.00000000000E+00  0.75661021357E+03  0.75661021359E+03  0.50400001928E-02 0. -1.
        1   -1    0    0  501    0  0.00000000000E+00  0.00000000000E+00 -0.39970116400E+03  0.39970116403E+03  0.50400001928E-02 0.  1.
    10030    2    1    2    0    0  0.00000000000E+00  0.00000000000E+00  0.35690904958E+03  0.11563113776E+04  0.10998508682E+04 0.  0.
        2    1    3    3  502    0  0.29730534734E+03 -0.38382752580E+03  0.44998385819E+03  0.66196639775E+03  0.25500000920E-02 0.  1.
       -2    1    3    3    0  502 -0.29730534734E+03  0.38382752580E+03 -0.93074808611E+02  0.49434497987E+03  0.25500000920E-02 0. -1.
</event>
<event>
 5   0  0.1553937E-04  0.1100198E+04  0.7818609E-02  0.9204999E-01
       -2   -1    0    0    0  501  0.00000000000E+00  0.00000000000E+00  0.40916065417E+03  0.40916065418E+03  0.25500000920E-02 0.  1.
        2   -1    0    0  501    0  0.00000000000E+00  0.00000000000E+00 -0.73958494043E+03  0.73958494043E+03  0.25500000920E-02 0. -1.
    10030    2    1    2    0    0  0.00000000000E+00  0.00000000000E+00 -0.33042428626E+03  0.11487455946E+04  0.11001982695E+04 0.  0.
        1    1    3    3  502    0  0.17343340347E+02 -0.25444896570E+03  0.34370046113E+03  0.42798957301E+03  0.50400001928E-02 0.  1.
       -1    1    3    3    0  502 -0.17343340347E+02  0.25444896570E+03 -0.67412474739E+03  0.72075602159E+03  0.50400001928E-02 0. -1.
</event>
<event>
 5   0  0.1553937E-04  0.1099646E+04  0.7818609E-02  0.9205537E-01
        2   -1    0    0  501    0  0.00000000000E+00  0.00000000000E+00  0.98485019756E+03  0.98485019756E+03  0.25500000920E-02 0. -1.
       -2   -1    0    0    0  501  0.00000000000E+00  0.00000000000E+00 -0.30695560430E+03  0.30695560431E+03  0.25500000920E-02 0.  1.
    10030    2    1    2    0    0  0.00000000000E+00  0.00000000000E+00  0.67789459326E+03  0.12918058019E+04  0.10996459204E+04 0.  0.
        1    1    3    3  502    0  0.36391285777E+03 -0.83895446247E+01  0.82302624054E+03  0.89993063352E+03  0.50400001928E-02 0. -1.
       -1    1    3    3    0  502 -0.36391285777E+03  0.83895446247E+01 -0.14513164728E+03  0.39187516835E+03  0.50400001928E-02 0.  1.
</event>
<event>
 5   0  0.9346836E-05  0.1100027E+04  0.7818609E-02  0.9205165E-01
       -1   -1    0    0    0  501  0.00000000000E+00  0.00000000000E+00  0.27674198599E+03  0.27674198604E+03  0.50400001928E-02 0. -1.
        1   -1    0    0  501    0  0.00000000000E+00  0.00000000000E+00 -0.10931304293E+04  0.10931304293E+04  0.50400001928E-02 0.  1.
    10030    2    1    2    0    0  0.00000000000E+00  0.00000000000E+00 -0.81638844332E+03  0.13698724154E+04  0.11000274287E+04 0.  0.
        5    1    3    3  502    0  0.40090474830E+03  0.17295498536E+03  0.82954287260E+01  0.43672525495E+03  0.46999998093E+01 0. -1.
       -5    1    3    3    0  502 -0.40090474830E+03 -0.17295498536E+03 -0.82468387205E+03  0.93314716041E+03  0.46999998093E+01 0.  1.
</event>
<event>
 5   0  0.9016738E-05  0.1099940E+04  0.7818609E-02  0.9205250E-01
       -1   -1    0    0    0  501  0.00000000000E+00  0.00000000000E+00  0.19199866593E+03  0.19199866600E+03  0.50400001928E-02 0. -1.
        1   -1    0    0  501    0  0.00000000000E+00  0.00000000000E+00 -0.15753599961E+04  0.15753599961E+04  0.50400001928E-02 0.  1.
    10030    2    1    2    0    0  0.00000000000E+00  0.00000000000E+00 -0.13833613302E+04  0.17673586621E+04  0.10999400305E+04 0.  0.
        4    1    3    3  502    0 -0.40357191001E+03 -0.29952374203E+03 -0.10505379116E+04  0.11645669904E+04  0.12699999809E+01 0.  1.
       -4    1    3    3    0  502  0.40357191001E+03  0.29952374203E+03 -0.33282341856E+03  0.60279167166E+03  0.12699999809E+01 0. -1.
</event>
<event>
 5   0  0.1503277E-04  0.1101248E+04  0.7818609E-02  0.9203976E-01
        2   -1    0    0  501    0  0.00000000000E+00  0.00000000000E+00  0.31563643183E+03  0.31563643184E+03  0.25500000920E-02 0. -1.
       -2   -1    0    0    0  501  0.00000000000E+00  0.00000000000E+00 -0.96055779229E+03  0.96055779229E+03  0.25500000920E-02 0.  1.
    10030    2    1    2    0    0  0.00000000000E+00  0.00000000000E+00 -0.64492136046E+03  0.12761942241E+04  0.11012484445E+04 0.  0.
        5    1    3    3  502    0 -0.53714388375E+03  0.99779411552E+02 -0.24313612518E+03  0.59801065893E+03  0.46999998093E+01 0. -1.
       -5    1    3    3    0  502  0.53714388375E+03 -0.99779411552E+02 -0.40178523528E+03  0.67818356520E+03  0.46999998093E+01 0.  1.
</event>
<event>
 5   0  0.9346836E-05  0.1099305E+04  0.7818609E-02  0.9205870E-01
        1   -1    0    0  501    0  0.00000000000E+00  0.00000000000E+00  0.83863470550E+03  0.83863470551E+03  0.50400001928E-02 0.  1.
       -1   -1    0    0    0  501  0.00000000000E+00  0.00000000000E+00 -0.36024961239E+03  0.36024961243E+03  0.50400001928E-02 0. -1.
    10030    2    1    2    0    0  0.00000000000E+00  0.00000000000E+00  0.47838509311E+03  0.11988843179E+04  0.10993049215E+04 0.  0.
        5    1    3    3  502    0  0.11269811188E+03 -0.52126024083E+03  0.38421411327E+03  0.65730942328E+03  0.46999998093E+01 0.  1.
       -5    1    3    3    0  502 -0.11269811188E+03  0.52126024083E+03  0.94170979832E+02  0.54157489466E+03  0.46999998093E+01 0. -1.
</event>
<event>
 5   0  0.8621738E-05  0.1100688E+04  0.7818609E-02  0.9204521E-01
       -1   -1    0    0    0  501  0.00000000000E+00  0.00000000000E+00  0.39988428035E+03  0.39988428038E+03  0.50400001928E-02 0. -1.
        1   -1    0    0  501    0  0.00000000000E+00  0.00000000000E+00 -0.75741599847E+03  0.75741599849E+03  0.50400001928E-02 0.  1.
    10030    2    1    2    0    0  0.00000000000E+00  0.00000000000E+00 -0.35753171812E+03  0.11573002789E+04  0.11006884237E+04 0.  0.
        2    1    3    3  502    0 -0.20028783584E+03 -0.36366782775E+03  0.20107554108E+03  0.46130345691E+03  0.25500000920E-02 0. -1.
       -2    1    3    3    0  502  0.20028783584E+03  0.36366782775E+03 -0.55860725920E+03  0.69599682195E+03  0.25500000920E-02 0.  1.
</event>
<event>
 5   0  0.1503277E-04  0.1099105E+04  0.7818609E-02  0.9206065E-01
        2   -1    0    0  501    0  0.00000000000E+00  0.00000000000E+00  0.18065311156E+04  0.18065311156E+04  0.25500000920E-02 0.  1.
       -2   -1    0    0    0  501  0.00000000000E+00  0.00000000000E+00 -0.16717547939E+03  0.16717547941E+03  0.25500000920E-02 0. -1.
    10030    2    1    2    0    0  0.00000000000E+00  0.00000000000E+00  0.16393556362E+04  0.19737065950E+04  0.10991045543E+04 0.  0.
        5    1    3    3  502    0 -0.84272018001E+02  0.50599391995E+03  0.46571191735E+03  0.69285012810E+03  0.46999998093E+01 0. -1.
       -5    1    3    3    0  502  0.84272018001E+02 -0.50599391995E+03  0.11736437189E+04  0.12808564669E+04  0.46999998093E+01 0.  1.
</event>
<event>
 5   0  0.1553937E-04  0.1099948E+04  0.7818609E-02  0.9205243E-01
       -2   -1    0    0    0  501  0.00000000000E+00  0.00000000000E+00  0.35772325285E+03  0.35772325286E+03  0.25500000920E-02 0. -1.
        2   -1    0    0  501    0  0.00000000000E+00  0.00000000000E+00 -0.84554558316E+03  0.84554558317E+03  0.25500000920E-02 0.  1.
    10030    2    1    2    0    0  0.00000000000E+00  0.00000000000E+00 -0.48782233031E+03  0.12032688360E+04  0.10999478469E+04 0.  0.
        1    1    3    3  502    0  0.33480745447E+03  0.35610730952E+03  0.31887602029E+02  0.48982166822E+03  0.50400001928E-02 0. -1.
       -1    1    3    3    0  502 -0.33480745447E+03 -0.35610730952E+03 -0.51970993234E+03  0.71344716781E+03  0.50400001928E-02 0.  1.
</event>
<event>
 5   0  0.8621738E-05  0.1100014E+04  0.7818609E-02  0.9205178E-01
        1   -1    0    0  501    0  0.00000000000E+00  0.00000000000E+00  0.71951626025E+03  0.71951626027E+03  0.50400001928E-02 0. -1.
       -1   -1    0    0    0  501  0.00000000000E+00  0.00000000000E+00 -0.42043228822E+03  0.42043228825E+03  0.50400001928E-02 0.  1.
    10030    2    1    2    0    0  0.00000000000E+00  0.00000000000E+00  0.29908397203E+03  0.11399485485E+04  0.11000143049E+04 0.  0.
        2    1    3    3  502    0  0.95461982396E+02 -0.54150354108E+03  0.13607830929E+03  0.56644186052E+03  0.25500000920E-02 0.  1.
       -2    1    3    3    0  502 -0.95461982396E+02  0.54150354108E+03  0.16300566274E+03  0.57350668799E+03  0.25500000920E-02 0. -1.
</event>
<event>
 5   0  0.9346836E-05  0.1099823E+04  0.7818609E-02  0.9205364E-01
       -1   -1    0    0    0  501  0.00000000000E+00  0.00000000000E+00  0.20730196591E+03  0.20730196597E+03  0.50400001928E-02 0.  1.
        1   -1    0    0  501    0  0.00000000000E+00  0.00000000000E+00 -0.14587552874E+04  0.14587552874E+04  0.50400001928E-02 0. -1.
    10030    2    1    2    0    0  0.00000000000E+00  0.00000000000E+00 -0.12514533215E+04  0.16660572534E+04  0.10998233293E+04 0.  0.
        5    1    3    3  502    0  0.17200919452E+03 -0.35593193365E+03 -0.12047566878E+04  0.12679650907E+04  0.46999998093E+01 0. -1.
       -5    1    3    3    0  502 -0.17200919452E+03  0.35593193365E+03 -0.46696633666E+02  0.39809216267E+03  0.46999998093E+01 0.  1.
</event>
<event>
 5   0  0.8921459E-05  0.1100110E+04  0.7818609E-02  0.9205085E-01
        1   -1    0    0  501    0  0.00000000000E+00  0.00000000000E+00  0.19615192873E+04  0.19615192873E+04  0.50400001928E-02 0.  1.
       -1   -1    0    0    0  501  0.00000000000E+00  0.00000000000E+00 -0.15424807130E+03  0.15424807138E+03  0.50400001928E-02 0. -1.
    10030    2    1    2    0    0  0.00000000000E+00  0.00000000000E+00  0.18072712160E+04  0.21157673587E+04  0.11001101163E+04 0.  0.
        3    1    3    3  502    0 -0.20001073124E+03 -0.50923935480E+03  0.79430625701E+03  0.96449543970E+03  0.10100000352E+00 0.  1.
       -3    1    3    3    0  502  0.20001073124E+03  0.50923935480E+03  0.10129649590E+04  0.11512719190E+04  0.10100000352E+00 0. -1.
</event>
<event>
 5   0  0.8657442E-05  0.1096734E+04  0.7818609E-02  0.9208381E-01
        1   -1    0    0  501    0  0.00000000000E+00  0.00000000000E+00  0.88731469846E+03  0.88731469848E+03  0.50400001928E-02 0.  1.
       -1   -1    0    0    0  501  0.00000000000E+00  0.00000000000E+00 -0.33889453005E+03  0.33889453009E+03  0.50400001928E-02 0. -1.
    10030    2    1    2    0    0  0.00000000000E+00  0.00000000000E+00  0.54842016841E+03  0.12262092286E+04  0.10967335096E+04 0.  0.
        1    1    3    3  502    0 -0.30350909697E+03  0.87063017919E+02 -0.22705854235E+03  0.38891300147E+03  0.50400001928E-02 0. -1.
       -1    1    3    3    0  502  0.30350909697E+03 -0.87063017919E+02  0.77547871076E+03  0.83729622709E+03  0.50400001928E-02 0.  1.
</event>
<event>
 5   0  0.9346836E-05  0.1101894E+04  0.7818609E-02  0.9203347E-01
        1   -1    0    0  501    0  0.00000000000E+00  0.00000000000E+00  0.78124295112E+03  0.78124295114E+03  0.50400001928E-02 0.  1.
       -1   -1    0    0    0  501  0.00000000000E+00  0.00000000000E+00 -0.38853835696E+03  0.38853835699E+03  0.50400001928E-02 0. -1.
    10030    2    1    2    0    0  0.00000000000E+00  0.00000000000E+00  0.39270459416E+03  0.11697813081E+04  0.11018944644E+04 0.  0.
        5    1    3    3  502    0  0.43879923367E+03 -0.25640884811E+03 -0.29425047002E+02  0.50909546084E+03  0.46999998093E+01 0. -1.
       -5    1    3    3    0  502 -0.43879923367E+03  0.25640884811E+03  0.42212964117E+03  0.66068584729E+03  0.46999998093E+01 0.  1.
</event>
<event>
 5   0  0.9016738E-05  0.1101498E+04  0.7818609E-02  0.9203733E-01
        1   -1    0    0  501    0  0.00000000000E+00  0.00000000000E+00  0.52841495381E+03  0.52841495384E+03  0.50400001928E-02 0. -1.
       -1   -1    0    0    0  501  0.00000000000E+00  0.00000000000E+00 -0.57402660780E+03  0.57402660782E+03  0.50400001928E-02 0.  1.
    10030    2    1    2    0    0  0.00000000000E+00  0.00000000000E+00 -0.45611653986E+02  0.11024415617E+04  0.11014976050E+04 0.  0.
        4    1    3    3  502    0  0.22266403153E+03  0.21502038055E+02 -0.52650744436E+03  0.57206058285E+03  0.12699999809E+01 0.  1.
       -4    1    3    3    0  502 -0.22266403153E+03 -0.21502038055E+02  0.48089579038E+03  0.53038097881E+03  0.12699999809E+01 0. -1.
</event>
<event>
 5   0  0.8921459E-05  0.1099586E+04  0.7818609E-02  0.9205595E-01
       -1   -1    0    0    0  501  0.00000000000E+00  0.00000000000E+00  0.12848506318E+04  0.12848506318E+04  0.50400001928E-02 0. -1.
        1   -1    0    0  501    0  0.00000000000E+00  0.00000000000E+00 -0.23525881861E+03  0.23525881866E+03  0.50400001928E-02 0.  1.
    10030    2    1    2    0    0  0.00000000000E+00  0.00000000000E+00  0.10495918131E+04  0.15201094504E+04  0.10995861799E+04 0.  0.
        3    1    3    3  502    0  0.63805892535E+02 -0.20080962694E+03  0.12268194325E+04  0.12447817594E+04  0.10100000352E+00 0. -1.
       -3    1    3    3    0  502 -0.63805892535E+02  0.20080962694E+03 -0.17722761939E+03  0.27532769107E+03  0.10100000352E+00 0.  1.
</event>
<event>
 5   0  0.1574101E-04  0.1101294E+04  0.7818609E-02  0.9203932E-01
        2   -1    0    0  501    0  0.00000000000E+00  0.00000000000E+00  0.14955866324E+04  0.14955866324E+04  0.25500000920E-02 0. -1.
       -2   -1    0    0    0  501  0.00000000000E+00  0.00000000000E+00 -0.20273781162E+03  0.20273781164E+03  0.25500000920E-02 0.  1.
    10030    2    1    2    0    0  0.00000000000E+00  0.00000000000E+00  0.12928488208E+04  0.16983244441E+04  0.11012937137E+04 0.  0.
        4    1    3    3  502    0  0.29757629850E+03 -0.32315033039E+03  0.11584273379E+04  0.12389242510E+04  0.12699999809E+01 0. -1.
       -4    1    3    3    0  502 -0.29757629850E+03  0.32315033039E+03  0.13442148287E+03  0.45940019310E+03  0.12699999809E+01 0.  1.
</event>
<event>
 5   0  0.8921459E-05  0.1099663E+04  0.7818609E-02  0.9205521E-01
       -1   -1    0    0    0  501  0.00000000000E+00  0.00000000000E+00  0.59262909055E+03  0.59262909057E+03  0.50400001928E-02 0. -1.
        1   -1    0    0  501    0  0.00000000000E+00  0.00000000000E+00 -0.51012433984E+03  0.51012433987E+03  0.50400001928E-02 0.  1.
    10030    2    1    2    0    0  0.00000000000E+00  0.00000000000E+00  0.82504750707E+02  0.11027534304E+04  0.10996627185E+04 0.  0.
        3    1    3    3  502    0  0.25227568727E+03  0.45368976175E+02 -0.44654375617E+03  0.51488125112E+03  0.10100000352E+00 0.  1.
       -3    1    3    3    0  502 -0.25227568727E+03 -0.45368976175E+02  0.52904850687E+03  0.58787217931E+03  0.10100000352E+00 0. -1.
</event>
<event>
 5   0  0.1464205E-04  0.1096874E+04  0.7818609E-02  0.9208244E-01
        2   -1    0    0  501    0  0.00000000000E+00  0.00000000000E+00  0.64800050323E+03  0.64800050323E+03  0.25500000920E-02 0. -1.
       -2   -1    0    0    0  501  0.00000000000E+00  0.00000000000E+00 -0.46417142418E+03  0.46417142419E+03  0.25500000920E-02 0.  1.
    10030    2    1    2    0    0  0.00000000000E+00  0.00000000000E+00  0.18382907905E+03  0.11121719274E+04  0.10968743163E+04 0.  0.
        3    1    3    3  502    0 -0.17810259083E+03  0.25889374581E+03  0.54766834520E+03  0.63141676492E+03  0.10100000352E+00 0. -1.
       -3    1    3    3    0  502  0.17810259083E+03 -0.25889374581E+03 -0.36383926615E+03  0.48075516251E+03  0.10100000352E+00 0.  1.
</event>
<event>
 5   0  0.1464205E-04  0.1100012E+04  0.7818609E-02  0.9205180E-01
        2   -1    0    0  501    0  0.00000000000E+00  0.00000000000E+00  0.15386808489E+04  0.15386808489E+04  0.25500000920E-02 0. -1.
       -2   -1    0    0    0  501  0.00000000000E+00  0.00000000000E+00 -0.19660121468E+03  0.19660121470E+03  0.25500000920E-02 0.  1.
    10030    2    1    2    0    0  0.00000000000E+00  0.00000000000E+00  0.13420796342E+04  0.17352820636E+04  0.11000118616E+04 0.  0.
        3    1    3    3  502    0 -0.42982688178E+03  0.20148444030E+03  0.23284514748E+03  0.52873812127E+03  0.10100000352E+00 0.  1.
       -3    1    3    3    0  502  0.42982688178E+03 -0.20148444030E+03  0.11092344867E+04  0.12065439423E+04  0.10100000352E+00 0. -1.
</event>
<event>
 5   0  0.1503277E-04  0.1099372E+04  0.7818609E-02  0.9205804E-01
       -2   -1    0    0    0  501  0.00000000000E+00  0.00000000000E+00  0.52217053377E+03  0.52217053377E+03  0.25500000920E-02 0. -1.
        2   -1    0    0  501    0  0.00000000000E+00  0.00000000000E+00 -0.57865161303E+03  0.57865161304E+03  0.25500000920E-02 0.  1.
    10030    2    1    2    0    0  0.00000000000E+00  0.00000000000E+00 -0.56481079265E+02  0.11008221468E+04  0.10993722239E+04 0.  0.
        5    1    3    3  502    0 -0.27450932526E+03  0.24297994662E+03 -0.43833912164E+03  0.57145244742E+03  0.46999998093E+01 0.  1.
       -5    1    3    3    0  502  0.27450932526E+03 -0.24297994662E+03  0.38185804237E+03  0.52936969939E+03  0.46999998093E+01 0. -1.
</event>
<event>
 5   0  0.1503277E-04  0.1099929E+04  0.7818609E-02  0.9205262E-01
        2   -1    0    0  501    0  0.00000000000E+00  0.00000000000E+00  0.14045129497E+04  0.14045129497E+04  0.25500000920E-02 0.  1.
       -2   -1    0    0    0  501  0.00000000000E+00  0.00000000000E+00 -0.21534915794E+03  0.21534915796E+03  0.25500000920E-02 0. -1.
    10030    2    1    2    0    0  0.00000000000E+00  0.00000000000E+00  0.11891637918E+04  0.16198621077E+04  0.10999285087E+04 0.  0.
        5    1    3    3  502    0  0.28803197204E+03 -0.12018737718E+03 -0.72261003712E+02  0.32039220529E+03  0.46999998093E+01 0. -1.
       -5    1    3    3    0  502 -0.28803197204E+03  0.12018737718E+03  0.12614247955E+04  0.12994699024E+04  0.46999998093E+01 0.  1.
</event>
<event>
 5   0  0.9346836E-05  0.1100332E+04  0.7818609E-02  0.9204868E-01
       -1   -1    0    0    0  501  0.00000000000E+00  0.00000000000E+00  0.41227930169E+03  0.41227930172E+03  0.50400001928E-02 0.  1.
        1   -1    0    0  501    0  0.00000000000E+00  0.00000000000E+00 -0.73416865610E+03  0.73416865612E+03  0.50400001928E-02 0. -1.
    10030    2    1    2    0    0  0.00000000000E+00  0.00000000000E+00 -0.32188935441E+03  0.11464479578E+04  0.11003318425E+04 0.  0.
        5    1    3    3  502    0  0.27293830439E+03 -0.33557101307E+03 -0.51512890827E+03  0.67266864424E+03  0.46999998093E+01 0. -1.
       -5    1    3    3    0  502 -0.27293830439E+03  0.33557101307E+03  0.19323955386E+03  0.47377931360E+03  0.46999998093E+01 0.  1.
</event>
<event>
 5   0  0.8621738E-05  0.1096574E+04  0.7818609E-02  0.9208537E-01
       -1   -1    0    0    0  501  0.00000000000E+00  0.00000000000E+00  0.26959271070E+03  0.26959271075E+03  0.50400001928E-02 0.  1.
        1   -1    0    0  501    0  0.00000000000E+00  0.00000000000E+00 -0.11150852340E+04  0.11150852340E+04  0.50400001928E-02 0. -1.
    10030    2    1    2    0    0  0.00000000000E+00  0.00000000000E+00 -0.84549252331E+03  0.13846779448E+04  0.10965743950E+04 0.  0.
        2    1    3    3  502    0  0.16095574748E+03  0.16627967555E+03 -0.10503921334E+04  0.10755832451E+04  0.25500000920E-02 0. -1.
       -2    1    3    3    0  502 -0.16095574748E+03 -0.16627967555E+03  0.20489961010E+03  0.30909469969E+03  0.25500000920E-02 0.  1.
</event>
<event>
 5   0  0.1503277E-04  0.1099650E+04  0.7818609E-02  0.9205534E-01
       -2   -1    0    0    0  501  0.00000000000E+00  0.00000000000E+00  0.28779592409E+03  0.28779592410E+03  0.25500000920E-02 0. -1.
        2   -1    0    0  501    0  0.00000000000E+00  0.00000000000E+00 -0.10504223022E+04  0.10504223022E+04  0.25500000920E-02 0.  1.
    10030    2    1    2    0    0  0.00000000000E+00  0.00000000000E+00 -0.76262637809E+03  0.13382182263E+04  0.10996495026E+04 0.  0.
        5    1    3    3  502    0  0.30710038990E+01 -0.54829576831E+03 -0.33191812001E+03  0.64095975614E+03  0.46999998093E+01 0.  1.
       -5    1    3    3    0  502 -0.30710038990E+01  0.54829576831E+03 -0.43070825809E+03  0.69725847015E+03  0.46999998093E+01 0. -1.
</event>
<event>
 5   0  0.1553937E-04  0.1099857E+04  0.7818609E-02  0.9205331E-01
        2   -1    0    0  501    0  0.00000000000E+00  0.00000000000E+00  0.45650260104E+03  0.45650260105E+03  0.25500000920E-02 0. -1.
       -2   -1    0    0    0  501  0.00000000000E+00  0.00000000000E+00 -0.66247431705E+03  0.66247431706E+03  0.25500000920E-02 0.  1.
    10030    2    1    2    0    0  0.00000000000E+00  0.00000000000E+00 -0.20597171601E+03  0.11189769181E+04  0.10998568068E+04 0.  0.
        1    1    3    3  502    0 -0.27643891813E+02 -0.14938340510E+03 -0.64070170765E+03  0.65846660104E+03  0.50400001928E-02 0.  1.
       -1    1    3    3    0  502  0.27643891813E+02  0.14938340510E+03  0.43472999164E+03  0.46051031707E+03  0.50400001928E-02 0. -1.
</event>
<event>
 5   0  0.8621738E-05  0.1104054E+04  0.7818609E-02  0.9201249E-01
        1   -1    0    0  501    0  0.00000000000E+00  0.00000000000E+00  0.17278049695E+04  0.17278049696E+04  0.50400001928E-02 0.  1.
       -1   -1    0    0    0  501  0.00000000000E+00  0.00000000000E+00 -0.17637054172E+03  0.17637054179E+03  0.50400001928E-02 0. -1.
    10030    2    1    2    0    0  0.00000000000E+00  0.00000000000E+00  0.15514344278E+04  0.19041755113E+04  0.11040541627E+04 0.  0.
        2    1    3    3  502    0  0.44658513912E+03  0.32189113936E+03  0.70498916277E+03  0.89446180003E+03  0.25500000920E-02 0. -1.
       -2    1    3    3    0  502 -0.44658513912E+03 -0.32189113936E+03  0.84644526505E+03  0.10097137113E+04  0.25500000920E-02 0.  1.
</event>
<event>
 5   0  0.1553937E-04  0.1100045E+04  0.7818609E-02  0.9205148E-01
       -2   -1    0    0    0  501  0.00000000000E+00  0.00000000000E+00  0.38712387055E+03  0.38712387056E+03  0.25500000920E-02 0. -1.
        2   -1    0    0  501    0  0.00000000000E+00  0.00000000000E+00 -0.78146713167E+03  0.78146713167E+03  0.25500000920E-02 0.  1.
    10030    2    1    2    0    0  0.00000000000E+00  0.00000000000E+00 -0.39434326112E+03  0.11685910022E+04  0.11000446913E+04 0.  0.
        1    1    3    3  502    0  0.21722122403E+03  0.26161925247E+03  0.26208022425E+03  0.42932008734E+03  0.50400001928E-02 0. -1.
       -1    1    3    3    0  502 -0.21722122403E+03 -0.26161925247E+03 -0.65642348537E+03  0.73927091489E+03  0.50400001928E-02 0.  1.
</event>
<event>
 5   0  0.9016738E-05  0.1099878E+04  0.7818609E-02  0.9205311E-01
       -1   -1    0    0    0  501  0.00000000000E+00  0.00000000000E+00  0.78793233632E+03  0.78793233634E+03  0.50400001928E-02 0.  1.
        1   -1    0    0  501    0  0.00000000000E+00  0.00000000000E+00 -0.38383112474E+03  0.38383112477E+03  0.50400001928E-02 0. -1.
    10030    2    1    2    0    0  0.00000000000E+00  0.00000000000E+00  0.40410121158E+03  0.11717634611E+04  0.10998780931E+04 0.  0.
        4    1    3    3  502    0  0.54540901076E+03  0.66784671765E+02  0.22587655087E+03  0.59409848555E+03  0.12699999809E+01 0.  1.
       -4    1    3    3    0  502 -0.54540901076E+03 -0.66784671765E+02  0.17822466071E+03  0.57766497556E+03  0.12699999809E+01 0. -1.
</event>
<event>
 5   0  0.6010125E-05  0.1099825E+04  0.7818609E-02  0.9205362E-01
       -3   -1    0    0    0  501  0.00000000000E+00  0.00000000000E+00  0.51714300634E+03  0.51714301620E+03  0.10100000352E+00 0. -1.
        3   -1    0    0  501    0  0.00000000000E+00  0.00000000000E+00 -0.58475867057E+03  0.58475867929E+03  0.10100000352E+00 0.  1.
    10030    2    1    2    0    0  0.00000000000E+00  0.00000000000E+00 -0.67615664232E+02  0.11019016955E+04  0.10998251991E+04 0.  0.
        1    1    3    3  502    0 -0.53625605178E+03 -0.49449814817E+02  0.77703834539E+02  0.54410819069E+03  0.50400001928E-02 0. -1.
       -1    1    3    3    0  502  0.53625605178E+03  0.49449814817E+02 -0.14531949877E+03  0.55779350480E+03  0.50400001928E-02 0.  1.
</event>
<event>
 5   0  0.1464205E-04  0.1099687E+04  0.7818609E-02  0.9205497E-01
        2   -1    0    0  501    0  0.00000000000E+00  0.00000000000E+00  0.12626797018E+04  0.12626797018E+04  0.25500000920E-02 0. -1.
       -2   -1    0    0    0  501  0.00000000000E+00  0.00000000000E+00 -0.23943344356E+03  0.23943344357E+03  0.25500000920E-02 0.  1.
    10030    2    1    2    0    0  0.00000000000E+00  0.00000000000E+00  0.10232462582E+04  0.15021131454E+04  0.10996867720E+04 0.  0.
        3    1    3    3  502    0 -0.15413153032E+03  0.97211959222E+02 -0.19698719614E+03  0.26834801900E+03  0.10100000352E+00 0.  1.
       -3    1    3    3    0  502  0.15413153032E+03 -0.97211959222E+02  0.12202334544E+04  0.12337651264E+04  0.10100000352E+00 0. -1.
</event>
<event>
 5   0  0.9016738E-05  0.1100152E+04  0.7818609E-02  0.9205044E-01
        1   -1    0    0  501    0  0.00000000000E+00  0.00000000000E+00  0.11702022796E+04  0.11702022796E+04  0.50400001928E-02 0.  1.
       -1   -1    0    0    0  501  0.00000000000E+00  0.00000000000E+00 -0.25857370370E+03  0.25857370375E+03  0.50400001928E-02 0. -1.
    10030    2    1    2    0    0  0.00000000000E+00  0.00000000000E+00  0.91162857589E+03  0.14287759833E+04  0.11001518760E+04 0.  0.
        4    1    3    3  502    0 -0.23492230199E+03  0.48461892288E+03  0.60123441733E+03  0.80717310775E+03  0.12699999809E+01 0.  1.
       -4    1    3    3    0  502  0.23492230199E+03 -0.48461892288E+03  0.31039415856E+03  0.62160287560E+03  0.12699999809E+01 0. -1.
</event>
<event>
 5   0  0.1464205E-04  0.1100042E+04  0.7818609E-02  0.9205151E-01
       -2   -1    0    0    0  501  0.00000000000E+00  0.00000000000E+00  0.20542930641E+03  0.20542930643E+03  0.25500000920E-02 0.  1.
        2   -1    0    0  501    0  0.00000000000E+00  0.00000000000E+00 -0.14726389137E+04  0.14726389137E+04  0.25500000920E-02 0. -1.
    10030    2    1    2    0    0  0.00000000000E+00  0.00000000000E+00 -0.12672096073E+04  0.16780682202E+04  0.11000421640E+04 0.  0.
        3    1    3    3  502    0 -0.10347231094E+03  0.15014958678E+03  0.15797679103E+03  0.24126353692E+03  0.10100000352E+00 0.  1.
       -3    1    3    3    0  502  0.10347231094E+03 -0.15014958678E+03 -0.14251863984E+04  0.14368046833E+04  0.10100000352E+00 0. -1.
</event>
<event>
 5   0  0.1574101E-04  0.1100290E+04  0.7818609E-02  0.9204909E-01
       -2   -1    0    0    0  501  0.00000000000E+00  0.00000000000E+00  0.14949649992E+04  0.14949649992E+04  0.25500000920E-02 0.  1.
        2   -1    0    0  501    0  0.00000000000E+00  0.00000000000E+00 -0.20245272332E+03  0.20245272333E+03  0.25500000920E-02 0. -1.
    10030    2    1    2    0    0  0.00000000000E+00  0.00000000000E+00  0.12925122759E+04  0.16974177226E+04  0.11002903896E+04 0.  0.
        4    1    3    3  502    0  0.52340577204E+03  0.10607642698E+03  0.85005788174E+03  0.10038953261E+04  0.12699999809E+01 0. -1.
       -4    1    3    3    0  502 -0.52340577204E+03 -0.10607642698E+03  0.44245439419E+03  0.69352239647E+03  0.12699999809E+01 0.  1.
</event>
<event>
 5   0  0.1540772E-04  0.1099811E+04  0.7818609E-02  0.9205376E-01
       -2   -1    0    0    0  501  0.00000000000E+00  0.00000000000E+00  0.34314943419E+03  0.34314943420E+03  0.25500000920E-02 0.  1.
        2   -1    0    0  501    0  0.00000000000E+00  0.00000000000E+00 -0.88123715277E+03  0.88123715278E+03  0.25500000920E-02 0. -1.
    10030    2    1    2    0    0  0.00000000000E+00  0.00000000000E+00 -0.53808771858E+03  0.12243865870E+04  0.10998109481E+04 0.  0.
        2    1    3    3  502    0 -0.37388389349E+03 -0.34211815119E+03 -0.31413413756E+02  0.50776057129E+03  0.25500000920E-02 0.  1.
       -2    1    3    3    0  502  0.37388389349E+03  0.34211815119E+03 -0.50667430482E+03  0.71662601569E+03  0.25500000920E-02 0. -1.
</event>
<event>
 5   0  0.1540772E-04  0.1100765E+04  0.7818609E-02  0.9204446E-01
       -2   -1    0    0    0  501  0.00000000000E+00  0.00000000000E+00  0.43214730200E+03  0.43214730200E+03  0.25500000920E-02 0.  1.
        2   -1    0    0  501    0  0.00000000000E+00  0.00000000000E+00 -0.70096699080E+03  0.70096699080E+03  0.25500000920E-02 0. -1.
    10030    2    1    2    0    0  0.00000000000E+00  0.00000000000E+00 -0.26881968880E+03  0.11331142928E+04  0.11007651773E+04 0.  0.
        2    1    3    3  502    0  0.75376600032E+02  0.21144993679E+03 -0.65169980663E+03  0.68927885908E+03  0.25500000920E-02 0. -1.
       -2    1    3    3    0  502 -0.75376600032E+02 -0.21144993679E+03  0.38288011783E+03  0.44383543373E+03  0.25500000920E-02 0.  1.
</event>
<event>
 5   0  0.8621738E-05  0.1100407E+04  0.7818609E-02  0.9204795E-01
       -1   -1    0    0    0  501  0.00000000000E+00  0.00000000000E+00  0.66533053839E+03  0.66533053841E+03  0.50400001928E-02 0. -1.
        1   -1    0    0  501    0  0.00000000000E+00  0.00000000000E+00 -0.45499809002E+03  0.45499809005E+03  0.50400001928E-02 0.  1.
    10030    2    1    2    0    0  0.00000000000E+00  0.00000000000E+00  0.21033244837E+03  0.11203286285E+04  0.11004074231E+04 0.  0.
        2    1    3    3  502    0  0.32547532782E+03 -0.10471357447E+03 -0.33371196281E+03  0.47776855886E+03  0.25500000920E-02 0.  1.
       -2    1    3    3    0  502 -0.32547532782E+03  0.10471357447E+03  0.54404441118E+03  0.64256006960E+03  0.25500000920E-02 0. -1.
</event>
<event>
 5   0  0.1540772E-04  0.1100070E+04  0.7818609E-02  0.9205124E-01
        2   -1    0    0  501    0  0.00000000000E+00  0.00000000000E+00  0.12585863936E+04  0.12585863936E+04  0.25500000920E-02 0. -1.
       -2   -1    0    0    0  501  0.00000000000E+00  0.00000000000E+00 -0.24037953272E+03  0.24037953273E+03  0.25500000920E-02 0.  1.
    10030    2    1    2    0    0  0.00000000000E+00  0.00000000000E+00  0.10182068609E+04  0.14989659263E+04  0.11000698327E+04 0.  0.
        2    1    3    3  502    0 -0.48224851859E+03 -0.18661305954E+03  0.76457129634E+03  0.92301534920E+03  0.25500000920E-02 0. -1.
       -2    1    3    3    0  502  0.48224851859E+03  0.18661305954E+03  0.25363556453E+03  0.57595057711E+03  0.25500000920E-02 0.  1.
</event>
<event>
 5   0  0.1503277E-04  0.1099594E+04  0.7818609E-02  0.9205588E-01
        2   -1    0    0  501    0  0.00000000000E+00  0.00000000000E+00  0.73108293030E+03  0.73108293031E+03  0.25500000920E-02 0. -1.
       -2   -1    0    0    0  501  0.00000000000E+00  0.00000000000E+00 -0.41346445356E+03  0.41346445357E+03  0.25500000920E-02 0.  1.
    10030    2    1    2    0    0  0.00000000000E+00  0.00000000000E+00  0.31761847674E+03  0.11445473839E+04  0.10995941147E+04 0.  0.
        5    1    3    3  502    0  0.40614357774E+03 -0.13176898726E+02 -0.22663823039E+03  0.46530980419E+03  0.46999998093E+01 0.  1.
       -5    1    3    3    0  502 -0.40614357774E+03  0.13176898726E+02  0.54425670713E+03  0.67923757969E+03  0.46999998093E+01 0. -1.
</event>
<event>
 5   0  0.1503277E-04  0.1100032E+04  0.7818609E-02  0.9205161E-01
       -2   -1    0    0    0  501  0.00000000000E+00  0.00000000000E+00  0.59070904290E+03  0.59070904290E+03  0.25500000920E-02 0.  1.
        2   -1    0    0  501    0  0.00000000000E+00  0.00000000000E+00 -0.51212598457E+03  0.51212598458E+03  0.25500000920E-02 0. -1.
    10030    2    1    2    0    0  0.00000000000E+00  0.00000000000E+00  0.78583058330E+02  0.11028350275E+04  0.11000317272E+04 0.  0.
        5    1    3    3  502    0 -0.36784400318E+03 -0.23968038287E+03 -0.29282214454E+03  0.52775258876E+03  0.46999998093E+01 0. -1.
       -5    1    3    3    0  502  0.36784400318E+03  0.23968038287E+03  0.37140520287E+03  0.57508243872E+03  0.46999998093E+01 0.  1.
</event>
<event>
 5   0  0.1464205E-04  0.1100105E+04  0.7818609E-02  0.9205090E-01
        2   -1    0    0  501    0  0.00000000000E+00  0.00000000000E+00  0.48094373922E+03  0.48094373923E+03  0.25500000920E-02 0. -1.
       -2   -1    0    0    0  501  0.00000000000E+00  0.00000000000E+00 -0.62909134225E+03  0.62909134225E+03  0.25500000920E-02 0.  1.
    10030    2    1    2    0    0  0.00000000000E+00  0.00000000000E+00 -0.14814760303E+03  0.11100350815E+04  0.11001046177E+04 0.  0.
        3    1    3    3  502    0 -0.52097096554E+03  0.85325038280E+01  0.10379556962E+03  0.53127872255E+03  0.10100000352E+00 0. -1.
       -3    1    3    3    0  502  0.52097096554E+03 -0.85325038280E+01 -0.25194317265E+03  0.57875635893E+03  0.10100000352E+00 0.  1.
</event>
<event>
 5   0  0.8921459E-05  0.1100659E+04  0.7818609E-02  0.9204549E-01
       -1   -1    0    0    0  501  0.00000000000E+00  0.00000000000E+00  0.55103853887E+03  0.55103853890E+03  0.50400001928E-02 0.  1.
        1   -1    0    0  501    0  0.00000000000E+00  0.00000000000E+00 -0.54962173501E+03  0.54962173504E+03  0.50400001928E-02 0. -1.
    10030    2    1    2    0    0  0.00000000000E+00  0.00000000000E+00  0.14168038601E+01  0.11006602739E+04  0.11006593621E+04 0.  0.
        3    1    3    3  502    0  0.46796694556E+02  0.43989478257E+03 -0.32665313343E+03  0.54990874710E+03  0.10100000352E+00 0. -1.
       -3    1    3    3    0  502 -0.46796694556E+02 -0.43989478257E+03  0.32806993729E+03  0.55075152683E+03  0.10100000352E+00 0.  1.
</event>
<event>
 5   0  0.8657442E-05  0.1099609E+04  0.7818609E-02  0.9205573E-01
       -1   -1    0    0    0  501  0.00000000000E+00  0.00000000000E+00  0.71109596644E+03  0.71109596646E+03  0.50400001928E-02 0.  1.
        1   -1    0    0  501    0  0.00000000000E+00  0.00000000000E+00 -0.42509728324E+03  0.42509728327E+03  0.50400001928E-02 0. -1.
    10030    2    1    2    0    0  0.00000000000E+00  0.00000000000E+00  0.28599868320E+03  0.11361932497E+04  0.10996089550E+04 0.  0.
        1    1    3    3  502    0 -0.28326057693E+03 -0.46941809704E+03  0.10045847133E+03  0.55738838233E+03  0.50400001928E-02 0.  1.
       -1    1    3    3    0  502  0.28326057693E+03  0.46941809704E+03  0.18554021187E+03  0.57880486739E+03  0.50400001928E-02 0. -1.
</event>
<event>
 5   0  0.1464205E-04  0.1099596E+04  0.7818609E-02  0.9205586E-01
       -2   -1    0    0    0  501  0.00000000000E+00  0.00000000000E+00  0.60674684170E+03  0.60674684170E+03  0.25500000920E-02 0.  1.
        2   -1    0    0  501    0  0.00000000000E+00  0.00000000000E+00 -0.49819443774E+03  0.49819443774E+03  0.25500000920E-02 0. -1.
    10030    2    1    2    0    0  0.00000000000E+00  0.00000000000E+00  0.10855240396E+03  0.11049412794E+04  0.10995961107E+04 0.  0.
        3    1    3    3  502    0 -0.34271734067E+03 -0.41453147829E+03  0.16878790648E+03  0.56372057765E+03  0.10100000352E+00 0.  1.
       -3    1    3    3    0  502  0.34271734067E+03  0.41453147829E+03 -0.60235502522E+02  0.54122070180E+03  0.10100000352E+00 0. -1.
</event>
<event>
 5   0  0.6010125E-05  0.1102072E+04  0.7818609E-02  0.9203175E-01
       -4   -1    0    0    0  501  0.00000000000E+00  0.00000000000E+00  0.36050968433E+03  0.36051192129E+03  0.12699999809E+01 0. -1.
        4   -1    0    0  501    0  0.00000000000E+00  0.00000000000E+00 -0.84224824247E+03  0.84224919997E+03  0.12699999809E+01 0.  1.
    10030    2    1    2    0    0  0.00000000000E+00  0.00000000000E+00 -0.48173855814E+03  0.12027611213E+04  0.11020718109E+04 0.  0.
        4    1    3    3  502    0  0.26519472786E+03  0.41309164750E+03  0.32333734656E+02  0.49195531933E+03  0.12699999809E+01 0. -1.
       -4    1    3    3    0  502 -0.26519472786E+03 -0.41309164750E+03 -0.51407229280E+03  0.71080580192E+03  0.12699999809E+01 0.  1.
</event>
<event>
 5   0  0.1574101E-04  0.1099412E+04  0.7818609E-02  0.9205765E-01
        2   -1    0    0  501    0  0.00000000000E+00  0.00000000000E+00  0.63886849641E+03  0.63886849642E+03  0.25500000920E-02 0. -1.
       -2   -1    0    0    0  501  0.00000000000E+00  0.00000000000E+00 -0.47298743001E+03  0.47298743001E+03  0.25500000920E-02 0.  1.
    10030    2    1    2    0    0  0.00000000000E+00  0.00000000000E+00  0.16588106641E+03  0.11118559264E+04  0.10994121488E+04 0.  0.
        4    1    3    3  502    0 -0.27337107157E+02  0.24841604493E+03  0.57809155343E+03  0.62980100496E+03  0.12699999809E+01 0. -1.
       -4    1    3    3    0  502  0.27337107157E+02 -0.24841604493E+03 -0.41221048702E+03  0.48205492147E+03  0.12699999809E+01 0.  1.
</event>
<event>
 5   0  0.6010125E-05  0.1099833E+04  0.7818609E-02  0.9205355E-01
        3   -1    0    0  501    0  0.00000000000E+00  0.00000000000E+00  0.11914292722E+04  0.11914292765E+04  0.10100000352E+00 0.  1.
       -3   -1    0    0    0  501  0.00000000000E+00  0.00000000000E+00 -0.25381942699E+03  0.25381944709E+03  0.10100000352E+00 0. -1.
    10030    2    1    2    0    0  0.00000000000E+00  0.00000000000E+00  0.93760984518E+03  0.14452487235E+04  0.10998325560E+04 0.  0.
        4    1    3    3  502    0  0.26820811851E+03 -0.14975087181E+03 -0.13056516209E+03  0.33378105533E+03  0.12699999809E+01 0. -1.
       -4    1    3    3    0  502 -0.26820811851E+03  0.14975087181E+03  0.10681750073E+04  0.11114676682E+04  0.12699999809E+01 0.  1.
</event>
<event>
 5   0  0.9016738E-05  0.1100517E+04  0.7818609E-02  0.9204688E-01
        1   -1    0    0  501    0  0.00000000000E+00  0.00000000000E+00  0.78638397143E+03  0.78638397145E+03  0.50400001928E-02 0. -1.
       -1   -1    0    0    0  501  0.00000000000E+00  0.00000000000E+00 -0.38503372199E+03  0.38503372203E+03  0.50400001928E-02 0.  1.
    10030    2    1    2    0    0  0.00000000000E+00  0.00000000000E+00  0.40135024944E+03  0.11714176935E+04  0.11005168740E+04 0.  0.
        4    1    3    3  502    0 -0.27215142223E+03  0.45665621210E+03  0.49461414466E+02  0.53390011902E+03  0.12699999809E+01 0. -1.
       -4    1    3    3    0  502  0.27215142223E+03 -0.45665621210E+03  0.35188883497E+03  0.63751757446E+03  0.12699999809E+01 0.  1.
</event>
<event>
 5   0  0.1574101E-04  0.1100164E+04  0.7818609E-02  0.9205032E-01
       -2   -1    0    0    0  501  0.00000000000E+00  0.00000000000E+00  0.69837326189E+03  0.69837326190E+03  0.25500000920E-02 0.  1.
        2   -1    0    0  501    0  0.00000000000E+00  0.00000000000E+00 -0.43327882819E+03  0.43327882820E+03  0.25500000920E-02 0. -1.
    10030    2    1    2    0    0  0.00000000000E+00  0.00000000000E+00  0.26509443370E+03  0.11316520901E+04  0.11001642578E+04 0.  0.
        4    1    3    3  502    0 -0.10736472259E+03 -0.25615898985E+03 -0.35585188708E+03  0.45141642657E+03  0.12699999809E+01 0. -1.
       -4    1    3    3    0  502  0.10736472259E+03  0.25615898985E+03  0.62094632079E+03  0.68023566353E+03  0.12699999809E+01 0.  1.
</event>
<event>
 5   0  0.1553937E-04  0.1100070E+04  0.7818609E-02  0.9205124E-01
        2   -1    0    0  501    0  0.00000000000E+00  0.00000000000E+00  0.21256126000E+04  0.21256126000E+04  0.25500000920E-02 0.  1.
       -2   -1    0    0    0  501  0.00000000000E+00  0.00000000000E+00 -0.14233000905E+03  0.14233000907E+03  0.25500000920E-02 0. -1.
    10030    2    1    2    0    0  0.00000000000E+00  0.00000000000E+00  0.19832825909E+04  0.22679426090E+04  0.11000699262E+04 0.  0.
        1    1    3    3  502    0  0.43633004356E+03 -0.32142857274E+03  0.11854593933E+04  0.13034623921E+04  0.50400001928E-02 0.  1.
       -1    1    3    3    0  502 -0.43633004356E+03  0.32142857274E+03  0.79782319759E+03  0.96448021697E+03  0.50400001928E-02 0. -1.
</event>
<event>
 5   0  0.1540772E-04  0.1099894E+04  0.7818609E-02  0.9205296E-01
        2   -1    0    0  501    0  0.00000000000E+00  0.00000000000E+00  0.24587060742E+04  0.24587060742E+04  0.25500000920E-02 0. -1.
       -2   -1    0    0    0  501  0.00000000000E+00  0.00000000000E+00 -0.12300838052E+03  0.12300838054E+03  0.25500000920E-02 0.  1.
    10030    2    1    2    0    0  0.00000000000E+00  0.00000000000E+00  0.23356976937E+04  0.25817144548E+04  0.10998935447E+04 0.  0.
        2    1    3    3  502    0 -0.50406174157E+03 -0.15014215646E+03  0.15450215579E+04  0.16320883924E+04  0.25500000920E-02 0. -1.
       -2    1    3    3    0  502  0.50406174157E+03  0.15014215646E+03  0.79067613583E+03  0.94962606232E+03  0.25500000920E-02 0.  1.
</event>
<event>
 5   0  0.8921459E-05  0.1099940E+04  0.7818609E-02  0.9205250E-01
        1   -1    0    0  501    0  0.00000000000E+00  0.00000000000E+00  0.11860723164E+04  0.11860723164E+04  0.50400001928E-02 0. -1.
       -1   -1    0    0    0  501  0.00000000000E+00  0.00000000000E+00 -0.25501576733E+03  0.25501576738E+03  0.50400001928E-02 0.  1.
    10030    2    1    2    0    0  0.00000000000E+00  0.00000000000E+00  0.93105654907E+03  0.14410880838E+04  0.10999402564E+04 0.  0.
        3    1    3    3  502    0 -0.70596728986E+02  0.10579202146E+03 -0.23548378880E+03  0.26763496584E+03  0.10100000352E+00 0.  1.
       -3    1    3    3    0  502  0.70596728986E+02 -0.10579202146E+03  0.11665403379E+04  0.11734531180E+04  0.10100000352E+00 0. -1.
</event>
<event>
 5   0  0.6010125E-05  0.1099780E+04  0.7818609E-02  0.9205406E-01
        3   -1    0    0  501    0  0.00000000000E+00  0.00000000000E+00  0.50702075738E+03  0.50702076744E+03  0.10100000352E+00 0.  1.
       -3   -1    0    0    0  501  0.00000000000E+00  0.00000000000E+00 -0.59638375065E+03  0.59638375920E+03  0.10100000352E+00 0. -1.
    10030    2    1    2    0    0  0.00000000000E+00  0.00000000000E+00 -0.89362993271E+02  0.11034045266E+04  0.10997798893E+04 0.  0.
        2    1    3    3  502    0  0.31510146619E+03  0.33474313669E+03  0.25803638437E+03  0.52718561932E+03  0.25500000920E-02 0.  1.
       -2    1    3    3    0  502 -0.31510146619E+03 -0.33474313669E+03 -0.34739937764E+03  0.57621890732E+03  0.25500000920E-02 0. -1.
</event>
<event>
 5   0  0.9016738E-05  0.1099997E+04  0.7818609E-02  0.9205194E-01
       -1   -1    0    0    0  501  0.00000000000E+00  0.00000000000E+00  0.37393297819E+03  0.37393297822E+03  0.50400001928E-02 0.  1.
        1   -1    0    0  501    0  0.00000000000E+00  0.00000000000E+00 -0.80896477756E+03  0.80896477757E+03  0.50400001928E-02 0. -1.
    10030    2    1    2    0    0  0.00000000000E+00  0.00000000000E+00 -0.43503179936E+03  0.11828977558E+04  0.10999974701E+04 0.  0.
        4    1    3    3  502    0  0.82813488738E+02  0.15211673206E+03  0.34384002919E+03  0.38500019827E+03  0.12699999809E+01 0.  1.
       -4    1    3    3    0  502 -0.82813488738E+02 -0.15211673206E+03 -0.77887182856E+03  0.79789755753E+03  0.12699999809E+01 0. -1.
</event>
<event>
 5   0  0.8621738E-05  0.1100563E+04  0.7818609E-02  0.9204644E-01
        1   -1    0    0  501    0  0.00000000000E+00  0.00000000000E+00  0.59711801863E+03  0.59711801865E+03  0.50400001928E-02 0. -1.
       -1   -1    0    0    0  501  0.00000000000E+00  0.00000000000E+00 -0.50711853157E+03  0.50711853160E+03  0.50400001928E-02 0.  1.
    10030    2    1    2    0    0  0.00000000000E+00  0.00000000000E+00  0.89999487059E+02  0.11042365502E+04  0.11005627884E+04 0.  0.
        2    1    3    3  502    0 -0.40790049875E+03  0.16441842005E+03  0.37685050029E+03  0.57916537647E+03  0.25500000920E-02 0. -1.
       -2    1    3    3    0  502  0.40790049875E+03 -0.16441842005E+03 -0.28685101323E+03  0.52507117377E+03  0.25500000920E-02 0.  1.
</event>
<event>
 5   0  0.1540772E-04  0.1100225E+04  0.7818609E-02  0.9204972E-01
       -2   -1    0    0    0  501  0.00000000000E+00  0.00000000000E+00  0.67575778774E+03  0.67575778774E+03  0.25500000920E-02 0. -1.
        2   -1    0    0  501    0  0.00000000000E+00  0.00000000000E+00 -0.44782909043E+03  0.44782909044E+03  0.25500000920E-02 0.  1.
    10030    2    1    2    0    0  0.00000000000E+00  0.00000000000E+00  0.22792869731E+03  0.11235868782E+04  0.11002254232E+04 0.  0.
        2    1    3    3  502    0 -0.38977353392E+03 -0.76724223703E+02  0.50258889598E+03  0.64062907569E+03  0.25500000920E-02 0. -1.
       -2    1    3    3    0  502  0.38977353392E+03  0.76724223703E+02 -0.27466019867E+03  0.48295780249E+03  0.25500000920E-02 0.  1.
</event>
<event>
 5   0  0.1503277E-04  0.1094810E+04  0.7818609E-02  0.9210266E-01
        2   -1    0    0  501    0  0.00000000000E+00  0.00000000000E+00  0.84694025997E+03  0.84694025998E+03  0.25500000920E-02 0.  1.
       -2   -1    0    0    0  501  0.00000000000E+00  0.00000000000E+00 -0.35380533551E+03  0.35380533552E+03  0.25500000920E-02 0. -1.
    10030    2    1    2    0    0  0.00000000000E+00  0.00000000000E+00  0.49313492446E+03  0.12007455955E+04  0.10948095411E+04 0.  0.
        5    1    3    3  502    0  0.27081340567E+02 -0.31823709777E+03  0.73412927375E+03  0.80060984879E+03  0.46999998093E+01 0.  1.
       -5    1    3    3    0  502 -0.27081340567E+02  0.31823709777E+03 -0.24099434929E+03  0.40013574671E+03  0.46999998093E+01 0. -1.
</event>
<event>
 5   0  0.8657442E-05  0.1099941E+04  0.7818609E-02  0.9205250E-01
        1   -1    0    0  501    0  0.00000000000E+00  0.00000000000E+00  0.10461320914E+04  0.10461320914E+04  0.50400001928E-02 0.  1.
       -1   -1    0    0    0  501  0.00000000000E+00  0.00000000000E+00 -0.28912915687E+03  0.28912915692E+03  0.50400001928E-02 0. -1.
    10030    2    1    2    0    0  0.00000000000E+00  0.00000000000E+00  0.75700293456E+03  0.13352612484E+04  0.10999405250E+04 0.  0.
        1    1    3    3  502    0 -0.24967684173E+03 -0.47733216507E+03  0.51303953164E+03  0.74390461899E+03  0.50400001928E-02 0.  1.
       -1    1    3    3    0  502  0.24967684173E+03  0.47733216507E+03  0.24396340291E+03  0.59135662936E+03  0.50400001928E-02 0. -1.
</event>
<event>
 5   0  0.1553937E-04  0.1101919E+04  0.7818609E-02  0.9203324E-01
       -2   -1    0    0    0  501  0.00000000000E+00  0.00000000000E+00  0.20275660169E+03  0.20275660171E+03  0.25500000920E-02 0. -1.
        2   -1    0    0  501    0  0.00000000000E+00  0.00000000000E+00 -0.14971455248E+04  0.14971455248E+04  0.25500000920E-02 0.  1.
    10030    2    1    2    0    0  0.00000000000E+00  0.00000000000E+00 -0.12943889231E+04  0.16999021265E+04  0.11019185793E+04 0.  0.
        1    1    3    3  502    0  0.40173316164E+03 -0.31024747328E+03 -0.31664019136E+03  0.59825081583E+03  0.50400001928E-02 0.  1.
       -1    1    3    3    0  502 -0.40173316164E+03  0.31024747328E+03 -0.97774873172E+03  0.11016513106E+04  0.50400001928E-02 0. -1.
</event>
<event>
 5   0  0.9016738E-05  0.1096336E+04  0.7818609E-02  0.9208770E-01
       -1   -1    0    0    0  501  0.00000000000E+00  0.00000000000E+00  0.11292277162E+04  0.11292277162E+04  0.50400001928E-02 0.  1.
        1   -1    0    0  501    0  0.00000000000E+00  0.00000000000E+00 -0.26610054374E+03  0.26610054379E+03  0.50400001928E-02 0. -1.
    10030    2    1    2    0    0  0.00000000000E+00  0.00000000000E+00  0.86312717247E+03  0.13953282600E+04  0.10963359145E+04 0.  0.
        4    1    3    3  502    0  0.32687045756E+03 -0.41031807852E+03  0.63392711040E+03  0.82284288645E+03  0.12699999809E+01 0.  1.
       -4    1    3    3    0  502 -0.32687045756E+03  0.41031807852E+03  0.22920006207E+03  0.57248537356E+03  0.12699999809E+01 0. -1.
</event>
<event>
 5   0  0.1503277E-04  0.1099849E+04  0.7818609E-02  0.9205339E-01
       -2   -1    0    0    0  501  0.00000000000E+00  0.00000000000E+00  0.56671664220E+03  0.56671664220E+03  0.25500000920E-02 0. -1.
        2   -1    0    0  501    0  0.00000000000E+00  0.00000000000E+00 -0.53363030268E+03  0.53363030269E+03  0.25500000920E-02 0.  1.
    10030    2    1    2    0    0  0.00000000000E+00  0.00000000000E+00  0.33086339515E+02  0.11003469449E+04  0.10998493957E+04 0.  0.
        5    1    3    3  502    0 -0.32123615256E+03 -0.11055121048E+03  0.44915160505E+03  0.56318157833E+03  0.46999998093E+01 0. -1.
       -5    1    3    3    0  502  0.32123615256E+03  0.11055121048E+03 -0.41606526553E+03  0.53716536656E+03  0.46999998093E+01 0.  1.
</event>
<event>
 5   0  0.1553937E-04  0.1099982E+04  0.7818609E-02  0.9205209E-01
        2   -1    0    0  501    0  0.00000000000E+00  0.00000000000E+00  0.45540957620E+03  0.45540957621E+03  0.25500000920E-02 0.  1.
       -2   -1    0    0    0  501  0.00000000000E+00  0.00000000000E+00 -0.66421572255E+03  0.66421572256E+03  0.25500000920E-02 0. -1.
    10030    2    1    2    0    0  0.00000000000E+00  0.00000000000E+00 -0.20880614635E+03  0.11196252988E+04  0.10999821830E+04 0.  0.
        1    1    3    3  502    0  0.33464770797E+03  0.34114082135E+03 -0.38152228120E+03  0.61149439860E+03  0.50400001928E-02 0. -1.
       -1    1    3    3    0  502 -0.33464770797E+03 -0.34114082135E+03  0.17271613485E+03  0.50813090017E+03  0.50400001928E-02 0.  1.
</event>
<event>
 5   0  0.1503277E-04  0.1099619E+04  0.7818609E-02  0.9205563E-01
        2   -1    0    0  501    0  0.00000000000E+00  0.00000000000E+00  0.32752218086E+03  0.32752218087E+03  0.25500000920E-02 0. -1.
       -2   -1    0    0    0  501  0.00000000000E+00  0.00000000000E+00 -0.92296269565E+03  0.92296269566E+03  0.25500000920E-02 0.  1.
    10030    2    1    2    0    0  0.00000000000E+00  0.00000000000E+00 -0.59544051479E+03  0.12504848765E+04  0.10996194886E+04 0.  0.
        5    1    3    3  502    0  0.11581839136E+03  0.20918954845E+02  0.31300596208E+03  0.33443433547E+03  0.46999998093E+01 0. -1.
       -5    1    3    3    0  502 -0.11581839136E+03 -0.20918954845E+02 -0.90844647686E+03  0.91605054106E+03  0.46999998093E+01 0.  1.
</event>
<event>
 5   0  0.1503277E-04  0.1100034E+04  0.7818609E-02  0.9205159E-01
       -2   -1    0    0    0  501  0.00000000000E+00  0.00000000000E+00  0.89677594788E+03  0.89677594788E+03  0.25500000920E-02 0.  1.
        2   -1    0    0  501    0  0.00000000000E+00  0.00000000000E+00 -0.33734009817E+03  0.33734009818E+03  0.25500000920E-02 0. -1.
    10030    2    1    2    0    0  0.00000000000E+00  0.00000000000E+00  0.55943584971E+03  0.12341160461E+04  0.11000336109E+04 0.  0.
        5    1    3    3  502    0  0.20083986145E+03  0.41254003001E+03  0.61994921110E+03  0.77128791035E+03  0.46999998093E+01 0.  1.
       -5    1    3    3    0  502 -0.20083986145E+03 -0.41254003001E+03 -0.60513361391E+02  0.46282813572E+03  0.46999998093E+01 0. -1.
</event>
<event>
 5   0  0.1503277E-04  0.1100373E+04  0.7818609E-02  0.9204828E-01
       -2   -1    0    0    0  501  0.00000000000E+00  0.00000000000E+00  0.49426238797E+03  0.49426238797E+03  0.25500000920E-02 0.  1.
        2   -1    0    0  501    0  0.00000000000E+00  0.00000000000E+00 -0.61243874643E+03  0.61243874644E+03  0.25500000920E-02 0. -1.
    10030    2    1    2    0    0  0.00000000000E+00  0.00000000000E+00 -0.11817635847E+03  0.11067011344E+04  0.11003734590E+04 0.  0.
        5    1    3    3  502    0  0.46474043990E+03  0.16122482505E+03 -0.30689135498E+03  0.57981161980E+03  0.46999998093E+01 0. -1.
       -5    1    3    3    0  502 -0.46474043990E+03 -0.16122482505E+03  0.18871499652E+03  0.52688951461E+03  0.46999998093E+01 0.  1.
</event>
<event>
 5   0  0.1553937E-04  0.1099335E+04  0.7818609E-02  0.9205841E-01
       -2   -1    0    0    0  501  0.00000000000E+00  0.00000000000E+00  0.29535231001E+03  0.29535231002E+03  0.25500000920E-02 0.  1.
        2   -1    0    0  501    0  0.00000000000E+00  0.00000000000E+00 -0.10229616770E+04  0.10229616770E+04  0.25500000920E-02 0. -1.
    10030    2    1    2    0    0  0.00000000000E+00  0.00000000000E+00 -0.72760936699E+03  0.13183139870E+04  0.10993345157E+04 0.  0.
        1    1    3    3  502    0  0.37116968075E+02 -0.53128003998E+03 -0.52690346928E+03  0.74917515720E+03  0.50400001928E-02 0. -1.
       -1    1    3    3    0  502 -0.37116968075E+02  0.53128003998E+03 -0.20070589770E+03  0.56913882981E+03  0.50400001928E-02 0.  1.
</event>
<event>
 5   0  0.8621738E-05  0.1099734E+04  0.7818609E-02  0.9205451E-01
       -1   -1    0    0    0  501  0.00000000000E+00  0.00000000000E+00  0.85560984144E+03  0.85560984146E+03  0.50400001928E-02 0. -1.
        1   -1    0    0  501    0  0.00000000000E+00  0.00000000000E+00 -0.35337791859E+03  0.35337791863E+03  0.50400001928E-02 0.  1.
    10030    2    1    2    0    0  0.00000000000E+00  0.00000000000E+00  0.50223192285E+03  0.12089877601E+04  0.10997338313E+04 0.  0.
        2    1    3    3  502    0  0.32348593250E+03 -0.37066306151E+03  0.52111531314E+03  0.71665572159E+03  0.25500000920E-02 0. -1.
       -2    1    3    3    0  502 -0.32348593250E+03  0.37066306151E+03 -0.18883390293E+02  0.49233203849E+03  0.25500000920E-02 0.  1.
</event>
<event>
 5   0  0.1574101E-04  0.1100503E+04  0.7818609E-02  0.9204701E-01
       -2   -1    0    0    0  501  0.00000000000E+00  0.00000000000E+00  0.14377229375E+03  0.14377229377E+03  0.25500000920E-02 0. -1.
        2   -1    0    0  501    0  0.00000000000E+00  0.00000000000E+00 -0.21059473824E+04  0.21059473824E+04  0.25500000920E-02 0.  1.
    10030    2    1    2    0    0  0.00000000000E+00  0.00000000000E+00 -0.19621750886E+04  0.22497196761E+04  0.11005033134E+04 0.  0.
        4    1    3    3  502    0  0.39098397647E+03  0.12874416018E+03 -0.23463219891E+03  0.47381157679E+03  0.12699999809E+01 0. -1.
       -4    1    3    3    0  502 -0.39098397647E+03 -0.12874416018E+03 -0.17275428897E+04  0.17759080993E+04  0.12699999809E+01 0.  1.
</event>
<event>
 5   0  0.8921459E-05  0.1099965E+04  0.7818609E-02  0.9205226E-01
       -1   -1    0    0    0  501  0.00000000000E+00  0.00000000000E+00  0.29992924189E+03  0.29992924193E+03  0.50400001928E-02 0.  1.
        1   -1    0    0  501    0  0.00000000000E+00  0.00000000000E+00 -0.10085073735E+04  0.10085073735E+04  0.50400001928E-02 0. -1.
    10030    2    1    2    0    0  0.00000000000E+00  0.00000000000E+00 -0.70857813160E+03  0.13084366154E+04  0.10999651849E+04 0.  0.
        3    1    3    3  502    0 -0.22558183672E+02 -0.43939289461E+03 -0.74684302563E+03  0.86680418931E+03  0.10100000352E+00 0. -1.
       -3    1    3    3    0  502  0.22558183672E+02  0.43939289461E+03  0.38264894027E+02  0.44163242612E+03  0.10100000352E+00 0.  1.
</event>
<event>
 5   0  0.1464205E-04  0.1100642E+04  0.7818609E-02  0.9204566E-01
       -2   -1    0    0    0  501  0.00000000000E+00  0.00000000000E+00  0.63493586956E+03  0.63493586957E+03  0.25500000920E-02 0.  1.
        2   -1    0    0  501    0  0.00000000000E+00  0.00000000000E+00 -0.47698233105E+03  0.47698233106E+03  0.25500000920E-02 0. -1.
    10030    2    1    2    0    0  0.00000000000E+00  0.00000000000E+00  0.15795353851E+03  0.11119182006E+04  0.11006419784E+04 0.  0.
        3    1    3    3  502    0  0.50057462025E+03  0.21537216524E+03  0.14240138801E+01  0.54494234375E+03  0.10100000352E+00 0. -1.
       -3    1    3    3    0  502 -0.50057462025E+03 -0.21537216524E+03  0.15652952463E+03  0.56697585687E+03  0.10100000352E+00 0.  1.
</event>
<event>
 5   0  0.9016738E-05  0.1100630E+04  0.7818609E-02  0.9204578E-01
        1   -1    0    0  501    0  0.00000000000E+00  0.00000000000E+00  0.67714074262E+03  0.67714074263E+03  0.50400001928E-02 0.  1.
       -1   -1    0    0    0  501  0.00000000000E+00  0.00000000000E+00 -0.44724297221E+03  0.44724297224E+03  0.50400001928E-02 0. -1.
    10030    2    1    2    0    0  0.00000000000E+00  0.00000000000E+00  0.22989777041E+03  0.11243837149E+04  0.11006297077E+04 0.  0.
        4    1    3    3  502    0 -0.35214743371E+03 -0.38959339061E+03  0.28297974972E+03  0.59654838591E+03  0.12699999809E+01 0.  1.
       -4    1    3    3    0  502  0.35214743371E+03  0.38959339061E+03 -0.53081979315E+02  0.52783532896E+03  0.12699999809E+01 0. -1.
</event>
<event>
 5   0  0.1553937E-04  0.1098808E+04  0.7818609E-02  0.9206354E-01
        2   -1    0    0  501    0  0.00000000000E+00  0.00000000000E+00  0.25392366941E+04  0.25392366941E+04  0.25500000920E-02 0. -1.
       -2   -1    0    0    0  501  0.00000000000E+00  0.00000000000E+00 -0.11887227825E+03  0.11887227828E+03  0.25500000920E-02 0.  1.
    10030    2    1    2    0    0  0.00000000000E+00  0.00000000000E+00  0.24203644158E+04  0.26581089723E+04  0.10988081741E+04 0.  0.
        1    1    3    3  502    0  0.27584949353E+02  0.48369042165E+02 -0.11202875986E+03  0.12510370391E+03  0.50400001928E-02 0.  1.
       -1    1    3    3    0  502 -0.27584949353E+02 -0.48369042165E+02  0.25323931757E+04  0.25330052684E+04  0.50400001928E-02 0. -1.
</event>
<event>
 5   0  0.9346836E-05  0.1100597E+04  0.7818609E-02  0.9204610E-01
        1   -1    0    0  501    0  0.00000000000E+00  0.00000000000E+00  0.50047656779E+03  0.50047656781E+03  0.50400001928E-02 0.  1.
       -1   -1    0    0    0  501  0.00000000000E+00  0.00000000000E+00 -0.60507995457E+03  0.60507995459E+03  0.50400001928E-02 0. -1.
    10030    2    1    2    0    0  0.00000000000E+00  0.00000000000E+00 -0.10460338679E+03  0.11055565224E+04  0.11005968180E+04 0.  0.
        5    1    3    3  502    0 -0.21579854769E+03 -0.45346643808E+03  0.17366854186E+03  0.53139785103E+03  0.46999998093E+01 0.  1.
       -5    1    3    3    0  502  0.21579854769E+03  0.45346643808E+03 -0.27827192864E+03  0.57415867138E+03  0.46999998093E+01 0. -1.
</event>
<event>
 5   0  0.9016738E-05  0.1099860E+04  0.7818609E-02  0.9205329E-01
        1   -1    0    0  501    0  0.00000000000E+00  0.00000000000E+00  0.11369519692E+04  0.11369519692E+04  0.50400001928E-02 0.  1.
       -1   -1    0    0    0  501  0.00000000000E+00  0.00000000000E+00 -0.26599441389E+03  0.26599441394E+03  0.50400001928E-02 0. -1.
    10030    2    1    2    0    0  0.00000000000E+00  0.00000000000E+00  0.87095755528E+03  0.14029463831E+04  0.10998597596E+04 0.  0.
        4    1    3    3  502    0 -0.68943206849E+02 -0.50822253150E+03  0.68860103000E+03  0.85861300870E+03  0.12699999809E+01 0. -1.
       -4    1    3    3    0  502  0.68943206849E+02  0.50822253150E+03  0.18235652528E+03  0.54433337442E+03  0.12699999809E+01 0.  1.
</event>
<event>
 5   0  0.1464205E-04  0.1104082E+04  0.7818609E-02  0.9201222E-01
       -2   -1    0    0    0  501  0.00000000000E+00  0.00000000000E+00  0.26576886539E+03  0.26576886541E+03  0.25500000920E-02 0. -1.
        2   -1    0    0  501    0  0.00000000000E+00  0.00000000000E+00 -0.11466708561E+04  0.11466708561E+04  0.25500000920E-02 0.  1.
    10030    2    1    2    0    0  0.00000000000E+00  0.00000000000E+00 -0.88090199069E+03  0.14124397215E+04  0.11040822658E+04 0.  0.
        3    1    3    3  502    0  0.54000029886E+02 -0.18285275257E+03  0.22231214094E+03  0.29287169641E+03  0.10100000352E+00 0. -1.
       -3    1    3    3    0  502 -0.54000029886E+02  0.18285275257E+03 -0.11032141316E+04  0.11195680251E+04  0.10100000352E+00 0.  1.
</event>
<event>
 5   0  0.9346836E-05  0.1100282E+04  0.7818609E-02  0.9204917E-01
       -1   -1    0    0    0  501  0.00000000000E+00  0.00000000000E+00  0.50881938363E+03  0.50881938365E+03  0.50400001928E-02 0. -1.
        1   -1    0    0  501    0  0.00000000000E+00  0.00000000000E+00 -0.59481846336E+03  0.59481846339E+03  0.50400001928E-02 0.  1.
    10030    2    1    2    0    0  0.00000000000E+00  0.00000000000E+00 -0.85999079738E+02  0.11036378470E+04  0.11002820801E+04 0.  0.
        5    1    3    3  502    0 -0.48009433667E+03 -0.14768837866E+03  0.18202961646E+03  0.53428391381E+03  0.46999998093E+01 0. -1.
       -5    1    3    3    0  502  0.48009433667E+03  0.14768837866E+03 -0.26802869620E+03  0.56935393322E+03  0.46999998093E+01 0.  1.
</event>
<event>
 5   0  0.8921459E-05  0.1101186E+04  0.7818609E-02  0.9204036E-01
       -1   -1    0    0    0  501  0.00000000000E+00  0.00000000000E+00  0.11072802692E+04  0.11072802693E+04  0.50400001928E-02 0. -1.
        1   -1    0    0  501    0  0.00000000000E+00  0.00000000000E+00 -0.27378151361E+03  0.27378151365E+03  0.50400001928E-02 0.  1.
    10030    2    1    2    0    0  0.00000000000E+00  0.00000000000E+00  0.83349875564E+03  0.13810617829E+04  0.11011863932E+04 0.  0.
        3    1    3    3  502    0  0.18418347114E+03  0.44598303754E+03  0.74934593879E+03  0.89125965184E+03  0.10100000352E+00 0. -1.
       -3    1    3    3    0  502 -0.18418347114E+03 -0.44598303754E+03  0.84152816848E+02  0.48980213107E+03  0.10100000352E+00 0.  1.
</event>
<event>
 5   0  0.8621738E-05  0.1097036E+04  0.7818609E-02  0.9208085E-01
        1   -1    0    0  501    0  0.00000000000E+00  0.00000000000E+00  0.69279055932E+03  0.69279055934E+03  0.50400001928E-02 0.  1.
       -1   -1    0    0    0  501  0.00000000000E+00  0.00000000000E+00 -0.43429036577E+03  0.43429036580E+03  0.50400001928E-02 0. -1.
    10030    2    1    2    0    0  0.00000000000E+00  0.00000000000E+00  0.25850019355E+03  0.11270809251E+04  0.10970364906E+04 0.  0.
        2    1    3    3  502    0 -0.27376977402E+03 -0.39891385778E+03  0.39476573590E+03  0.62443745991E+03  0.25500000920E-02 0.  1.
       -2    1    3    3    0  502  0.27376977402E+03  0.39891385778E+03 -0.13626554235E+03  0.50264346522E+03  0.25500000920E-02 0. -1.
</event>
<event>
 5   0  0.1540772E-04  0.1099679E+04  0.7818609E-02  0.9205505E-01
        2   -1    0    0  501    0  0.00000000000E+00  0.00000000000E+00  0.12380996474E+04  0.12380996475E+04  0.25500000920E-02 0. -1.
       -2   -1    0    0    0  501  0.00000000000E+00  0.00000000000E+00 -0.24418349893E+03  0.24418349894E+03  0.25500000920E-02 0.  1.
    10030    2    1    2    0    0  0.00000000000E+00  0.00000000000E+00  0.99391614852E+03  0.14822831464E+04  0.10996790513E+04 0.  0.
        2    1    3    3  502    0 -0.32967876647E+03  0.17757398345E+03 -0.45742904325E+02  0.37724398201E+03  0.25500000920E-02 0. -1.
       -2    1    3    3    0  502  0.32967876647E+03 -0.17757398345E+03  0.10396590528E+04  0.11050391644E+04  0.25500000920E-02 0.  1.
</event>
<event>
 5   0  0.8621738E-05  0.1099450E+04  0.7818609E-02  0.9205728E-01
       -1   -1    0    0    0  501  0.00000000000E+00  0.00000000000E+00  0.43065976820E+03  0.43065976823E+03  0.50400001928E-02 0. -1.
        1   -1    0    0  501    0  0.00000000000E+00  0.00000000000E+00 -0.70170884192E+03  0.70170884193E+03  0.50400001928E-02 0.  1.
    10030    2    1    2    0    0  0.00000000000E+00  0.00000000000E+00 -0.27104907371E+03  0.11323686102E+04  0.10994503486E+04 0.  0.
        2    1    3    3  502    0  0.30083828586E+03  0.45029480877E+03 -0.38203711005E+02  0.54288913471E+03  0.25500000920E-02 0.  1.
       -2    1    3    3    0  502 -0.30083828586E+03 -0.45029480877E+03 -0.23284536271E+03  0.58947947546E+03  0.25500000920E-02 0. -1.
</event>
<event>
 5   0  0.8621738E-05  0.1097816E+04  0.7818609E-02  0.9207323E-01
       -1   -1    0    0    0  501  0.00000000000E+00  0.00000000000E+00  0.39309498879E+03  0.39309498883E+03  0.50400001928E-02 0. -1.
        1   -1    0    0  501    0  0.00000000000E+00  0.00000000000E+00 -0.76648163815E+03  0.76648163816E+03  0.50400001928E-02 0.  1.
    10030    2    1    2    0    0  0.00000000000E+00  0.00000000000E+00 -0.37338664935E+03  0.11595766270E+04  0.10978161795E+04 0.  0.
        2    1    3    3  502    0  0.49977403296E+03 -0.21374685125E+03 -0.26740059850E+03  0.60577626276E+03  0.25500000920E-02 0. -1.
       -2    1    3    3    0  502 -0.49977403296E+03  0.21374685125E+03 -0.10598605085E+03  0.55380036423E+03  0.25500000920E-02 0.  1.
</event>
<event>
 5   0  0.8921459E-05  0.1099517E+04  0.7818609E-02  0.9205663E-01
        1   -1    0    0  501    0  0.00000000000E+00  0.00000000000E+00  0.10840210209E+04  0.10840210209E+04  0.50400001928E-02 0.  1.
       -1   -1    0    0    0  501  0.00000000000E+00  0.00000000000E+00 -0.27880854270E+03  0.27880854275E+03  0.50400001928E-02 0. -1.
    10030    2    1    2    0    0  0.00000000000E+00  0.00000000000E+00  0.80521247815E+03  0.13628295636E+04  0.10995168414E+04 0.  0.
        3    1    3    3  502    0  0.15634507101E+03 -0.31081055993E+03 -0.12499227951E+03  0.36968914716E+03  0.10100000352E+00 0. -1.
       -3    1    3    3    0  502 -0.15634507101E+03  0.31081055993E+03  0.93020475766E+03  0.99314041644E+03  0.10100000352E+00 0.  1.
</event>
<event>
 5   0  0.1553937E-04  0.1108054E+04  0.7818609E-02  0.9197378E-01
        2   -1    0    0  501    0  0.00000000000E+00  0.00000000000E+00  0.17818700022E+04  0.17818700022E+04  0.25500000920E-02 0.  1.
       -2   -1    0    0    0  501  0.00000000000E+00  0.00000000000E+00 -0.17226043491E+03  0.17226043493E+03  0.25500000920E-02 0. -1.
    10030    2    1    2    0    0  0.00000000000E+00  0.00000000000E+00  0.16096095673E+04  0.19541304371E+04  0.11080536116E+04 0.  0.
        1    1    3    3  502    0  0.40708542763E+03  0.35719396270E+03  0.10107700827E+04  0.11467180266E+04  0.50400001928E-02 0.  1.
       -1    1    3    3    0  502 -0.40708542763E+03 -0.35719396270E+03  0.59883948458E+03  0.80741241054E+03  0.50400001928E-02 0. -1.
</event>
<event>
 5   0  0.6010125E-05  0.1100144E+04  0.7818609E-02  0.9205052E-01
       -3   -1    0    0    0  501  0.00000000000E+00  0.00000000000E+00  0.11443923476E+04  0.11443923521E+04  0.10100000352E+00 0. -1.
        3   -1    0    0  501    0  0.00000000000E+00  0.00000000000E+00 -0.26440142169E+03  0.26440144098E+03  0.10100000352E+00 0.  1.
    10030    2    1    2    0    0  0.00000000000E+00  0.00000000000E+00  0.87999092595E+03  0.14087937931E+04  0.11001435914E+04 0.  0.
        3    1    3    3  502    0 -0.12977002295E+03  0.53432856779E+03  0.45948737809E+03  0.71657235366E+03  0.10100000352E+00 0.  1.
       -3    1    3    3    0  502  0.12977002295E+03 -0.53432856779E+03  0.42050354787E+03  0.69222143941E+03  0.10100000352E+00 0. -1.
</event>
<event>
 5   0  0.1574101E-04  0.1100603E+04  0.7818609E-02  0.9204604E-01
       -2   -1    0    0    0  501  0.00000000000E+00  0.00000000000E+00  0.32034334272E+03  0.32034334273E+03  0.25500000920E-02 0.  1.
        2   -1    0    0  501    0  0.00000000000E+00  0.00000000000E+00 -0.94533538766E+03  0.94533538766E+03  0.25500000920E-02 0. -1.
    10030    2    1    2    0    0  0.00000000000E+00  0.00000000000E+00 -0.62499204494E+03  0.12656787304E+04  0.11006032856E+04 0.  0.
        4    1    3    3  502    0 -0.38995184280E+03 -0.34393001450E+03 -0.51974892640E+03  0.73518083079E+03  0.12699999809E+01 0. -1.
       -4    1    3    3    0  502  0.38995184280E+03  0.34393001450E+03 -0.10524311855E+03  0.53049789960E+03  0.12699999809E+01 0.  1.
</event>
<event>
 5   0  0.8657442E-05  0.1100635E+04  0.7818609E-02  0.9204573E-01
        1   -1    0    0  501    0  0.00000000000E+00  0.00000000000E+00  0.65609314678E+03  0.65609314680E+03  0.50400001928E-02 0. -1.
       -1   -1    0    0    0  501  0.00000000000E+00  0.00000000000E+00 -0.46159540076E+03  0.46159540079E+03  0.50400001928E-02 0.  1.
    10030    2    1    2    0    0  0.00000000000E+00  0.00000000000E+00  0.19449774603E+03  0.11176885476E+04  0.11006354148E+04 0.  0.
        1    1    3    3  502    0 -0.38990898413E+02  0.39116294687E+03 -0.29384265048E+03  0.49078737192E+03  0.50400001928E-02 0.  1.
       -1    1    3    3    0  502  0.38990898413E+02 -0.39116294687E+03  0.48834039651E+03  0.62690117567E+03  0.50400001928E-02 0. -1.
</event>
<event>
 5   0  0.1553937E-04  0.1100402E+04  0.7818609E-02  0.9204800E-01
       -2   -1    0    0    0  501  0.00000000000E+00  0.00000000000E+00  0.19025820969E+03  0.19025820970E+03  0.25500000920E-02 0.  1.
        2   -1    0    0  501    0  0.00000000000E+00  0.00000000000E+00 -0.15911076605E+04  0.15911076605E+04  0.25500000920E-02 0. -1.
    10030    2    1    2    0    0  0.00000000000E+00  0.00000000000E+00 -0.14008494508E+04  0.17813658702E+04  0.11004022808E+04 0.  0.
        1    1    3    3  502    0 -0.46075065802E+03  0.17012108103E+03 -0.11018457933E+04  0.12063567065E+04  0.50400001928E-02 0.  1.
       -1    1    3    3    0  502  0.46075065802E+03 -0.17012108103E+03 -0.29900365743E+03  0.57500916363E+03  0.50400001928E-02 0. -1.
</event>
<event>
 5   0  0.1574101E-04  0.1100794E+04  0.7818609E-02  0.9204419E-01
        2   -1    0    0  501    0  0.00000000000E+00  0.00000000000E+00  0.10642375209E+04  0.10642375209E+04  0.25500000920E-02 0. -1.
       -2   -1    0    0    0  501  0.00000000000E+00  0.00000000000E+00 -0.28465145370E+03  0.28465145371E+03  0.25500000920E-02 0.  1.
    10030    2    1    2    0    0  0.00000000000E+00  0.00000000000E+00  0.77958606723E+03  0.13488889746E+04  0.11007938180E+04 0.  0.
        4    1    3    3  502    0 -0.50382271440E+03  0.22018335646E+03  0.42023342908E+03  0.69203741649E+03  0.12699999809E+01 0. -1.
       -4    1    3    3    0  502  0.50382271440E+03 -0.22018335646E+03  0.35935263815E+03  0.65685155815E+03  0.12699999809E+01 0.  1.
</event>
<event>
 5   0  0.1503277E-04  0.1099996E+04  0.7818609E-02  0.9205195E-01
        2   -1    0    0  501    0  0.00000000000E+00  0.00000000000E+00  0.15996804495E+03  0.15996804497E+03  0.25500000920E-02 0.  1.
       -2   -1    0    0    0  501  0.00000000000E+00  0.00000000000E+00 -0.18909905832E+04  0.18909905832E+04  0.25500000920E-02 0. -1.
    10030    2    1    2    0    0  0.00000000000E+00  0.00000000000E+00 -0.17310225383E+04  0.20509586282E+04  0.10999964848E+04 0.  0.
        5    1    3    3  502    0  0.12018883943E+03 -0.50624421539E+03 -0.11977266838E+04  0.13058713037E+04  0.46999998093E+01 0. -1.
       -5    1    3    3    0  502 -0.12018883943E+03  0.50624421539E+03 -0.53329585447E+03  0.74508732450E+03  0.46999998093E+01 0.  1.
</event>
<event>
 5   0  0.1553937E-04  0.1099982E+04  0.7818609E-02  0.9205209E-01
       -2   -1    0    0    0  501  0.00000000000E+00  0.00000000000E+00  0.35234461907E+03  0.35234461908E+03  0.25500000920E-02 0.  1.
        2   -1    0    0  501    0  0.00000000000E+00  0.00000000000E+00 -0.85850624478E+03  0.85850624478E+03  0.25500000920E-02 0. -1.
    10030    2    1    2    0    0  0.00000000000E+00  0.00000000000E+00 -0.50616162571E+03  0.12108508639E+04  0.10999819195E+04 0.  0.
        1    1    3    3  502    0 -0.40565382720E+02  0.41839969902E+03  0.13732978958E+03  0.44222542843E+03  0.50400001928E-02 0.  1.
       -1    1    3    3    0  502  0.40565382720E+02 -0.41839969902E+03 -0.64349141529E+03  0.76862543543E+03  0.50400001928E-02 0. -1.
</event>
<event>
 5   0  0.1503277E-04  0.1100295E+04  0.7818609E-02  0.9204904E-01
        2   -1    0    0  501    0  0.00000000000E+00  0.00000000000E+00  0.58684692494E+03  0.58684692495E+03  0.25500000920E-02 0.  1.
       -2   -1    0    0    0  501  0.00000000000E+00  0.00000000000E+00 -0.51574345083E+03  0.51574345084E+03  0.25500000920E-02 0. -1.
    10030    2    1    2    0    0  0.00000000000E+00  0.00000000000E+00  0.71103474109E+02  0.11025903758E+04  0.11002953389E+04 0.  0.
        5    1    3    3  502    0  0.67563998383E+02  0.73308099243E+00  0.58265292085E+03  0.58657646343E+03  0.46999998093E+01 0.  1.
       -5    1    3    3    0  502 -0.67563998383E+02 -0.73308099243E+00 -0.51154944674E+03  0.51601391235E+03  0.46999998093E+01 0. -1.
</event>
<event>
 5   0  0.1553937E-04  0.1105031E+04  0.7818609E-02  0.9200302E-01
        2   -1    0    0  501    0  0.00000000000E+00  0.00000000000E+00  0.49690321271E+03  0.49690321271E+03  0.25500000920E-02 0.  1.
       -2   -1    0    0    0  501  0.00000000000E+00  0.00000000000E+00 -0.61435193837E+03  0.61435193838E+03  0.25500000920E-02 0. -1.
    10030    2    1    2    0    0  0.00000000000E+00  0.00000000000E+00 -0.11744872566E+03  0.11112551511E+04  0.11050311343E+04 0.  0.
        1    1    3    3  502    0  0.30659207789E+03 -0.35553969822E+03  0.23423463196E+03  0.52466469490E+03  0.50400001928E-02 0.  1.
       -1    1    3    3    0  502 -0.30659207789E+03  0.35553969822E+03 -0.35168335762E+03  0.58659045619E+03  0.50400001928E-02 0. -1.
</event>
<event>
 5   0  0.9016738E-05  0.1099905E+04  0.7818609E-02  0.9205284E-01
        1   -1    0    0  501    0  0.00000000000E+00  0.00000000000E+00  0.29907094717E+03  0.29907094722E+03  0.50400001928E-02 0.  1.
       -1   -1    0    0    0  501  0.00000000000E+00  0.00000000000E+00 -0.10112909667E+04  0.10112909667E+04  0.50400001928E-02 0. -1.
    10030    2    1    2    0    0  0.00000000000E+00  0.00000000000E+00 -0.71222001956E+03  0.13103619140E+04  0.10999049910E+04 0.  0.
        4    1    3    3  502    0  0.31371064820E+03  0.44133725812E+03 -0.24151075666E+03  0.59289291165E+03  0.12699999809E+01 0.  1.
       -4    1    3    3    0  502 -0.31371064820E+03 -0.44133725812E+03 -0.47070926290E+03  0.71746900231E+03  0.12699999809E+01 0. -1.
</event>
<event>
 5   0  0.8921459E-05  0.1099845E+04  0.7818609E-02  0.9205343E-01
       -1   -1    0    0    0  501  0.00000000000E+00  0.00000000000E+00  0.89424693464E+03  0.89424693466E+03  0.50400001928E-02 0.  1.
        1   -1    0    0  501    0  0.00000000000E+00  0.00000000000E+00 -0.33817803772E+03  0.33817803776E+03  0.50400001928E-02 0. -1.
    10030    2    1    2    0    0  0.00000000000E+00  0.00000000000E+00  0.55606889692E+03  0.12324249724E+04  0.10998448502E+04 0.  0.
        3    1    3    3  502    0  0.51412045193E+03 -0.19493685335E+03  0.28892436082E+03  0.62112600361E+03  0.10100000352E+00 0. -1.
       -3    1    3    3    0  502 -0.51412045193E+03  0.19493685335E+03  0.26714453611E+03  0.61129896880E+03  0.10100000352E+00 0.  1.
</event>
<event>
 5   0  0.1553937E-04  0.1095105E+04  0.7818609E-02  0.9209976E-01
        2   -1    0    0  501    0  0.00000000000E+00  0.00000000000E+00  0.11579630201E+04  0.11579630201E+04  0.25500000920E-02 0.  1.
       -2   -1    0    0    0  501  0.00000000000E+00  0.00000000000E+00 -0.25891483782E+03  0.25891483784E+03  0.25500000920E-02 0. -1.
    10030    2    1    2    0    0  0.00000000000E+00  0.00000000000E+00  0.89904818226E+03  0.14168778579E+04  0.10951051229E+04 0.  0.
        1    1    3    3  502    0 -0.26440537200E+03  0.44323769942E+03  0.68613533388E+03  0.85857530558E+03  0.50400001928E-02 0.  1.
       -1    1    3    3    0  502  0.26440537200E+03 -0.44323769942E+03  0.21291284839E+03  0.55830255235E+03  0.50400001928E-02 0. -1.
</event>
<event>
 5   0  0.8621738E-05  0.1100095E+04  0.7818609E-02  0.9205100E-01
       -1   -1    0    0    0  501  0.00000000000E+00  0.00000000000E+00  0.25509173541E+03  0.25509173546E+03  0.50400001928E-02 0.  1.
        1   -1    0    0  501    0  0.00000000000E+00  0.00000000000E+00 -0.11860521326E+04  0.11860521326E+04  0.50400001928E-02 0. -1.
    10030    2    1    2    0    0  0.00000000000E+00  0.00000000000E+00 -0.93096039717E+03  0.14411438680E+04  0.11000947174E+04 0.  0.
        2    1    3    3  502    0  0.27090234289E+03  0.13927001979E+03  0.13451358737E+03  0.33298366775E+03  0.25500000920E-02 0.  1.
       -2    1    3    3    0  502 -0.27090234289E+03 -0.13927001979E+03 -0.10654739845E+04  0.11081602003E+04  0.25500000920E-02 0. -1.
</event>
<event>
 5   0  0.1540772E-04  0.1100103E+04  0.7818609E-02  0.9205092E-01
        2   -1    0    0  501    0  0.00000000000E+00  0.00000000000E+00  0.24825552469E+03  0.24825552470E+03  0.25500000920E-02 0. -1.
       -2   -1    0    0    0  501  0.00000000000E+00  0.00000000000E+00 -0.12187307441E+04  0.12187307441E+04  0.25500000920E-02 0.  1.
    10030    2    1    2    0    0  0.00000000000E+00  0.00000000000E+00 -0.97047521938E+03  0.14669862688E+04  0.11001029776E+04 0.  0.
        2    1    3    3  502    0 -0.49868470722E+03 -0.13701397689E+03 -0.73505922710E+03  0.89876099962E+03  0.25500000920E-02 0.  1.
       -2    1    3    3    0  502  0.49868470722E+03  0.13701397689E+03 -0.23541599228E+03  0.56822526916E+03  0.25500000920E-02 0. -1.
</event>
<event>
 5   0  0.9016738E-05  0.1100107E+04  0.7818609E-02  0.9205088E-01
        1   -1    0    0  501    0  0.00000000000E+00  0.00000000000E+00  0.94659221465E+03  0.94659221466E+03  0.50400001928E-02 0.  1.
       -1   -1    0    0    0  501  0.00000000000E+00  0.00000000000E+00 -0.31962932356E+03  0.31962932360E+03  0.50400001928E-02 0. -1.
    10030    2    1    2    0    0  0.00000000000E+00  0.00000000000E+00  0.62696289108E+03  0.12662215383E+04  0.11001065935E+04 0.  0.
        4    1    3    3  502    0  0.12714318838E+02 -0.27078707815E+03  0.86436368660E+03  0.90587719433E+03  0.12699999809E+01 0.  1.
       -4    1    3    3    0  502 -0.12714318838E+02  0.27078707815E+03 -0.23740079551E+03  0.36034434393E+03  0.12699999809E+01 0. -1.
</event>
<event>
 5   0  0.1503277E-04  0.1100009E+04  0.7818609E-02  0.9205183E-01
       -2   -1    0    0    0  501  0.00000000000E+00  0.00000000000E+00  0.36085393767E+03  0.36085393768E+03  0.25500000920E-02 0.  1.
        2   -1    0    0  501    0  0.00000000000E+00  0.00000000000E+00 -0.83830264950E+03  0.83830264951E+03  0.25500000920E-02 0. -1.
    10030    2    1    2    0    0  0.00000000000E+00  0.00000000000E+00 -0.47744871184E+03  0.11991565872E+04  0.11000087491E+04 0.  0.
        5    1    3    3  502    0 -0.34819888999E+03  0.38774307036E+03 -0.43033862153E+03  0.67587023517E+03  0.46999998093E+01 0. -1.
       -5    1    3    3    0  502  0.34819888999E+03 -0.38774307036E+03 -0.47110090301E+02  0.52328635202E+03  0.46999998093E+01 0.  1.
</event>
<event>
 5   0  0.9016738E-05  0.1099972E+04  0.7818609E-02  0.9205219E-01
       -1   -1    0    0    0  501  0.00000000000E+00  0.00000000000E+00  0.15813123325E+03  0.15813123333E+03  0.50400001928E-02 0.  1.
        1   -1    0    0  501    0  0.00000000000E+00  0.00000000000E+00 -0.19128698429E+04  0.19128698430E+04  0.50400001928E-02 0. -1.
    10030    2    1    2    0    0  0.00000000000E+00  0.00000000000E+00 -0.17547386097E+04  0.20710010763E+04  0.10999717586E+04 0.  0.
        4    1    3    3  502    0  0.25490153884E+03  0.35381441294E+03 -0.24636263310E+03  0.50085486240E+03  0.12699999809E+01 0.  1.
       -4    1    3    3    0  502 -0.25490153884E+03 -0.35381441294E+03 -0.15083759766E+04  0.15701462139E+04  0.12699999809E+01 0. -1.
</event>
<event>
 5   0  0.1553937E-04  0.1099749E+04  0.7818609E-02  0.9205436E-01
        2   -1    0    0  501    0  0.00000000000E+00  0.00000000000E+00  0.10689756049E+04  0.10689756049E+04  0.25500000920E-02 0.  1.
       -2   -1    0    0    0  501  0.00000000000E+00  0.00000000000E+00 -0.28285217598E+03  0.28285217599E+03  0.25500000920E-02 0. -1.
    10030    2    1    2    0    0  0.00000000000E+00  0.00000000000E+00  0.78612342893E+03  0.13518277809E+04  0.10997492004E+04 0.  0.
        1    1    3    3  502    0  0.10467501154E+03 -0.29764264606E+03 -0.16051365157E+03  0.35399524737E+03  0.50400001928E-02 0. -1.
       -1    1    3    3    0  502 -0.10467501154E+03  0.29764264606E+03  0.94663708049E+03  0.99783253354E+03  0.50400001928E-02 0.  1.
</event>
<event>
 5   0  0.8621738E-05  0.1100151E+04  0.7818609E-02  0.9205044E-01
       -1   -1    0    0    0  501  0.00000000000E+00  0.00000000000E+00  0.56228310130E+03  0.56228310132E+03  0.50400001928E-02 0.  1.
        1   -1    0    0  501    0  0.00000000000E+00  0.00000000000E+00 -0.53813320029E+03  0.53813320032E+03  0.50400001928E-02 0. -1.
    10030    2    1    2    0    0  0.00000000000E+00  0.00000000000E+00  0.24149901004E+02  0.11004163016E+04  0.11001512711E+04 0.  0.
        2    1    3    3  502    0 -0.19676499630E+03 -0.40427002193E+03 -0.30491225010E+03  0.54325150223E+03  0.25500000920E-02 0. -1.
       -2    1    3    3    0  502  0.19676499630E+03  0.40427002193E+03  0.32906215111E+03  0.55716479941E+03  0.25500000920E-02 0.  1.
</event>
<event>
 5   0  0.6010125E-05  0.1099573E+04  0.7818609E-02  0.9205608E-01
        4   -1    0    0  501    0  0.00000000000E+00  0.00000000000E+00  0.40237910121E+03  0.40238110541E+03  0.12699999809E+01 0.  1.
       -4   -1    0    0    0  501  0.00000000000E+00  0.00000000000E+00 -0.75119083403E+03  0.75119190759E+03  0.12699999809E+01 0. -1.
    10030    2    1    2    0    0  0.00000000000E+00  0.00000000000E+00 -0.34881173282E+03  0.11535730130E+04  0.10995731314E+04 0.  0.
        5    1    3    3  502    0  0.12558187592E+03  0.31036023226E+03 -0.63188140075E+03  0.71511570808E+03  0.46999998093E+01 0. -1.
       -5    1    3    3    0  502 -0.12558187592E+03 -0.31036023226E+03  0.28306966794E+03  0.43845730491E+03  0.46999998093E+01 0.  1.
</event>
<event>
 5   0  0.8921459E-05  0.1100024E+04  0.7818609E-02  0.9205169E-01
       -1   -1    0    0    0  501  0.00000000000E+00  0.00000000000E+00  0.23350448807E+03  0.23350448813E+03  0.50400001928E-02 0.  1.
        1   -1    0    0  501    0  0.00000000000E+00  0.00000000000E+00 -0.12955343257E+04  0.12955343257E+04  0.50400001928E-02 0. -1.
    10030    2    1    2    0    0  0.00000000000E+00  0.00000000000E+00 -0.10620298376E+04  0.15290388139E+04  0.11000237808E+04 0.  0.
        3    1    3    3  502    0 -0.43494844166E+03 -0.27751048360E+03 -0.79592254516E+03  0.94851722362E+03  0.10100000352E+00 0. -1.
       -3    1    3    3    0  502  0.43494844166E+03  0.27751048360E+03 -0.26610729248E+03  0.58052159023E+03  0.10100000352E+00 0.  1.
</event>
<event>
 5   0  0.9346836E-05  0.1099228E+04  0.7818609E-02  0.9205945E-01
        1   -1    0    0  501    0  0.00000000000E+00  0.00000000000E+00  0.72076237235E+03  0.72076237236E+03  0.50400001928E-02 0. -1.
       -1   -1    0    0    0  501  0.00000000000E+00  0.00000000000E+00 -0.41910544807E+03  0.41910544810E+03  0.50400001928E-02 0.  1.
    10030    2    1    2    0    0  0.00000000000E+00  0.00000000000E+00  0.30165692428E+03  0.11398678205E+04  0.10992277963E+04 0.  0.
        5    1    3    3  502    0  0.14114264700E+02  0.50784244686E+03  0.36822225461E+03  0.62746544294E+03  0.46999998093E+01 0. -1.
       -5    1    3    3    0  502 -0.14114264700E+02 -0.50784244686E+03 -0.66565330330E+02  0.51240237753E+03  0.46999998093E+01 0.  1.
</event>
<event>
 5   0  0.9016738E-05  0.1098744E+04  0.7818609E-02  0.9206417E-01
       -1   -1    0    0    0  501  0.00000000000E+00  0.00000000000E+00  0.11998657303E+03  0.11998657313E+03  0.50400001928E-02 0. -1.
        1   -1    0    0  501    0  0.00000000000E+00  0.00000000000E+00 -0.25153617633E+04  0.25153617633E+04  0.50400001928E-02 0.  1.
    10030    2    1    2    0    0  0.00000000000E+00  0.00000000000E+00 -0.23953751902E+04  0.26353483364E+04  0.10987440795E+04 0.  0.
        4    1    3    3  502    0 -0.36290601104E+03  0.39106812897E+03 -0.88337325503E+03  0.10319810923E+04  0.12699999809E+01 0. -1.
       -4    1    3    3    0  502  0.36290601104E+03 -0.39106812897E+03 -0.15120019352E+04  0.16033672441E+04  0.12699999809E+01 0.  1.
</event>
<event>
 5   0  0.1574101E-04  0.1099668E+04  0.7818609E-02  0.9205516E-01
       -2   -1    0    0    0  501  0.00000000000E+00  0.00000000000E+00  0.23489173865E+03  0.23489173866E+03  0.25500000920E-02 0. -1.
        2   -1    0    0  501    0  0.00000000000E+00  0.00000000000E+00 -0.12870494077E+04  0.12870494077E+04  0.25500000920E-02 0.  1.
    10030    2    1    2    0    0  0.00000000000E+00  0.00000000000E+00 -0.10521576690E+04  0.15219411463E+04  0.10996677191E+04 0.  0.
        4    1    3    3  502    0 -0.29057780537E+03 -0.51149845351E+02  0.11604971099E+03  0.31705033665E+03  0.12699999809E+01 0. -1.
       -4    1    3    3    0  502  0.29057780537E+03  0.51149845351E+02 -0.11682073800E+04  0.12048908097E+04  0.12699999809E+01 0.  1.
</event>
<event>
 5   0  0.1553937E-04  0.1105116E+04  0.7818609E-02  0.9200220E-01
        2   -1    0    0  501    0  0.00000000000E+00  0.00000000000E+00  0.51337470464E+03  0.51337470465E+03  0.25500000920E-02 0. -1.
       -2   -1    0    0    0  501  0.00000000000E+00  0.00000000000E+00 -0.59473160936E+03  0.59473160937E+03  0.25500000920E-02 0.  1.
    10030    2    1    2    0    0  0.00000000000E+00  0.00000000000E+00 -0.81356904720E+02  0.11081063140E+04  0.11051156759E+04 0.  0.
        1    1    3    3  502    0 -0.26306576475E+03  0.16300202015E+03  0.41832327483E+03  0.52035335825E+03  0.50400001928E-02 0. -1.
       -1    1    3    3    0  502  0.26306576475E+03 -0.16300202015E+03 -0.49968017955E+03  0.58775295577E+03  0.50400001928E-02 0.  1.
</event>
<event>
 5   0  0.1503277E-04  0.1099234E+04  0.7818609E-02  0.9205938E-01
        2   -1    0    0  501    0  0.00000000000E+00  0.00000000000E+00  0.59217742954E+03  0.59217742954E+03  0.25500000920E-02 0. -1.
       -2   -1    0    0    0  501  0.00000000000E+00  0.00000000000E+00 -0.51011574037E+03  0.51011574037E+03  0.25500000920E-02 0.  1.
    10030    2    1    2    0    0  0.00000000000E+00  0.00000000000E+00  0.82061689170E+02  0.11022931699E+04  0.10992343297E+04 0.  0.
        5    1    3    3  502    0  0.48617318417E+03 -0.44086309235E+01 -0.21594997724E+03  0.53201530401E+03  0.46999998093E+01 0.  1.
       -5    1    3    3    0  502 -0.48617318417E+03  0.44086309235E+01  0.29801166641E+03  0.57027786591E+03  0.46999998093E+01 0. -1.
</event>
<event>
 5   0  0.1540772E-04  0.1100392E+04  0.7818609E-02  0.9204810E-01
       -2   -1    0    0    0  501  0.00000000000E+00  0.00000000000E+00  0.20748589769E+03  0.20748589770E+03  0.25500000920E-02 0. -1.
        2   -1    0    0  501    0  0.00000000000E+00  0.00000000000E+00 -0.14589690828E+04  0.14589690828E+04  0.25500000920E-02 0.  1.
    10030    2    1    2    0    0  0.00000000000E+00  0.00000000000E+00 -0.12514831851E+04  0.16664549805E+04  0.11003917663E+04 0.  0.
        2    1    3    3  502    0  0.41083373785E+03 -0.31836050955E+03 -0.35239938284E+03  0.62795151025E+03  0.25500000920E-02 0. -1.
       -2    1    3    3    0  502 -0.41083373785E+03  0.31836050955E+03 -0.89908380224E+03  0.10385034702E+04  0.25500000920E-02 0.  1.
</event>
<event>
 5   0  0.8621738E-05  0.1099742E+04  0.7818609E-02  0.9205443E-01
        1   -1    0    0  501    0  0.00000000000E+00  0.00000000000E+00  0.49560905482E+03  0.49560905485E+03  0.50400001928E-02 0.  1.
       -1   -1    0    0    0  501  0.00000000000E+00  0.00000000000E+00 -0.61007416070E+03  0.61007416072E+03  0.50400001928E-02 0. -1.
    10030    2    1    2    0    0  0.00000000000E+00  0.00000000000E+00 -0.11446510587E+03  0.11056832156E+04  0.10997422938E+04 0.  0.
        2    1    3    3  502    0  0.42007419618E+03 -0.10363484651E+03  0.28394671635E+03  0.51752125506E+03  0.25500000920E-02 0.  1.
       -2    1    3    3    0  502 -0.42007419618E+03  0.10363484651E+03 -0.39841182222E+03  0.58816196051E+03  0.25500000920E-02 0. -1.
</event>
<event>
 5   0  0.8657442E-05  0.1102295E+04  0.7818609E-02  0.9202958E-01
        1   -1    0    0  501    0  0.00000000000E+00  0.00000000000E+00  0.11766829554E+04  0.11766829554E+04  0.50400001928E-02 0.  1.
       -1   -1    0    0    0  501  0.00000000000E+00  0.00000000000E+00 -0.25815234131E+03  0.25815234136E+03  0.50400001928E-02 0. -1.
    10030    2    1    2    0    0  0.00000000000E+00  0.00000000000E+00  0.91853061411E+03  0.14348352968E+04  0.11022948062E+04 0.  0.
        1    1    3    3  502    0  0.20332900375E+03 -0.49254747267E+03  0.64251008604E+03  0.83472444991E+03  0.50400001928E-02 0.  1.
       -1    1    3    3    0  502 -0.20332900375E+03  0.49254747267E+03  0.27602052807E+03  0.60011084688E+03  0.50400001928E-02 0. -1.
</event>
<event>
 5   0  0.1503277E-04  0.1101824E+04  0.7818609E-02  0.9203416E-01
       -2   -1    0    0    0  501  0.00000000000E+00  0.00000000000E+00  0.12159264376E+03  0.12159264379E+03  0.25500000920E-02 0. -1.
        2   -1    0    0  501    0  0.00000000000E+00  0.00000000000E+00 -0.24960738070E+04  0.24960738070E+04  0.25500000920E-02 0.  1.
    10030    2    1    2    0    0  0.00000000000E+00  0.00000000000E+00 -0.23744811632E+04  0.26176664508E+04  0.11018243295E+04 0.  0.
        5    1    3    3  502    0 -0.42685066336E+03 -0.79769120891E+02 -0.38187127357E+03  0.57828397958E+03  0.46999998093E+01 0. -1.
       -5    1    3    3    0  502  0.42685066336E+03  0.79769120891E+02 -0.19926098897E+04  0.20393824712E+04  0.46999998093E+01 0.  1.
</event>
<event>
 5   0  0.1553937E-04  0.1099750E+04  0.7818609E-02  0.9205436E-01
       -2   -1    0    0    0  501  0.00000000000E+00  0.00000000000E+00  0.39156616305E+03  0.39156616306E+03  0.25500000920E-02 0.  1.
        2   -1    0    0  501    0  0.00000000000E+00  0.00000000000E+00 -0.77218742419E+03  0.77218742419E+03  0.25500000920E-02 0. -1.
    10030    2    1    2    0    0  0.00000000000E+00  0.00000000000E+00 -0.38062126114E+03  0.11637535873E+04  0.10997499113E+04 0.  0.
        1    1    3    3  502    0 -0.50204800118E+03  0.21578128481E+03 -0.12552063794E+03  0.56068635523E+03  0.50400001928E-02 0. -1.
       -1    1    3    3    0  502  0.50204800118E+03 -0.21578128481E+03 -0.25510062320E+03  0.60306723203E+03  0.50400001928E-02 0.  1.
</event>
<event>
 5   0  0.9346836E-05  0.1100313E+04  0.7818609E-02  0.9204887E-01
        1   -1    0    0  501    0  0.00000000000E+00  0.00000000000E+00  0.29439251897E+03  0.29439251901E+03  0.50400001928E-02 0. -1.
       -1   -1    0    0    0  501  0.00000000000E+00  0.00000000000E+00 -0.10281249533E+04  0.10281249533E+04  0.50400001928E-02 0.  1.
    10030    2    1    2    0    0  0.00000000000E+00  0.00000000000E+00 -0.73373243436E+03  0.13225174723E+04  0.11003132188E+04 0.  0.
        5    1    3    3  502    0 -0.46885464352E+03  0.22818901359E+03 -0.57765383084E+03  0.77820366290E+03  0.46999998093E+01 0.  1.
       -5    1    3    3    0  502  0.46885464352E+03 -0.22818901359E+03 -0.15607860352E+03  0.54431380945E+03  0.46999998093E+01 0. -1.
</event>
<event>
 5   0  0.8657442E-05  0.1099063E+04  0.7818609E-02  0.9206106E-01
       -1   -1    0    0    0  501  0.00000000000E+00  0.00000000000E+00  0.11558488302E+04  0.11558488302E+04  0.50400001928E-02 0. -1.
        1   -1    0    0  501    0  0.00000000000E+00  0.00000000000E+00 -0.26126660067E+03  0.26126660072E+03  0.50400001928E-02 0.  1.
    10030    2    1    2    0    0  0.00000000000E+00  0.00000000000E+00  0.89458222953E+03  0.14171154309E+04  0.10990626821E+04 0.  0.
        1    1    3    3  502    0  0.35171430097E+03 -0.33995237506E+03  0.77018919208E+03  0.91239353266E+03  0.50400001928E-02 0. -1.
       -1    1    3    3    0  502 -0.35171430097E+03  0.33995237506E+03  0.12439303745E+03  0.50472189828E+03  0.50400001928E-02 0.  1.
</event>
<event>
 5   0  0.1503277E-04  0.1100144E+04  0.7818609E-02  0.9205052E-01
       -2   -1    0    0    0  501  0.00000000000E+00  0.00000000000E+00  0.32427854850E+03  0.32427854851E+03  0.25500000920E-02 0.  1.
        2   -1    0    0  501    0  0.00000000000E+00  0.00000000000E+00 -0.93308364984E+03  0.93308364985E+03  0.25500000920E-02 0. -1.
    10030    2    1    2    0    0  0.00000000000E+00  0.00000000000E+00 -0.60880510134E+03  0.12573621984E+04  0.11001436481E+04 0.  0.
        5    1    3    3  502    0  0.16037286354E+03 -0.55712935947E+02  0.29356140591E+03  0.33915155260E+03  0.46999998093E+01 0.  1.
       -5    1    3    3    0  502 -0.16037286354E+03  0.55712935947E+02 -0.90236650725E+03  0.91821064576E+03  0.46999998093E+01 0. -1.
</event>
<event>
 5   0  0.8921459E-05  0.1100046E+04  0.7818609E-02  0.9205147E-01
       -1   -1    0    0    0  501  0.00000000000E+00  0.00000000000E+00  0.27671415761E+03  0.27671415766E+03  0.50400001928E-02 0. -1.
        1   -1    0    0  501    0  0.00000000000E+00  0.00000000000E+00 -0.10932764535E+04  0.10932764535E+04  0.50400001928E-02 0.  1.
    10030    2    1    2    0    0  0.00000000000E+00  0.00000000000E+00 -0.81656229591E+03  0.13699906112E+04  0.11000455862E+04 0.  0.
        3    1    3    3  502    0  0.25671439501E+03 -0.46404181682E+03 -0.22657313588E+03  0.57669097831E+03  0.10100000352E+00 0.  1.
       -3    1    3    3    0  502 -0.25671439501E+03  0.46404181682E+03 -0.58998916003E+03  0.79329963288E+03  0.10100000352E+00 0. -1.
</event>
<event>
 5   0  0.1464205E-04  0.1100609E+04  0.7818609E-02  0.9204598E-01
       -2   -1    0    0    0  501  0.00000000000E+00  0.00000000000E+00  0.29277528512E+03  0.29277528513E+03  0.25500000920E-02 0. -1.
        2   -1    0    0  501    0  0.00000000000E+00  0.00000000000E+00 -0.10343604854E+04  0.10343604854E+04  0.25500000920E-02 0.  1.
    10030    2    1    2    0    0  0.00000000000E+00  0.00000000000E+00 -0.74158520024E+03  0.13271357705E+04  0.11006092604E+04 0.  0.
        3    1    3    3  502    0  0.21744213774E+03  0.28073275611E+03 -0.87772910268E+03  0.94683702479E+03  0.10100000352E+00 0.  1.
       -3    1    3    3    0  502 -0.21744213774E+03 -0.28073275611E+03  0.13614390244E+03  0.38029874571E+03  0.10100000352E+00 0. -1.
</event>
<event>
 5   0  0.8621738E-05  0.1099957E+04  0.7818609E-02  0.9205234E-01
        1   -1    0    0  501    0  0.00000000000E+00  0.00000000000E+00  0.71727670921E+03  0.71727670923E+03  0.50400001928E-02 0. -1.
       -1   -1    0    0    0  501  0.00000000000E+00  0.00000000000E+00 -0.42170123705E+03  0.42170123708E+03  0.50400001928E-02 0.  1.
    10030    2    1    2    0    0  0.00000000000E+00  0.00000000000E+00  0.29557547216E+03  0.11389779463E+04  0.10999572276E+04 0.  0.
        2    1    3    3  502    0  0.25125464508E+02 -0.40506227102E+02 -0.41955835537E+03  0.42225733500E+03  0.25500000920E-02 0.  1.
       -2    1    3    3    0  502 -0.25125464508E+02  0.40506227102E+02  0.71513382752E+03  0.71672061131E+03  0.25500000920E-02 0. -1.
</event>
<event>
 5   0  0.1553937E-04  0.1100418E+04  0.7818609E-02  0.9204784E-01
       -2   -1    0    0    0  501  0.00000000000E+00  0.00000000000E+00  0.49772451702E+03  0.49772451702E+03  0.25500000920E-02 0. -1.
        2   -1    0    0  501    0  0.00000000000E+00  0.00000000000E+00 -0.60822799178E+03  0.60822799179E+03  0.25500000920E-02 0.  1.
    10030    2    1    2    0    0  0.00000000000E+00  0.00000000000E+00 -0.11050347476E+03  0.11059525088E+04  0.11004180723E+04 0.  0.
        1    1    3    3  502    0  0.17807119788E+03 -0.29198456315E+03 -0.48842482417E+03  0.59625761674E+03  0.50400001928E-02 0.  1.
       -1    1    3    3    0  502 -0.17807119788E+03  0.29198456315E+03  0.37792134941E+03  0.50969489207E+03  0.50400001928E-02 0. -1.
</event>
<event>
 5   0  0.8621738E-05  0.1100134E+04  0.7818609E-02  0.9205062E-01
        1   -1    0    0  501    0  0.00000000000E+00  0.00000000000E+00  0.19041571431E+04  0.19041571431E+04  0.50400001928E-02 0.  1.
       -1   -1    0    0    0  501  0.00000000000E+00  0.00000000000E+00 -0.15890150177E+03  0.15890150185E+03  0.50400001928E-02 0. -1.
    10030    2    1    2    0    0  0.00000000000E+00  0.00000000000E+00  0.17452556414E+04  0.20630586450E+04  0.11001335005E+04 0.  0.
        2    1    3    3  502    0 -0.58995301576E+02 -0.45042898813E+02  0.18947228702E+04  0.18961761688E+04  0.25500000920E-02 0.  1.
       -2    1    3    3    0  502  0.58995301576E+02  0.45042898813E+02 -0.14946722885E+03  0.16688247616E+03  0.25500000920E-02 0. -1.
</event>
<event>
 5   0  0.1574101E-04  0.1100152E+04  0.7818609E-02  0.9205043E-01
        2   -1    0    0  501    0  0.00000000000E+00  0.00000000000E+00  0.18198437463E+04  0.18198437463E+04  0.25500000920E-02 0. -1.
       -2   -1    0    0    0  501  0.00000000000E+00  0.00000000000E+00 -0.16626913935E+03  0.16626913937E+03  0.25500000920E-02 0.  1.
    10030    2    1    2    0    0  0.00000000000E+00  0.00000000000E+00  0.16535746069E+04  0.19861128857E+04  0.11001524503E+04 0.  0.
        4    1    3    3  502    0 -0.43859714197E+02 -0.42788978159E+03  0.14457967657E+04  0.15084240916E+04  0.12699999809E+01 0. -1.
       -4    1    3    3    0  502  0.43859714197E+02  0.42788978159E+03  0.20777784128E+03  0.47768879404E+03  0.12699999809E+01 0.  1.
</event>
<event>
 5   0  0.8621738E-05  0.1099772E+04  0.7818609E-02  0.9205415E-01
        1   -1    0    0  501    0  0.00000000000E+00  0.00000000000E+00  0.38266722451E+03  0.38266722455E+03  0.50400001928E-02 0.  1.
       -1   -1    0    0    0  501  0.00000000000E+00  0.00000000000E+00 -0.79017574416E+03  0.79017574418E+03  0.50400001928E-02 0. -1.
    10030    2    1    2    0    0  0.00000000000E+00  0.00000000000E+00 -0.40750851965E+03  0.11728429687E+04  0.10997715380E+04 0.  0.
        2    1    3    3  502    0  0.35163783023E+03  0.39497337121E+02 -0.65263042724E+03  0.74238512772E+03  0.25500000920E-02 0. -1.
       -2    1    3    3    0  502 -0.35163783023E+03 -0.39497337121E+02  0.24512190760E+03  0.43045784100E+03  0.25500000920E-02 0.  1.
</event>
<event>
 5   0  0.6010125E-05  0.1100224E+04  0.7818609E-02  0.9204974E-01
        4   -1    0    0  501    0  0.00000000000E+00  0.00000000000E+00  0.33332806450E+03  0.33333048388E+03  0.12699999809E+01 0.  1.
       -4   -1    0    0    0  501  0.00000000000E+00  0.00000000000E+00 -0.90787791556E+03  0.90787880384E+03  0.12699999809E+01 0. -1.
    10030    2    1    2    0    0  0.00000000000E+00  0.00000000000E+00 -0.57454985106E+03  0.12412092877E+04  0.11002240520E+04 0.  0.
        2    1    3    3  502    0 -0.65533529308E+02 -0.10018575430E+03  0.31845598271E+03  0.34021469950E+03  0.25500000920E-02 0.  1.
       -2    1    3    3    0  502  0.65533529308E+02  0.10018575430E+03 -0.89300583377E+03  0.90099458821E+03  0.25500000920E-02 0. -1.
</event>
<event>
 5   0  0.8921459E-05  0.1099991E+04  0.7818609E-02  0.9205200E-01
       -1   -1    0    0    0  501  0.00000000000E+00  0.00000000000E+00  0.19501888072E+03  0.19501888078E+03  0.50400001928E-02 0.  1.
        1   -1    0    0  501    0  0.00000000000E+00  0.00000000000E+00 -0.15511072274E+04  0.15511072274E+04  0.50400001928E-02 0. -1.
    10030    2    1    2    0    0  0.00000000000E+00  0.00000000000E+00 -0.13560883467E+04  0.17461261082E+04  0.10999912644E+04 0.  0.
        3    1    3    3  502    0 -0.35887838461E+03 -0.25692467210E+03 -0.15711763333E+03  0.46849753785E+03  0.10100000352E+00 0.  1.
       -3    1    3    3    0  502  0.35887838461E+03  0.25692467210E+03 -0.11989707134E+04  0.12776285704E+04  0.10100000352E+00 0. -1.
</event>
<event>
 5   0  0.8621738E-05  0.1099260E+04  0.7818609E-02  0.9205913E-01
        1   -1    0    0  501    0  0.00000000000E+00  0.00000000000E+00  0.67553351401E+03  0.67553351403E+03  0.50400001928E-02 0. -1.
       -1   -1    0    0    0  501  0.00000000000E+00  0.00000000000E+00 -0.44719210710E+03  0.44719210713E+03  0.50400001928E-02 0.  1.
    10030    2    1    2    0    0  0.00000000000E+00  0.00000000000E+00  0.22834140691E+03  0.11227256212E+04  0.10992602159E+04 0.  0.
        2    1    3    3  502    0  0.15604855724E+03  0.36012031620E+03 -0.27882277085E+03  0.48143528320E+03  0.25500000920E-02 0.  1.
       -2    1    3    3    0  502 -0.15604855724E+03 -0.36012031620E+03  0.50716417776E+03  0.64129033797E+03  0.25500000920E-02 0. -1.
</event>
<event>
 5   0  0.8657442E-05  0.1099588E+04  0.7818609E-02  0.9205593E-01
       -1   -1    0    0    0  501  0.00000000000E+00  0.00000000000E+00  0.21674707851E+03  0.21674707857E+03  0.50400001928E-02 0.  1.
        1   -1    0    0  501    0  0.00000000000E+00  0.00000000000E+00 -0.13945917811E+04  0.13945917811E+04  0.50400001928E-02 0. -1.
    10030    2    1    2    0    0  0.00000000000E+00  0.00000000000E+00 -0.11778447026E+04  0.16113388597E+04  0.10995884581E+04 0.  0.
        1    1    3    3  502    0 -0.85725349798E+02 -0.34643665355E+03  0.23935405989E+02  0.35768714571E+03  0.50400001928E-02 0.  1.
       -1    1    3    3    0  502  0.85725349798E+02  0.34643665355E+03 -0.12017801086E+04  0.12536517140E+04  0.50400001928E-02 0. -1.
</event>
<event>
 5   0  0.8921459E-05  0.1099432E+04  0.7818609E-02  0.9205746E-01
        1   -1    0    0  501    0  0.00000000000E+00  0.00000000000E+00  0.59240025780E+03  0.59240025782E+03  0.50400001928E-02 0.  1.
       -1   -1    0    0    0  501  0.00000000000E+00  0.00000000000E+00 -0.51010688721E+03  0.51010688723E+03  0.50400001928E-02 0. -1.
    10030    2    1    2    0    0  0.00000000000E+00  0.00000000000E+00  0.82293370591E+02  0.11025071450E+04  0.10994315832E+04 0.  0.
        3    1    3    3  502    0 -0.52319139008E+03  0.15487030932E+03  0.10821725128E+03  0.55625985567E+03  0.10100000352E+00 0. -1.
       -3    1    3    3    0  502  0.52319139008E+03 -0.15487030932E+03 -0.25923880689E+02  0.54624728937E+03  0.10100000352E+00 0.  1.
</event>
<event>
 5   0  0.9346836E-05  0.1099619E+04  0.7818609E-02  0.9205563E-01
        1   -1    0    0  501    0  0.00000000000E+00  0.00000000000E+00  0.32644707435E+03  0.32644707439E+03  0.50400001928E-02 0.  1.
       -1   -1    0    0    0  501  0.00000000000E+00  0.00000000000E+00 -0.92600218232E+03  0.92600218234E+03  0.50400001928E-02 0. -1.
    10030    2    1    2    0    0  0.00000000000E+00  0.00000000000E+00 -0.59955510797E+03  0.12524492567E+04  0.10996193947E+04 0.  0.
        5    1    3    3  502    0 -0.36807792325E+03 -0.22923308400E+03 -0.68474658853E+03  0.81051165622E+03  0.46999998093E+01 0. -1.
       -5    1    3    3    0  502  0.36807792325E+03  0.22923308400E+03  0.85191480554E+02  0.44193760050E+03  0.46999998093E+01 0.  1.
</event>
<event>
 5   0  0.9346836E-05  0.1097002E+04  0.7818609E-02  0.9208119E-01
        1   -1    0    0  501    0  0.00000000000E+00  0.00000000000E+00  0.17764230065E+04  0.17764230065E+04  0.50400001928E-02 0.  1.
       -1   -1    0    0    0  501  0.00000000000E+00  0.00000000000E+00 -0.16935910702E+03  0.16935910710E+03  0.50400001928E-02 0. -1.
    10030    2    1    2    0    0  0.00000000000E+00  0.00000000000E+00  0.16070638995E+04  0.19457821136E+04  0.10970021224E+04 0.  0.
        5    1    3    3  502    0  0.28007322488E+03  0.37841946454E+02 -0.30229668874E+02  0.28426914550E+03  0.46999998093E+01 0. -1.
       -5    1    3    3    0  502 -0.28007322488E+03 -0.37841946454E+02  0.16372935684E+04  0.16615129681E+04  0.46999998093E+01 0.  1.
</event>
<event>
 5   0  0.1574101E-04  0.1100959E+04  0.7818609E-02  0.9204258E-01
       -2   -1    0    0    0  501  0.00000000000E+00  0.00000000000E+00  0.27088403286E+03  0.27088403287E+03  0.25500000920E-02 0.  1.
        2   -1    0    0  501    0  0.00000000000E+00  0.00000000000E+00 -0.11186614782E+04  0.11186614782E+04  0.25500000920E-02 0. -1.
    10030    2    1    2    0    0  0.00000000000E+00  0.00000000000E+00 -0.84777744538E+03  0.13895455111E+04  0.11009587325E+04 0.  0.
        4    1    3    3  502    0  0.18275561489E+03  0.18208921397E+03  0.18985858263E+03  0.32031857723E+03  0.12699999809E+01 0.  1.
       -4    1    3    3    0  502 -0.18275561489E+03 -0.18208921397E+03 -0.10376360280E+04  0.10692269339E+04  0.12699999809E+01 0. -1.
</event>
<event>
 5   0  0.9016738E-05  0.1099822E+04  0.7818609E-02  0.9205365E-01
       -1   -1    0    0    0  501  0.00000000000E+00  0.00000000000E+00  0.17419199267E+04  0.17419199267E+04  0.50400001928E-02 0. -1.
        1   -1    0    0  501    0  0.00000000000E+00  0.00000000000E+00 -0.17360279579E+03  0.17360279587E+03  0.50400001928E-02 0.  1.
    10030    2    1    2    0    0  0.00000000000E+00  0.00000000000E+00  0.15683171309E+04  0.19155227226E+04  0.10998221118E+04 0.  0.
        4    1    3    3  502    0  0.46745335836E+03  0.28931212748E+02  0.28223564227E+03  0.54681644816E+03  0.12699999809E+01 0.  1.
       -4    1    3    3    0  502 -0.46745335836E+03 -0.28931212748E+02  0.12860814886E+04  0.13687062744E+04  0.12699999809E+01 0. -1.
</event>
<event>
 5   0  0.1464205E-04  0.1100664E+04  0.7818609E-02  0.9204545E-01
       -2   -1    0    0    0  501  0.00000000000E+00  0.00000000000E+00  0.14819548549E+03  0.14819548551E+03  0.25500000920E-02 0.  1.
        2   -1    0    0  501    0  0.00000000000E+00  0.00000000000E+00 -0.20436881955E+04  0.20436881955E+04  0.25500000920E-02 0. -1.
    10030    2    1    2    0    0  0.00000000000E+00  0.00000000000E+00 -0.18954927101E+04  0.21918836811E+04  0.11006640983E+04 0.  0.
        3    1    3    3  502    0  0.43748122941E+03 -0.19832596140E+03 -0.41286455816E+03  0.63338784852E+03  0.10100000352E+00 0.  1.
       -3    1    3    3    0  502 -0.43748122941E+03  0.19832596140E+03 -0.14826281519E+04  0.15584958325E+04  0.10100000352E+00 0. -1.
</event>
<event>
 5   0  0.1553937E-04  0.1103037E+04  0.7818609E-02  0.9202237E-01
       -2   -1    0    0    0  501  0.00000000000E+00  0.00000000000E+00  0.46413206128E+03  0.46413206129E+03  0.25500000920E-02 0.  1.
        2   -1    0    0  501    0  0.00000000000E+00  0.00000000000E+00 -0.65535771619E+03  0.65535771620E+03  0.25500000920E-02 0. -1.
    10030    2    1    2    0    0  0.00000000000E+00  0.00000000000E+00 -0.19122565491E+03  0.11194897775E+04  0.11030367677E+04 0.  0.
        1    1    3    3  502    0  0.75337931368E+02  0.40944017104E+03 -0.46274807699E+03  0.62245709920E+03  0.50400001928E-02 0. -1.
       -1    1    3    3    0  502 -0.75337931368E+02 -0.40944017104E+03  0.27152242208E+03  0.49703267828E+03  0.50400001928E-02 0.  1.
</event>
<event>
 5   0  0.8621738E-05  0.1099749E+04  0.7818609E-02  0.9205437E-01
       -1   -1    0    0    0  501  0.00000000000E+00  0.00000000000E+00  0.42810991911E+03  0.42810991914E+03  0.50400001928E-02 0. -1.
        1   -1    0    0  501    0  0.00000000000E+00  0.00000000000E+00 -0.70627117136E+03  0.70627117138E+03  0.50400001928E-02 0.  1.
    10030    2    1    2    0    0  0.00000000000E+00  0.00000000000E+00 -0.27816125225E+03  0.11343810905E+04  0.10997485059E+04 0.  0.
        2    1    3    3  502    0 -0.30284707683E+03 -0.42948158883E+01  0.33431311569E+03  0.45110980561E+03  0.25500000920E-02 0. -1.
       -2    1    3    3    0  502  0.30284707683E+03  0.42948158883E+01 -0.61247436794E+03  0.68327128491E+03  0.25500000920E-02 0.  1.
</event>
<event>
 5   0  0.1553937E-04  0.1100904E+04  0.7818609E-02  0.9204312E-01
       -2   -1    0    0    0  501  0.00000000000E+00  0.00000000000E+00  0.64429972094E+03  0.64429972095E+03  0.25500000920E-02 0.  1.
        2   -1    0    0  501    0  0.00000000000E+00  0.00000000000E+00 -0.47027372207E+03  0.47027372208E+03  0.25500000920E-02 0. -1.
    10030    2    1    2    0    0  0.00000000000E+00  0.00000000000E+00  0.17402599887E+03  0.11145734430E+04  0.11009036795E+04 0.  0.
        1    1    3    3  502    0  0.12875245013E+02 -0.25806760332E+03  0.57908567904E+03  0.63411740514E+03  0.50400001928E-02 0.  1.
       -1    1    3    3    0  502 -0.12875245013E+02  0.25806760332E+03 -0.40505968016E+03  0.48045603788E+03  0.50400001928E-02 0. -1.
</event>
<event>
 5   0  0.1464205E-04  0.1102016E+04  0.7818609E-02  0.9203229E-01
       -2   -1    0    0    0  501  0.00000000000E+00  0.00000000000E+00  0.57384217417E+03  0.57384217418E+03  0.25500000920E-02 0.  1.
        2   -1    0    0  501    0  0.00000000000E+00  0.00000000000E+00 -0.52908257380E+03  0.52908257381E+03  0.25500000920E-02 0. -1.
    10030    2    1    2    0    0  0.00000000000E+00  0.00000000000E+00  0.44759600372E+02  0.11029247480E+04  0.11020161423E+04 0.  0.
        3    1    3    3  502    0  0.15561756324E+03 -0.49415406012E+03  0.21016398325E+03  0.55908315230E+03  0.10100000352E+00 0. -1.
       -3    1    3    3    0  502 -0.15561756324E+03  0.49415406012E+03 -0.16540438288E+03  0.54384159569E+03  0.10100000352E+00 0.  1.
</event>
<event>
 5   0  0.8621738E-05  0.1099899E+04  0.7818609E-02  0.9205290E-01
        1   -1    0    0  501    0  0.00000000000E+00  0.00000000000E+00  0.56249154744E+03  0.56249154746E+03  0.50400001928E-02 0. -1.
       -1   -1    0    0    0  501  0.00000000000E+00  0.00000000000E+00 -0.53768738127E+03  0.53768738130E+03  0.50400001928E-02 0.  1.
    10030    2    1    2    0    0  0.00000000000E+00  0.00000000000E+00  0.24804166167E+02  0.11001789288E+04  0.10998992811E+04 0.  0.
        2    1    3    3  502    0  0.18802069030E+03  0.36566926761E+03 -0.35290141432E+03  0.54185348711E+03  0.25500000920E-02 0.  1.
       -2    1    3    3    0  502 -0.18802069030E+03 -0.36566926761E+03  0.37770558049E+03  0.55832544165E+03  0.25500000920E-02 0. -1.
</event>
<event>
 5   0  0.1464205E-04  0.1100068E+04  0.7818609E-02  0.9205125E-01
        2   -1    0    0  501    0  0.00000000000E+00  0.00000000000E+00  0.59283391645E+03  0.59283391646E+03  0.25500000920E-02 0. -1.
       -2   -1    0    0    0  501  0.00000000000E+00  0.00000000000E+00 -0.51032422593E+03  0.51032422594E+03  0.25500000920E-02 0.  1.
    10030    2    1    2    0    0  0.00000000000E+00  0.00000000000E+00  0.82509690521E+02  0.11031581424E+04  0.11000681970E+04 0.  0.
        3    1    3    3  502    0 -0.16823506754E+03 -0.20068296107E+03  0.52630843616E+03  0.58785820483E+03  0.10100000352E+00 0. -1.
       -3    1    3    3    0  502  0.16823506754E+03  0.20068296107E+03 -0.44379874564E+03  0.51529993756E+03  0.10100000352E+00 0.  1.
</event>
<event>
 5   0  0.9016738E-05  0.1100026E+04  0.7818609E-02  0.9205166E-01
       -1   -1    0    0    0  501  0.00000000000E+00  0.00000000000E+00  0.12510444186E+03  0.12510444196E+03  0.50400001928E-02 0. -1.
        1   -1    0    0  501    0  0.00000000000E+00  0.00000000000E+00 -0.24180947039E+04  0.24180947039E+04  0.50400001928E-02 0.  1.
    10030    2    1    2    0    0  0.00000000000E+00  0.00000000000E+00 -0.22929902620E+04  0.25431991458E+04  0.11000261605E+04 0.  0.
        4    1    3    3  502    0 -0.31543257182E+03 -0.20678102469E+03 -0.22097595642E+03  0.43713623248E+03  0.12699999809E+01 0. -1.
       -4    1    3    3    0  502  0.31543257182E+03  0.20678102469E+03 -0.20720143056E+04  0.21060629134E+04  0.12699999809E+01 0.  1.
</event>
<event>
 5   0  0.6010125E-05  0.1098977E+04  0.7818609E-02  0.9206189E-01
       -4   -1    0    0    0  501  0.00000000000E+00  0.00000000000E+00  0.50083108983E+03  0.50083270005E+03  0.12699999809E+01 0. -1.
        4   -1    0    0  501    0  0.00000000000E+00  0.00000000000E+00 -0.60287043308E+03  0.60287177076E+03  0.12699999809E+01 0.  1.
    10030    2    1    2    0    0  0.00000000000E+00  0.00000000000E+00 -0.10203934326E+03  0.11037044708E+04  0.10989774935E+04 0.  0.
        4    1    3    3  502    0  0.52342895939E+03  0.11921914440E+03  0.66724488801E+02  0.54096658882E+03  0.12699999809E+01 0. -1.
       -4    1    3    3    0  502 -0.52342895939E+03 -0.11921914440E+03 -0.16876383206E+03  0.56273788199E+03  0.12699999809E+01 0.  1.
</event>
<event>
 5   0  0.9016738E-05  0.1099955E+04  0.7818609E-02  0.9205236E-01
       -1   -1    0    0    0  501  0.00000000000E+00  0.00000000000E+00  0.17065229335E+03  0.17065229343E+03  0.50400001928E-02 0. -1.
        1   -1    0    0  501    0  0.00000000000E+00  0.00000000000E+00 -0.17724651999E+04  0.17724651999E+04  0.50400001928E-02 0.  1.
    10030    2    1    2    0    0  0.00000000000E+00  0.00000000000E+00 -0.16018129066E+04  0.19431174934E+04  0.10999550015E+04 0.  0.
        4    1    3    3  502    0  0.49968461628E+03 -0.18507419856E+03 -0.10414189161E+04  0.11698256907E+04  0.12699999809E+01 0.  1.
       -4    1    3    3    0  502 -0.49968461628E+03  0.18507419856E+03 -0.56039399043E+03  0.77329180270E+03  0.12699999809E+01 0. -1.
</event>
<event>
 5   0  0.1553937E-04  0.1099332E+04  0.7818609E-02  0.9205844E-01
       -2   -1    0    0    0  501  0.00000000000E+00  0.00000000000E+00  0.21722827144E+04  0.21722827144E+04  0.25500000920E-02 0. -1.
        2   -1    0    0  501    0  0.00000000000E+00  0.00000000000E+00 -0.13908524093E+03  0.13908524096E+03  0.25500000920E-02 0.  1.
    10030    2    1    2    0    0  0.00000000000E+00  0.00000000000E+00  0.20331974734E+04  0.23113679553E+04  0.10993315510E+04 0.  0.
        1    1    3    3  502    0 -0.56337282052E+02  0.52009458540E+03  0.13712972360E+04  0.14676949194E+04  0.50400001928E-02 0.  1.
       -1    1    3    3    0  502  0.56337282052E+02 -0.52009458540E+03  0.66190023746E+03  0.84367303589E+03  0.50400001928E-02 0. -1.
</event>
<event>
 5   0  0.8657442E-05  0.1099970E+04  0.7818609E-02  0.9205221E-01
        1   -1    0    0  501    0  0.00000000000E+00  0.00000000000E+00  0.74703346114E+03  0.74703346116E+03  0.50400001928E-02 0.  1.
       -1   -1    0    0    0  501  0.00000000000E+00  0.00000000000E+00 -0.40491304388E+03  0.40491304391E+03  0.50400001928E-02 0. -1.
    10030    2    1    2    0    0  0.00000000000E+00  0.00000000000E+00  0.34212041726E+03  0.11519465051E+04  0.10999701681E+04 0.  0.
        1    1    3    3  502    0 -0.20531580533E+03 -0.37449689436E+03 -0.19184124943E+03  0.46819394359E+03  0.50400001928E-02 0. -1.
       -1    1    3    3    0  502  0.20531580533E+03  0.37449689436E+03  0.53396166669E+03  0.68375256148E+03  0.50400001928E-02 0.  1.
</event>
<event>
 5   0  0.8621738E-05  0.1099998E+04  0.7818609E-02  0.9205193E-01
       -1   -1    0    0    0  501  0.00000000000E+00  0.00000000000E+00  0.54755316193E+03  0.54755316195E+03  0.50400001928E-02 0. -1.
        1   -1    0    0  501    0  0.00000000000E+00  0.00000000000E+00 -0.55245622432E+03  0.55245622434E+03  0.50400001928E-02 0.  1.
    10030    2    1    2    0    0  0.00000000000E+00  0.00000000000E+00 -0.49030623876E+01  0.11000093863E+04  0.10999984591E+04 0.  0.
        2    1    3    3  502    0 -0.36411243619E+03  0.32632932999E+03  0.24940500514E+03  0.54888209517E+03  0.25500000920E-02 0. -1.
       -2    1    3    3    0  502  0.36411243619E+03 -0.32632932999E+03 -0.25430806753E+03  0.55112729112E+03  0.25500000920E-02 0.  1.
</event>
<event>
 5   0  0.1540772E-04  0.1098893E+04  0.7818609E-02  0.9206272E-01
        2   -1    0    0  501    0  0.00000000000E+00  0.00000000000E+00  0.17696889916E+04  0.17696889916E+04  0.25500000920E-02 0.  1.
       -2   -1    0    0    0  501  0.00000000000E+00  0.00000000000E+00 -0.17059007387E+03  0.17059007389E+03  0.25500000920E-02 0. -1.
    10030    2    1    2    0    0  0.00000000000E+00  0.00000000000E+00  0.15990989178E+04  0.19402790655E+04  0.10988928534E+04 0.  0.
        2    1    3    3  502    0 -0.47783266801E+03 -0.87625655833E+02  0.34632273423E+03  0.59660854036E+03  0.25500000920E-02 0. -1.
       -2    1    3    3    0  502  0.47783266801E+03  0.87625655833E+02  0.12527761835E+04  0.13436705252E+04  0.25500000920E-02 0.  1.
</event>
<event>
 5   0  0.1540772E-04  0.1103685E+04  0.7818609E-02  0.9201608E-01
        2   -1    0    0  501    0  0.00000000000E+00  0.00000000000E+00  0.12230150193E+04  0.12230150193E+04  0.25500000920E-02 0. -1.
       -2   -1    0    0    0  501  0.00000000000E+00  0.00000000000E+00 -0.24899940148E+03  0.24899940149E+03  0.25500000920E-02 0.  1.
    10030    2    1    2    0    0  0.00000000000E+00  0.00000000000E+00  0.97401561783E+03  0.14720144208E+04  0.11036847518E+04 0.  0.
        2    1    3    3  502    0  0.56872352170E+02 -0.27307790495E+03 -0.14805367060E+03  0.31579407214E+03  0.25500000920E-02 0.  1.
       -2    1    3    3    0  502 -0.56872352170E+02  0.27307790495E+03  0.11220692884E+04  0.11562203487E+04  0.25500000920E-02 0. -1.
</event>
<event>
 5   0  0.1503277E-04  0.1099779E+04  0.7818609E-02  0.9205407E-01
       -2   -1    0    0    0  501  0.00000000000E+00  0.00000000000E+00  0.30258068309E+03  0.30258068310E+03  0.25500000920E-02 0. -1.
        2   -1    0    0  501    0  0.00000000000E+00  0.00000000000E+00 -0.99933193299E+03  0.99933193299E+03  0.25500000920E-02 0.  1.
    10030    2    1    2    0    0  0.00000000000E+00  0.00000000000E+00 -0.69675124990E+03  0.13019126161E+04  0.10997791395E+04 0.  0.
        5    1    3    3  502    0 -0.17822153902E+03  0.31922882931E+03  0.13782610978E+03  0.39075323283E+03  0.46999998093E+01 0. -1.
       -5    1    3    3    0  502  0.17822153902E+03 -0.31922882931E+03 -0.83457735967E+03  0.91115938326E+03  0.46999998093E+01 0.  1.
</event>
<event>
 5   0  0.1553937E-04  0.1100394E+04  0.7818609E-02  0.9204808E-01
       -2   -1    0    0    0  501  0.00000000000E+00  0.00000000000E+00  0.41883856335E+03  0.41883856336E+03  0.25500000920E-02 0. -1.
        2   -1    0    0  501    0  0.00000000000E+00  0.00000000000E+00 -0.72275303037E+03  0.72275303038E+03  0.25500000920E-02 0.  1.
    10030    2    1    2    0    0  0.00000000000E+00  0.00000000000E+00 -0.30391446702E+03  0.11415915937E+04  0.11003941856E+04 0.  0.
        1    1    3    3  502    0  0.24490368938E+03  0.20955961320E+03  0.31063320488E+03  0.44764498943E+03  0.50400001928E-02 0. -1.
       -1    1    3    3    0  502 -0.24490368938E+03 -0.20955961320E+03 -0.61454767191E+03  0.69394660431E+03  0.50400001928E-02 0.  1.
</event>
<event>
 5   0  0.8657442E-05  0.1100138E+04  0.7818609E-02  0.9205057E-01
       -1   -1    0    0    0  501  0.00000000000E+00  0.00000000000E+00  0.51376637230E+03  0.51376637232E+03  0.50400001928E-02 0.  1.
        1   -1    0    0  501    0  0.00000000000E+00  0.00000000000E+00 -0.58893681825E+03  0.58893681827E+03  0.50400001928E-02 0. -1.
    10030    2    1    2    0    0  0.00000000000E+00  0.00000000000E+00 -0.75170445952E+02  0.11027031906E+04  0.11001380507E+04 0.  0.
        1    1    3    3  502    0  0.47856613008E+03 -0.22188018271E+03  0.11872574311E+03  0.54069599447E+03  0.50400001928E-02 0. -1.
       -1    1    3    3    0  502 -0.47856613008E+03  0.22188018271E+03 -0.19389618906E+03  0.56200719612E+03  0.50400001928E-02 0.  1.
</event>
<event>
 5   0  0.1574101E-04  0.1099735E+04  0.7818609E-02  0.9205450E-01
        2   -1    0    0  501    0  0.00000000000E+00  0.00000000000E+00  0.13545495936E+04  0.13545495936E+04  0.25500000920E-02 0.  1.
       -2   -1    0    0    0  501  0.00000000000E+00  0.00000000000E+00 -0.22321402920E+03  0.22321402921E+03  0.25500000920E-02 0. -1.
    10030    2    1    2    0    0  0.00000000000E+00  0.00000000000E+00  0.11313355644E+04  0.15777636228E+04  0.10997353728E+04 0.  0.
        4    1    3    3  502    0  0.22721395247E+03 -0.26410484572E+03 -0.44660378525E+02  0.35124594238E+03  0.12699999809E+01 0. -1.
       -4    1    3    3    0  502 -0.22721395247E+03  0.26410484572E+03  0.11759959429E+04  0.12265176804E+04  0.12699999809E+01 0.  1.
</event>
<event>
 5   0  0.1503277E-04  0.1100188E+04  0.7818609E-02  0.9205008E-01
       -2   -1    0    0    0  501  0.00000000000E+00  0.00000000000E+00  0.30119741801E+03  0.30119741803E+03  0.25500000920E-02 0. -1.
        2   -1    0    0  501    0  0.00000000000E+00  0.00000000000E+00 -0.10046687137E+04  0.10046687137E+04  0.25500000920E-02 0.  1.
    10030    2    1    2    0    0  0.00000000000E+00  0.00000000000E+00 -0.70347129565E+03  0.13058661317E+04  0.11001883885E+04 0.  0.
        5    1    3    3  502    0 -0.11836411098E+03 -0.22785114574E+03  0.22568158615E+03  0.34187786665E+03  0.46999998093E+01 0. -1.
       -5    1    3    3    0  502  0.11836411098E+03  0.22785114574E+03 -0.92915288180E+03  0.96398826504E+03  0.46999998093E+01 0.  1.
</event>
<event>
 5   0  0.1464205E-04  0.1100333E+04  0.7818609E-02  0.9204867E-01
       -2   -1    0    0    0  501  0.00000000000E+00  0.00000000000E+00  0.29953274185E+03  0.29953274186E+03  0.25500000920E-02 0. -1.
        2   -1    0    0  501    0  0.00000000000E+00  0.00000000000E+00 -0.10105183227E+04  0.10105183227E+04  0.25500000920E-02 0.  1.
    10030    2    1    2    0    0  0.00000000000E+00  0.00000000000E+00 -0.71098558080E+03  0.13100510645E+04  0.11003332657E+04 0.  0.
        3    1    3    3  502    0 -0.38528562259E+03 -0.32367572138E+03 -0.62030936539E+03  0.79874570583E+03  0.10100000352E+00 0.  1.
       -3    1    3    3    0  502  0.38528562259E+03  0.32367572138E+03 -0.90676215412E+02  0.51130535869E+03  0.10100000352E+00 0. -1.
</event>
<event>
 5   0  0.8657442E-05  0.1100269E+04  0.7818609E-02  0.9204930E-01
       -1   -1    0    0    0  501  0.00000000000E+00  0.00000000000E+00  0.16918719048E+03  0.16918719056E+03  0.50400001928E-02 0. -1.
        1   -1    0    0  501    0  0.00000000000E+00  0.00000000000E+00 -0.17888343865E+04  0.17888343865E+04  0.50400001928E-02 0.  1.
    10030    2    1    2    0    0  0.00000000000E+00  0.00000000000E+00 -0.16196471960E+04  0.19580215770E+04  0.11002688111E+04 0.  0.
        1    1    3    3  502    0  0.29783201956E+03  0.12605101895E+03 -0.16017989731E+04  0.16341213913E+04  0.50400001928E-02 0.  1.
       -1    1    3    3    0  502 -0.29783201956E+03 -0.12605101895E+03 -0.17848222920E+02  0.32390018577E+03  0.50400001928E-02 0. -1.
</event>
<event>
 5   0  0.6010125E-05  0.1099844E+04  0.7818609E-02  0.9205344E-01
       -4   -1    0    0    0  501  0.00000000000E+00  0.00000000000E+00  0.27194837837E+03  0.27195134381E+03  0.12699999809E+01 0.  1.
        4   -1    0    0  501    0  0.00000000000E+00  0.00000000000E+00 -0.11120193329E+04  0.11120200581E+04  0.12699999809E+01 0. -1.
    10030    2    1    2    0    0  0.00000000000E+00  0.00000000000E+00 -0.84007095454E+03  0.13839714019E+04  0.10998443675E+04 0.  0.
        2    1    3    3  502    0 -0.19122345792E+03 -0.29359177273E+03  0.11331384801E+03  0.36824253968E+03  0.25500000920E-02 0.  1.
       -2    1    3    3    0  502  0.19122345792E+03  0.29359177273E+03 -0.95338480255E+03  0.10157288623E+04  0.25500000920E-02 0. -1.
</event>
<event>
 5   0  0.8621738E-05  0.1099534E+04  0.7818609E-02  0.9205646E-01
        1   -1    0    0  501    0  0.00000000000E+00  0.00000000000E+00  0.44065787062E+03  0.44065787064E+03  0.50400001928E-02 0.  1.
       -1   -1    0    0    0  501  0.00000000000E+00  0.00000000000E+00 -0.68589191768E+03  0.68589191770E+03  0.50400001928E-02 0. -1.
    10030    2    1    2    0    0  0.00000000000E+00  0.00000000000E+00 -0.24523404706E+03  0.11265497883E+04  0.10995338502E+04 0.  0.
        2    1    3    3  502    0  0.50230371110E+03  0.14465894601E+03  0.51886417996E+02  0.52528794887E+03  0.25500000920E-02 0.  1.
       -2    1    3    3    0  502 -0.50230371110E+03 -0.14465894601E+03 -0.29712046506E+03  0.60126183948E+03  0.25500000920E-02 0. -1.
</event>
<event>
 5   0  0.1540772E-04  0.1096650E+04  0.7818609E-02  0.9208463E-01
       -2   -1    0    0    0  501  0.00000000000E+00  0.00000000000E+00  0.23181869301E+03  0.23181869303E+03  0.25500000920E-02 0. -1.
        2   -1    0    0  501    0  0.00000000000E+00  0.00000000000E+00 -0.12969625855E+04  0.12969625855E+04  0.25500000920E-02 0.  1.
    10030    2    1    2    0    0  0.00000000000E+00  0.00000000000E+00 -0.10651438925E+04  0.15287812785E+04  0.10966497553E+04 0.  0.
        2    1    3    3  502    0 -0.81948417914E+02 -0.25878436956E+03 -0.11967227282E+04  0.12271227246E+04  0.25500000920E-02 0.  1.
       -2    1    3    3    0  502  0.81948417914E+02  0.25878436956E+03  0.13157883570E+03  0.30165855390E+03  0.25500000920E-02 0. -1.
</event>
<event>
 5   0  0.1574101E-04  0.1099960E+04  0.7818609E-02  0.9205231E-01
        2   -1    0    0  501    0  0.00000000000E+00  0.00000000000E+00  0.43330105666E+03  0.43330105667E+03  0.25500000920E-02 0.  1.
       -2   -1    0    0    0  501  0.00000000000E+00  0.00000000000E+00 -0.69807787926E+03  0.69807787927E+03  0.25500000920E-02 0. -1.
    10030    2    1    2    0    0  0.00000000000E+00  0.00000000000E+00 -0.26477682260E+03  0.11313789359E+04  0.10999597860E+04 0.  0.
        4    1    3    3  502    0 -0.33009112018E+03 -0.41034849664E+03  0.30664869957E+02  0.52753007826E+03  0.12699999809E+01 0.  1.
       -4    1    3    3    0  502  0.33009112018E+03  0.41034849664E+03 -0.29544169256E+03  0.60384885768E+03  0.12699999809E+01 0. -1.
</event>
<event>
 5   0  0.1503277E-04  0.1099627E+04  0.7818609E-02  0.9205556E-01
        2   -1    0    0  501    0  0.00000000000E+00  0.00000000000E+00  0.66432797916E+03  0.66432797916E+03  0.25500000920E-02 0. -1.
       -2   -1    0    0    0  501  0.00000000000E+00  0.00000000000E+00 -0.45503829660E+03  0.45503829661E+03  0.25500000920E-02 0.  1.
    10030    2    1    2    0    0  0.00000000000E+00  0.00000000000E+00  0.20928968255E+03  0.11193662758E+04  0.10996266130E+04 0.  0.
        5    1    3    3  502    0 -0.44266990800E+03  0.20513250195E+03  0.36264395829E+03  0.60792164075E+03  0.46999998093E+01 0. -1.
       -5    1    3    3    0  502  0.44266990800E+03 -0.20513250195E+03 -0.15335427574E+03  0.51144463502E+03  0.46999998093E+01 0.  1.
</event>
<event>
 5   0  0.9016738E-05  0.1099667E+04  0.7818609E-02  0.9205517E-01
        1   -1    0    0  501    0  0.00000000000E+00  0.00000000000E+00  0.68001208883E+03  0.68001208885E+03  0.50400001928E-02 0. -1.
       -1   -1    0    0    0  501  0.00000000000E+00  0.00000000000E+00 -0.44457571967E+03  0.44457571970E+03  0.50400001928E-02 0.  1.
    10030    2    1    2    0    0  0.00000000000E+00  0.00000000000E+00  0.23543636916E+03  0.11245878086E+04  0.10996669747E+04 0.  0.
        4    1    3    3  502    0 -0.29390461497E+03  0.46189961961E+03  0.16970393201E+03  0.57317730131E+03  0.12699999809E+01 0. -1.
       -4    1    3    3    0  502  0.29390461497E+03 -0.46189961961E+03  0.65732437153E+02  0.55141050724E+03  0.12699999809E+01 0.  1.
</event>
<event>
 5   0  0.9016738E-05  0.1099998E+04  0.7818609E-02  0.9205194E-01
        1   -1    0    0  501    0  0.00000000000E+00  0.00000000000E+00  0.54409163912E+03  0.54409163914E+03  0.50400001928E-02 0.  1.
       -1   -1    0    0    0  501  0.00000000000E+00  0.00000000000E+00 -0.55597079099E+03  0.55597079101E+03  0.50400001928E-02 0. -1.
    10030    2    1    2    0    0  0.00000000000E+00  0.00000000000E+00 -0.11879151874E+02  0.11000624302E+04  0.10999982891E+04 0.  0.
        4    1    3    3  502    0  0.50726527125E+03  0.21246127286E+03 -0.12232654388E+02  0.55009917162E+03  0.12699999809E+01 0.  1.
       -4    1    3    3    0  502 -0.50726527125E+03 -0.21246127286E+03  0.35350251387E+00  0.54996325854E+03  0.12699999809E+01 0. -1.
</event>
<event>
 5   0  0.1540772E-04  0.1100230E+04  0.7818609E-02  0.9204968E-01
       -2   -1    0    0    0  501  0.00000000000E+00  0.00000000000E+00  0.33192435164E+03  0.33192435165E+03  0.25500000920E-02 0.  1.
        2   -1    0    0  501    0  0.00000000000E+00  0.00000000000E+00 -0.91173286213E+03  0.91173286214E+03  0.25500000920E-02 0. -1.
    10030    2    1    2    0    0  0.00000000000E+00  0.00000000000E+00 -0.57980851049E+03  0.12436572138E+04  0.11002296836E+04 0.  0.
        2    1    3    3  502    0  0.51151479023E+03 -0.22872059505E+02 -0.51726101934E+03  0.72782516710E+03  0.25500000920E-02 0. -1.
       -2    1    3    3    0  502 -0.51151479023E+03  0.22872059505E+02 -0.62547491148E+02  0.51583204668E+03  0.25500000920E-02 0.  1.
</event>
<event>
 5   0  0.1553937E-04  0.1100292E+04  0.7818609E-02  0.9204908E-01
        2   -1    0    0  501    0  0.00000000000E+00  0.00000000000E+00  0.75883979442E+03  0.75883979442E+03  0.25500000920E-02 0. -1.
       -2   -1    0    0    0  501  0.00000000000E+00  0.00000000000E+00 -0.39884625161E+03  0.39884625162E+03  0.25500000920E-02 0.  1.
    10030    2    1    2    0    0  0.00000000000E+00  0.00000000000E+00  0.35999354280E+03  0.11576860460E+04  0.11002916115E+04 0.  0.
        1    1    3    3  502    0 -0.15822900231E+03 -0.37657462949E+03 -0.20775851475E+03  0.45826681009E+03  0.50400001928E-02 0.  1.
       -1    1    3    3    0  502  0.15822900231E+03  0.37657462949E+03  0.56775205755E+03  0.69941923596E+03  0.50400001928E-02 0. -1.
</event>
<event>
 5   0  0.1553937E-04  0.1105458E+04  0.7818609E-02  0.9199889E-01
        2   -1    0    0  501    0  0.00000000000E+00  0.00000000000E+00  0.17561040271E+04  0.17561040271E+04  0.25500000920E-02 0.  1.
       -2   -1    0    0    0  501  0.00000000000E+00  0.00000000000E+00 -0.17396980496E+03  0.17396980498E+03  0.25500000920E-02 0. -1.
    10030    2    1    2    0    0  0.00000000000E+00  0.00000000000E+00  0.15821342221E+04  0.19300738321E+04  0.11054575073E+04 0.  0.
        1    1    3    3  502    0  0.23076698181E+02 -0.12052002576E+03 -0.14988745599E+03  0.19371076402E+03  0.50400001928E-02 0. -1.
       -1    1    3    3    0  502 -0.23076698181E+02  0.12052002576E+03  0.17320216781E+04  0.17363630681E+04  0.50400001928E-02 0.  1.
</event>
<event>
 5   0  0.6010125E-05  0.1099891E+04  0.7818609E-02  0.9205298E-01
       -4   -1    0    0    0  501  0.00000000000E+00  0.00000000000E+00  0.76568772311E+03  0.76568877635E+03  0.12699999809E+01 0.  1.
        4   -1    0    0  501    0  0.00000000000E+00  0.00000000000E+00 -0.39498896422E+03  0.39499100592E+03  0.12699999809E+01 0. -1.
    10030    2    1    2    0    0  0.00000000000E+00  0.00000000000E+00  0.37069875889E+03  0.11606797823E+04  0.10998908978E+04 0.  0.
        5    1    3    3  502    0  0.17238701006E+03 -0.52102992736E+03  0.14836316807E+03  0.56852720786E+03  0.46999998093E+01 0. -1.
       -5    1    3    3    0  502 -0.17238701006E+03  0.52102992736E+03  0.22233559082E+03  0.59215257441E+03  0.46999998093E+01 0.  1.
</event>
<event>
 5   0  0.1503277E-04  0.1101339E+04  0.7818609E-02  0.9203888E-01
        2   -1    0    0  501    0  0.00000000000E+00  0.00000000000E+00  0.12968765545E+04  0.12968765545E+04  0.25500000920E-02 0. -1.
       -2   -1    0    0    0  501  0.00000000000E+00  0.00000000000E+00 -0.23382075877E+03  0.23382075878E+03  0.25500000920E-02 0.  1.
    10030    2    1    2    0    0  0.00000000000E+00  0.00000000000E+00  0.10630557957E+04  0.15306973133E+04  0.11013385674E+04 0.  0.
        5    1    3    3  502    0 -0.35523335411E+03  0.16354360273E+03  0.10703125287E+04  0.11395298350E+04  0.46999998093E+01 0. -1.
       -5    1    3    3    0  502  0.35523335411E+03 -0.16354360273E+03 -0.72567329506E+01  0.39116747825E+03  0.46999998093E+01 0.  1.
</event>
<event>
 5   0  0.9016738E-05  0.1100140E+04  0.7818609E-02  0.9205055E-01
       -1   -1    0    0    0  501  0.00000000000E+00  0.00000000000E+00  0.31130800971E+03  0.31130800975E+03  0.50400001928E-02 0.  1.
        1   -1    0    0  501    0  0.00000000000E+00  0.00000000000E+00 -0.97195442751E+03  0.97195442752E+03  0.50400001928E-02 0. -1.
    10030    2    1    2    0    0  0.00000000000E+00  0.00000000000E+00 -0.66064641779E+03  0.12832624373E+04  0.11001403518E+04 0.  0.
        4    1    3    3  502    0 -0.52253666202E+03 -0.16361479264E+03 -0.26902919704E+03  0.61007596681E+03  0.12699999809E+01 0. -1.
       -4    1    3    3    0  502  0.52253666202E+03  0.16361479264E+03 -0.39161722076E+03  0.67318647046E+03  0.12699999809E+01 0.  1.
</event>
<event>
 5   0  0.8657442E-05  0.1098762E+04  0.7818609E-02  0.9206399E-01
        1   -1    0    0  501    0  0.00000000000E+00  0.00000000000E+00  0.16487389600E+04  0.16487389600E+04  0.50400001928E-02 0. -1.
       -1   -1    0    0    0  501  0.00000000000E+00  0.00000000000E+00 -0.18306083355E+03  0.18306083362E+03  0.50400001928E-02 0.  1.
    10030    2    1    2    0    0  0.00000000000E+00  0.00000000000E+00  0.14656781264E+04  0.18317997936E+04  0.10987620823E+04 0.  0.
        1    1    3    3  502    0  0.28790614102E+03 -0.49428855221E+01 -0.47174818344E+02  0.29178732266E+03  0.50400001928E-02 0.  1.
       -1    1    3    3    0  502 -0.28790614102E+03  0.49428855221E+01  0.15128529448E+04  0.15400124709E+04  0.50400001928E-02 0. -1.
</event>
<event>
 5   0  0.8657442E-05  0.1100304E+04  0.7818609E-02  0.9204895E-01
        1   -1    0    0  501    0  0.00000000000E+00  0.00000000000E+00  0.86750428709E+03  0.86750428711E+03  0.50400001928E-02 0.  1.
       -1   -1    0    0    0  501  0.00000000000E+00  0.00000000000E+00 -0.34889438251E+03  0.34889438255E+03  0.50400001928E-02 0. -1.
    10030    2    1    2    0    0  0.00000000000E+00  0.00000000000E+00  0.51860990458E+03  0.12163986697E+04  0.11003042717E+04 0.  0.
        1    1    3    3  502    0  0.39261194597E+03 -0.14904313442E+03 -0.13359405653E+03  0.44068738126E+03  0.50400001928E-02 0. -1.
       -1    1    3    3    0  502 -0.39261194597E+03  0.14904313442E+03  0.65220396111E+03  0.77571128840E+03  0.50400001928E-02 0.  1.
</event>
<event>
 5   0  0.6010125E-05  0.1099579E+04  0.7818609E-02  0.9205603E-01
        4   -1    0    0  501    0  0.00000000000E+00  0.00000000000E+00  0.49386421314E+03  0.49386584607E+03  0.12699999809E+01 0. -1.
       -4   -1    0    0    0  501  0.00000000000E+00  0.00000000000E+00 -0.61204419058E+03  0.61204550821E+03  0.12699999809E+01 0.  1.
    10030    2    1    2    0    0  0.00000000000E+00  0.00000000000E+00 -0.11817997745E+03  0.11059113543E+04  0.10995787450E+04 0.  0.
        5    1    3    3  502    0  0.22510486905E+03 -0.39128549841E+03  0.25651607150E+03  0.51922935999E+03  0.46999998093E+01 0. -1.
       -5    1    3    3    0  502 -0.22510486905E+03  0.39128549841E+03 -0.37469604895E+03  0.58668199430E+03  0.46999998093E+01 0.  1.
</event>
<event>
 5   0  0.6010125E-05  0.1100100E+04  0.7818609E-02  0.9205094E-01
       -3   -1    0    0    0  501  0.00000000000E+00  0.00000000000E+00  0.12531360249E+04  0.12531360290E+04  0.10100000352E+00 0. -1.
        3   -1    0    0  501    0  0.00000000000E+00  0.00000000000E+00 -0.24143829116E+03  0.24143831228E+03  0.10100000352E+00 0.  1.
    10030    2    1    2    0    0  0.00000000000E+00  0.00000000000E+00  0.10116977338E+04  0.14945743413E+04  0.11001000669E+04 0.  0.
        1    1    3    3  502    0  0.49120895608E+03  0.74963277038E+02  0.82633940652E+03  0.96423158330E+03  0.50400001928E-02 0.  1.
       -1    1    3    3    0  502 -0.49120895608E+03 -0.74963277038E+02  0.18535832725E+03  0.53034275798E+03  0.50400001928E-02 0. -1.
</event>
<event>
 5   0  0.8657442E-05  0.1099304E+04  0.7818609E-02  0.9205871E-01
       -1   -1    0    0    0  501  0.00000000000E+00  0.00000000000E+00  0.14442989745E+03  0.14442989754E+03  0.50400001928E-02 0. -1.
        1   -1    0    0  501    0  0.00000000000E+00  0.00000000000E+00 -0.20917903796E+04  0.20917903796E+04  0.50400001928E-02 0.  1.
    10030    2    1    2    0    0  0.00000000000E+00  0.00000000000E+00 -0.19473604821E+04  0.22362202771E+04  0.10993035434E+04 0.  0.
        1    1    3    3  502    0  0.31905984644E+03 -0.12979954955E+03 -0.18450037628E+04  0.18768819871E+04  0.50400001928E-02 0.  1.
       -1    1    3    3    0  502 -0.31905984644E+03  0.12979954955E+03 -0.10235671933E+03  0.35933829004E+03  0.50400001928E-02 0. -1.
</event>
<event>
 5   0  0.1464205E-04  0.1100061E+04  0.7818609E-02  0.9205132E-01
       -2   -1    0    0    0  501  0.00000000000E+00  0.00000000000E+00  0.23977267565E+03  0.23977267566E+03  0.25500000920E-02 0. -1.
        2   -1    0    0  501    0  0.00000000000E+00  0.00000000000E+00 -0.12617522990E+04  0.12617522990E+04  0.25500000920E-02 0.  1.
    10030    2    1    2    0    0  0.00000000000E+00  0.00000000000E+00 -0.10219796233E+04  0.15015249746E+04  0.11000613160E+04 0.  0.
        3    1    3    3  502    0 -0.32414471071E+03 -0.30692571410E+03 -0.94960416149E+03  0.10492956024E+04  0.10100000352E+00 0.  1.
       -3    1    3    3    0  502  0.32414471071E+03  0.30692571410E+03 -0.72375461840E+02  0.45222937226E+03  0.10100000352E+00 0. -1.
</event>
<event>
 5   0  0.8657442E-05  0.1100465E+04  0.7818609E-02  0.9204738E-01
        1   -1    0    0  501    0  0.00000000000E+00  0.00000000000E+00  0.72261781227E+03  0.72261781229E+03  0.50400001928E-02 0.  1.
       -1   -1    0    0    0  501  0.00000000000E+00  0.00000000000E+00 -0.41897109248E+03  0.41897109251E+03  0.50400001928E-02 0. -1.
    10030    2    1    2    0    0  0.00000000000E+00  0.00000000000E+00  0.30364671979E+03  0.11415889048E+04  0.11004653094E+04 0.  0.
        1    1    3    3  502    0  0.34437009234E+03 -0.41232518230E+03  0.27523611763E+03  0.60362052395E+03  0.50400001928E-02 0.  1.
       -1    1    3    3    0  502 -0.34437009234E+03  0.41232518230E+03  0.28410602159E+02  0.53796838085E+03  0.50400001928E-02 0. -1.
</event>
<event>
 5   0  0.1574101E-04  0.1100909E+04  0.7818609E-02  0.9204307E-01
       -2   -1    0    0    0  501  0.00000000000E+00  0.00000000000E+00  0.48523678594E+03  0.48523678595E+03  0.25500000920E-02 0. -1.
        2   -1    0    0  501    0  0.00000000000E+00  0.00000000000E+00 -0.62443723355E+03  0.62443723356E+03  0.25500000920E-02 0.  1.
    10030    2    1    2    0    0  0.00000000000E+00  0.00000000000E+00 -0.13920044761E+03  0.11096740195E+04  0.11009085634E+04 0.  0.
        4    1    3    3  502    0 -0.40083689308E+03 -0.24480851126E+03 -0.35893427987E+03  0.59113183995E+03  0.12699999809E+01 0.  1.
       -4    1    3    3    0  502  0.40083689308E+03  0.24480851126E+03  0.21973383226E+03  0.51854217955E+03  0.12699999809E+01 0. -1.
</event>
<event>
 5   0  0.1464205E-04  0.1099778E+04  0.7818609E-02  0.9205408E-01
        2   -1    0    0  501    0  0.00000000000E+00  0.00000000000E+00  0.82028475440E+03  0.82028475441E+03  0.25500000920E-02 0.  1.
       -2   -1    0    0    0  501  0.00000000000E+00  0.00000000000E+00 -0.36862550774E+03  0.36862550774E+03  0.25500000920E-02 0. -1.
    10030    2    1    2    0    0  0.00000000000E+00  0.00000000000E+00  0.45165924667E+03  0.11889102622E+04  0.10997779487E+04 0.  0.
        3    1    3    3  502    0 -0.25043812369E+03 -0.14482031416E+03  0.73136814895E+03  0.78650591649E+03  0.10100000352E+00 0.  1.
       -3    1    3    3    0  502  0.25043812369E+03  0.14482031416E+03 -0.27970890228E+03  0.40240434566E+03  0.10100000352E+00 0. -1.
</event>
<event>
 5   0  0.1540772E-04  0.1099862E+04  0.7818609E-02  0.9205327E-01
        2   -1    0    0  501    0  0.00000000000E+00  0.00000000000E+00  0.62804989266E+03  0.62804989266E+03  0.25500000920E-02 0.  1.
       -2   -1    0    0    0  501  0.00000000000E+00  0.00000000000E+00 -0.48152859006E+03  0.48152859007E+03  0.25500000920E-02 0. -1.
    10030    2    1    2    0    0  0.00000000000E+00  0.00000000000E+00  0.14652130260E+03  0.11095784827E+04  0.10998617719E+04 0.  0.
        2    1    3    3  502    0  0.47033047687E+03  0.28485784145E+03  0.81654735820E+02  0.55589769130E+03  0.25500000920E-02 0. -1.
       -2    1    3    3    0  502 -0.47033047687E+03 -0.28485784145E+03  0.64866566775E+02  0.55368079143E+03  0.25500000920E-02 0.  1.
</event>
<event>
 5   0  0.9346836E-05  0.1100447E+04  0.7818609E-02  0.9204757E-01
        1   -1    0    0  501    0  0.00000000000E+00  0.00000000000E+00  0.29357347616E+03  0.29357347621E+03  0.50400001928E-02 0. -1.
       -1   -1    0    0    0  501  0.00000000000E+00  0.00000000000E+00 -0.10312434087E+04  0.10312434087E+04  0.50400001928E-02 0.  1.
    10030    2    1    2    0    0  0.00000000000E+00  0.00000000000E+00 -0.73766993255E+03  0.13248168849E+04  0.11004466590E+04 0.  0.
        5    1    3    3  502    0 -0.56396210823E+02  0.42891806271E+03  0.40438789216E+02  0.43452114193E+03  0.46999998093E+01 0. -1.
       -5    1    3    3    0  502  0.56396210823E+02 -0.42891806271E+03 -0.77810872176E+03  0.89029574300E+03  0.46999998093E+01 0.  1.
</event>
<event>
 5   0  0.8657442E-05  0.1099450E+04  0.7818609E-02  0.9205728E-01
        1   -1    0    0  501    0  0.00000000000E+00  0.00000000000E+00  0.23459729790E+04  0.23459729791E+04  0.50400001928E-02 0.  1.
       -1   -1    0    0    0  501  0.00000000000E+00  0.00000000000E+00 -0.12881547537E+03  0.12881547546E+03  0.50400001928E-02 0. -1.
    10030    2    1    2    0    0  0.00000000000E+00  0.00000000000E+00  0.22171575037E+04  0.24747884545E+04  0.10994500891E+04 0.  0.
        1    1    3    3  502    0 -0.30648116670E+03  0.45606049264E+03  0.11459568553E+04  0.12708811875E+04  0.50400001928E-02 0.  1.
       -1    1    3    3    0  502  0.30648116670E+03 -0.45606049264E+03  0.10712006484E+04  0.12039072670E+04  0.50400001928E-02 0. -1.
</event>
<event>
 5   0  0.1574101E-04  0.1101596E+04  0.7818609E-02  0.9203637E-01
       -2   -1    0    0    0  501  0.00000000000E+00  0.00000000000E+00  0.64151885862E+03  0.64151885863E+03  0.25500000920E-02 0. -1.
        2   -1    0    0  501    0  0.00000000000E+00  0.00000000000E+00 -0.47290675599E+03  0.47290675600E+03  0.25500000920E-02 0.  1.
    10030    2    1    2    0    0  0.00000000000E+00  0.00000000000E+00  0.16861210263E+03  0.11144256146E+04  0.11015963006E+04 0.  0.
        4    1    3    3  502    0  0.17165546157E+03 -0.45778368893E+02  0.61173736705E+03  0.63701293212E+03  0.12699999809E+01 0. -1.
       -4    1    3    3    0  502 -0.17165546157E+03  0.45778368893E+02 -0.44312526443E+03  0.47741268250E+03  0.12699999809E+01 0.  1.
</event>
<event>
 5   0  0.1574101E-04  0.1100094E+04  0.7818609E-02  0.9205100E-01
       -2   -1    0    0    0  501  0.00000000000E+00  0.00000000000E+00  0.76935735207E+03  0.76935735208E+03  0.25500000920E-02 0.  1.
        2   -1    0    0  501    0  0.00000000000E+00  0.00000000000E+00 -0.39325266156E+03  0.39325266157E+03  0.25500000920E-02 0. -1.
    10030    2    1    2    0    0  0.00000000000E+00  0.00000000000E+00  0.37610469051E+03  0.11626100136E+04  0.11000942258E+04 0.  0.
        4    1    3    3  502    0  0.15345302941E+03 -0.38890505845E+02  0.74476074231E+03  0.76140034139E+03  0.12699999809E+01 0.  1.
       -4    1    3    3    0  502 -0.15345302941E+03  0.38890505845E+02 -0.36865605180E+03  0.40120967225E+03  0.12699999809E+01 0. -1.
</event>
<event>
 5   0  0.1503277E-04  0.1099980E+04  0.7818609E-02  0.9205211E-01
       -2   -1    0    0    0  501  0.00000000000E+00  0.00000000000E+00  0.17862255153E+03  0.17862255155E+03  0.25500000920E-02 0. -1.
        2   -1    0    0  501    0  0.00000000000E+00  0.00000000000E+00 -0.16934538298E+04  0.16934538298E+04  0.25500000920E-02 0.  1.
    10030    2    1    2    0    0  0.00000000000E+00  0.00000000000E+00 -0.15148312782E+04  0.18720763813E+04  0.10999800798E+04 0.  0.
        5    1    3    3  502    0  0.32779490096E+03 -0.43625787347E+03 -0.87405014414E+03  0.10304155345E+04  0.46999998093E+01 0. -1.
       -5    1    3    3    0  502 -0.32779490096E+03  0.43625787347E+03 -0.64078113410E+03  0.84166084683E+03  0.46999998093E+01 0.  1.
</event>
<event>
 5   0  0.1464205E-04  0.1099684E+04  0.7818609E-02  0.9205500E-01
       -2   -1    0    0    0  501  0.00000000000E+00  0.00000000000E+00  0.27879644050E+03  0.27879644051E+03  0.25500000920E-02 0.  1.
        2   -1    0    0  501    0  0.00000000000E+00  0.00000000000E+00 -0.10843983422E+04  0.10843983422E+04  0.25500000920E-02 0. -1.
    10030    2    1    2    0    0  0.00000000000E+00  0.00000000000E+00 -0.80560190166E+03  0.13631947827E+04  0.10996843145E+04 0.  0.
        3    1    3    3  502    0  0.39451501648E+03 -0.60189777409E+02 -0.87166965088E+03  0.95868289753E+03  0.10100000352E+00 0. -1.
       -3    1    3    3    0  502 -0.39451501648E+03  0.60189777409E+02  0.66067749223E+02  0.40451188514E+03  0.10100000352E+00 0.  1.
</event>
<event>
 5   0  0.6010125E-05  0.1099950E+04  0.7818609E-02  0.9205241E-01
       -3   -1    0    0    0  501  0.00000000000E+00  0.00000000000E+00  0.44958469417E+03  0.44958470552E+03  0.10100000352E+00 0. -1.
        3   -1    0    0  501    0  0.00000000000E+00  0.00000000000E+00 -0.67278180618E+03  0.67278181376E+03  0.10100000352E+00 0.  1.
    10030    2    1    2    0    0  0.00000000000E+00  0.00000000000E+00 -0.22319711201E+03  0.11223665193E+04  0.10999498410E+04 0.  0.
        5    1    3    3  502    0 -0.28938028450E+03 -0.46758409829E+03 -0.10279219003E+03  0.55943199976E+03  0.46999998093E+01 0. -1.
       -5    1    3    3    0  502  0.28938028450E+03  0.46758409829E+03 -0.12040492197E+03  0.56293451951E+03  0.46999998093E+01 0.  1.
</event>
<event>
 5   0  0.1574101E-04  0.1100194E+04  0.7818609E-02  0.9205002E-01
        2   -1    0    0  501    0  0.00000000000E+00  0.00000000000E+00  0.15251341220E+04  0.15251341220E+04  0.25500000920E-02 0.  1.
       -2   -1    0    0    0  501  0.00000000000E+00  0.00000000000E+00 -0.19841329198E+03  0.19841329200E+03  0.25500000920E-02 0. -1.
    10030    2    1    2    0    0  0.00000000000E+00  0.00000000000E+00  0.13267208300E+04  0.17235474140E+04  0.11001943135E+04 0.  0.
        4    1    3    3  502    0 -0.36644083288E+03  0.40701201435E+03  0.74427272723E+03  0.92405690800E+03  0.12699999809E+01 0.  1.
       -4    1    3    3    0  502  0.36644083288E+03 -0.40701201435E+03  0.58244810274E+03  0.79949050596E+03  0.12699999809E+01 0. -1.
</event>
<event>
 5   0  0.6010125E-05  0.1099089E+04  0.7818609E-02  0.9206080E-01
        3   -1    0    0  501    0  0.00000000000E+00  0.00000000000E+00  0.21107268607E+03  0.21107271023E+03  0.10100000352E+00 0. -1.
       -3   -1    0    0    0  501  0.00000000000E+00  0.00000000000E+00 -0.14307836058E+04  0.14307836094E+04  0.10100000352E+00 0.  1.
    10030    2    1    2    0    0  0.00000000000E+00  0.00000000000E+00 -0.12197109197E+04  0.16418563196E+04  0.10990893715E+04 0.  0.
        3    1    3    3  502    0 -0.37168063040E+03  0.15793330508E+03 -0.11666164384E+04  0.12345377047E+04  0.10100000352E+00 0.  1.
       -3    1    3    3    0  502  0.37168063040E+03 -0.15793330508E+03 -0.53094481341E+02  0.40731861487E+03  0.10100000352E+00 0. -1.
</event>
<event>
 5   0  0.9346836E-05  0.1100858E+04  0.7818609E-02  0.9204356E-01
        1   -1    0    0  501    0  0.00000000000E+00  0.00000000000E+00  0.15881193691E+04  0.15881193691E+04  0.50400001928E-02 0. -1.
       -1   -1    0    0    0  501  0.00000000000E+00  0.00000000000E+00 -0.19077399846E+03  0.19077399852E+03  0.50400001928E-02 0.  1.
    10030    2    1    2    0    0  0.00000000000E+00  0.00000000000E+00  0.13973453706E+04  0.17788933676E+04  0.11008576332E+04 0.  0.
        5    1    3    3  502    0  0.34317294854E+02 -0.47473319719E+03  0.25202315893E+03  0.53859729657E+03  0.46999998093E+01 0.  1.
       -5    1    3    3    0  502 -0.34317294854E+02  0.47473319719E+03  0.11453222117E+04  0.12402960711E+04  0.46999998093E+01 0. -1.
</event>
<event>
 5   0  0.8621738E-05  0.1100404E+04  0.7818609E-02  0.9204798E-01
        1   -1    0    0  501    0  0.00000000000E+00  0.00000000000E+00  0.46062237041E+03  0.46062237044E+03  0.50400001928E-02 0.  1.
       -1   -1    0    0    0  501  0.00000000000E+00  0.00000000000E+00 -0.65720298772E+03  0.65720298774E+03  0.50400001928E-02 0. -1.
    10030    2    1    2    0    0  0.00000000000E+00  0.00000000000E+00 -0.19658061731E+03  0.11178253582E+04  0.11004042858E+04 0.  0.
        2    1    3    3  502    0  0.78368937733E+02 -0.47913004072E+03 -0.36126142943E+03  0.60515874506E+03  0.25500000920E-02 0. -1.
       -2    1    3    3    0  502 -0.78368937733E+02  0.47913004072E+03  0.16468081212E+03  0.51266661312E+03  0.25500000920E-02 0.  1.
</event>
<event>
 5   0  0.6010125E-05  0.1099910E+04  0.7818609E-02  0.9205279E-01
       -3   -1    0    0    0  501  0.00000000000E+00  0.00000000000E+00  0.29542608535E+03  0.29542610262E+03  0.10100000352E+00 0. -1.
        3   -1    0    0  501    0  0.00000000000E+00  0.00000000000E+00 -0.10237776359E+04  0.10237776408E+04  0.10100000352E+00 0.  1.
    10030    2    1    2    0    0  0.00000000000E+00  0.00000000000E+00 -0.72835155051E+03  0.13192037435E+04  0.10999102398E+04 0.  0.
        1    1    3    3  502    0 -0.34021669670E+03 -0.20766129318E+03  0.90290473200E+02  0.40868445404E+03  0.50400001928E-02 0. -1.
       -1    1    3    3    0  502  0.34021669670E+03  0.20766129318E+03 -0.81864202371E+03  0.91051928942E+03  0.50400001928E-02 0.  1.
</event>
<event>
 5   0  0.1574101E-04  0.1095291E+04  0.7818609E-02  0.9209794E-01
        2   -1    0    0  501    0  0.00000000000E+00  0.00000000000E+00  0.24035945209E+04  0.24035945209E+04  0.25500000920E-02 0.  1.
       -2   -1    0    0    0  501  0.00000000000E+00  0.00000000000E+00 -0.12477797698E+03  0.12477797701E+03  0.25500000920E-02 0. -1.
    10030    2    1    2    0    0  0.00000000000E+00  0.00000000000E+00  0.22788165439E+04  0.25283724979E+04  0.10952911245E+04 0.  0.
        4    1    3    3  502    0 -0.19013573117E+03 -0.50028166741E+03  0.87138789927E+03  0.10226200795E+04  0.12699999809E+01 0. -1.
       -4    1    3    3    0  502  0.19013573117E+03  0.50028166741E+03  0.14074286446E+04  0.15057524185E+04  0.12699999809E+01 0.  1.
</event>
<event>
 5   0  0.1464205E-04  0.1098822E+04  0.7818609E-02  0.9206341E-01
        2   -1    0    0  501    0  0.00000000000E+00  0.00000000000E+00  0.33427054834E+03  0.33427054835E+03  0.25500000920E-02 0. -1.
       -2   -1    0    0    0  501  0.00000000000E+00  0.00000000000E+00 -0.90301848078E+03  0.90301848078E+03  0.25500000920E-02 0.  1.
    10030    2    1    2    0    0  0.00000000000E+00  0.00000000000E+00 -0.56874793243E+03  0.12372890291E+04  0.10988220652E+04 0.  0.
        3    1    3    3  502    0 -0.33664393686E+03  0.35508739506E+03 -0.56573391735E+03  0.74797799018E+03  0.10100000352E+00 0. -1.
       -3    1    3    3    0  502  0.33664393686E+03 -0.35508739506E+03 -0.30140150877E+01  0.48931103896E+03  0.10100000352E+00 0.  1.
</event>
<event>
 5   0  0.9346836E-05  0.1097493E+04  0.7818609E-02  0.9207639E-01
       -1   -1    0    0    0  501  0.00000000000E+00  0.00000000000E+00  0.23899171593E+03  0.23899171598E+03  0.50400001928E-02 0.  1.
        1   -1    0    0  501    0  0.00000000000E+00  0.00000000000E+00 -0.12599711652E+04  0.12599711652E+04  0.50400001928E-02 0. -1.
    10030    2    1    2    0    0  0.00000000000E+00  0.00000000000E+00 -0.10209794493E+04  0.14989628812E+04  0.10974929081E+04 0.  0.
        5    1    3    3  502    0 -0.11612499700E+03 -0.50229167182E+03 -0.25381024134E+03  0.57465090891E+03  0.46999998093E+01 0. -1.
       -5    1    3    3    0  502  0.11612499700E+03  0.50229167182E+03 -0.76716920794E+03  0.92431197229E+03  0.46999998093E+01 0.  1.
</event>
<event>
 5   0  0.1540772E-04  0.1102876E+04  0.7818609E-02  0.9202393E-01
       -2   -1    0    0    0  501  0.00000000000E+00  0.00000000000E+00  0.64640903158E+03  0.64640903158E+03  0.25500000920E-02 0. -1.
        2   -1    0    0  501    0  0.00000000000E+00  0.00000000000E+00 -0.47042000189E+03  0.47042000190E+03  0.25500000920E-02 0.  1.
    10030    2    1    2    0    0  0.00000000000E+00  0.00000000000E+00  0.17598902968E+03  0.11168290335E+04  0.11028757643E+04 0.  0.
        2    1    3    3  502    0 -0.54269982625E+03  0.97709673652E+02  0.91709182701E+02  0.55899987114E+03  0.25500000920E-02 0. -1.
       -2    1    3    3    0  502  0.54269982625E+03 -0.97709673652E+02  0.84279846984E+02  0.55782916234E+03  0.25500000920E-02 0.  1.
</event>
<event>
 5   0  0.6010125E-05  0.1099767E+04  0.7818609E-02  0.9205419E-01
        3   -1    0    0  501    0  0.00000000000E+00  0.00000000000E+00  0.43571285839E+03  0.43571287009E+03  0.10100000352E+00 0.  1.
       -3   -1    0    0    0  501  0.00000000000E+00  0.00000000000E+00 -0.69397034171E+03  0.69397034906E+03  0.10100000352E+00 0. -1.
    10030    2    1    2    0    0  0.00000000000E+00  0.00000000000E+00 -0.25825748332E+03  0.11296832191E+04  0.10997669062E+04 0.  0.
        5    1    3    3  502    0 -0.52028545248E+03  0.17344441715E+03 -0.88430208405E+02  0.55553749618E+03  0.46999998093E+01 0. -1.
       -5    1    3    3    0  502  0.52028545248E+03 -0.17344441715E+03 -0.16982727492E+03  0.57414572297E+03  0.46999998093E+01 0.  1.
</event>
<event>
 5   0  0.1574101E-04  0.1099751E+04  0.7818609E-02  0.9205435E-01
        2   -1    0    0  501    0  0.00000000000E+00  0.00000000000E+00  0.21076813196E+04  0.21076813196E+04  0.25500000920E-02 0.  1.
       -2   -1    0    0    0  501  0.00000000000E+00  0.00000000000E+00 -0.14345756046E+03  0.14345756048E+03  0.25500000920E-02 0. -1.
    10030    2    1    2    0    0  0.00000000000E+00  0.00000000000E+00  0.19642237591E+04  0.22511388801E+04  0.10997505542E+04 0.  0.
        4    1    3    3  502    0  0.43726777274E+03  0.43536260967E+02  0.16587306728E+04  0.17159509226E+04  0.12699999809E+01 0.  1.
       -4    1    3    3    0  502 -0.43726777274E+03 -0.43536260967E+02  0.30549308634E+03  0.53518795745E+03  0.12699999809E+01 0. -1.
</event>
<event>
 5   0  0.8657442E-05  0.1100435E+04  0.7818609E-02  0.9204768E-01
       -1   -1    0    0    0  501  0.00000000000E+00  0.00000000000E+00  0.37562750627E+03  0.37562750630E+03  0.50400001928E-02 0.  1.
        1   -1    0    0  501    0  0.00000000000E+00  0.00000000000E+00 -0.80595619238E+03  0.80595619240E+03  0.50400001928E-02 0. -1.
    10030    2    1    2    0    0  0.00000000000E+00  0.00000000000E+00 -0.43032868611E+03  0.11815836987E+04  0.11004350317E+04 0.  0.
        1    1    3    3  502    0  0.43497530871E+03  0.28707411788E+03 -0.25734017576E+02  0.52180198163E+03  0.50400001928E-02 0.  1.
       -1    1    3    3    0  502 -0.43497530871E+03 -0.28707411788E+03 -0.40459466854E+03  0.65978171707E+03  0.50400001928E-02 0. -1.
</event>
<event>
 5   0  0.1540772E-04  0.1100892E+04  0.7818609E-02  0.9204323E-01
       -2   -1    0    0    0  501  0.00000000000E+00  0.00000000000E+00  0.22841346994E+03  0.22841346995E+03  0.25500000920E-02 0. -1.
        2   -1    0    0  501    0  0.00000000000E+00  0.00000000000E+00 -0.13265017822E+04  0.13265017822E+04  0.25500000920E-02 0.  1.
    10030    2    1    2    0    0  0.00000000000E+00  0.00000000000E+00 -0.10980883122E+04  0.15549152521E+04  0.11008921381E+04 0.  0.
        2    1    3    3  502    0  0.41021747911E+03  0.29499359756E+03 -0.24059654785E+03  0.55963050454E+03  0.25500000920E-02 0. -1.
       -2    1    3    3    0  502 -0.41021747911E+03 -0.29499359756E+03 -0.85749176438E+03  0.99528474758E+03  0.25500000920E-02 0.  1.
</event>
<event>
 5   0  0.9346836E-05  0.1100363E+04  0.7818609E-02  0.9204838E-01
       -1   -1    0    0    0  501  0.00000000000E+00  0.00000000000E+00  0.38070407643E+03  0.38070407646E+03  0.50400001928E-02 0. -1.
        1   -1    0    0  501    0  0.00000000000E+00  0.00000000000E+00 -0.79510507529E+03  0.79510507531E+03  0.50400001928E-02 0.  1.
    10030    2    1    2    0    0  0.00000000000E+00  0.00000000000E+00 -0.41440099886E+03  0.11758091518E+04  0.11003631099E+04 0.  0.
        5    1    3    3  502    0  0.52900691488E+03 -0.10453487558E+03 -0.32377594570E+03  0.62899030932E+03  0.46999998093E+01 0.  1.
       -5    1    3    3    0  502 -0.52900691488E+03  0.10453487558E+03 -0.90625053163E+02  0.54681884245E+03  0.46999998093E+01 0. -1.
</event>
<event>
 5   0  0.6010125E-05  0.1099984E+04  0.7818609E-02  0.9205208E-01
        3   -1    0    0  501    0  0.00000000000E+00  0.00000000000E+00  0.19808801583E+04  0.19808801609E+04  0.10100000352E+00 0. -1.
       -3   -1    0    0    0  501  0.00000000000E+00  0.00000000000E+00 -0.15270533432E+03  0.15270536772E+03  0.10100000352E+00 0.  1.
    10030    2    1    2    0    0  0.00000000000E+00  0.00000000000E+00  0.18281748240E+04  0.21335855286E+04  0.10999836457E+04 0.  0.
        4    1    3    3  502    0 -0.13685772775E+03 -0.14928756412E+03  0.19059166419E+04  0.19166472480E+04  0.12699999809E+01 0. -1.
       -4    1    3    3    0  502  0.13685772775E+03  0.14928756412E+03 -0.77741817907E+02  0.21693828062E+03  0.12699999809E+01 0.  1.
</event>
<event>
 5   0  0.8657442E-05  0.1100168E+04  0.7818609E-02  0.9205028E-01
        1   -1    0    0  501    0  0.00000000000E+00  0.00000000000E+00  0.20967432421E+04  0.20967432421E+04  0.50400001928E-02 0.  1.
       -1   -1    0    0    0  501  0.00000000000E+00  0.00000000000E+00 -0.14431550911E+03  0.14431550919E+03  0.50400001928E-02 0. -1.
    10030    2    1    2    0    0  0.00000000000E+00  0.00000000000E+00  0.19524277330E+04  0.22410587513E+04  0.11001682936E+04 0.  0.
        1    1    3    3  502    0 -0.89057552604E+02 -0.53460573836E+03  0.11679317285E+04  0.12875554612E+04  0.50400001928E-02 0.  1.
       -1    1    3    3    0  502  0.89057552604E+02  0.53460573836E+03  0.78449600450E+03  0.95350329012E+03  0.50400001928E-02 0. -1.
</event>
<event>
 5   0  0.1503277E-04  0.1099712E+04  0.7818609E-02  0.9205472E-01
        2   -1    0    0  501    0  0.00000000000E+00  0.00000000000E+00  0.10947214101E+04  0.10947214101E+04  0.25500000920E-02 0. -1.
       -2   -1    0    0    0  501  0.00000000000E+00  0.00000000000E+00 -0.27618153628E+03  0.27618153629E+03  0.25500000920E-02 0.  1.
    10030    2    1    2    0    0  0.00000000000E+00  0.00000000000E+00  0.81853987386E+03  0.13709029464E+04  0.10997124003E+04 0.  0.
        5    1    3    3  502    0 -0.26012000915E+03 -0.37495548134E+03  0.79160425056E+03  0.91373596386E+03  0.46999998093E+01 0. -1.
       -5    1    3    3    0  502  0.26012000915E+03  0.37495548134E+03  0.26935623298E+02  0.45716698257E+03  0.46999998093E+01 0.  1.
</event>
<event>
 5   0  0.9346836E-05  0.1100103E+04  0.7818609E-02  0.9205092E-01
        1   -1    0    0  501    0  0.00000000000E+00  0.00000000000E+00  0.35405220248E+03  0.35405220252E+03  0.50400001928E-02 0.  1.
       -1   -1    0    0    0  501  0.00000000000E+00  0.00000000000E+00 -0.85455301890E+03  0.85455301891E+03  0.50400001928E-02 0. -1.
    10030    2    1    2    0    0  0.00000000000E+00  0.00000000000E+00 -0.50050081642E+03  0.12086052214E+04  0.11001025016E+04 0.  0.
        5    1    3    3  502    0  0.41215965413E+02  0.32013921592E+03 -0.73953719939E+03  0.80692331275E+03  0.46999998093E+01 0. -1.
       -5    1    3    3    0  502 -0.41215965413E+02 -0.32013921592E+03  0.23903638297E+03  0.40168190868E+03  0.46999998093E+01 0.  1.
</event>
<event>
 5   0  0.1464205E-04  0.1100162E+04  0.7818609E-02  0.9205034E-01
       -2   -1    0    0    0  501  0.00000000000E+00  0.00000000000E+00  0.32233492606E+03  0.32233492607E+03  0.25500000920E-02 0. -1.
        2   -1    0    0  501    0  0.00000000000E+00  0.00000000000E+00 -0.93874143422E+03  0.93874143422E+03  0.25500000920E-02 0.  1.
    10030    2    1    2    0    0  0.00000000000E+00  0.00000000000E+00 -0.61640650816E+03  0.12610763603E+04  0.11001620804E+04 0.  0.
        3    1    3    3  502    0  0.15636049456E+03  0.17040709277E+03 -0.88030501463E+03  0.91017806527E+03  0.10100000352E+00 0.  1.
       -3    1    3    3    0  502 -0.15636049456E+03 -0.17040709277E+03  0.26389850647E+03  0.35089829501E+03  0.10100000352E+00 0. -1.
</event>
<event>
 5   0  0.8657442E-05  0.1100210E+04  0.7818609E-02  0.9204988E-01
       -1   -1    0    0    0  501  0.00000000000E+00  0.00000000000E+00  0.16629826996E+04  0.16629826996E+04  0.50400001928E-02 0. -1.
        1   -1    0    0  501    0  0.00000000000E+00  0.00000000000E+00 -0.18197140266E+03  0.18197140273E+03  0.50400001928E-02 0.  1.
    10030    2    1    2    0    0  0.00000000000E+00  0.00000000000E+00  0.14810112969E+04  0.18449541023E+04  0.11002096064E+04 0.  0.
        1    1    3    3  502    0 -0.26400001452E+03  0.35342825709E+03  0.18939652435E+03  0.48008185140E+03  0.50400001928E-02 0.  1.
       -1    1    3    3    0  502  0.26400001452E+03 -0.35342825709E+03  0.12916147726E+04  0.13648722509E+04  0.50400001928E-02 0. -1.
</event>
<event>
 5   0  0.8921459E-05  0.1099934E+04  0.7818609E-02  0.9205256E-01
        1   -1    0    0  501    0  0.00000000000E+00  0.00000000000E+00  0.71610420393E+03  0.71610420395E+03  0.50400001928E-02 0.  1.
       -1   -1    0    0    0  501  0.00000000000E+00  0.00000000000E+00 -0.42237411356E+03  0.42237411360E+03  0.50400001928E-02 0. -1.
    10030    2    1    2    0    0  0.00000000000E+00  0.00000000000E+00  0.29373009036E+03  0.11384783175E+04  0.10999343224E+04 0.  0.
        3    1    3    3  502    0  0.31007945168E+03 -0.29671915170E+03 -0.20909365898E+03  0.47740097378E+03  0.10100000352E+00 0.  1.
       -3    1    3    3    0  502 -0.31007945168E+03  0.29671915170E+03  0.50282374934E+03  0.66107734377E+03  0.10100000352E+00 0. -1.
</event>
<event>
 5   0  0.1464205E-04  0.1099626E+04  0.7818609E-02  0.9205557E-01
        2   -1    0    0  501    0  0.00000000000E+00  0.00000000000E+00  0.32478392442E+03  0.32478392443E+03  0.25500000920E-02 0.  1.
       -2   -1    0    0    0  501  0.00000000000E+00  0.00000000000E+00 -0.93075454869E+03  0.93075454870E+03  0.25500000920E-02 0. -1.
    10030    2    1    2    0    0  0.00000000000E+00  0.00000000000E+00 -0.60597062427E+03  0.12555384731E+04  0.10996255999E+04 0.  0.
        3    1    3    3  502    0  0.61888315388E+01 -0.36283792711E+03  0.16862180486E+03  0.40015370330E+03  0.10100000352E+00 0.  1.
       -3    1    3    3    0  502 -0.61888315388E+01  0.36283792711E+03 -0.77459242913E+03  0.85538476983E+03  0.10100000352E+00 0. -1.
</event>
<event>
 5   0  0.1503277E-04  0.1099980E+04  0.7818609E-02  0.9205211E-01
       -2   -1    0    0    0  501  0.00000000000E+00  0.00000000000E+00  0.24966891361E+03  0.24966891362E+03  0.25500000920E-02 0. -1.
        2   -1    0    0  501    0  0.00000000000E+00  0.00000000000E+00 -0.12115602871E+04  0.12115602871E+04  0.25500000920E-02 0.  1.
    10030    2    1    2    0    0  0.00000000000E+00  0.00000000000E+00 -0.96189137354E+03  0.14612292008E+04  0.10999798919E+04 0.  0.
        5    1    3    3  502    0 -0.95152292025E+02  0.41020432476E+03 -0.11007350515E+02  0.42126571008E+03  0.46999998093E+01 0. -1.
       -5    1    3    3    0  502  0.95152292025E+02 -0.41020432476E+03 -0.95088402302E+03  0.10399634907E+04  0.46999998093E+01 0.  1.
</event>
<event>
 5   0  0.1503277E-04  0.1100093E+04  0.7818609E-02  0.9205101E-01
       -2   -1    0    0    0  501  0.00000000000E+00  0.00000000000E+00  0.28929614152E+03  0.28929614153E+03  0.25500000920E-02 0.  1.
        2   -1    0    0  501    0  0.00000000000E+00  0.00000000000E+00 -0.10458188582E+04  0.10458188582E+04  0.25500000920E-02 0. -1.
    10030    2    1    2    0    0  0.00000000000E+00  0.00000000000E+00 -0.75652271666E+03  0.13351149997E+04  0.11000933786E+04 0.  0.
        5    1    3    3  502    0  0.10207958758E+03  0.55389234098E+02 -0.10307438999E+04  0.10372768611E+04  0.46999998093E+01 0. -1.
       -5    1    3    3    0  502 -0.10207958758E+03 -0.55389234098E+02  0.27422118325E+03  0.29783813858E+03  0.46999998093E+01 0.  1.
</event>
<event>
 5   0  0.9016738E-05  0.1100049E+04  0.7818609E-02  0.9205144E-01
        1   -1    0    0  501    0  0.00000000000E+00  0.00000000000E+00  0.54695596759E+03  0.54695596761E+03  0.50400001928E-02 0. -1.
       -1   -1    0    0    0  501  0.00000000000E+00  0.00000000000E+00 -0.55311029180E+03  0.55311029182E+03  0.50400001928E-02 0.  1.
    10030    2    1    2    0    0  0.00000000000E+00  0.00000000000E+00 -0.61543242066E+01  0.11000662594E+04  0.11000490441E+04 0.  0.
        4    1    3    3  502    0  0.26261950447E+03  0.24885850473E+03 -0.41736109161E+03  0.55235084249E+03  0.12699999809E+01 0.  1.
       -4    1    3    3    0  502 -0.26261950447E+03 -0.24885850473E+03  0.41120676740E+03  0.54771541695E+03  0.12699999809E+01 0. -1.
</event>
<event>
 5   0  0.9346836E-05  0.1097210E+04  0.7818609E-02  0.9207916E-01
       -1   -1    0    0    0  501  0.00000000000E+00  0.00000000000E+00  0.41648222300E+03  0.41648222303E+03  0.50400001928E-02 0.  1.
        1   -1    0    0  501    0  0.00000000000E+00  0.00000000000E+00 -0.72264166716E+03  0.72264166718E+03  0.50400001928E-02 0. -1.
    10030    2    1    2    0    0  0.00000000000E+00  0.00000000000E+00 -0.30615944417E+03  0.11391238902E+04  0.10972099307E+04 0.  0.
        5    1    3    3  502    0  0.61388751889E+02 -0.39355465019E+03 -0.54470496148E+03  0.67481806926E+03  0.46999998093E+01 0. -1.
       -5    1    3    3    0  502 -0.61388751889E+02  0.39355465019E+03  0.23854551731E+03  0.46430582095E+03  0.46999998093E+01 0.  1.
</event>
<event>
 5   0  0.8621738E-05  0.1100509E+04  0.7818609E-02  0.9204696E-01
        1   -1    0    0  501    0  0.00000000000E+00  0.00000000000E+00  0.51505796310E+03  0.51505796312E+03  0.50400001928E-02 0.  1.
       -1   -1    0    0    0  501  0.00000000000E+00  0.00000000000E+00 -0.58785653908E+03  0.58785653910E+03  0.50400001928E-02 0. -1.
    10030    2    1    2    0    0  0.00000000000E+00  0.00000000000E+00 -0.72798575980E+02  0.11029145022E+04  0.11005093214E+04 0.  0.
        2    1    3    3  502    0 -0.34385232179E+03  0.31472503101E+03 -0.32943176459E+03  0.57079904684E+03  0.25500000920E-02 0. -1.
       -2    1    3    3    0  502  0.34385232179E+03 -0.31472503101E+03  0.25663318861E+03  0.53211545538E+03  0.25500000920E-02 0.  1.
</event>
<event>
 5   0  0.8657442E-05  0.1100500E+04  0.7818609E-02  0.9204704E-01
        1   -1    0    0  501    0  0.00000000000E+00  0.00000000000E+00  0.11451364016E+04  0.11451364016E+04  0.50400001928E-02 0. -1.
       -1   -1    0    0    0  501  0.00000000000E+00  0.00000000000E+00 -0.26440097349E+03  0.26440097354E+03  0.50400001928E-02 0.  1.
    10030    2    1    2    0    0  0.00000000000E+00  0.00000000000E+00  0.88073542807E+03  0.14095373751E+04  0.11005002124E+04 0.  0.
        1    1    3    3  502    0  0.21921327668E+03 -0.31473086605E+03 -0.64970607160E+02  0.38901305702E+03  0.50400001928E-02 0.  1.
       -1    1    3    3    0  502 -0.21921327668E+03  0.31473086605E+03  0.94570603523E+03  0.10205243181E+04  0.50400001928E-02 0. -1.
</event>
<event>
 5   0  0.6010125E-05  0.1099930E+04  0.7818609E-02  0.9205260E-01
       -3   -1    0    0    0  501  0.00000000000E+00  0.00000000000E+00  0.68909326505E+03  0.68909327245E+03  0.10100000352E+00 0.  1.
        3   -1    0    0  501    0  0.00000000000E+00  0.00000000000E+00 -0.43892689203E+03  0.43892690365E+03  0.10100000352E+00 0. -1.
    10030    2    1    2    0    0  0.00000000000E+00  0.00000000000E+00  0.25016637302E+03  0.11280201761E+04  0.10999301357E+04 0.  0.
        1    1    3    3  502    0 -0.18503561439E+03 -0.32122235259E+03  0.54170868330E+03  0.65640709623E+03  0.50400001928E-02 0.  1.
       -1    1    3    3    0  502  0.18503561439E+03  0.32122235259E+03 -0.29154231027E+03  0.47161307987E+03  0.50400001928E-02 0. -1.
</event>
<event>
 5   0  0.9016738E-05  0.1099621E+04  0.7818609E-02  0.9205561E-01
        1   -1    0    0  501    0  0.00000000000E+00  0.00000000000E+00  0.74606411265E+03  0.74606411267E+03  0.50400001928E-02 0. -1.
       -1   -1    0    0    0  501  0.00000000000E+00  0.00000000000E+00 -0.40518213217E+03  0.40518213220E+03  0.50400001928E-02 0.  1.
    10030    2    1    2    0    0  0.00000000000E+00  0.00000000000E+00  0.34088198048E+03  0.11512462449E+04  0.10996214766E+04 0.  0.
        4    1    3    3  502    0  0.54545401609E+03 -0.43034872958E+02  0.11388496249E+03  0.55887698247E+03  0.12699999809E+01 0. -1.
       -4    1    3    3    0  502 -0.54545401609E+03  0.43034872958E+02  0.22699701798E+03  0.59236926240E+03  0.12699999809E+01 0.  1.
</event>
<event>
 5   0  0.1464205E-04  0.1100086E+04  0.7818609E-02  0.9205108E-01
       -2   -1    0    0    0  501  0.00000000000E+00  0.00000000000E+00  0.37139000352E+03  0.37139000353E+03  0.25500000920E-02 0. -1.
        2   -1    0    0  501    0  0.00000000000E+00  0.00000000000E+00 -0.81463486250E+03  0.81463486250E+03  0.25500000920E-02 0.  1.
    10030    2    1    2    0    0  0.00000000000E+00  0.00000000000E+00 -0.44324485898E+03  0.11860248660E+04  0.11000858957E+04 0.  0.
        3    1    3    3  502    0 -0.10265317316E+03 -0.47380792121E+03  0.58513819381E+02  0.48831905290E+03  0.10100000352E+00 0. -1.
       -3    1    3    3    0  502  0.10265317316E+03  0.47380792121E+03 -0.50175867836E+03  0.69770581313E+03  0.10100000352E+00 0.  1.
</event>
<event>
 5   0  0.1503277E-04  0.1099963E+04  0.7818609E-02  0.9205228E-01
        2   -1    0    0  501    0  0.00000000000E+00  0.00000000000E+00  0.16214008246E+04  0.16214008246E+04  0.25500000920E-02 0.  1.
       -2   -1    0    0    0  501  0.00000000000E+00  0.00000000000E+00 -0.18655441181E+03  0.18655441182E+03  0.25500000920E-02 0. -1.
    10030    2    1    2    0    0  0.00000000000E+00  0.00000000000E+00  0.14348464127E+04  0.18079552364E+04  0.10999626851E+04 0.  0.
        5    1    3    3  502    0 -0.58964554529E+02  0.47367107182E+03  0.26844368788E+03  0.54765427646E+03  0.46999998093E+01 0.  1.
       -5    1    3    3    0  502  0.58964554529E+02 -0.47367107182E+03  0.11664027249E+04  0.12603009599E+04  0.46999998093E+01 0. -1.
</event>
<event>
 5   0  0.1503277E-04  0.1100359E+04  0.7818609E-02  0.9204842E-01
       -2   -1    0    0    0  501  0.00000000000E+00  0.00000000000E+00  0.18007262650E+03  0.18007262652E+03  0.25500000920E-02 0.  1.
        2   -1    0    0  501    0  0.00000000000E+00  0.00000000000E+00 -0.16809739679E+04  0.16809739679E+04  0.25500000920E-02 0. -1.
    10030    2    1    2    0    0  0.00000000000E+00  0.00000000000E+00 -0.15009013414E+04  0.18610465944E+04  0.11003588460E+04 0.  0.
        5    1    3    3  502    0  0.19108199062E+03  0.32003350818E+02  0.12043174697E+03  0.22817194674E+03  0.46999998093E+01 0.  1.
       -5    1    3    3    0  502 -0.19108199062E+03 -0.32003350818E+02 -0.16213330883E+04  0.16328746477E+04  0.46999998093E+01 0. -1.
</event>
<event>
 5   0  0.8657442E-05  0.1099991E+04  0.7818609E-02  0.9205200E-01
        1   -1    0    0  501    0  0.00000000000E+00  0.00000000000E+00  0.51132363294E+03  0.51132363297E+03  0.50400001928E-02 0. -1.
       -1   -1    0    0    0  501  0.00000000000E+00  0.00000000000E+00 -0.59159242005E+03  0.59159242007E+03  0.50400001928E-02 0.  1.
    10030    2    1    2    0    0  0.00000000000E+00  0.00000000000E+00 -0.80268787102E+02  0.11029160530E+04  0.10999912463E+04 0.  0.
        1    1    3    3  502    0  0.16757987227E+03 -0.30497043700E+03 -0.46718377797E+03  0.58253812189E+03  0.50400001928E-02 0.  1.
       -1    1    3    3    0  502 -0.16757987227E+03  0.30497043700E+03  0.38691499087E+03  0.52037793114E+03  0.50400001928E-02 0. -1.
</event>
<event>
 5   0  0.1553937E-04  0.1101513E+04  0.7818609E-02  0.9203719E-01
       -2   -1    0    0    0  501  0.00000000000E+00  0.00000000000E+00  0.73366613867E+03  0.73366613868E+03  0.25500000920E-02 0. -1.
        2   -1    0    0  501    0  0.00000000000E+00  0.00000000000E+00 -0.41344767332E+03  0.41344767332E+03  0.25500000920E-02 0.  1.
    10030    2    1    2    0    0  0.00000000000E+00  0.00000000000E+00  0.32021846536E+03  0.11471138120E+04  0.11015127018E+04 0.  0.
        1    1    3    3  502    0  0.23797915820E+03 -0.16334728876E+03  0.64858640347E+03  0.70991600861E+03  0.50400001928E-02 0. -1.
       -1    1    3    3    0  502 -0.23797915820E+03  0.16334728876E+03 -0.32836793812E+03  0.43719780339E+03  0.50400001928E-02 0.  1.
</event>
<event>
 5   0  0.1553937E-04  0.1100004E+04  0.7818609E-02  0.9205188E-01
        2   -1    0    0  501    0  0.00000000000E+00  0.00000000000E+00  0.18528686099E+04  0.18528686099E+04  0.25500000920E-02 0.  1.
       -2   -1    0    0    0  501  0.00000000000E+00  0.00000000000E+00 -0.16326158614E+03  0.16326158616E+03  0.25500000920E-02 0. -1.
    10030    2    1    2    0    0  0.00000000000E+00  0.00000000000E+00  0.16896070237E+04  0.20161301960E+04  0.11000041240E+04 0.  0.
        1    1    3    3  502    0 -0.13916285949E+03  0.15014980773E+03 -0.90826122178E+02  0.22396573559E+03  0.50400001928E-02 0. -1.
       -1    1    3    3    0  502  0.13916285949E+03 -0.15014980773E+03  0.17804331459E+04  0.17921644604E+04  0.50400001928E-02 0.  1.
</event>
<event>
 5   0  0.8657442E-05  0.1099932E+04  0.7818609E-02  0.9205258E-01
        1   -1    0    0  501    0  0.00000000000E+00  0.00000000000E+00  0.51891782204E+03  0.51891782207E+03  0.50400001928E-02 0.  1.
       -1   -1    0    0    0  501  0.00000000000E+00  0.00000000000E+00 -0.58287172163E+03  0.58287172165E+03  0.50400001928E-02 0. -1.
    10030    2    1    2    0    0  0.00000000000E+00  0.00000000000E+00 -0.63953899584E+02  0.11017895437E+04  0.10999318603E+04 0.  0.
        1    1    3    3  502    0  0.18077028645E+02 -0.54821550233E+03  0.80343266727E+01  0.54857229823E+03  0.50400001928E-02 0.  1.
       -1    1    3    3    0  502 -0.18077028645E+02  0.54821550233E+03 -0.71988226257E+02  0.55321724548E+03  0.50400001928E-02 0. -1.
</event>
<event>
 5   0  0.1574101E-04  0.1099600E+04  0.7818609E-02  0.9205582E-01
        2   -1    0    0  501    0  0.00000000000E+00  0.00000000000E+00  0.11260320877E+04  0.11260320877E+04  0.25500000920E-02 0.  1.
       -2   -1    0    0    0  501  0.00000000000E+00  0.00000000000E+00 -0.26844700112E+03  0.26844700113E+03  0.25500000920E-02 0. -1.
    10030    2    1    2    0    0  0.00000000000E+00  0.00000000000E+00  0.85758508657E+03  0.13944790888E+04  0.10995998129E+04 0.  0.
        4    1    3    3  502    0 -0.62606844283E+02  0.32327503835E+02 -0.26269564436E+03  0.27198400489E+03  0.12699999809E+01 0. -1.
       -4    1    3    3    0  502  0.62606844283E+02 -0.32327503835E+02  0.11202807309E+04  0.11224950839E+04  0.12699999809E+01 0.  1.
</event>
<event>
 5   0  0.8621738E-05  0.1100077E+04  0.7818609E-02  0.9205117E-01
        1   -1    0    0  501    0  0.00000000000E+00  0.00000000000E+00  0.56949654191E+03  0.56949654194E+03  0.50400001928E-02 0.  1.
       -1   -1    0    0    0  501  0.00000000000E+00  0.00000000000E+00 -0.53124536050E+03  0.53124536053E+03  0.50400001928E-02 0. -1.
    10030    2    1    2    0    0  0.00000000000E+00  0.00000000000E+00  0.38251181411E+02  0.11007419025E+04  0.11000770805E+04 0.  0.
        2    1    3    3  502    0 -0.23830535852E+03  0.63545973296E+02 -0.47281658672E+03  0.53327578166E+03  0.25500000920E-02 0. -1.
       -2    1    3    3    0  502  0.23830535852E+03 -0.63545973296E+02  0.51106776813E+03  0.56746612080E+03  0.25500000920E-02 0.  1.
</event>
<event>
 5   0  0.1540772E-04  0.1099938E+04  0.7818609E-02  0.9205253E-01
        2   -1    0    0  501    0  0.00000000000E+00  0.00000000000E+00  0.18310778485E+03  0.18310778487E+03  0.25500000920E-02 0.  1.
       -2   -1    0    0    0  501  0.00000000000E+00  0.00000000000E+00 -0.16518449613E+04  0.16518449613E+04  0.25500000920E-02 0. -1.
    10030    2    1    2    0    0  0.00000000000E+00  0.00000000000E+00 -0.14687371764E+04  0.18349527461E+04  0.10999375833E+04 0.  0.
        2    1    3    3  502    0  0.33857494325E+03  0.42364147025E+03 -0.88690557307E+03  0.10395703839E+04  0.25500000920E-02 0. -1.
       -2    1    3    3    0  502 -0.33857494325E+03 -0.42364147025E+03 -0.58183160335E+03  0.79538236225E+03  0.25500000920E-02 0.  1.
</event>
<event>
 5   0  0.8657442E-05  0.1100471E+04  0.7818609E-02  0.9204733E-01
       -1   -1    0    0    0  501  0.00000000000E+00  0.00000000000E+00  0.77741936113E+03  0.77741936115E+03  0.50400001928E-02 0. -1.
        1   -1    0    0  501    0  0.00000000000E+00  0.00000000000E+00 -0.38944138256E+03  0.38944138259E+03  0.50400001928E-02 0.  1.
    10030    2    1    2    0    0  0.00000000000E+00  0.00000000000E+00  0.38797797858E+03  0.11668607437E+04  0.11004713006E+04 0.  0.
        1    1    3    3  502    0  0.28580037316E+03 -0.12868460770E+03 -0.28552993011E+03  0.42399165390E+03  0.50400001928E-02 0.  1.
       -1    1    3    3    0  502 -0.28580037316E+03  0.12868460770E+03  0.67350790869E+03  0.74286908985E+03  0.50400001928E-02 0. -1.
</event>
<event>
 5   0  0.1540772E-04  0.1100258E+04  0.7818609E-02  0.9204940E-01
        2   -1    0    0  501    0  0.00000000000E+00  0.00000000000E+00  0.78075823396E+03  0.78075823396E+03  0.25500000920E-02 0. -1.
       -2   -1    0    0    0  501  0.00000000000E+00  0.00000000000E+00 -0.38762569756E+03  0.38762569757E+03  0.25500000920E-02 0.  1.
    10030    2    1    2    0    0  0.00000000000E+00  0.00000000000E+00  0.39313253640E+03  0.11683839315E+04  0.11002580699E+04 0.  0.
        2    1    3    3  502    0  0.55594112177E+02  0.90747665708E+01 -0.38455514082E+03  0.38865886460E+03  0.25500000920E-02 0.  1.
       -2    1    3    3    0  502 -0.55594112177E+02 -0.90747665708E+01  0.77768767722E+03  0.77972506693E+03  0.25500000920E-02 0. -1.
</event>
<event>
 5   0  0.1503277E-04  0.1100336E+04  0.7818609E-02  0.9204864E-01
        2   -1    0    0  501    0  0.00000000000E+00  0.00000000000E+00  0.51279231572E+03  0.51279231572E+03  0.25500000920E-02 0. -1.
       -2   -1    0    0    0  501  0.00000000000E+00  0.00000000000E+00 -0.59026824998E+03  0.59026824998E+03  0.25500000920E-02 0.  1.
    10030    2    1    2    0    0  0.00000000000E+00  0.00000000000E+00 -0.77475934262E+02  0.11030605657E+04  0.11003363537E+04 0.  0.
        5    1    3    3  502    0 -0.25474937052E+03 -0.43843812389E+03 -0.25266193985E+03  0.56655571315E+03  0.46999998093E+01 0.  1.
       -5    1    3    3    0  502  0.25474937052E+03  0.43843812389E+03  0.17518600559E+03  0.53650485255E+03  0.46999998093E+01 0. -1.
</event>
<event>
 5   0  0.1503277E-04  0.1100075E+04  0.7818609E-02  0.9205119E-01
       -2   -1    0    0    0  501  0.00000000000E+00  0.00000000000E+00  0.19424725351E+03  0.19424725353E+03  0.25500000920E-02 0. -1.
        2   -1    0    0  501    0  0.00000000000E+00  0.00000000000E+00 -0.15575059005E+04  0.15575059005E+04  0.25500000920E-02 0.  1.
    10030    2    1    2    0    0  0.00000000000E+00  0.00000000000E+00 -0.13632586470E+04  0.17517531540E+04  0.11000749857E+04 0.  0.
        5    1    3    3  502    0 -0.24319258653E+03  0.32358767899E+03 -0.88652097836E+02  0.41440668984E+03  0.46999998093E+01 0. -1.
       -5    1    3    3    0  502  0.24319258653E+03 -0.32358767899E+03 -0.12746065491E+04  0.13373464642E+04  0.46999998093E+01 0.  1.
</event>
<event>
 5   0  0.1503277E-04  0.1100009E+04  0.7818609E-02  0.9205183E-01
       -2   -1    0    0    0  501  0.00000000000E+00  0.00000000000E+00  0.51394967584E+03  0.51394967584E+03  0.25500000920E-02 0. -1.
        2   -1    0    0  501    0  0.00000000000E+00  0.00000000000E+00 -0.58858846286E+03  0.58858846287E+03  0.25500000920E-02 0.  1.
    10030    2    1    2    0    0  0.00000000000E+00  0.00000000000E+00 -0.74638787027E+02  0.11025381387E+04  0.11000088176E+04 0.  0.
        5    1    3    3  502    0 -0.21083542012E+03 -0.49998658162E+03 -0.12721734122E+03  0.55735491214E+03  0.46999998093E+01 0.  1.
       -5    1    3    3    0  502  0.21083542012E+03  0.49998658162E+03  0.52578554189E+02  0.54518322657E+03  0.46999998093E+01 0. -1.
</event>
<event>
 5   0  0.8657442E-05  0.1100554E+04  0.7818609E-02  0.9204652E-01
       -1   -1    0    0    0  501  0.00000000000E+00  0.00000000000E+00  0.55649904617E+03  0.55649904620E+03  0.50400001928E-02 0. -1.
        1   -1    0    0  501    0  0.00000000000E+00  0.00000000000E+00 -0.54412444990E+03  0.54412444992E+03  0.50400001928E-02 0.  1.
    10030    2    1    2    0    0  0.00000000000E+00  0.00000000000E+00  0.12374596275E+02  0.11006234961E+04  0.11005539285E+04 0.  0.
        1    1    3    3  502    0  0.44670828318E+03  0.32129891541E+03  0.13440526568E+01  0.55025729419E+03  0.50400001928E-02 0. -1.
       -1    1    3    3    0  502 -0.44670828318E+03 -0.32129891541E+03  0.11030543618E+02  0.55036620193E+03  0.50400001928E-02 0.  1.
</event>
<event>
 5   0  0.8657442E-05  0.1100045E+04  0.7818609E-02  0.9205148E-01
       -1   -1    0    0    0  501  0.00000000000E+00  0.00000000000E+00  0.67380325198E+03  0.67380325199E+03  0.50400001928E-02 0. -1.
        1   -1    0    0  501    0  0.00000000000E+00  0.00000000000E+00 -0.44898102761E+03  0.44898102764E+03  0.50400001928E-02 0.  1.
    10030    2    1    2    0    0  0.00000000000E+00  0.00000000000E+00  0.22482222437E+03  0.11227842796E+04  0.11000452291E+04 0.  0.
        1    1    3    3  502    0 -0.43636928300E+03  0.31998654202E+03  0.21301499542E+03  0.58153669405E+03  0.50400001928E-02 0. -1.
       -1    1    3    3    0  502  0.43636928300E+03 -0.31998654202E+03  0.11807228943E+02  0.54124758559E+03  0.50400001928E-02 0.  1.
</event>
<event>
 5   0  0.8921459E-05  0.1099658E+04  0.7818609E-02  0.9205526E-01
       -1   -1    0    0    0  501  0.00000000000E+00  0.00000000000E+00  0.18788304582E+03  0.18788304589E+03  0.50400001928E-02 0.  1.
        1   -1    0    0  501    0  0.00000000000E+00  0.00000000000E+00 -0.16090423424E+04  0.16090423424E+04  0.50400001928E-02 0. -1.
    10030    2    1    2    0    0  0.00000000000E+00  0.00000000000E+00 -0.14211592965E+04  0.17969253882E+04  0.10996577217E+04 0.  0.
        3    1    3    3  502    0 -0.27230855951E+03 -0.47266549940E+03 -0.59799257206E+03  0.80941939213E+03  0.10100000352E+00 0.  1.
       -3    1    3    3    0  502  0.27230855951E+03  0.47266549940E+03 -0.82316672447E+03  0.98750599612E+03  0.10100000352E+00 0. -1.
</event>
<event>
 5   0  0.1553937E-04  0.1099516E+04  0.7818609E-02  0.9205663E-01
        2   -1    0    0  501    0  0.00000000000E+00  0.00000000000E+00  0.10521425577E+04  0.10521425577E+04  0.25500000920E-02 0. -1.
       -2   -1    0    0    0  501  0.00000000000E+00  0.00000000000E+00 -0.28725587528E+03  0.28725587529E+03  0.25500000920E-02 0.  1.
    10030    2    1    2    0    0  0.00000000000E+00  0.00000000000E+00  0.76488668241E+03  0.13393984330E+04  0.10995164962E+04 0.  0.
        1    1    3    3  502    0  0.17313031018E+03  0.14157192415E+03 -0.22933707992E+03  0.32033140692E+03  0.50400001928E-02 0.  1.
       -1    1    3    3    0  502 -0.17313031018E+03 -0.14157192415E+03  0.99422376233E+03  0.10190670261E+04  0.50400001928E-02 0. -1.
</event>
<event>
 5   0  0.8921459E-05  0.1101116E+04  0.7818609E-02  0.9204105E-01
        1   -1    0    0  501    0  0.00000000000E+00  0.00000000000E+00  0.12155192855E+04  0.12155192855E+04  0.50400001928E-02 0.  1.
       -1   -1    0    0    0  501  0.00000000000E+00  0.00000000000E+00 -0.24937003283E+03  0.24937003288E+03  0.50400001928E-02 0. -1.
    10030    2    1    2    0    0  0.00000000000E+00  0.00000000000E+00  0.96614925268E+03  0.14648893184E+04  0.11011159506E+04 0.  0.
        3    1    3    3  502    0  0.31344940108E+03  0.11554157662E+03 -0.99124663904E+02  0.34846246880E+03  0.10100000352E+00 0. -1.
       -3    1    3    3    0  502 -0.31344940108E+03 -0.11554157662E+03  0.10652739166E+04  0.11164268496E+04  0.10100000352E+00 0.  1.
</event>
<event>
 5   0  0.1553937E-04  0.1100066E+04  0.7818609E-02  0.9205127E-01
       -2   -1    0    0    0  501  0.00000000000E+00  0.00000000000E+00  0.28863458638E+03  0.28863458639E+03  0.25500000920E-02 0.  1.
        2   -1    0    0  501    0  0.00000000000E+00  0.00000000000E+00 -0.10481643162E+04  0.10481643162E+04  0.25500000920E-02 0. -1.
    10030    2    1    2    0    0  0.00000000000E+00  0.00000000000E+00 -0.75952972978E+03  0.13367989025E+04  0.11000663141E+04 0.  0.
        1    1    3    3  502    0  0.11117424647E+03  0.65924630852E+02  0.26991836060E+03  0.29926859415E+03  0.50400001928E-02 0.  1.
       -1    1    3    3    0  502 -0.11117424647E+03 -0.65924630852E+02 -0.10294480904E+04  0.10375303084E+04  0.50400001928E-02 0. -1.
</event>
<event>
 5   0  0.1464205E-04  0.1099863E+04  0.7818609E-02  0.9205326E-01
       -2   -1    0    0    0  501  0.00000000000E+00  0.00000000000E+00  0.37966377361E+03  0.37966377362E+03  0.25500000920E-02 0.  1.
        2   -1    0    0  501    0  0.00000000000E+00  0.00000000000E+00 -0.79655890144E+03  0.79655890144E+03  0.25500000920E-02 0. -1.
    10030    2    1    2    0    0  0.00000000000E+00  0.00000000000E+00 -0.41689512782E+03  0.11762226751E+04  0.10998628250E+04 0.  0.
        3    1    3    3  502    0 -0.44180746321E+03  0.31302642312E+02 -0.55703942868E+03  0.71166468598E+03  0.10100000352E+00 0.  1.
       -3    1    3    3    0  502  0.44180746321E+03 -0.31302642312E+02  0.14014430085E+03  0.46455798909E+03  0.10100000352E+00 0. -1.
</event>
<event>
 5   0  0.1540772E-04  0.1099930E+04  0.7818609E-02  0.9205260E-01
        2   -1    0    0  501    0  0.00000000000E+00  0.00000000000E+00  0.48600312087E+03  0.48600312087E+03  0.25500000920E-02 0.  1.
       -2   -1    0    0    0  501  0.00000000000E+00  0.00000000000E+00 -0.62234498313E+03  0.62234498313E+03  0.25500000920E-02 0. -1.
    10030    2    1    2    0    0  0.00000000000E+00  0.00000000000E+00 -0.13634186226E+03  0.11083481040E+04  0.10999301870E+04 0.  0.
        2    1    3    3  502    0  0.67326866880E+02  0.13553414972E+03  0.46460911272E+03  0.48863487429E+03  0.25500000920E-02 0.  1.
       -2    1    3    3    0  502 -0.67326866880E+02 -0.13553414972E+03 -0.60095097498E+03  0.61971322972E+03  0.25500000920E-02 0. -1.
</event>
<event>
 5   0  0.8621738E-05  0.1097324E+04  0.7818609E-02  0.9207804E-01
        1   -1    0    0  501    0  0.00000000000E+00  0.00000000000E+00  0.80824179035E+03  0.80824179036E+03  0.50400001928E-02 0. -1.
       -1   -1    0    0    0  501  0.00000000000E+00  0.00000000000E+00 -0.37245057227E+03  0.37245057230E+03  0.50400001928E-02 0.  1.
    10030    2    1    2    0    0  0.00000000000E+00  0.00000000000E+00  0.43579121808E+03  0.11806923627E+04  0.10973242317E+04 0.  0.
        2    1    3    3  502    0 -0.46476187649E+03  0.29015110692E+03  0.18673226056E+03  0.57884385098E+03  0.25500000920E-02 0.  1.
       -2    1    3    3    0  502  0.46476187649E+03 -0.29015110692E+03  0.24905895752E+03  0.60184851168E+03  0.25500000920E-02 0. -1.
</event>
<event>
 5   0  0.1503277E-04  0.1100036E+04  0.7818609E-02  0.9205157E-01
        2   -1    0    0  501    0  0.00000000000E+00  0.00000000000E+00  0.13235321799E+04  0.13235321799E+04  0.25500000920E-02 0. -1.
       -2   -1    0    0    0  501  0.00000000000E+00  0.00000000000E+00 -0.22856985678E+03  0.22856985679E+03  0.25500000920E-02 0.  1.
    10030    2    1    2    0    0  0.00000000000E+00  0.00000000000E+00  0.10949623231E+04  0.15521020367E+04  0.11000355646E+04 0.  0.
        5    1    3    3  502    0  0.41740964389E+03  0.31891432673E+03  0.31753290010E+03  0.61382928511E+03  0.46999998093E+01 0.  1.
       -5    1    3    3    0  502 -0.41740964389E+03 -0.31891432673E+03  0.77742942304E+03  0.93827275162E+03  0.46999998093E+01 0. -1.
</event>
<event>
 5   0  0.9346836E-05  0.1098977E+04  0.7818609E-02  0.9206190E-01
       -1   -1    0    0    0  501  0.00000000000E+00  0.00000000000E+00  0.30981487667E+03  0.30981487671E+03  0.50400001928E-02 0. -1.
        1   -1    0    0  501    0  0.00000000000E+00  0.00000000000E+00 -0.97457395345E+03  0.97457395346E+03  0.50400001928E-02 0.  1.
    10030    2    1    2    0    0  0.00000000000E+00  0.00000000000E+00 -0.66475907678E+03  0.12843888302E+04  0.10989768136E+04 0.  0.
        5    1    3    3  502    0 -0.43565351556E+03 -0.46967922347E+02  0.55089814355E+02  0.44165252064E+03  0.46999998093E+01 0. -1.
       -5    1    3    3    0  502  0.43565351556E+03  0.46967922347E+02 -0.71984889113E+03  0.84273630953E+03  0.46999998093E+01 0.  1.
</event>
<event>
 5   0  0.1503277E-04  0.1099725E+04  0.7818609E-02  0.9205460E-01
        2   -1    0    0  501    0  0.00000000000E+00  0.00000000000E+00  0.76129333995E+03  0.76129333995E+03  0.25500000920E-02 0. -1.
       -2   -1    0    0    0  501  0.00000000000E+00  0.00000000000E+00 -0.39715166929E+03  0.39715166930E+03  0.25500000920E-02 0.  1.
    10030    2    1    2    0    0  0.00000000000E+00  0.00000000000E+00  0.36414167065E+03  0.11584450093E+04  0.10997252762E+04 0.  0.
        5    1    3    3  502    0  0.65646341514E+01 -0.54922673613E+03  0.20858896573E+03  0.58755812370E+03  0.46999998093E+01 0. -1.
       -5    1    3    3    0  502 -0.65646341514E+01  0.54922673613E+03  0.15555270492E+03  0.57088688556E+03  0.46999998093E+01 0.  1.
</event>
<event>
 5   0  0.1553937E-04  0.1099686E+04  0.7818609E-02  0.9205498E-01
        2   -1    0    0  501    0  0.00000000000E+00  0.00000000000E+00  0.83827448647E+03  0.83827448648E+03  0.25500000920E-02 0.  1.
       -2   -1    0    0    0  501  0.00000000000E+00  0.00000000000E+00 -0.36065431477E+03  0.36065431478E+03  0.25500000920E-02 0. -1.
    10030    2    1    2    0    0  0.00000000000E+00  0.00000000000E+00  0.47762017170E+03  0.11989288013E+04  0.10996859743E+04 0.  0.
        1    1    3    3  502    0 -0.85871790691E+02 -0.53930175013E+03  0.16894094778E+03  0.57163046279E+03  0.50400001928E-02 0. -1.
       -1    1    3    3    0  502  0.85871790691E+02  0.53930175013E+03  0.30867922392E+03  0.62729833846E+03  0.50400001928E-02 0.  1.
</event>
<event>
 5   0  0.1574101E-04  0.1100893E+04  0.7818609E-02  0.9204322E-01
       -2   -1    0    0    0  501  0.00000000000E+00  0.00000000000E+00  0.32521852788E+03  0.32521852789E+03  0.25500000920E-02 0.  1.
        2   -1    0    0  501    0  0.00000000000E+00  0.00000000000E+00 -0.93165405450E+03  0.93165405450E+03  0.25500000920E-02 0. -1.
    10030    2    1    2    0    0  0.00000000000E+00  0.00000000000E+00 -0.60643552662E+03  0.12568725824E+04  0.11008926562E+04 0.  0.
        4    1    3    3  502    0  0.47633819395E+03 -0.26584212258E+03 -0.21917053304E+03  0.58788387000E+03  0.12699999809E+01 0.  1.
       -4    1    3    3    0  502 -0.47633819395E+03  0.26584212258E+03 -0.38726499358E+03  0.66898871239E+03  0.12699999809E+01 0. -1.
</event>
<event>
 5   0  0.8621738E-05  0.1099917E+04  0.7818609E-02  0.9205272E-01
       -1   -1    0    0    0  501  0.00000000000E+00  0.00000000000E+00  0.37344429500E+03  0.37344429503E+03  0.50400001928E-02 0.  1.
        1   -1    0    0  501    0  0.00000000000E+00  0.00000000000E+00 -0.80990542998E+03  0.80990543000E+03  0.50400001928E-02 0. -1.
    10030    2    1    2    0    0  0.00000000000E+00  0.00000000000E+00 -0.43646113499E+03  0.11833497250E+04  0.10999173830E+04 0.  0.
        2    1    3    3  502    0  0.59913339614E+01 -0.87212842345E+02  0.36592168945E+03  0.37621889741E+03  0.25500000920E-02 0.  1.
       -2    1    3    3    0  502 -0.59913339614E+01  0.87212842345E+02 -0.80238282443E+03  0.80713082762E+03  0.25500000920E-02 0. -1.
</event>
<event>
 5   0  0.8621738E-05  0.1100276E+04  0.7818609E-02  0.9204923E-01
       -1   -1    0    0    0  501  0.00000000000E+00  0.00000000000E+00  0.28396268102E+03  0.28396268106E+03  0.50400001928E-02 0. -1.
        1   -1    0    0  501    0  0.00000000000E+00  0.00000000000E+00 -0.10658161403E+04  0.10658161403E+04  0.50400001928E-02 0.  1.
    10030    2    1    2    0    0  0.00000000000E+00  0.00000000000E+00 -0.78185345929E+03  0.13497788214E+04  0.11002763448E+04 0.  0.
        2    1    3    3  502    0 -0.46812575291E+03  0.24759391867E+02 -0.74413504831E+03  0.87948377936E+03  0.25500000920E-02 0.  1.
       -2    1    3    3    0  502  0.46812575291E+03 -0.24759391867E+02 -0.37718410984E+02  0.47029504203E+03  0.25500000920E-02 0. -1.
</event>
<event>
 5   0  0.1503277E-04  0.1100038E+04  0.7818609E-02  0.9205154E-01
       -2   -1    0    0    0  501  0.00000000000E+00  0.00000000000E+00  0.54178307938E+03  0.54178307939E+03  0.25500000920E-02 0.  1.
        2   -1    0    0  501    0  0.00000000000E+00  0.00000000000E+00 -0.55838047130E+03  0.55838047130E+03  0.25500000920E-02 0. -1.
    10030    2    1    2    0    0  0.00000000000E+00  0.00000000000E+00 -0.16597391914E+02  0.11001635507E+04  0.11000383470E+04 0.  0.
        5    1    3    3  502    0  0.21375850780E+03  0.13614316665E+03 -0.49648470738E+03  0.55744669355E+03  0.46999998093E+01 0. -1.
       -5    1    3    3    0  502 -0.21375850780E+03 -0.13614316665E+03  0.47988731547E+03  0.54271685715E+03  0.46999998093E+01 0.  1.
</event>
<event>
 5   0  0.1464205E-04  0.1100044E+04  0.7818609E-02  0.9205149E-01
       -2   -1    0    0    0  501  0.00000000000E+00  0.00000000000E+00  0.24936328333E+03  0.24936328334E+03  0.25500000920E-02 0.  1.
        2   -1    0    0  501    0  0.00000000000E+00  0.00000000000E+00 -0.12131864091E+04  0.12131864091E+04  0.25500000920E-02 0. -1.
    10030    2    1    2    0    0  0.00000000000E+00  0.00000000000E+00 -0.96382312580E+03  0.14625496925E+04  0.11000439015E+04 0.  0.
        3    1    3    3  502    0  0.27329025644E+03 -0.39391834028E+03 -0.12351569640E+03  0.49509126485E+03  0.10100000352E+00 0.  1.
       -3    1    3    3    0  502 -0.27329025644E+03  0.39391834028E+03 -0.84030742940E+03  0.96745842763E+03  0.10100000352E+00 0. -1.
</event>
<event>
 5   0  0.8621738E-05  0.1099215E+04  0.7818609E-02  0.9205957E-01
        1   -1    0    0  501    0  0.00000000000E+00  0.00000000000E+00  0.30724383789E+03  0.30724383793E+03  0.50400001928E-02 0. -1.
       -1   -1    0    0    0  501  0.00000000000E+00  0.00000000000E+00 -0.98315503683E+03  0.98315503684E+03  0.50400001928E-02 0.  1.
    10030    2    1    2    0    0  0.00000000000E+00  0.00000000000E+00 -0.67591119894E+03  0.12903988748E+04  0.10992148594E+04 0.  0.
        2    1    3    3  502    0 -0.31010852279E+02 -0.34549195489E+03  0.16250396340E+03  0.38305861429E+03  0.25500000920E-02 0. -1.
       -2    1    3    3    0  502  0.31010852279E+02  0.34549195489E+03 -0.83841516233E+03  0.90734026048E+03  0.25500000920E-02 0.  1.
</event>
<event>
 5   0  0.1574101E-04  0.1100160E+04  0.7818609E-02  0.9205036E-01
       -2   -1    0    0    0  501  0.00000000000E+00  0.00000000000E+00  0.39202149673E+03  0.39202149674E+03  0.25500000920E-02 0.  1.
        2   -1    0    0  501    0  0.00000000000E+00  0.00000000000E+00 -0.77186622757E+03  0.77186622758E+03  0.25500000920E-02 0. -1.
    10030    2    1    2    0    0  0.00000000000E+00  0.00000000000E+00 -0.37984473084E+03  0.11638877243E+04  0.11001602680E+04 0.  0.
        4    1    3    3  502    0 -0.24405037058E+03  0.25763548222E+03 -0.63456576368E+03  0.72705704482E+03  0.12699999809E+01 0. -1.
       -4    1    3    3    0  502  0.24405037058E+03 -0.25763548222E+03  0.25472103284E+03  0.43683067950E+03  0.12699999809E+01 0.  1.
</event>
<event>
 5   0  0.8621738E-05  0.1098263E+04  0.7818609E-02  0.9206887E-01
       -1   -1    0    0    0  501  0.00000000000E+00  0.00000000000E+00  0.35939456641E+03  0.35939456644E+03  0.50400001928E-02 0. -1.
        1   -1    0    0  501    0  0.00000000000E+00  0.00000000000E+00 -0.83903676093E+03  0.83903676095E+03  0.50400001928E-02 0.  1.
    10030    2    1    2    0    0  0.00000000000E+00  0.00000000000E+00 -0.47964219452E+03  0.11984313274E+04  0.10982627244E+04 0.  0.
        2    1    3    3  502    0 -0.25699404857E+03  0.48513122239E+03 -0.25305167634E+03  0.60451087239E+03  0.25500000920E-02 0.  1.
       -2    1    3    3    0  502  0.25699404857E+03 -0.48513122239E+03 -0.22659051819E+03  0.59392045500E+03  0.25500000920E-02 0. -1.
</event>
<event>
 5   0  0.6010125E-05  0.1100055E+04  0.7818609E-02  0.9205138E-01
        3   -1    0    0  501    0  0.00000000000E+00  0.00000000000E+00  0.41570364654E+03  0.41570365881E+03  0.10100000352E+00 0.  1.
       -3   -1    0    0    0  501  0.00000000000E+00  0.00000000000E+00 -0.72775439954E+03  0.72775440655E+03  0.10100000352E+00 0. -1.
    10030    2    1    2    0    0  0.00000000000E+00  0.00000000000E+00 -0.31205075300E+03  0.11434580654E+04  0.11000548508E+04 0.  0.
        5    1    3    3  502    0  0.28124637344E+03  0.85652763600E+02 -0.63920132584E+03  0.70358819166E+03  0.46999998093E+01 0. -1.
       -5    1    3    3    0  502 -0.28124637344E+03 -0.85652763600E+02  0.32715057284E+03  0.43986987370E+03  0.46999998093E+01 0.  1.
</event>
<event>
 5   0  0.8921459E-05  0.1099949E+04  0.7818609E-02  0.9205242E-01
       -1   -1    0    0    0  501  0.00000000000E+00  0.00000000000E+00  0.58028627383E+03  0.58028627385E+03  0.50400001928E-02 0.  1.
        1   -1    0    0  501    0  0.00000000000E+00  0.00000000000E+00 -0.52124579432E+03  0.52124579434E+03  0.50400001928E-02 0. -1.
    10030    2    1    2    0    0  0.00000000000E+00  0.00000000000E+00  0.59040479512E+02  0.11015320682E+04  0.10999486893E+04 0.  0.
        3    1    3    3  502    0 -0.29410860850E+03  0.23378333485E+03  0.43174159145E+03  0.57232449994E+03  0.10100000352E+00 0.  1.
       -3    1    3    3    0  502  0.29410860850E+03 -0.23378333485E+03 -0.37270111194E+03  0.52920756825E+03  0.10100000352E+00 0. -1.
</event>
<event>
 5   0  0.1553937E-04  0.1098810E+04  0.7818609E-02  0.9206353E-01
       -2   -1    0    0    0  501  0.00000000000E+00  0.00000000000E+00  0.42866007378E+03  0.42866007379E+03  0.25500000920E-02 0.  1.
        2   -1    0    0  501    0  0.00000000000E+00  0.00000000000E+00 -0.70416075833E+03  0.70416075834E+03  0.25500000920E-02 0. -1.
    10030    2    1    2    0    0  0.00000000000E+00  0.00000000000E+00 -0.27550068455E+03  0.11328208321E+04  0.10988095424E+04 0.  0.
        1    1    3    3  502    0  0.15572034567E+03  0.47801369074E+03 -0.36619350851E+03  0.62196752350E+03  0.50400001928E-02 0. -1.
       -1    1    3    3    0  502 -0.15572034567E+03 -0.47801369074E+03  0.90692823953E+02  0.51085330863E+03  0.50400001928E-02 0.  1.
</event>
<event>
 5   0  0.8621738E-05  0.1099469E+04  0.7818609E-02  0.9205709E-01
       -1   -1    0    0    0  501  0.00000000000E+00  0.00000000000E+00  0.23590816959E+03  0.23590816964E+03  0.50400001928E-02 0. -1.
        1   -1    0    0  501    0  0.00000000000E+00  0.00000000000E+00 -0.12810415970E+04  0.12810415970E+04  0.50400001928E-02 0.  1.
    10030    2    1    2    0    0  0.00000000000E+00  0.00000000000E+00 -0.10451334275E+04  0.15169497667E+04  0.10994692872E+04 0.  0.
        2    1    3    3  502    0  0.18089219003E+03  0.36818431773E+03 -0.17648124173E+02  0.41060094073E+03  0.25500000920E-02 0. -1.
       -2    1    3    3    0  502 -0.18089219003E+03 -0.36818431773E+03 -0.10274853033E+04  0.11063488260E+04  0.25500000920E-02 0.  1.
</event>
<event>
 5   0  0.1553937E-04  0.1100016E+04  0.7818609E-02  0.9205176E-01
        2   -1    0    0  501    0  0.00000000000E+00  0.00000000000E+00  0.52233753269E+03  0.52233753270E+03  0.25500000920E-02 0.  1.
       -2   -1    0    0    0  501  0.00000000000E+00  0.00000000000E+00 -0.57914448183E+03  0.57914448184E+03  0.25500000920E-02 0. -1.
    10030    2    1    2    0    0  0.00000000000E+00  0.00000000000E+00 -0.56806949142E+02  0.11014820145E+04  0.11000161812E+04 0.  0.
        1    1    3    3  502    0 -0.29996672732E+03  0.44047042483E+03 -0.16465340519E+03  0.55776785181E+03  0.50400001928E-02 0. -1.
       -1    1    3    3    0  502  0.29996672732E+03 -0.44047042483E+03  0.10784645605E+03  0.54371416273E+03  0.50400001928E-02 0.  1.
</event>
<event>
 5   0  0.1464205E-04  0.1099875E+04  0.7818609E-02  0.9205314E-01
       -2   -1    0    0    0  501  0.00000000000E+00  0.00000000000E+00  0.24662726485E+03  0.24662726486E+03  0.25500000920E-02 0.  1.
        2   -1    0    0  501    0  0.00000000000E+00  0.00000000000E+00 -0.12262682454E+04  0.12262682454E+04  0.25500000920E-02 0. -1.
    10030    2    1    2    0    0  0.00000000000E+00  0.00000000000E+00 -0.97964098056E+03  0.14728955103E+04  0.10998748717E+04 0.  0.
        3    1    3    3  502    0  0.30112260150E+03  0.21602128136E+01  0.12640845821E+03  0.32658627675E+03  0.10100000352E+00 0.  1.
       -3    1    3    3    0  502 -0.30112260150E+03 -0.21602128136E+01 -0.11060494388E+04  0.11463092335E+04  0.10100000352E+00 0. -1.
</event>
<event>
 5   0  0.8657442E-05  0.1100411E+04  0.7818609E-02  0.9204791E-01
       -1   -1    0    0    0  501  0.00000000000E+00  0.00000000000E+00  0.31616666209E+03  0.31616666213E+03  0.50400001928E-02 0. -1.
        1   -1    0    0  501    0  0.00000000000E+00  0.00000000000E+00 -0.95748896747E+03  0.95748896748E+03  0.50400001928E-02 0.  1.
    10030    2    1    2    0    0  0.00000000000E+00  0.00000000000E+00 -0.64132230538E+03  0.12736556296E+04  0.11004109975E+04 0.  0.
        1    1    3    3  502    0  0.77994754894E+02  0.13193690544E+03 -0.93228225476E+03  0.94479666139E+03  0.50400001928E-02 0.  1.
       -1    1    3    3    0  502 -0.77994754894E+02 -0.13193690544E+03  0.29095994939E+03  0.32885896822E+03  0.50400001928E-02 0. -1.
</event>
<event>
 5   0  0.8657442E-05  0.1099915E+04  0.7818609E-02  0.9205275E-01
       -1   -1    0    0    0  501  0.00000000000E+00  0.00000000000E+00  0.24560450489E+03  0.24560450494E+03  0.50400001928E-02 0.  1.
        1   -1    0    0  501    0  0.00000000000E+00  0.00000000000E+00 -0.12314638437E+04  0.12314638437E+04  0.50400001928E-02 0. -1.
    10030    2    1    2    0    0  0.00000000000E+00  0.00000000000E+00 -0.98585933878E+03  0.14770683486E+04  0.10999146652E+04 0.  0.
        1    1    3    3  502    0  0.47363980657E+03 -0.26239181008E+03 -0.36364214554E+03  0.65224208573E+03  0.50400001928E-02 0.  1.
       -1    1    3    3    0  502 -0.47363980657E+03  0.26239181008E+03 -0.62221719324E+03  0.82482626289E+03  0.50400001928E-02 0. -1.
</event>
<event>
 5   0  0.1553937E-04  0.1097444E+04  0.7818609E-02  0.9207687E-01
        2   -1    0    0  501    0  0.00000000000E+00  0.00000000000E+00  0.33242358961E+03  0.33242358962E+03  0.25500000920E-02 0.  1.
       -2   -1    0    0    0  501  0.00000000000E+00  0.00000000000E+00 -0.90575887676E+03  0.90575887676E+03  0.25500000920E-02 0. -1.
    10030    2    1    2    0    0  0.00000000000E+00  0.00000000000E+00 -0.57333528715E+03  0.12381824664E+04  0.10974436061E+04 0.  0.
        1    1    3    3  502    0 -0.97329252636E+02  0.53785107478E+03 -0.23210390854E+03  0.59382572060E+03  0.50400001928E-02 0.  1.
       -1    1    3    3    0  502  0.97329252636E+02 -0.53785107478E+03 -0.34123137861E+03  0.64435674578E+03  0.50400001928E-02 0. -1.
</event>
<event>
 5   0  0.6010125E-05  0.1099918E+04  0.7818609E-02  0.9205271E-01
        4   -1    0    0  501    0  0.00000000000E+00  0.00000000000E+00  0.11035248901E+04  0.11035256209E+04  0.12699999809E+01 0.  1.
       -4   -1    0    0    0  501  0.00000000000E+00  0.00000000000E+00 -0.27407859409E+03  0.27408153648E+03  0.12699999809E+01 0. -1.
    10030    2    1    2    0    0  0.00000000000E+00  0.00000000000E+00  0.82944629602E+03  0.13776071574E+04  0.10999183252E+04 0.  0.
        5    1    3    3  502    0 -0.23004934288E+03 -0.41322420712E+03  0.76620823408E+03  0.90042994924E+03  0.46999998093E+01 0.  1.
       -5    1    3    3    0  502  0.23004934288E+03  0.41322420712E+03  0.63238061933E+02  0.47717720815E+03  0.46999998093E+01 0. -1.
</event>
<event>
 5   0  0.8657442E-05  0.1098664E+04  0.7818609E-02  0.9206495E-01
       -1   -1    0    0    0  501  0.00000000000E+00  0.00000000000E+00  0.39080497623E+03  0.39080497626E+03  0.50400001928E-02 0.  1.
        1   -1    0    0  501    0  0.00000000000E+00  0.00000000000E+00 -0.77216437775E+03  0.77216437777E+03  0.50400001928E-02 0. -1.
    10030    2    1    2    0    0  0.00000000000E+00  0.00000000000E+00 -0.38135940152E+03  0.11629693540E+04  0.10986640639E+04 0.  0.
        1    1    3    3  502    0  0.38670234442E+03 -0.16363070658E+03  0.18424330824E+03  0.45854041040E+03  0.50400001928E-02 0.  1.
       -1    1    3    3    0  502 -0.38670234442E+03  0.16363070658E+03 -0.56560270976E+03  0.70442894363E+03  0.50400001928E-02 0. -1.
</event>
<event>
 5   0  0.1464205E-04  0.1093212E+04  0.7818609E-02  0.9211833E-01
       -2   -1    0    0    0  501  0.00000000000E+00  0.00000000000E+00  0.24680642289E+03  0.24680642290E+03  0.25500000920E-02 0. -1.
        2   -1    0    0  501    0  0.00000000000E+00  0.00000000000E+00 -0.12105770494E+04  0.12105770494E+04  0.25500000920E-02 0.  1.
    10030    2    1    2    0    0  0.00000000000E+00  0.00000000000E+00 -0.96377062648E+03  0.14573834723E+04  0.10932121316E+04 0.  0.
        3    1    3    3  502    0 -0.10099048718E+03  0.12228515975E+02 -0.11978461809E+04  0.12021581004E+04  0.10100000352E+00 0.  1.
       -3    1    3    3    0  502  0.10099048718E+03 -0.12228515975E+02  0.23407555437E+03  0.25522537190E+03  0.10100000352E+00 0. -1.
</event>
<event>
 5   0  0.9016738E-05  0.1101925E+04  0.7818609E-02  0.9203318E-01
       -1   -1    0    0    0  501  0.00000000000E+00  0.00000000000E+00  0.20622524212E+03  0.20622524218E+03  0.50400001928E-02 0. -1.
        1   -1    0    0  501    0  0.00000000000E+00  0.00000000000E+00 -0.14719806493E+04  0.14719806493E+04  0.50400001928E-02 0.  1.
    10030    2    1    2    0    0  0.00000000000E+00  0.00000000000E+00 -0.12657554071E+04  0.16782058914E+04  0.11019247993E+04 0.  0.
        4    1    3    3  502    0  0.19235269163E+02 -0.32512058236E+03  0.43921536314E+02  0.32863977682E+03  0.12699999809E+01 0.  1.
       -4    1    3    3    0  502 -0.19235269163E+02  0.32512058236E+03 -0.13096769435E+04  0.13495661146E+04  0.12699999809E+01 0. -1.
</event>
<event>
 5   0  0.9016738E-05  0.1100260E+04  0.7818609E-02  0.9204938E-01
       -1   -1    0    0    0  501  0.00000000000E+00  0.00000000000E+00  0.34110565871E+03  0.34110565874E+03  0.50400001928E-02 0.  1.
        1   -1    0    0  501    0  0.00000000000E+00  0.00000000000E+00 -0.88724156589E+03  0.88724156591E+03  0.50400001928E-02 0. -1.
    10030    2    1    2    0    0  0.00000000000E+00  0.00000000000E+00 -0.54613590718E+03  0.12283472247E+04  0.11002601852E+04 0.  0.
        4    1    3    3  502    0 -0.51599907954E+03  0.18554980773E+03 -0.22367084181E+03  0.59221114445E+03  0.12699999809E+01 0.  1.
       -4    1    3    3    0  502  0.51599907954E+03 -0.18554980773E+03 -0.32246506538E+03  0.63613608020E+03  0.12699999809E+01 0. -1.
</event>
<event>
 5   0  0.9016738E-05  0.1099665E+04  0.7818609E-02  0.9205518E-01
       -1   -1    0    0    0  501  0.00000000000E+00  0.00000000000E+00  0.55844987311E+03  0.55844987313E+03  0.50400001928E-02 0. -1.
        1   -1    0    0  501    0  0.00000000000E+00  0.00000000000E+00 -0.54134806801E+03  0.54134806803E+03  0.50400001928E-02 0.  1.
    10030    2    1    2    0    0  0.00000000000E+00  0.00000000000E+00  0.17101805099E+02  0.10997979412E+04  0.10996649670E+04 0.  0.
        4    1    3    3  502    0  0.40764806395E+03 -0.32108819933E+03 -0.17323898209E+03  0.54707214661E+03  0.12699999809E+01 0.  1.
       -4    1    3    3    0  502 -0.40764806395E+03  0.32108819933E+03  0.19034078719E+03  0.55272579454E+03  0.12699999809E+01 0. -1.
</event>
<event>
 5   0  0.1540772E-04  0.1099458E+04  0.7818609E-02  0.9205720E-01
        2   -1    0    0  501    0  0.00000000000E+00  0.00000000000E+00  0.56347535760E+03  0.56347535760E+03  0.25500000920E-02 0.  1.
       -2   -1    0    0    0  501  0.00000000000E+00  0.00000000000E+00 -0.53631813857E+03  0.53631813857E+03  0.25500000920E-02 0. -1.
    10030    2    1    2    0    0  0.00000000000E+00  0.00000000000E+00  0.27157219028E+02  0.10997934962E+04  0.10994581482E+04 0.  0.
        2    1    3    3  502    0  0.33387936165E+03  0.30861999225E+03  0.32267176917E+03  0.55752919060E+03  0.25500000920E-02 0.  1.
       -2    1    3    3    0  502 -0.33387936165E+03 -0.30861999225E+03 -0.29551455014E+03  0.54226430557E+03  0.25500000920E-02 0. -1.
</event>
<event>
 5   0  0.1574101E-04  0.1098755E+04  0.7818609E-02  0.9206406E-01
       -2   -1    0    0    0  501  0.00000000000E+00  0.00000000000E+00  0.89859394146E+03  0.89859394146E+03  0.25500000920E-02 0.  1.
        2   -1    0    0  501    0  0.00000000000E+00  0.00000000000E+00 -0.33587539559E+03  0.33587539560E+03  0.25500000920E-02 0. -1.
    10030    2    1    2    0    0  0.00000000000E+00  0.00000000000E+00  0.56271854587E+03  0.12344693371E+04  0.10987549237E+04 0.  0.
        4    1    3    3  502    0 -0.12281607355E+03 -0.47980996349E+03  0.14272677141E+02  0.49548633806E+03  0.12699999809E+01 0. -1.
       -4    1    3    3    0  502  0.12281607355E+03  0.47980996349E+03  0.54844586873E+03  0.73898299900E+03  0.12699999809E+01 0.  1.
</event>
<event>
 5   0  0.1464205E-04  0.1099924E+04  0.7818609E-02  0.9205266E-01
       -2   -1    0    0    0  501  0.00000000000E+00  0.00000000000E+00  0.88343246710E+03  0.88343246711E+03  0.25500000920E-02 0.  1.
        2   -1    0    0  501    0  0.00000000000E+00  0.00000000000E+00 -0.34236732195E+03  0.34236732196E+03  0.25500000920E-02 0. -1.
    10030    2    1    2    0    0  0.00000000000E+00  0.00000000000E+00  0.54106514515E+03  0.12257997891E+04  0.10999243754E+04 0.  0.
        3    1    3    3  502    0 -0.18986547261E+03 -0.21396840935E+03 -0.25293051814E+03  0.38184451691E+03  0.10100000352E+00 0. -1.
       -3    1    3    3    0  502  0.18986547261E+03  0.21396840935E+03  0.79399566329E+03  0.84395527216E+03  0.10100000352E+00 0.  1.
</event>
<event>
 5   0  0.8921459E-05  0.1099914E+04  0.7818609E-02  0.9205275E-01
        1   -1    0    0  501    0  0.00000000000E+00  0.00000000000E+00  0.48230167259E+03  0.48230167262E+03  0.50400001928E-02 0.  1.
       -1   -1    0    0    0  501  0.00000000000E+00  0.00000000000E+00 -0.62710318137E+03  0.62710318139E+03  0.50400001928E-02 0. -1.
    10030    2    1    2    0    0  0.00000000000E+00  0.00000000000E+00 -0.14480150878E+03  0.11094048540E+04  0.10999143845E+04 0.  0.
        3    1    3    3  502    0 -0.43056094031E+03  0.56329060346E+02 -0.41279933129E+03  0.59913185900E+03  0.10100000352E+00 0. -1.
       -3    1    3    3    0  502  0.43056094031E+03 -0.56329060346E+02  0.26799782251E+03  0.51027299501E+03  0.10100000352E+00 0.  1.
</event>
<event>
 5   0  0.1464205E-04  0.1100287E+04  0.7818609E-02  0.9204912E-01
        2   -1    0    0  501    0  0.00000000000E+00  0.00000000000E+00  0.13663961922E+04  0.13663961922E+04  0.25500000920E-02 0. -1.
       -2   -1    0    0    0  501  0.00000000000E+00  0.00000000000E+00 -0.22150075064E+03  0.22150075066E+03  0.25500000920E-02 0.  1.
    10030    2    1    2    0    0  0.00000000000E+00  0.00000000000E+00  0.11448954415E+04  0.15878969428E+04  0.11002868394E+04 0.  0.
        3    1    3    3  502    0  0.28380032352E+03 -0.46998904157E+03  0.52192763774E+03  0.75752279970E+03  0.10100000352E+00 0.  1.
       -3    1    3    3    0  502 -0.28380032352E+03  0.46998904157E+03  0.62296780380E+03  0.83037414314E+03  0.10100000352E+00 0. -1.
</event>
<event>
 5   0  0.6010125E-05  0.1099322E+04  0.7818609E-02  0.9205853E-01
       -3   -1    0    0    0  501  0.00000000000E+00  0.00000000000E+00  0.44069813215E+03  0.44069814373E+03  0.10100000352E+00 0. -1.
        3   -1    0    0  501    0  0.00000000000E+00  0.00000000000E+00 -0.68556488807E+03  0.68556489551E+03  0.10100000352E+00 0.  1.
    10030    2    1    2    0    0  0.00000000000E+00  0.00000000000E+00 -0.24486675592E+03  0.11262630392E+04  0.10993219298E+04 0.  0.
        1    1    3    3  502    0 -0.22141002415E+03 -0.49163962129E+03 -0.13068703223E+02  0.53935397194E+03  0.50400001928E-02 0. -1.
       -1    1    3    3    0  502  0.22141002415E+03  0.49163962129E+03 -0.23179805270E+03  0.58690906730E+03  0.50400001928E-02 0.  1.
</event>
<event>
 5   0  0.1540772E-04  0.1099879E+04  0.7818609E-02  0.9205310E-01
       -2   -1    0    0    0  501  0.00000000000E+00  0.00000000000E+00  0.18845875436E+03  0.18845875438E+03  0.25500000920E-02 0.  1.
        2   -1    0    0  501    0  0.00000000000E+00  0.00000000000E+00 -0.16047721078E+04  0.16047721078E+04  0.25500000920E-02 0. -1.
    10030    2    1    2    0    0  0.00000000000E+00  0.00000000000E+00 -0.14163133534E+04  0.17932308622E+04  0.10998788160E+04 0.  0.
        2    1    3    3  502    0 -0.13479684047E+02 -0.30636952755E+03 -0.14524243238E+04  0.14844461613E+04  0.25500000920E-02 0. -1.
       -2    1    3    3    0  502  0.13479684047E+02  0.30636952755E+03  0.36110970429E+02  0.30878470086E+03  0.25500000920E-02 0.  1.
</event>
<event>
 5   0  0.8921459E-05  0.1099825E+04  0.7818609E-02  0.9205362E-01
       -1   -1    0    0    0  501  0.00000000000E+00  0.00000000000E+00  0.40052597391E+03  0.40052597394E+03  0.50400001928E-02 0.  1.
        1   -1    0    0  501    0  0.00000000000E+00  0.00000000000E+00 -0.75501653047E+03  0.75501653048E+03  0.50400001928E-02 0. -1.
    10030    2    1    2    0    0  0.00000000000E+00  0.00000000000E+00 -0.35449055656E+03  0.11555425044E+04  0.10998249519E+04 0.  0.
        3    1    3    3  502    0 -0.12017141642E+03  0.22434965771E+03 -0.68941369275E+03  0.73489127645E+03  0.10100000352E+00 0. -1.
       -3    1    3    3    0  502  0.12017141642E+03 -0.22434965771E+03  0.33492313620E+03  0.42065122798E+03  0.10100000352E+00 0.  1.
</event>
<event>
 5   0  0.1503277E-04  0.1100475E+04  0.7818609E-02  0.9204729E-01
       -2   -1    0    0    0  501  0.00000000000E+00  0.00000000000E+00  0.24564019011E+03  0.24564019012E+03  0.25500000920E-02 0. -1.
        2   -1    0    0  501    0  0.00000000000E+00  0.00000000000E+00 -0.12325388447E+04  0.12325388447E+04  0.25500000920E-02 0.  1.
    10030    2    1    2    0    0  0.00000000000E+00  0.00000000000E+00 -0.98689865463E+03  0.14781790349E+04  0.11004745815E+04 0.  0.
        5    1    3    3  502    0 -0.19494522513E+03 -0.50512742751E+03 -0.36196721877E+03  0.65130616171E+03  0.46999998093E+01 0. -1.
       -5    1    3    3    0  502  0.19494522513E+03  0.50512742751E+03 -0.62493143587E+03  0.82687287315E+03  0.46999998093E+01 0.  1.
</event>
<event>
 5   0  0.9346836E-05  0.1099987E+04  0.7818609E-02  0.9205204E-01
        1   -1    0    0  501    0  0.00000000000E+00  0.00000000000E+00  0.75538170191E+03  0.75538170193E+03  0.50400001928E-02 0.  1.
       -1   -1    0    0    0  501  0.00000000000E+00  0.00000000000E+00 -0.40045055585E+03  0.40045055588E+03  0.50400001928E-02 0. -1.
    10030    2    1    2    0    0  0.00000000000E+00  0.00000000000E+00  0.35493114607E+03  0.11558322578E+04  0.10999873134E+04 0.  0.
        5    1    3    3  502    0  0.33427138019E+02  0.11335609746E+03 -0.38692924734E+03  0.40460265796E+03  0.46999998093E+01 0. -1.
       -5    1    3    3    0  502 -0.33427138019E+02 -0.11335609746E+03  0.74186039341E+03  0.75122959985E+03  0.46999998093E+01 0.  1.
</event>
<event>
 5   0  0.1503277E-04  0.1097277E+04  0.7818609E-02  0.9207850E-01
        2   -1    0    0  501    0  0.00000000000E+00  0.00000000000E+00  0.12413336401E+04  0.12413336401E+04  0.25500000920E-02 0. -1.
       -2   -1    0    0    0  501  0.00000000000E+00  0.00000000000E+00 -0.24248461613E+03  0.24248461614E+03  0.25500000920E-02 0.  1.
    10030    2    1    2    0    0  0.00000000000E+00  0.00000000000E+00  0.99884902393E+03  0.14838182562E+04  0.10972771960E+04 0.  0.
        5    1    3    3  502    0  0.50047138782E+03 -0.18361204799E+03  0.67468465122E+03  0.85988747100E+03  0.46999998093E+01 0. -1.
       -5    1    3    3    0  502 -0.50047138782E+03  0.18361204799E+03  0.32416437270E+03  0.62393078520E+03  0.46999998093E+01 0.  1.
</event>
<event>
 5   0  0.1553937E-04  0.1099767E+04  0.7818609E-02  0.9205419E-01
        2   -1    0    0  501    0  0.00000000000E+00  0.00000000000E+00  0.11952648522E+04  0.11952648522E+04  0.25500000920E-02 0.  1.
       -2   -1    0    0    0  501  0.00000000000E+00  0.00000000000E+00 -0.25297476362E+03  0.25297476364E+03  0.25500000920E-02 0. -1.
    10030    2    1    2    0    0  0.00000000000E+00  0.00000000000E+00  0.94229008858E+03  0.14482396158E+04  0.10997669634E+04 0.  0.
        1    1    3    3  502    0  0.26450112959E+03  0.74560021383E+02  0.10983520023E+04  0.11322089760E+04  0.50400001928E-02 0.  1.
       -1    1    3    3    0  502 -0.26450112959E+03 -0.74560021383E+02 -0.15606191376E+03  0.31603063981E+03  0.50400001928E-02 0. -1.
</event>
<event>
 5   0  0.1574101E-04  0.1102332E+04  0.7818609E-02  0.9202922E-01
        2   -1    0    0  501    0  0.00000000000E+00  0.00000000000E+00  0.47381798349E+03  0.47381798350E+03  0.25500000920E-02 0.  1.
       -2   -1    0    0    0  501  0.00000000000E+00  0.00000000000E+00 -0.64114068803E+03  0.64114068803E+03  0.25500000920E-02 0. -1.
    10030    2    1    2    0    0  0.00000000000E+00  0.00000000000E+00 -0.16732270454E+03  0.11149586715E+04  0.11023320515E+04 0.  0.
        4    1    3    3  502    0 -0.28296240009E+03  0.28816528183E+02 -0.56117527327E+03  0.62914021680E+03  0.12699999809E+01 0. -1.
       -4    1    3    3    0  502  0.28296240009E+03 -0.28816528183E+02  0.39385256873E+03  0.48581845474E+03  0.12699999809E+01 0.  1.
</event>
<event>
 5   0  0.8921459E-05  0.1099975E+04  0.7818609E-02  0.9205216E-01
        1   -1    0    0  501    0  0.00000000000E+00  0.00000000000E+00  0.12227133236E+04  0.12227133236E+04  0.50400001928E-02 0.  1.
       -1   -1    0    0    0  501  0.00000000000E+00  0.00000000000E+00 -0.24738940964E+03  0.24738940969E+03  0.50400001928E-02 0. -1.
    10030    2    1    2    0    0  0.00000000000E+00  0.00000000000E+00  0.97532391391E+03  0.14701027333E+04  0.10999751403E+04 0.  0.
        3    1    3    3  502    0 -0.47865087887E+03  0.12221988703E+03  0.81075467758E+03  0.94940377188E+03  0.10100000352E+00 0.  1.
       -3    1    3    3    0  502  0.47865087887E+03 -0.12221988703E+03  0.16456923633E+03  0.52069896138E+03  0.10100000352E+00 0. -1.
</event>
<event>
 5   0  0.9016738E-05  0.1098389E+04  0.7818609E-02  0.9206763E-01
       -1   -1    0    0    0  501  0.00000000000E+00  0.00000000000E+00  0.23735441810E+03  0.23735441815E+03  0.50400001928E-02 0. -1.
        1   -1    0    0  501    0  0.00000000000E+00  0.00000000000E+00 -0.12707357955E+04  0.12707357955E+04  0.50400001928E-02 0.  1.
    10030    2    1    2    0    0  0.00000000000E+00  0.00000000000E+00 -0.10333813774E+04  0.15080902136E+04  0.10983892850E+04 0.  0.
        4    1    3    3  502    0 -0.71657972742E+02 -0.21693386215E+03 -0.12023918897E+04  0.12239048308E+04  0.12699999809E+01 0.  1.
       -4    1    3    3    0  502  0.71657972742E+02  0.21693386215E+03  0.16901051235E+03  0.28418538278E+03  0.12699999809E+01 0. -1.
</event>
<event>
 5   0  0.1553937E-04  0.1099704E+04  0.7818609E-02  0.9205481E-01
        2   -1    0    0  501    0  0.00000000000E+00  0.00000000000E+00  0.18798178148E+04  0.18798178148E+04  0.25500000920E-02 0. -1.
       -2   -1    0    0    0  501  0.00000000000E+00  0.00000000000E+00 -0.16083316673E+03  0.16083316675E+03  0.25500000920E-02 0.  1.
    10030    2    1    2    0    0  0.00000000000E+00  0.00000000000E+00  0.17189846481E+04  0.20406509816E+04  0.10997036911E+04 0.  0.
        1    1    3    3  502    0  0.38091300786E+03  0.16412120183E+03  0.15293402170E+04  0.15845857464E+04  0.50400001928E-02 0. -1.
       -1    1    3    3    0  502 -0.38091300786E+03 -0.16412120183E+03  0.18964443111E+03  0.45606523516E+03  0.50400001928E-02 0.  1.
</event>
<event>
 5   0  0.9016738E-05  0.1099921E+04  0.7818609E-02  0.9205269E-01
        1   -1    0    0  501    0  0.00000000000E+00  0.00000000000E+00  0.59586887194E+03  0.59586887196E+03  0.50400001928E-02 0. -1.
       -1   -1    0    0    0  501  0.00000000000E+00  0.00000000000E+00 -0.50758900277E+03  0.50758900280E+03  0.50400001928E-02 0.  1.
    10030    2    1    2    0    0  0.00000000000E+00  0.00000000000E+00  0.88279869172E+02  0.11034578748E+04  0.10999208817E+04 0.  0.
        4    1    3    3  502    0 -0.37063576714E+03 -0.26900476603E+03  0.34961941800E+03  0.57616819279E+03  0.12699999809E+01 0. -1.
       -4    1    3    3    0  502  0.37063576714E+03  0.26900476603E+03 -0.26133954883E+03  0.52728968197E+03  0.12699999809E+01 0.  1.
</event>
<event>
 5   0  0.1574101E-04  0.1100312E+04  0.7818609E-02  0.9204888E-01
        2   -1    0    0  501    0  0.00000000000E+00  0.00000000000E+00  0.14454549654E+04  0.14454549654E+04  0.25500000920E-02 0. -1.
       -2   -1    0    0    0  501  0.00000000000E+00  0.00000000000E+00 -0.20939538209E+03  0.20939538210E+03  0.25500000920E-02 0.  1.
    10030    2    1    2    0    0  0.00000000000E+00  0.00000000000E+00  0.12360595834E+04  0.16548503475E+04  0.11003119463E+04 0.  0.
        4    1    3    3  502    0  0.17199804106E+03 -0.43427119957E+03  0.18085121927E+03  0.50088279798E+03  0.12699999809E+01 0. -1.
       -4    1    3    3    0  502 -0.17199804106E+03  0.43427119957E+03  0.10552083641E+04  0.11539675496E+04  0.12699999809E+01 0.  1.
</event>
<event>
 5   0  0.1464205E-04  0.1100171E+04  0.7818609E-02  0.9205025E-01
       -2   -1    0    0    0  501  0.00000000000E+00  0.00000000000E+00  0.37647537455E+03  0.37647537456E+03  0.25500000920E-02 0. -1.
        2   -1    0    0  501    0  0.00000000000E+00  0.00000000000E+00 -0.80375524154E+03  0.80375524154E+03  0.25500000920E-02 0.  1.
    10030    2    1    2    0    0  0.00000000000E+00  0.00000000000E+00 -0.42727986699E+03  0.11802306161E+04  0.11001709969E+04 0.  0.
        3    1    3    3  502    0 -0.46206965356E+03 -0.16376276741E+03  0.54053167426E+02  0.49320215312E+03  0.10100000352E+00 0. -1.
       -3    1    3    3    0  502  0.46206965356E+03  0.16376276741E+03 -0.48133303441E+03  0.68702846298E+03  0.10100000352E+00 0.  1.
</event>
<event>
 5   0  0.1503277E-04  0.1100558E+04  0.7818609E-02  0.9204648E-01
       -2   -1    0    0    0  501  0.00000000000E+00  0.00000000000E+00  0.27615049942E+03  0.27615049943E+03  0.25500000920E-02 0. -1.
        2   -1    0    0  501    0  0.00000000000E+00  0.00000000000E+00 -0.10965293868E+04  0.10965293868E+04  0.25500000920E-02 0.  1.
    10030    2    1    2    0    0  0.00000000000E+00  0.00000000000E+00 -0.82037888741E+03  0.13726798863E+04  0.11005582907E+04 0.  0.
        5    1    3    3  502    0 -0.40520997681E+03  0.19306717629E+03 -0.80719178578E+03  0.92360745390E+03  0.46999998093E+01 0.  1.
       -5    1    3    3    0  502  0.40520997681E+03 -0.19306717629E+03 -0.13187101633E+02  0.44907243237E+03  0.46999998093E+01 0. -1.
</event>
<event>
 5   0  0.8621738E-05  0.1100108E+04  0.7818609E-02  0.9205087E-01
       -1   -1    0    0    0  501  0.00000000000E+00  0.00000000000E+00  0.52760997610E+03  0.52760997613E+03  0.50400001928E-02 0. -1.
        1   -1    0    0  501    0  0.00000000000E+00  0.00000000000E+00 -0.57345277896E+03  0.57345277899E+03  0.50400001928E-02 0.  1.
    10030    2    1    2    0    0  0.00000000000E+00  0.00000000000E+00 -0.45842802859E+02  0.11010627551E+04  0.11001080075E+04 0.  0.
        2    1    3    3  502    0  0.23689761245E+01  0.39212896443E+03 -0.40898750964E+03  0.56660525927E+03  0.25500000920E-02 0.  1.
       -2    1    3    3    0  502 -0.23689761245E+01 -0.39212896443E+03  0.36314470678E+03  0.53445749584E+03  0.25500000920E-02 0. -1.
</event>
<event>
 5   0  0.8621738E-05  0.1098052E+04  0.7818609E-02  0.9207092E-01
       -1   -1    0    0    0  501  0.00000000000E+00  0.00000000000E+00  0.29385662335E+03  0.29385662339E+03  0.50400001928E-02 0.  1.
        1   -1    0    0  501    0  0.00000000000E+00  0.00000000000E+00 -0.10257713897E+04  0.10257713897E+04  0.50400001928E-02 0. -1.
    10030    2    1    2    0    0  0.00000000000E+00  0.00000000000E+00 -0.73191476633E+03  0.13196280131E+04  0.10980523065E+04 0.  0.
        2    1    3    3  502    0 -0.44400255449E+02 -0.12920209360E+03 -0.10050170985E+04  0.10142602880E+04  0.25500000920E-02 0. -1.
       -2    1    3    3    0  502  0.44400255449E+02  0.12920209360E+03  0.27310233213E+03  0.30536772504E+03  0.25500000920E-02 0.  1.
</event>
<event>
 5   0  0.6010125E-05  0.1104262E+04  0.7818609E-02  0.9201048E-01
       -3   -1    0    0    0  501  0.00000000000E+00  0.00000000000E+00  0.95371993045E+03  0.95371993580E+03  0.10100000352E+00 0.  1.
        3   -1    0    0  501    0  0.00000000000E+00  0.00000000000E+00 -0.31964142407E+03  0.31964144002E+03  0.10100000352E+00 0. -1.
    10030    2    1    2    0    0  0.00000000000E+00  0.00000000000E+00  0.63407850639E+03  0.12733613758E+04  0.11042615819E+04 0.  0.
        4    1    3    3  502    0  0.18001197977E+03  0.25470133035E+02  0.91821222640E+03  0.93603864565E+03  0.12699999809E+01 0.  1.
       -4    1    3    3    0  502 -0.18001197977E+03 -0.25470133035E+02 -0.28413372002E+03  0.33732273017E+03  0.12699999809E+01 0. -1.
</event>
<event>
 5   0  0.8657442E-05  0.1100375E+04  0.7818609E-02  0.9204826E-01
        1   -1    0    0  501    0  0.00000000000E+00  0.00000000000E+00  0.45454043083E+03  0.45454043086E+03  0.50400001928E-02 0. -1.
       -1   -1    0    0    0  501  0.00000000000E+00  0.00000000000E+00 -0.66596167311E+03  0.66596167312E+03  0.50400001928E-02 0.  1.
    10030    2    1    2    0    0  0.00000000000E+00  0.00000000000E+00 -0.21142124228E+03  0.11205021040E+04  0.11003754011E+04 0.  0.
        1    1    3    3  502    0  0.55626535970E+02 -0.37756643671E+03  0.29784069258E+03  0.48410722347E+03  0.50400001928E-02 0. -1.
       -1    1    3    3    0  502 -0.55626535970E+02  0.37756643671E+03 -0.50926193485E+03  0.63639488052E+03  0.50400001928E-02 0.  1.
</event>
<event>
 5   0  0.1503277E-04  0.1099570E+04  0.7818609E-02  0.9205611E-01
        2   -1    0    0  501    0  0.00000000000E+00  0.00000000000E+00  0.18146778653E+04  0.18146778653E+04  0.25500000920E-02 0. -1.
       -2   -1    0    0    0  501  0.00000000000E+00  0.00000000000E+00 -0.16656592206E+03  0.16656592208E+03  0.25500000920E-02 0.  1.
    10030    2    1    2    0    0  0.00000000000E+00  0.00000000000E+00  0.16481119433E+04  0.19812437874E+04  0.10995699012E+04 0.  0.
        5    1    3    3  502    0  0.89926951059E+02 -0.49075947539E+03  0.12400797205E+04  0.13366942517E+04  0.46999998093E+01 0.  1.
       -5    1    3    3    0  502 -0.89926951059E+02  0.49075947539E+03  0.40803222275E+03  0.64454953573E+03  0.46999998093E+01 0. -1.
</event>
<event>
 5   0  0.1574101E-04  0.1099984E+04  0.7818609E-02  0.9205207E-01
        2   -1    0    0  501    0  0.00000000000E+00  0.00000000000E+00  0.23746607632E+04  0.23746607632E+04  0.25500000920E-02 0.  1.
       -2   -1    0    0    0  501  0.00000000000E+00  0.00000000000E+00 -0.12738301392E+03  0.12738301394E+03  0.25500000920E-02 0. -1.
    10030    2    1    2    0    0  0.00000000000E+00  0.00000000000E+00  0.22472777492E+04  0.25020437771E+04  0.10999844455E+04 0.  0.
        4    1    3    3  502    0  0.32368568331E+02  0.41064187793E+02 -0.12171330991E+03  0.13247541072E+03  0.12699999809E+01 0. -1.
       -4    1    3    3    0  502 -0.32368568331E+02 -0.41064187793E+02  0.23689910591E+04  0.23695683664E+04  0.12699999809E+01 0.  1.
</event>
<event>
 5   0  0.1553937E-04  0.1100116E+04  0.7818609E-02  0.9205078E-01
        2   -1    0    0  501    0  0.00000000000E+00  0.00000000000E+00  0.52405258609E+03  0.52405258609E+03  0.25500000920E-02 0.  1.
       -2   -1    0    0    0  501  0.00000000000E+00  0.00000000000E+00 -0.57735436661E+03  0.57735436662E+03  0.25500000920E-02 0. -1.
    10030    2    1    2    0    0  0.00000000000E+00  0.00000000000E+00 -0.53301780522E+02  0.11014069527E+04  0.11001164464E+04 0.  0.
        1    1    3    3  502    0  0.17924276351E+03 -0.36590045798E+03  0.34331328891E+03  0.53279933163E+03  0.50400001928E-02 0.  1.
       -1    1    3    3    0  502 -0.17924276351E+03  0.36590045798E+03 -0.39661506943E+03  0.56860762108E+03  0.50400001928E-02 0. -1.
</event>
<event>
 5   0  0.1553937E-04  0.1100390E+04  0.7818609E-02  0.9204812E-01
       -2   -1    0    0    0  501  0.00000000000E+00  0.00000000000E+00  0.54910989850E+03  0.54910989851E+03  0.25500000920E-02 0. -1.
        2   -1    0    0  501    0  0.00000000000E+00  0.00000000000E+00 -0.55128195667E+03  0.55128195668E+03  0.25500000920E-02 0.  1.
    10030    2    1    2    0    0  0.00000000000E+00  0.00000000000E+00 -0.21720581701E+01  0.11003918552E+04  0.11003897115E+04 0.  0.
        1    1    3    3  502    0 -0.32390479117E+03  0.89214253435E+01 -0.44574459929E+03  0.55107363700E+03  0.50400001928E-02 0.  1.
       -1    1    3    3    0  502  0.32390479117E+03 -0.89214253435E+01  0.44357254112E+03  0.54931821819E+03  0.50400001928E-02 0. -1.
</event>
<event>
 5   0  0.8621738E-05  0.1100132E+04  0.7818609E-02  0.9205063E-01
       -1   -1    0    0    0  501  0.00000000000E+00  0.00000000000E+00  0.20420389990E+03  0.20420389997E+03  0.50400001928E-02 0.  1.
        1   -1    0    0  501    0  0.00000000000E+00  0.00000000000E+00 -0.14817185001E+04  0.14817185001E+04  0.50400001928E-02 0. -1.
    10030    2    1    2    0    0  0.00000000000E+00  0.00000000000E+00 -0.12775146002E+04  0.16859224000E+04  0.11001321672E+04 0.  0.
        2    1    3    3  502    0  0.40312583491E+03 -0.46987893182E+02 -0.69769405684E+02  0.41180829382E+03  0.25500000920E-02 0.  1.
       -2    1    3    3    0  502 -0.40312583491E+03  0.46987893182E+02 -0.12077451945E+04  0.12741141062E+04  0.25500000920E-02 0. -1.
</event>
<event>
 5   0  0.9346836E-05  0.1099738E+04  0.7818609E-02  0.9205447E-01
       -1   -1    0    0    0  501  0.00000000000E+00  0.00000000000E+00  0.10823141627E+04  0.10823141627E+04  0.50400001928E-02 0.  1.
        1   -1    0    0  501    0  0.00000000000E+00  0.00000000000E+00 -0.27936071057E+03  0.27936071061E+03  0.50400001928E-02 0. -1.
    10030    2    1    2    0    0  0.00000000000E+00  0.00000000000E+00  0.80295345213E+03  0.13616748733E+04  0.10997382481E+04 0.  0.
        5    1    3    3  502    0  0.42771895159E+03 -0.28205739958E+03  0.64859878791E+03  0.82656055790E+03  0.46999998093E+01 0.  1.
       -5    1    3    3    0  502 -0.42771895159E+03  0.28205739958E+03  0.15435466422E+03  0.53511431542E+03  0.46999998093E+01 0. -1.
</event>
<event>
 5   0  0.1503277E-04  0.1099801E+04  0.7818609E-02  0.9205386E-01
        2   -1    0    0  501    0  0.00000000000E+00  0.00000000000E+00  0.78064318884E+03  0.78064318884E+03  0.25500000920E-02 0.  1.
       -2   -1    0    0    0  501  0.00000000000E+00  0.00000000000E+00 -0.38736078650E+03  0.38736078650E+03  0.25500000920E-02 0. -1.
    10030    2    1    2    0    0  0.00000000000E+00  0.00000000000E+00  0.39328240234E+03  0.11680039753E+04  0.10998009995E+04 0.  0.
        5    1    3    3  502    0  0.26025890303E+03 -0.42607198200E+03 -0.48075105327E+02  0.50160276734E+03  0.46999998093E+01 0.  1.
       -5    1    3    3    0  502 -0.26025890303E+03  0.42607198200E+03  0.44135750767E+03  0.66640120801E+03  0.46999998093E+01 0. -1.
</event>
<event>
 5   0  0.9016738E-05  0.1098802E+04  0.7818609E-02  0.9206360E-01
       -1   -1    0    0    0  501  0.00000000000E+00  0.00000000000E+00  0.52231015142E+03  0.52231015145E+03  0.50400001928E-02 0. -1.
        1   -1    0    0  501    0  0.00000000000E+00  0.00000000000E+00 -0.57789685371E+03  0.57789685373E+03  0.50400001928E-02 0.  1.
    10030    2    1    2    0    0  0.00000000000E+00  0.00000000000E+00 -0.55586702285E+02  0.11002070052E+04  0.10988018806E+04 0.  0.
        4    1    3    3  502    0 -0.34286253706E+03 -0.39088399915E+03 -0.20548792436E+03  0.55908131794E+03  0.12699999809E+01 0.  1.
       -4    1    3    3    0  502  0.34286253706E+03  0.39088399915E+03  0.14990122207E+03  0.54112568724E+03  0.12699999809E+01 0. -1.
</event>
<event>
 5   0  0.1540772E-04  0.1098493E+04  0.7818609E-02  0.9206662E-01
        2   -1    0    0  501    0  0.00000000000E+00  0.00000000000E+00  0.29860146876E+03  0.29860146877E+03  0.25500000920E-02 0.  1.
       -2   -1    0    0    0  501  0.00000000000E+00  0.00000000000E+00 -0.10102828728E+04  0.10102828728E+04  0.25500000920E-02 0. -1.
    10030    2    1    2    0    0  0.00000000000E+00  0.00000000000E+00 -0.71168140402E+03  0.13088843416E+04  0.10984934223E+04 0.  0.
        2    1    3    3  502    0  0.43779038049E+03 -0.32843412717E+03 -0.41099380577E+03  0.68443064040E+03  0.25500000920E-02 0.  1.
       -2    1    3    3    0  502 -0.43779038049E+03  0.32843412717E+03 -0.30068759825E+03  0.62445370115E+03  0.25500000920E-02 0. -1.
</event>
<event>
 5   0  0.8657442E-05  0.1100589E+04  0.7818609E-02  0.9204618E-01
       -1   -1    0    0    0  501  0.00000000000E+00  0.00000000000E+00  0.17699255604E+03  0.17699255611E+03  0.50400001928E-02 0. -1.
        1   -1    0    0  501    0  0.00000000000E+00  0.00000000000E+00 -0.17109418514E+04  0.17109418514E+04  0.50400001928E-02 0.  1.
    10030    2    1    2    0    0  0.00000000000E+00  0.00000000000E+00 -0.15339492953E+04  0.18879344075E+04  0.11005888816E+04 0.  0.
        1    1    3    3  502    0  0.17568368483E+03  0.18167259869E+03  0.71556478984E+02  0.26265951332E+03  0.50400001928E-02 0. -1.
       -1    1    3    3    0  502 -0.17568368483E+03 -0.18167259869E+03 -0.16055057743E+04  0.16252748942E+04  0.50400001928E-02 0.  1.
</event>
<event>
 5   0  0.1464205E-04  0.1099406E+04  0.7818609E-02  0.9205771E-01
       -2   -1    0    0    0  501  0.00000000000E+00  0.00000000000E+00  0.36608403311E+03  0.36608403312E+03  0.25500000920E-02 0.  1.
        2   -1    0    0  501    0  0.00000000000E+00  0.00000000000E+00 -0.82542024593E+03  0.82542024594E+03  0.25500000920E-02 0. -1.
    10030    2    1    2    0    0  0.00000000000E+00  0.00000000000E+00 -0.45933621282E+03  0.11915042791E+04  0.10994056079E+04 0.  0.
        3    1    3    3  502    0  0.71560392314E+02  0.38189105522E+03 -0.65110258321E+03  0.75821913182E+03  0.10100000352E+00 0. -1.
       -3    1    3    3    0  502 -0.71560392314E+02 -0.38189105522E+03  0.19176637039E+03  0.43328514724E+03  0.10100000352E+00 0.  1.
</event>
<event>
 5   0  0.1503277E-04  0.1093672E+04  0.7818609E-02  0.9211382E-01
       -2   -1    0    0    0  501  0.00000000000E+00  0.00000000000E+00  0.79238140275E+03  0.79238140276E+03  0.25500000920E-02 0.  1.
        2   -1    0    0  501    0  0.00000000000E+00  0.00000000000E+00 -0.37738092322E+03  0.37738092323E+03  0.25500000920E-02 0. -1.
    10030    2    1    2    0    0  0.00000000000E+00  0.00000000000E+00  0.41500047953E+03  0.11697623260E+04  0.10936720264E+04 0.  0.
        5    1    3    3  502    0 -0.13132055412E+03  0.14041093516E+03 -0.34002015593E+03  0.39063552717E+03  0.46999998093E+01 0. -1.
       -5    1    3    3    0  502  0.13132055412E+03 -0.14041093516E+03  0.75502063547E+03  0.77912679881E+03  0.46999998093E+01 0.  1.
</event>
<event>
 5   0  0.8657442E-05  0.1100132E+04  0.7818609E-02  0.9205063E-01
        1   -1    0    0  501    0  0.00000000000E+00  0.00000000000E+00  0.52195071725E+03  0.52195071728E+03  0.50400001928E-02 0.  1.
       -1   -1    0    0    0  501  0.00000000000E+00  0.00000000000E+00 -0.57969565929E+03  0.57969565931E+03  0.50400001928E-02 0. -1.
    10030    2    1    2    0    0  0.00000000000E+00  0.00000000000E+00 -0.57744942033E+02  0.11016463766E+04  0.11001319288E+04 0.  0.
        1    1    3    3  502    0 -0.18699422378E+03 -0.69567161460E+01 -0.54684397449E+03  0.57797367422E+03  0.50400001928E-02 0. -1.
       -1    1    3    3    0  502  0.18699422378E+03  0.69567161460E+01  0.48909903246E+03  0.52367270237E+03  0.50400001928E-02 0.  1.
</event>
<event>
 5   0  0.9016738E-05  0.1100066E+04  0.7818609E-02  0.9205127E-01
        1   -1    0    0  501    0  0.00000000000E+00  0.00000000000E+00  0.91943987801E+03  0.91943987802E+03  0.50400001928E-02 0. -1.
       -1   -1    0    0    0  501  0.00000000000E+00  0.00000000000E+00 -0.32904423194E+03  0.32904423198E+03  0.50400001928E-02 0.  1.
    10030    2    1    2    0    0  0.00000000000E+00  0.00000000000E+00  0.59039564607E+03  0.12484841100E+04  0.11000661589E+04 0.  0.
        4    1    3    3  502    0  0.26774732945E+03 -0.39661969787E+03 -0.12569815118E+02  0.47870181776E+03  0.12699999809E+01 0.  1.
       -4    1    3    3    0  502 -0.26774732945E+03  0.39661969787E+03  0.60296546119E+03  0.76978229225E+03  0.12699999809E+01 0. -1.
</event>
<event>
 5   0  0.9346836E-05  0.1099943E+04  0.7818609E-02  0.9205247E-01
       -1   -1    0    0    0  501  0.00000000000E+00  0.00000000000E+00  0.25922312231E+03  0.25922312236E+03  0.50400001928E-02 0.  1.
        1   -1    0    0  501    0  0.00000000000E+00  0.00000000000E+00 -0.11668275823E+04  0.11668275823E+04  0.50400001928E-02 0. -1.
    10030    2    1    2    0    0  0.00000000000E+00  0.00000000000E+00 -0.90760445995E+03  0.14260507046E+04  0.10999430696E+04 0.  0.
        5    1    3    3  502    0 -0.19706371837E+03  0.27912594329E+03  0.10488933221E+03  0.35744826664E+03  0.46999998093E+01 0.  1.
       -5    1    3    3    0  502  0.19706371837E+03 -0.27912594329E+03 -0.10124937922E+04  0.10686024380E+04  0.46999998093E+01 0. -1.
</event>
<event>
 5   0  0.9346836E-05  0.1100423E+04  0.7818609E-02  0.9204779E-01
        1   -1    0    0  501    0  0.00000000000E+00  0.00000000000E+00  0.80649070435E+03  0.80649070436E+03  0.50400001928E-02 0.  1.
       -1   -1    0    0    0  501  0.00000000000E+00  0.00000000000E+00 -0.37537056740E+03  0.37537056744E+03  0.50400001928E-02 0. -1.
    10030    2    1    2    0    0  0.00000000000E+00  0.00000000000E+00  0.43112013694E+03  0.11818612718E+04  0.11004233246E+04 0.  0.
        5    1    3    3  502    0  0.38535146987E+03 -0.13800748226E+03  0.61042194504E+03  0.73496861257E+03  0.46999998093E+01 0.  1.
       -5    1    3    3    0  502 -0.38535146987E+03  0.13800748226E+03 -0.17930180809E+03  0.44689265923E+03  0.46999998093E+01 0. -1.
</event>
<event>
 5   0  0.1503277E-04  0.1099816E+04  0.7818609E-02  0.9205371E-01
       -2   -1    0    0    0  501  0.00000000000E+00  0.00000000000E+00  0.97696173465E+03  0.97696173466E+03  0.25500000920E-02 0.  1.
        2   -1    0    0  501    0  0.00000000000E+00  0.00000000000E+00 -0.30953004877E+03  0.30953004878E+03  0.25500000920E-02 0. -1.
    10030    2    1    2    0    0  0.00000000000E+00  0.00000000000E+00  0.66743168588E+03  0.12864917834E+04  0.10998163726E+04 0.  0.
        5    1    3    3  502    0  0.73558479564E+02  0.50162252286E+03  0.84639780897E+02  0.51402527940E+03  0.46999998093E+01 0. -1.
       -5    1    3    3    0  502 -0.73558479564E+02 -0.50162252286E+03  0.58279190499E+03  0.77246650404E+03  0.46999998093E+01 0.  1.
</event>
<event>
 5   0  0.1503277E-04  0.1099627E+04  0.7818609E-02  0.9205555E-01
        2   -1    0    0  501    0  0.00000000000E+00  0.00000000000E+00  0.87228138345E+03  0.87228138346E+03  0.25500000920E-02 0.  1.
       -2   -1    0    0    0  501  0.00000000000E+00  0.00000000000E+00 -0.34655691924E+03  0.34655691925E+03  0.25500000920E-02 0. -1.
    10030    2    1    2    0    0  0.00000000000E+00  0.00000000000E+00  0.52572446421E+03  0.12188383027E+04  0.10996274805E+04 0.  0.
        5    1    3    3  502    0  0.29204078207E+02  0.24466399748E+03 -0.28190723442E+03  0.37444242370E+03  0.46999998093E+01 0. -1.
       -5    1    3    3    0  502 -0.29204078207E+02 -0.24466399748E+03  0.80763169863E+03  0.84439587901E+03  0.46999998093E+01 0.  1.
</event>
<event>
 5   0  0.1464205E-04  0.1099772E+04  0.7818609E-02  0.9205414E-01
       -2   -1    0    0    0  501  0.00000000000E+00  0.00000000000E+00  0.81369709007E+03  0.81369709008E+03  0.25500000920E-02 0.  1.
        2   -1    0    0  501    0  0.00000000000E+00  0.00000000000E+00 -0.37160569524E+03  0.37160569525E+03  0.25500000920E-02 0. -1.
    10030    2    1    2    0    0  0.00000000000E+00  0.00000000000E+00  0.44209139483E+03  0.11853027853E+04  0.10997717452E+04 0.  0.
        3    1    3    3  502    0 -0.31966465993E+03  0.10269200138E+03  0.69039429316E+03  0.76770790812E+03  0.10100000352E+00 0.  1.
       -3    1    3    3    0  502  0.31966465993E+03 -0.10269200138E+03 -0.24830289833E+03  0.41759487721E+03  0.10100000352E+00 0. -1.
</event>
<event>
 5   0  0.1503277E-04  0.1100082E+04  0.7818609E-02  0.9205112E-01
        2   -1    0    0  501    0  0.00000000000E+00  0.00000000000E+00  0.56787149153E+03  0.56787149154E+03  0.25500000920E-02 0.  1.
       -2   -1    0    0    0  501  0.00000000000E+00  0.00000000000E+00 -0.53277012040E+03  0.53277012041E+03  0.25500000920E-02 0. -1.
    10030    2    1    2    0    0  0.00000000000E+00  0.00000000000E+00  0.35101371132E+02  0.11006416119E+04  0.11000817477E+04 0.  0.
        5    1    3    3  502    0  0.50860210174E+03 -0.89492810530E+02  0.20695580436E+03  0.55636126392E+03  0.46999998093E+01 0.  1.
       -5    1    3    3    0  502 -0.50860210174E+03  0.89492810530E+02 -0.17185443323E+03  0.54428034803E+03  0.46999998093E+01 0. -1.
</event>
<event>
 5   0  0.8621738E-05  0.1098568E+04  0.7818609E-02  0.9206588E-01
        1   -1    0    0  501    0  0.00000000000E+00  0.00000000000E+00  0.55647612189E+03  0.55647612191E+03  0.50400001928E-02 0.  1.
       -1   -1    0    0    0  501  0.00000000000E+00  0.00000000000E+00 -0.54218532131E+03  0.54218532133E+03  0.50400001928E-02 0. -1.
    10030    2    1    2    0    0  0.00000000000E+00  0.00000000000E+00  0.14290800581E+02  0.10986614432E+04  0.10985684958E+04 0.  0.
        2    1    3    3  502    0 -0.19453716008E+02  0.39756079181E+03  0.38570107781E+03  0.55425477145E+03  0.25500000920E-02 0.  1.
       -2    1    3    3    0  502  0.19453716008E+02 -0.39756079181E+03 -0.37141027723E+03  0.54440667179E+03  0.25500000920E-02 0. -1.
</event>
<event>
 5   0  0.1464205E-04  0.1100360E+04  0.7818609E-02  0.9204841E-01
        2   -1    0    0  501    0  0.00000000000E+00  0.00000000000E+00  0.38460295179E+03  0.38460295180E+03  0.25500000920E-02 0. -1.
       -2   -1    0    0    0  501  0.00000000000E+00  0.00000000000E+00 -0.78704033186E+03  0.78704033186E+03  0.25500000920E-02 0.  1.
    10030    2    1    2    0    0  0.00000000000E+00  0.00000000000E+00 -0.40243738007E+03  0.11716432837E+04  0.11003600044E+04 0.  0.
        3    1    3    3  502    0 -0.80586954707E+02  0.15305664324E+03  0.35489659071E+03  0.39480652681E+03  0.10100000352E+00 0. -1.
       -3    1    3    3    0  502  0.80586954707E+02 -0.15305664324E+03 -0.75733397078E+03  0.77683675686E+03  0.10100000352E+00 0.  1.
</event>
<event>
 5   0  0.1540772E-04  0.1099791E+04  0.7818609E-02  0.9205396E-01
       -2   -1    0    0    0  501  0.00000000000E+00  0.00000000000E+00  0.50463897390E+03  0.50463897390E+03  0.25500000920E-02 0.  1.
        2   -1    0    0  501    0  0.00000000000E+00  0.00000000000E+00 -0.59921065829E+03  0.59921065829E+03  0.25500000920E-02 0. -1.
    10030    2    1    2    0    0  0.00000000000E+00  0.00000000000E+00 -0.94571684391E+02  0.11038496322E+04  0.10997909833E+04 0.  0.
        2    1    3    3  502    0 -0.43731051930E+03  0.22840581409E+03  0.19645876153E+03  0.53104213692E+03  0.25500000920E-02 0.  1.
       -2    1    3    3    0  502  0.43731051930E+03 -0.22840581409E+03 -0.29103044592E+03  0.57280749528E+03  0.25500000920E-02 0. -1.
</event>
<event>
 5   0  0.1464205E-04  0.1099925E+04  0.7818609E-02  0.9205265E-01
       -2   -1    0    0    0  501  0.00000000000E+00  0.00000000000E+00  0.41385631545E+03  0.41385631545E+03  0.25500000920E-02 0.  1.
        2   -1    0    0  501    0  0.00000000000E+00  0.00000000000E+00 -0.73083075880E+03  0.73083075881E+03  0.25500000920E-02 0. -1.
    10030    2    1    2    0    0  0.00000000000E+00  0.00000000000E+00 -0.31697444336E+03  0.11446870743E+04  0.10999253158E+04 0.  0.
        3    1    3    3  502    0 -0.21336131808E+03  0.50687469854E+03 -0.15460684006E+03  0.57126902355E+03  0.10100000352E+00 0.  1.
       -3    1    3    3    0  502  0.21336131808E+03 -0.50687469854E+03 -0.16236760330E+03  0.57341805071E+03  0.10100000352E+00 0. -1.
</event>
<event>
 5   0  0.6010125E-05  0.1093475E+04  0.7818609E-02  0.9211575E-01
        4   -1    0    0  501    0  0.00000000000E+00  0.00000000000E+00  0.34267672915E+03  0.34267908252E+03  0.12699999809E+01 0. -1.
       -4   -1    0    0    0  501  0.00000000000E+00  0.00000000000E+00 -0.87230835904E+03  0.87230928354E+03  0.12699999809E+01 0.  1.
    10030    2    1    2    0    0  0.00000000000E+00  0.00000000000E+00 -0.52963162989E+03  0.12149883661E+04  0.10934747671E+04 0.  0.
        3    1    3    3  502    0 -0.43067632140E+03 -0.15516575927E+03 -0.59697237220E+03  0.75228620221E+03  0.10100000352E+00 0.  1.
       -3    1    3    3    0  502  0.43067632140E+03  0.15516575927E+03  0.67340742303E+02  0.46270216386E+03  0.10100000352E+00 0. -1.
</event>
<event>
 5   0  0.1540772E-04  0.1099985E+04  0.7818609E-02  0.9205206E-01
       -2   -1    0    0    0  501  0.00000000000E+00  0.00000000000E+00  0.12801005186E+04  0.12801005186E+04  0.25500000920E-02 0. -1.
        2   -1    0    0  501    0  0.00000000000E+00  0.00000000000E+00 -0.23630316086E+03  0.23630316088E+03  0.25500000920E-02 0.  1.
    10030    2    1    2    0    0  0.00000000000E+00  0.00000000000E+00  0.10437973578E+04  0.15164036795E+04  0.10999850886E+04 0.  0.
        2    1    3    3  502    0  0.49724682955E+03 -0.91033127518E+01  0.84565524290E+03  0.98105558948E+03  0.25500000920E-02 0. -1.
       -2    1    3    3    0  502 -0.49724682955E+03  0.91033127518E+01  0.19814211486E+03  0.53534809002E+03  0.25500000920E-02 0.  1.
</event>
<event>
 5   0  0.8621738E-05  0.1100088E+04  0.7818609E-02  0.9205106E-01
        1   -1    0    0  501    0  0.00000000000E+00  0.00000000000E+00  0.18113717883E+03  0.18113717890E+03  0.50400001928E-02 0.  1.
       -1   -1    0    0    0  501  0.00000000000E+00  0.00000000000E+00 -0.16702732502E+04  0.16702732502E+04  0.50400001928E-02 0. -1.
    10030    2    1    2    0    0  0.00000000000E+00  0.00000000000E+00 -0.14891360713E+04  0.18514104291E+04  0.11000883319E+04 0.  0.
        2    1    3    3  502    0 -0.45417443065E+03  0.30320355277E+03 -0.85546224899E+03  0.10149002253E+04  0.25500000920E-02 0. -1.
       -2    1    3    3    0  502  0.45417443065E+03 -0.30320355277E+03 -0.63367382235E+03  0.83651020377E+03  0.25500000920E-02 0.  1.
</event>
<event>
 5   0  0.8621738E-05  0.1100051E+04  0.7818609E-02  0.9205143E-01
        1   -1    0    0  501    0  0.00000000000E+00  0.00000000000E+00  0.40135786831E+03  0.40135786834E+03  0.50400001928E-02 0. -1.
       -1   -1    0    0    0  501  0.00000000000E+00  0.00000000000E+00 -0.75376081950E+03  0.75376081951E+03  0.50400001928E-02 0.  1.
    10030    2    1    2    0    0  0.00000000000E+00  0.00000000000E+00 -0.35240295119E+03  0.11551186879E+04  0.11000506093E+04 0.  0.
        2    1    3    3  502    0  0.39802625210E+02  0.25372602902E+03 -0.68693073594E+03  0.73337233570E+03  0.25500000920E-02 0.  1.
       -2    1    3    3    0  502 -0.39802625210E+02 -0.25372602902E+03  0.33452778475E+03  0.42174635215E+03  0.25500000920E-02 0. -1.
</event>
<event>
 5   0  0.1574101E-04  0.1093825E+04  0.7818609E-02  0.9211232E-01
        2   -1    0    0  501    0  0.00000000000E+00  0.00000000000E+00  0.10913753953E+04  0.10913753953E+04  0.25500000920E-02 0.  1.
       -2   -1    0    0    0  501  0.00000000000E+00  0.00000000000E+00 -0.27406995146E+03  0.27406995147E+03  0.25500000920E-02 0. -1.
    10030    2    1    2    0    0  0.00000000000E+00  0.00000000000E+00  0.81730544387E+03  0.13654453468E+04  0.10938248518E+04 0.  0.
        4    1    3    3  502    0  0.11144672134E+02  0.41333752749E+03 -0.38203699076E+02  0.41525082886E+03  0.12699999809E+01 0. -1.
       -4    1    3    3    0  502 -0.11144672134E+02 -0.41333752749E+03  0.85550914294E+03  0.95019451793E+03  0.12699999809E+01 0.  1.
</event>
<event>
 5   0  0.8921459E-05  0.1106249E+04  0.7818609E-02  0.9199123E-01
       -1   -1    0    0    0  501  0.00000000000E+00  0.00000000000E+00  0.68894269037E+03  0.68894269039E+03  0.50400001928E-02 0.  1.
        1   -1    0    0  501    0  0.00000000000E+00  0.00000000000E+00 -0.44408140688E+03  0.44408140690E+03  0.50400001928E-02 0. -1.
    10030    2    1    2    0    0  0.00000000000E+00  0.00000000000E+00  0.24486128350E+03  0.11330240973E+04  0.11062488675E+04 0.  0.
        3    1    3    3  502    0 -0.68354925800E+02 -0.57827710608E+01  0.68456897074E+03  0.68799747254E+03  0.10100000352E+00 0.  1.
       -3    1    3    3    0  502  0.68354925800E+02  0.57827710608E+01 -0.43970768724E+03  0.44502662476E+03  0.10100000352E+00 0. -1.
</event>
<event>
 5   0  0.6010125E-05  0.1100298E+04  0.7818609E-02  0.9204901E-01
        4   -1    0    0  501    0  0.00000000000E+00  0.00000000000E+00  0.89838120430E+03  0.89838210197E+03  0.12699999809E+01 0. -1.
       -4   -1    0    0    0  501  0.00000000000E+00  0.00000000000E+00 -0.33689702392E+03  0.33689941767E+03  0.12699999809E+01 0.  1.
    10030    2    1    2    0    0  0.00000000000E+00  0.00000000000E+00  0.56148418038E+03  0.12352815196E+04  0.11002981178E+04 0.  0.
        4    1    3    3  502    0  0.41962507776E+03 -0.19166633301E+03 -0.55764295499E+02  0.46468533293E+03  0.12699999809E+01 0.  1.
       -4    1    3    3    0  502 -0.41962507776E+03  0.19166633301E+03  0.61724847588E+03  0.77059618671E+03  0.12699999809E+01 0. -1.
</event>
<event>
 5   0  0.1464205E-04  0.1098490E+04  0.7818609E-02  0.9206664E-01
        2   -1    0    0  501    0  0.00000000000E+00  0.00000000000E+00  0.35769248759E+03  0.35769248760E+03  0.25500000920E-02 0. -1.
       -2   -1    0    0    0  501  0.00000000000E+00  0.00000000000E+00 -0.84337886350E+03  0.84337886351E+03  0.25500000920E-02 0.  1.
    10030    2    1    2    0    0  0.00000000000E+00  0.00000000000E+00 -0.48568637591E+03  0.12010713511E+04  0.10984903890E+04 0.  0.
        3    1    3    3  502    0 -0.23221541753E+03 -0.48213724416E+03 -0.37804284661E+03  0.65520739192E+03  0.10100000352E+00 0. -1.
       -3    1    3    3    0  502  0.23221541753E+03  0.48213724416E+03 -0.10764352930E+03  0.54586395919E+03  0.10100000352E+00 0.  1.
</event>
<event>
 5   0  0.1464205E-04  0.1100478E+04  0.7818609E-02  0.9204726E-01
       -2   -1    0    0    0  501  0.00000000000E+00  0.00000000000E+00  0.77708128637E+03  0.77708128638E+03  0.25500000920E-02 0. -1.
        2   -1    0    0  501    0  0.00000000000E+00  0.00000000000E+00 -0.38961539906E+03  0.38961539907E+03  0.25500000920E-02 0.  1.
    10030    2    1    2    0    0  0.00000000000E+00  0.00000000000E+00  0.38746588731E+03  0.11666966854E+04  0.11004777790E+04 0.  0.
        3    1    3    3  502    0  0.10795537943E+03  0.49887255884E+03  0.41160976994E+03  0.65570634191E+03  0.10100000352E+00 0.  1.
       -3    1    3    3    0  502 -0.10795537943E+03 -0.49887255884E+03 -0.24143882628E+02  0.51099034353E+03  0.10100000352E+00 0. -1.
</event>
<event>
 5   0  0.1574101E-04  0.1099852E+04  0.7818609E-02  0.9205336E-01
        2   -1    0    0  501    0  0.00000000000E+00  0.00000000000E+00  0.59953087232E+03  0.59953087232E+03  0.25500000920E-02 0. -1.
       -2   -1    0    0    0  501  0.00000000000E+00  0.00000000000E+00 -0.50442519751E+03  0.50442519752E+03  0.25500000920E-02 0.  1.
    10030    2    1    2    0    0  0.00000000000E+00  0.00000000000E+00  0.95105674808E+02  0.11039560698E+04  0.10998517694E+04 0.  0.
        4    1    3    3  502    0 -0.15729101094E+03  0.13557007419E+03  0.55866534962E+03  0.59601031275E+03  0.12699999809E+01 0. -1.
       -4    1    3    3    0  502  0.15729101094E+03 -0.13557007419E+03 -0.46355967481E+03  0.50794575709E+03  0.12699999809E+01 0.  1.
</event>
<event>
 5   0  0.8657442E-05  0.1099648E+04  0.7818609E-02  0.9205535E-01
        1   -1    0    0  501    0  0.00000000000E+00  0.00000000000E+00  0.46008845798E+03  0.46008845801E+03  0.50400001928E-02 0.  1.
       -1   -1    0    0    0  501  0.00000000000E+00  0.00000000000E+00 -0.65706109238E+03  0.65706109240E+03  0.50400001928E-02 0. -1.
    10030    2    1    2    0    0  0.00000000000E+00  0.00000000000E+00 -0.19697263440E+03  0.11171495504E+04  0.10996476250E+04 0.  0.
        1    1    3    3  502    0  0.12457893428E+03  0.52168520711E+03  0.24396930576E+02  0.53690835012E+03  0.50400001928E-02 0. -1.
       -1    1    3    3    0  502 -0.12457893428E+03 -0.52168520711E+03 -0.22136956497E+03  0.58024120028E+03  0.50400001928E-02 0.  1.
</event>
<event>
 5   0  0.1574101E-04  0.1100537E+04  0.7818609E-02  0.9204669E-01
       -2   -1    0    0    0  501  0.00000000000E+00  0.00000000000E+00  0.30016261617E+03  0.30016261618E+03  0.25500000920E-02 0. -1.
        2   -1    0    0  501    0  0.00000000000E+00  0.00000000000E+00 -0.10087711237E+04  0.10087711237E+04  0.25500000920E-02 0.  1.
    10030    2    1    2    0    0  0.00000000000E+00  0.00000000000E+00 -0.70860850749E+03  0.13089337398E+04  0.11005369228E+04 0.  0.
        4    1    3    3  502    0 -0.32423692694E+03  0.32602488857E+03 -0.71382131155E+03  0.84909616092E+03  0.12699999809E+01 0.  1.
       -4    1    3    3    0  502  0.32423692694E+03 -0.32602488857E+03  0.52128040627E+01  0.45983757892E+03  0.12699999809E+01 0. -1.
</event>
<event>
 5   0  0.8657442E-05  0.1100973E+04  0.7818609E-02  0.9204244E-01
        1   -1    0    0  501    0  0.00000000000E+00  0.00000000000E+00  0.49198042722E+03  0.49198042725E+03  0.50400001928E-02 0. -1.
       -1   -1    0    0    0  501  0.00000000000E+00  0.00000000000E+00 -0.61595011807E+03  0.61595011809E+03  0.50400001928E-02 0.  1.
    10030    2    1    2    0    0  0.00000000000E+00  0.00000000000E+00 -0.12396969085E+03  0.11079305453E+04  0.11009730283E+04 0.  0.
        1    1    3    3  502    0  0.13779421798E+03 -0.36984917295E+03  0.32418457312E+03  0.51075561153E+03  0.50400001928E-02 0. -1.
       -1    1    3    3    0  502 -0.13779421798E+03  0.36984917295E+03 -0.44815426397E+03  0.59717493381E+03  0.50400001928E-02 0.  1.
</event>
<event>
 5   0  0.1464205E-04  0.1099838E+04  0.7818609E-02  0.9205350E-01
       -2   -1    0    0    0  501  0.00000000000E+00  0.00000000000E+00  0.28116676218E+03  0.28116676219E+03  0.25500000920E-02 0.  1.
        2   -1    0    0  501    0  0.00000000000E+00  0.00000000000E+00 -0.10755566466E+04  0.10755566466E+04  0.25500000920E-02 0. -1.
    10030    2    1    2    0    0  0.00000000000E+00  0.00000000000E+00 -0.79438988443E+03  0.13567234088E+04  0.10998377696E+04 0.  0.
        3    1    3    3  502    0  0.39039673732E+03 -0.53992997900E+02 -0.87028980198E+03  0.95536862308E+03  0.10100000352E+00 0. -1.
       -3    1    3    3    0  502 -0.39039673732E+03  0.53992997900E+02  0.75899917550E+02  0.40135478572E+03  0.10100000352E+00 0.  1.
</event>
<event>
 5   0  0.1464205E-04  0.1099548E+04  0.7818609E-02  0.9205633E-01
        2   -1    0    0  501    0  0.00000000000E+00  0.00000000000E+00  0.65413075608E+03  0.65413075609E+03  0.25500000920E-02 0.  1.
       -2   -1    0    0    0  501  0.00000000000E+00  0.00000000000E+00 -0.46206571317E+03  0.46206571318E+03  0.25500000920E-02 0. -1.
    10030    2    1    2    0    0  0.00000000000E+00  0.00000000000E+00  0.19206504291E+03  0.11161964693E+04  0.10995478968E+04 0.  0.
        3    1    3    3  502    0 -0.48778313783E+03 -0.10831731887E+03 -0.13675678074E+03  0.51804194656E+03  0.10100000352E+00 0. -1.
       -3    1    3    3    0  502  0.48778313783E+03  0.10831731887E+03  0.32882182366E+03  0.59815452270E+03  0.10100000352E+00 0.  1.
</event>
<event>
 5   0  0.9016738E-05  0.1101146E+04  0.7818609E-02  0.9204076E-01
       -1   -1    0    0    0  501  0.00000000000E+00  0.00000000000E+00  0.28664622607E+03  0.28664622611E+03  0.50400001928E-02 0. -1.
        1   -1    0    0  501    0  0.00000000000E+00  0.00000000000E+00 -0.10575079356E+04  0.10575079356E+04  0.50400001928E-02 0.  1.
    10030    2    1    2    0    0  0.00000000000E+00  0.00000000000E+00 -0.77086170953E+03  0.13441541617E+04  0.11011460554E+04 0.  0.
        4    1    3    3  502    0  0.53487284906E+03 -0.50631942917E+02 -0.23855995510E+03  0.58784778929E+03  0.12699999809E+01 0. -1.
       -4    1    3    3    0  502 -0.53487284906E+03  0.50631942917E+02 -0.53230175443E+03  0.75630637242E+03  0.12699999809E+01 0.  1.
</event>
<event>
 5   0  0.8657442E-05  0.1100525E+04  0.7818609E-02  0.9204680E-01
        1   -1    0    0  501    0  0.00000000000E+00  0.00000000000E+00  0.55124964047E+03  0.55124964049E+03  0.50400001928E-02 0. -1.
       -1   -1    0    0    0  501  0.00000000000E+00  0.00000000000E+00 -0.54927702204E+03  0.54927702206E+03  0.50400001928E-02 0.  1.
    10030    2    1    2    0    0  0.00000000000E+00  0.00000000000E+00  0.19726184265E+01  0.11005266626E+04  0.11005248947E+04 0.  0.
        1    1    3    3  502    0 -0.67906417008E+02  0.89887852154E+02  0.53959431650E+03  0.55122874912E+03  0.50400001928E-02 0. -1.
       -1    1    3    3    0  502  0.67906417008E+02 -0.89887852154E+02 -0.53762169807E+03  0.54929791343E+03  0.50400001928E-02 0.  1.
</event>
<event>
 5   0  0.1553937E-04  0.1099869E+04  0.7818609E-02  0.9205320E-01
        2   -1    0    0  501    0  0.00000000000E+00  0.00000000000E+00  0.11612295203E+04  0.11612295203E+04  0.25500000920E-02 0. -1.
       -2   -1    0    0    0  501  0.00000000000E+00  0.00000000000E+00 -0.26043770263E+03  0.26043770264E+03  0.25500000920E-02 0.  1.
    10030    2    1    2    0    0  0.00000000000E+00  0.00000000000E+00  0.90079181771E+03  0.14216672230E+04  0.10998689895E+04 0.  0.
        1    1    3    3  502    0  0.45402799495E+02  0.35123528802E+03 -0.93410100923E+02  0.36626914794E+03  0.50400001928E-02 0.  1.
       -1    1    3    3    0  502 -0.45402799495E+02 -0.35123528802E+03  0.99420191863E+03  0.10553980750E+04  0.50400001928E-02 0. -1.
</event>
<event>
 5   0  0.8621738E-05  0.1099865E+04  0.7818609E-02  0.9205324E-01
       -1   -1    0    0    0  501  0.00000000000E+00  0.00000000000E+00  0.13134748479E+03  0.13134748488E+03  0.50400001928E-02 0. -1.
        1   -1    0    0  501    0  0.00000000000E+00  0.00000000000E+00 -0.23024849946E+04  0.23024849946E+04  0.50400001928E-02 0.  1.
    10030    2    1    2    0    0  0.00000000000E+00  0.00000000000E+00 -0.21711375098E+04  0.24338324795E+04  0.10998647424E+04 0.  0.
        2    1    3    3  502    0  0.12941013025E+03  0.38349806481E+02  0.94125577078E+02  0.16455185728E+03  0.25500000920E-02 0. -1.
       -2    1    3    3    0  502 -0.12941013025E+03 -0.38349806481E+02 -0.22652630869E+04  0.22692806222E+04  0.25500000920E-02 0.  1.
</event>
<event>
 5   0  0.1503277E-04  0.1100819E+04  0.7818609E-02  0.9204394E-01
        2   -1    0    0  501    0  0.00000000000E+00  0.00000000000E+00  0.93083605843E+03  0.93083605844E+03  0.25500000920E-02 0.  1.
       -2   -1    0    0    0  501  0.00000000000E+00  0.00000000000E+00 -0.32546052120E+03  0.32546052121E+03  0.25500000920E-02 0. -1.
    10030    2    1    2    0    0  0.00000000000E+00  0.00000000000E+00  0.60537553723E+03  0.12562965796E+04  0.11008185840E+04 0.  0.
        5    1    3    3  502    0  0.40889983048E+02  0.47506224524E+03  0.61641872576E+03  0.77932680117E+03  0.46999998093E+01 0.  1.
       -5    1    3    3    0  502 -0.40889983048E+02 -0.47506224524E+03 -0.11043188523E+02  0.47696977847E+03  0.46999998093E+01 0. -1.
</event>
<event>
 5   0  0.8621738E-05  0.1100396E+04  0.7818609E-02  0.9204806E-01
        1   -1    0    0  501    0  0.00000000000E+00  0.00000000000E+00  0.61463297342E+03  0.61463297344E+03  0.50400001928E-02 0.  1.
       -1   -1    0    0    0  501  0.00000000000E+00  0.00000000000E+00 -0.49251828001E+03  0.49251828003E+03  0.50400001928E-02 0. -1.
    10030    2    1    2    0    0  0.00000000000E+00  0.00000000000E+00  0.12211469341E+03  0.11071512535E+04  0.11003962467E+04 0.  0.
        2    1    3    3  502    0  0.40202562760E+03  0.13024905527E+03 -0.29342425758E+03  0.51447761525E+03  0.25500000920E-02 0. -1.
       -2    1    3    3    0  502 -0.40202562760E+03 -0.13024905527E+03  0.41553895099E+03  0.59267363822E+03  0.25500000920E-02 0.  1.
</event>
<event>
 5   0  0.9346836E-05  0.1098545E+04  0.7818609E-02  0.9206611E-01
        1   -1    0    0  501    0  0.00000000000E+00  0.00000000000E+00  0.11082098610E+04  0.11082098610E+04  0.50400001928E-02 0.  1.
       -1   -1    0    0    0  501  0.00000000000E+00  0.00000000000E+00 -0.27224117887E+03  0.27224117892E+03  0.50400001928E-02 0. -1.
    10030    2    1    2    0    0  0.00000000000E+00  0.00000000000E+00  0.83596868216E+03  0.13804510400E+04  0.10985451453E+04 0.  0.
        5    1    3    3  502    0 -0.52044245213E+03  0.16956649462E+03  0.36087903301E+03  0.65564388851E+03  0.46999998093E+01 0.  1.
       -5    1    3    3    0  502  0.52044245213E+03 -0.16956649462E+03  0.47508964915E+03  0.72480715146E+03  0.46999998093E+01 0. -1.
</event>
<event>
 5   0  0.8657442E-05  0.1099705E+04  0.7818609E-02  0.9205479E-01
       -1   -1    0    0    0  501  0.00000000000E+00  0.00000000000E+00  0.27459848050E+03  0.27459848055E+03  0.50400001928E-02 0.  1.
        1   -1    0    0  501    0  0.00000000000E+00  0.00000000000E+00 -0.11010183532E+04  0.11010183532E+04  0.50400001928E-02 0. -1.
    10030    2    1    2    0    0  0.00000000000E+00  0.00000000000E+00 -0.82641987269E+03  0.13756168338E+04  0.10997053548E+04 0.  0.
        1    1    3    3  502    0 -0.40705155417E+03 -0.36609115273E+03 -0.34912954619E+03  0.64931128121E+03  0.50400001928E-02 0.  1.
       -1    1    3    3    0  502  0.40705155417E+03  0.36609115273E+03 -0.47729032650E+03  0.72630555254E+03  0.50400001928E-02 0. -1.
</event>
<event>
 5   0  0.1503277E-04  0.1100955E+04  0.7818609E-02  0.9204262E-01
       -2   -1    0    0    0  501  0.00000000000E+00  0.00000000000E+00  0.40548326624E+03  0.40548326624E+03  0.25500000920E-02 0. -1.
        2   -1    0    0  501    0  0.00000000000E+00  0.00000000000E+00 -0.74731901398E+03  0.74731901399E+03  0.25500000920E-02 0.  1.
    10030    2    1    2    0    0  0.00000000000E+00  0.00000000000E+00 -0.34183574775E+03  0.11528022802E+04  0.11009547760E+04 0.  0.
        5    1    3    3  502    0 -0.44213303430E+03  0.73657690449E+02  0.16365452741E+03  0.47719175362E+03  0.46999998093E+01 0. -1.
       -5    1    3    3    0  502  0.44213303430E+03 -0.73657690449E+02 -0.50549027516E+03  0.67561052661E+03  0.46999998093E+01 0.  1.
</event>
<event>
 5   0  0.8621738E-05  0.1099970E+04  0.7818609E-02  0.9205221E-01
        1   -1    0    0  501    0  0.00000000000E+00  0.00000000000E+00  0.73979265737E+03  0.73979265739E+03  0.50400001928E-02 0. -1.
       -1   -1    0    0    0  501  0.00000000000E+00  0.00000000000E+00 -0.40887587782E+03  0.40887587785E+03  0.50400001928E-02 0.  1.
    10030    2    1    2    0    0  0.00000000000E+00  0.00000000000E+00  0.33091677955E+03  0.11486685352E+04  0.10999697672E+04 0.  0.
        2    1    3    3  502    0 -0.24353282437E+03  0.47851115645E+03  0.41009243127E+02  0.53848205302E+03  0.25500000920E-02 0. -1.
       -2    1    3    3    0  502  0.24353282437E+03 -0.47851115645E+03  0.28990753642E+03  0.61018648222E+03  0.25500000920E-02 0.  1.
</event>
<event>
 5   0  0.8921459E-05  0.1099117E+04  0.7818609E-02  0.9206053E-01
        1   -1    0    0  501    0  0.00000000000E+00  0.00000000000E+00  0.13537624741E+04  0.13537624741E+04  0.50400001928E-02 0. -1.
       -1   -1    0    0    0  501  0.00000000000E+00  0.00000000000E+00 -0.22309260213E+03  0.22309260219E+03  0.50400001928E-02 0.  1.
    10030    2    1    2    0    0  0.00000000000E+00  0.00000000000E+00  0.11306698720E+04  0.15768550763E+04  0.10991167237E+04 0.  0.
        3    1    3    3  502    0  0.44063468974E+03 -0.13265362448E+03  0.99634950058E+03  0.10974826884E+04  0.10100000352E+00 0. -1.
       -3    1    3    3    0  502 -0.44063468974E+03  0.13265362448E+03  0.13432037141E+03  0.47937238789E+03  0.10100000352E+00 0.  1.
</event>
<event>
 5   0  0.1464205E-04  0.1100185E+04  0.7818609E-02  0.9205012E-01
        2   -1    0    0  501    0  0.00000000000E+00  0.00000000000E+00  0.37124976991E+03  0.37124976992E+03  0.25500000920E-02 0.  1.
       -2   -1    0    0    0  501  0.00000000000E+00  0.00000000000E+00 -0.81508940218E+03  0.81508940218E+03  0.25500000920E-02 0. -1.
    10030    2    1    2    0    0  0.00000000000E+00  0.00000000000E+00 -0.44383963227E+03  0.11863391721E+04  0.11001849899E+04 0.  0.
        3    1    3    3  502    0  0.29425488744E+03 -0.59653935477E+01 -0.72304951675E+03  0.78065494207E+03  0.10100000352E+00 0. -1.
       -3    1    3    3    0  502 -0.29425488744E+03  0.59653935477E+01  0.27920988448E+03  0.40568423003E+03  0.10100000352E+00 0.  1.
</event>
<event>
 5   0  0.1503277E-04  0.1099794E+04  0.7818609E-02  0.9205393E-01
        2   -1    0    0  501    0  0.00000000000E+00  0.00000000000E+00  0.24925743793E+03  0.24925743794E+03  0.25500000920E-02 0. -1.
       -2   -1    0    0    0  501  0.00000000000E+00  0.00000000000E+00 -0.12131495487E+04  0.12131495487E+04  0.25500000920E-02 0.  1.
    10030    2    1    2    0    0  0.00000000000E+00  0.00000000000E+00 -0.96389211075E+03  0.14624069866E+04  0.10997937049E+04 0.  0.
        5    1    3    3  502    0 -0.42402175072E+03 -0.11302444126E+03 -0.41341206535E+02  0.44079491236E+03  0.46999998093E+01 0. -1.
       -5    1    3    3    0  502  0.42402175072E+03  0.11302444126E+03 -0.92255090422E+03  0.10216120743E+04  0.46999998093E+01 0.  1.
</event>
<event>
 5   0  0.1553937E-04  0.1100139E+04  0.7818609E-02  0.9205057E-01
       -2   -1    0    0    0  501  0.00000000000E+00  0.00000000000E+00  0.30777021870E+03  0.30777021872E+03  0.25500000920E-02 0. -1.
        2   -1    0    0  501    0  0.00000000000E+00  0.00000000000E+00 -0.98312414391E+03  0.98312414392E+03  0.25500000920E-02 0.  1.
    10030    2    1    2    0    0  0.00000000000E+00  0.00000000000E+00 -0.67535392521E+03  0.12908943626E+04  0.11001387781E+04 0.  0.
        1    1    3    3  502    0  0.26625336638E+03  0.16997669137E+03  0.19073195898E+03  0.36900082781E+03  0.50400001928E-02 0. -1.
       -1    1    3    3    0  502 -0.26625336638E+03 -0.16997669137E+03 -0.86608588419E+03  0.92189353482E+03  0.50400001928E-02 0.  1.
</event>
<event>
 5   0  0.9016738E-05  0.1099891E+04  0.7818609E-02  0.9205298E-01
       -1   -1    0    0    0  501  0.00000000000E+00  0.00000000000E+00  0.37805308169E+03  0.37805308172E+03  0.50400001928E-02 0. -1.
        1   -1    0    0  501    0  0.00000000000E+00  0.00000000000E+00 -0.79999311203E+03  0.79999311205E+03  0.50400001928E-02 0.  1.
    10030    2    1    2    0    0  0.00000000000E+00  0.00000000000E+00 -0.42194003035E+03  0.11780461938E+04  0.10998906516E+04 0.  0.
        4    1    3    3  502    0  0.35296951933E+03  0.33637772827E+03  0.61467935045E+02  0.49144417546E+03  0.12699999809E+01 0. -1.
       -4    1    3    3    0  502 -0.35296951933E+03 -0.33637772827E+03 -0.48340796539E+03  0.68660201832E+03  0.12699999809E+01 0.  1.
</event>
<event>
 5   0  0.8921459E-05  0.1099787E+04  0.7818609E-02  0.9205399E-01
        1   -1    0    0  501    0  0.00000000000E+00  0.00000000000E+00  0.10452429841E+04  0.10452429841E+04  0.50400001928E-02 0.  1.
       -1   -1    0    0    0  501  0.00000000000E+00  0.00000000000E+00 -0.28929445128E+03  0.28929445133E+03  0.50400001928E-02 0. -1.
    10030    2    1    2    0    0  0.00000000000E+00  0.00000000000E+00  0.75594853278E+03  0.13345374354E+04  0.10997872441E+04 0.  0.
        3    1    3    3  502    0 -0.22835260513E+03  0.34468524794E+03 -0.61941562863E+02  0.41807846133E+03  0.10100000352E+00 0. -1.
       -3    1    3    3    0  502  0.22835260513E+03 -0.34468524794E+03  0.81789009564E+03  0.91645897407E+03  0.10100000352E+00 0.  1.
</event>
<event>
 5   0  0.8657442E-05  0.1099745E+04  0.7818609E-02  0.9205440E-01
       -1   -1    0    0    0  501  0.00000000000E+00  0.00000000000E+00  0.32240395865E+03  0.32240395869E+03  0.50400001928E-02 0. -1.
        1   -1    0    0  501    0  0.00000000000E+00  0.00000000000E+00 -0.93782897464E+03  0.93782897465E+03  0.50400001928E-02 0.  1.
    10030    2    1    2    0    0  0.00000000000E+00  0.00000000000E+00 -0.61542501599E+03  0.12602329333E+04  0.10997450141E+04 0.  0.
        1    1    3    3  502    0 -0.40951640802E+03  0.21342994905E+03 -0.64977605555E+03  0.79716055721E+03  0.50400001928E-02 0.  1.
       -1    1    3    3    0  502  0.40951640802E+03 -0.21342994905E+03  0.34351039552E+02  0.46307237613E+03  0.50400001928E-02 0. -1.
</event>
<event>
 5   0  0.1540772E-04  0.1099730E+04  0.7818609E-02  0.9205455E-01
       -2   -1    0    0    0  501  0.00000000000E+00  0.00000000000E+00  0.34162192145E+03  0.34162192146E+03  0.25500000920E-02 0.  1.
        2   -1    0    0  501    0  0.00000000000E+00  0.00000000000E+00 -0.88504753529E+03  0.88504753530E+03  0.25500000920E-02 0. -1.
    10030    2    1    2    0    0  0.00000000000E+00  0.00000000000E+00 -0.54342561384E+03  0.12266694568E+04  0.10997302207E+04 0.  0.
        2    1    3    3  502    0  0.41486393263E+03  0.81553538960E+02  0.12041763468E+03  0.43961741215E+03  0.25500000920E-02 0.  1.
       -2    1    3    3    0  502 -0.41486393263E+03 -0.81553538960E+02 -0.66384324852E+03  0.78705204461E+03  0.25500000920E-02 0. -1.
</event>
<event>
 5   0  0.8657442E-05  0.1100071E+04  0.7818609E-02  0.9205122E-01
       -1   -1    0    0    0  501  0.00000000000E+00  0.00000000000E+00  0.20616070557E+03  0.20616070563E+03  0.50400001928E-02 0.  1.
        1   -1    0    0  501    0  0.00000000000E+00  0.00000000000E+00 -0.14674926166E+04  0.14674926166E+04  0.50400001928E-02 0. -1.
    10030    2    1    2    0    0  0.00000000000E+00  0.00000000000E+00 -0.12613319111E+04  0.16736533223E+04  0.11000714764E+04 0.  0.
        1    1    3    3  502    0  0.16671239627E+03  0.47814683675E+03 -0.95740283770E+03  0.10830686101E+04  0.50400001928E-02 0. -1.
       -1    1    3    3    0  502 -0.16671239627E+03 -0.47814683675E+03 -0.30392907336E+03  0.59058471215E+03  0.50400001928E-02 0.  1.
</event>
<event>
 5   0  0.6010125E-05  0.1100435E+04  0.7818609E-02  0.9204768E-01
       -4   -1    0    0    0  501  0.00000000000E+00  0.00000000000E+00  0.43220745700E+03  0.43220932288E+03  0.12699999809E+01 0.  1.
        4   -1    0    0  501    0  0.00000000000E+00  0.00000000000E+00 -0.70044466950E+03  0.70044582084E+03  0.12699999809E+01 0. -1.
    10030    2    1    2    0    0  0.00000000000E+00  0.00000000000E+00 -0.26823721250E+03  0.11326551437E+04  0.11004346743E+04 0.  0.
        2    1    3    3  502    0  0.19339180051E+03  0.23175944245E+03 -0.60761671082E+03  0.67846215440E+03  0.25500000920E-02 0. -1.
       -2    1    3    3    0  502 -0.19339180051E+03 -0.23175944245E+03  0.33937949832E+03  0.45419298933E+03  0.25500000920E-02 0.  1.
</event>
<event>
 5   0  0.9016738E-05  0.1100512E+04  0.7818609E-02  0.9204693E-01
       -1   -1    0    0    0  501  0.00000000000E+00  0.00000000000E+00  0.21655998041E+03  0.21655998047E+03  0.50400001928E-02 0.  1.
        1   -1    0    0  501    0  0.00000000000E+00  0.00000000000E+00 -0.13981415127E+04  0.13981415127E+04  0.50400001928E-02 0. -1.
    10030    2    1    2    0    0  0.00000000000E+00  0.00000000000E+00 -0.11815815323E+04  0.16147014932E+04  0.11005116967E+04 0.  0.
        4    1    3    3  502    0  0.32852034946E+03 -0.29868340160E+03 -0.10676793229E+04  0.11563209519E+04  0.12699999809E+01 0. -1.
       -4    1    3    3    0  502 -0.32852034946E+03  0.29868340160E+03 -0.11390220938E+03  0.45838054125E+03  0.12699999809E+01 0.  1.
</event>
<event>
 5   0  0.1553937E-04  0.1099732E+04  0.7818609E-02  0.9205453E-01
        2   -1    0    0  501    0  0.00000000000E+00  0.00000000000E+00  0.18326941979E+04  0.18326941979E+04  0.25500000920E-02 0. -1.
       -2   -1    0    0    0  501  0.00000000000E+00  0.00000000000E+00 -0.16497706861E+03  0.16497706863E+03  0.25500000920E-02 0.  1.
    10030    2    1    2    0    0  0.00000000000E+00  0.00000000000E+00  0.16677171293E+04  0.19976712666E+04  0.10997318154E+04 0.  0.
        1    1    3    3  502    0  0.27278877083E+03  0.19957001343E+03  0.46007942126E+02  0.34111381461E+03  0.50400001928E-02 0.  1.
       -1    1    3    3    0  502 -0.27278877083E+03 -0.19957001343E+03  0.16217091872E+04  0.16565574520E+04  0.50400001928E-02 0. -1.
</event>
<event>
 5   0  0.1464205E-04  0.1099883E+04  0.7818609E-02  0.9205306E-01
       -2   -1    0    0    0  501  0.00000000000E+00  0.00000000000E+00  0.47367170569E+03  0.47367170569E+03  0.25500000920E-02 0.  1.
        2   -1    0    0  501    0  0.00000000000E+00  0.00000000000E+00 -0.63849200411E+03  0.63849200411E+03  0.25500000920E-02 0. -1.
    10030    2    1    2    0    0  0.00000000000E+00  0.00000000000E+00 -0.16482029842E+03  0.11121637098E+04  0.10998828968E+04 0.  0.
        3    1    3    3  502    0 -0.41256853644E+03  0.19414959607E+03 -0.39329829867E+03  0.60215481801E+03  0.10100000352E+00 0. -1.
       -3    1    3    3    0  502  0.41256853644E+03 -0.19414959607E+03  0.22847800025E+03  0.51000889180E+03  0.10100000352E+00 0.  1.
</event>
<event>
 5   0  0.8621738E-05  0.1099234E+04  0.7818609E-02  0.9205938E-01
        1   -1    0    0  501    0  0.00000000000E+00  0.00000000000E+00  0.10498114754E+04  0.10498114754E+04  0.50400001928E-02 0. -1.
       -1   -1    0    0    0  501  0.00000000000E+00  0.00000000000E+00 -0.28774600920E+03  0.28774600925E+03  0.50400001928E-02 0.  1.
    10030    2    1    2    0    0  0.00000000000E+00  0.00000000000E+00  0.76206546617E+03  0.13375574846E+04  0.10992343926E+04 0.  0.
        2    1    3    3  502    0 -0.16160011645E+02  0.42658130943E+03 -0.40211985156E+02  0.42877705546E+03  0.25500000920E-02 0.  1.
       -2    1    3    3    0  502  0.16160011645E+02 -0.42658130943E+03  0.80227745133E+03  0.90878042917E+03  0.25500000920E-02 0. -1.
</event>
<event>
 5   0  0.6010125E-05  0.1099825E+04  0.7818609E-02  0.9205362E-01
       -3   -1    0    0    0  501  0.00000000000E+00  0.00000000000E+00  0.35822357310E+03  0.35822358733E+03  0.10100000352E+00 0.  1.
        3   -1    0    0  501    0  0.00000000000E+00  0.00000000000E+00 -0.84417614641E+03  0.84417615246E+03  0.10100000352E+00 0. -1.
    10030    2    1    2    0    0  0.00000000000E+00  0.00000000000E+00 -0.48595257332E+03  0.12023997398E+04  0.10998250910E+04 0.  0.
        2    1    3    3  502    0 -0.54377371279E+03 -0.76990291582E+02 -0.27363552403E+03  0.61359087000E+03  0.25500000920E-02 0.  1.
       -2    1    3    3    0  502  0.54377371279E+03  0.76990291582E+02 -0.21231704928E+03  0.58880886979E+03  0.25500000920E-02 0. -1.
</event>
<event>
 5   0  0.9346836E-05  0.1100804E+04  0.7818609E-02  0.9204409E-01
       -1   -1    0    0    0  501  0.00000000000E+00  0.00000000000E+00  0.52649860636E+03  0.52649860638E+03  0.50400001928E-02 0. -1.
        1   -1    0    0  501    0  0.00000000000E+00  0.00000000000E+00 -0.57539025337E+03  0.57539025339E+03  0.50400001928E-02 0.  1.
    10030    2    1    2    0    0  0.00000000000E+00  0.00000000000E+00 -0.48891647006E+02  0.11018888598E+04  0.11008036456E+04 0.  0.
        5    1    3    3  502    0 -0.38828562409E+03  0.46954690204E+02 -0.41206084584E+03  0.56814320332E+03  0.46999998093E+01 0.  1.
       -5    1    3    3    0  502  0.38828562409E+03 -0.46954690204E+02  0.36316919883E+03  0.53374565646E+03  0.46999998093E+01 0. -1.
</event>
<event>
 5   0  0.1503277E-04  0.1099627E+04  0.7818609E-02  0.9205556E-01
       -2   -1    0    0    0  501  0.00000000000E+00  0.00000000000E+00  0.18572371159E+03  0.18572371160E+03  0.25500000920E-02 0. -1.
        2   -1    0    0  501    0  0.00000000000E+00  0.00000000000E+00 -0.16276582089E+04  0.16276582089E+04  0.25500000920E-02 0.  1.
    10030    2    1    2    0    0  0.00000000000E+00  0.00000000000E+00 -0.14419344973E+04  0.18133819205E+04  0.10996267071E+04 0.  0.
        5    1    3    3  502    0  0.21619179588E+03 -0.37134207181E+03 -0.12865801511E+04  0.13564455028E+04  0.46999998093E+01 0. -1.
       -5    1    3    3    0  502 -0.21619179588E+03  0.37134207181E+03 -0.15535434617E+03  0.45693641765E+03  0.46999998093E+01 0.  1.
</event>
<event>
 5   0  0.1553937E-04  0.1100697E+04  0.7818609E-02  0.9204513E-01
       -2   -1    0    0    0  501  0.00000000000E+00  0.00000000000E+00  0.23949685768E+03  0.23949685770E+03  0.25500000920E-02 0.  1.
        2   -1    0    0  501    0  0.00000000000E+00  0.00000000000E+00 -0.12646646591E+04  0.12646646591E+04  0.25500000920E-02 0. -1.
    10030    2    1    2    0    0  0.00000000000E+00  0.00000000000E+00 -0.10251678014E+04  0.15041615168E+04  0.11006965283E+04 0.  0.
        1    1    3    3  502    0  0.28794574651E+03  0.43672423730E+03 -0.27889753234E+03  0.59281080114E+03  0.50400001928E-02 0.  1.
       -1    1    3    3    0  502 -0.28794574651E+03 -0.43672423730E+03 -0.74627026904E+03  0.91135071561E+03  0.50400001928E-02 0. -1.
</event>
<event>
 5   0  0.9346836E-05  0.1100387E+04  0.7818609E-02  0.9204814E-01
       -1   -1    0    0    0  501  0.00000000000E+00  0.00000000000E+00  0.53687076964E+03  0.53687076966E+03  0.50400001928E-02 0.  1.
        1   -1    0    0  501    0  0.00000000000E+00  0.00000000000E+00 -0.56384720287E+03  0.56384720289E+03  0.50400001928E-02 0. -1.
    10030    2    1    2    0    0  0.00000000000E+00  0.00000000000E+00 -0.26976433226E+02  0.11007179726E+04  0.11003873532E+04 0.  0.
        5    1    3    3  502    0 -0.42413648293E+02 -0.54781357272E+03 -0.41645631090E+02  0.55104906914E+03  0.46999998093E+01 0.  1.
       -5    1    3    3    0  502  0.42413648293E+02  0.54781357272E+03  0.14669197864E+02  0.54966890341E+03  0.46999998093E+01 0. -1.
</event>
<event>
 5   0  0.8621738E-05  0.1099093E+04  0.7818609E-02  0.9206077E-01
        1   -1    0    0  501    0  0.00000000000E+00  0.00000000000E+00  0.55543351750E+03  0.55543351752E+03  0.50400001928E-02 0.  1.
       -1   -1    0    0    0  501  0.00000000000E+00  0.00000000000E+00 -0.54372144182E+03  0.54372144185E+03  0.50400001928E-02 0. -1.
    10030    2    1    2    0    0  0.00000000000E+00  0.00000000000E+00  0.11712075674E+02  0.10991549594E+04  0.10990925584E+04 0.  0.
        2    1    3    3  502    0  0.18991851806E+03  0.21359439111E+03 -0.46354200478E+03  0.54457579603E+03  0.25500000920E-02 0. -1.
       -2    1    3    3    0  502 -0.18991851806E+03 -0.21359439111E+03  0.47525408045E+03  0.55457916334E+03  0.25500000920E-02 0.  1.
</event>
<event>
 5   0  0.1574101E-04  0.1100067E+04  0.7818609E-02  0.9205127E-01
        2   -1    0    0  501    0  0.00000000000E+00  0.00000000000E+00  0.96243267199E+03  0.96243267200E+03  0.25500000920E-02 0.  1.
       -2   -1    0    0    0  501  0.00000000000E+00  0.00000000000E+00 -0.31434589619E+03  0.31434589620E+03  0.25500000920E-02 0. -1.
    10030    2    1    2    0    0  0.00000000000E+00  0.00000000000E+00  0.64808677580E+03  0.12767785682E+04  0.11000668358E+04 0.  0.
        4    1    3    3  502    0 -0.23123626370E+02 -0.26301481040E+03  0.88407180383E+03  0.92265706512E+03  0.12699999809E+01 0.  1.
       -4    1    3    3    0  502  0.23123626370E+02  0.26301481040E+03 -0.23598502803E+03  0.35412150307E+03  0.12699999809E+01 0. -1.
</event>
<event>
 5   0  0.1464205E-04  0.1100425E+04  0.7818609E-02  0.9204777E-01
       -2   -1    0    0    0  501  0.00000000000E+00  0.00000000000E+00  0.11565411011E+04  0.11565411011E+04  0.25500000920E-02 0. -1.
        2   -1    0    0  501    0  0.00000000000E+00  0.00000000000E+00 -0.26175811708E+03  0.26175811709E+03  0.25500000920E-02 0.  1.
    10030    2    1    2    0    0  0.00000000000E+00  0.00000000000E+00  0.89478298399E+03  0.14182992182E+04  0.11004254104E+04 0.  0.
        3    1    3    3  502    0 -0.19514894153E+00  0.43816269276E+03  0.18473685442E+02  0.43855201591E+03  0.10100000352E+00 0. -1.
       -3    1    3    3    0  502  0.19514894153E+00 -0.43816269276E+03  0.87630929855E+03  0.97974720226E+03  0.10100000352E+00 0.  1.
</event>
<event>
 5   0  0.1503277E-04  0.1098099E+04  0.7818609E-02  0.9207047E-01
        2   -1    0    0  501    0  0.00000000000E+00  0.00000000000E+00  0.18509455997E+04  0.18509455997E+04  0.25500000920E-02 0.  1.
       -2   -1    0    0    0  501  0.00000000000E+00  0.00000000000E+00 -0.16286560721E+03  0.16286560723E+03  0.25500000920E-02 0. -1.
    10030    2    1    2    0    0  0.00000000000E+00  0.00000000000E+00  0.16880799925E+04  0.20138112069E+04  0.10980990466E+04 0.  0.
        5    1    3    3  502    0  0.40827189536E+03 -0.82874068148E+02  0.18823116956E+03  0.45717295950E+03  0.46999998093E+01 0. -1.
       -5    1    3    3    0  502 -0.40827189536E+03  0.82874068148E+02  0.14998488229E+04  0.15566382474E+04  0.46999998093E+01 0.  1.
</event>
<event>
 5   0  0.1503277E-04  0.1100579E+04  0.7818609E-02  0.9204628E-01
       -2   -1    0    0    0  501  0.00000000000E+00  0.00000000000E+00  0.28966480477E+03  0.28966480478E+03  0.25500000920E-02 0. -1.
        2   -1    0    0  501    0  0.00000000000E+00  0.00000000000E+00 -0.10454103853E+04  0.10454103853E+04  0.25500000920E-02 0.  1.
    10030    2    1    2    0    0  0.00000000000E+00  0.00000000000E+00 -0.75574558055E+03  0.13350751901E+04  0.11005791115E+04 0.  0.
        5    1    3    3  502    0 -0.10653240894E+03  0.21107479133E+03  0.22488164757E+03  0.32633658560E+03  0.46999998093E+01 0. -1.
       -5    1    3    3    0  502  0.10653240894E+03 -0.21107479133E+03 -0.98062722812E+03  0.10087386045E+04  0.46999998093E+01 0.  1.
</event>
<event>
 5   0  0.1503277E-04  0.1101452E+04  0.7818609E-02  0.9203778E-01
       -2   -1    0    0    0  501  0.00000000000E+00  0.00000000000E+00  0.29391207278E+03  0.29391207279E+03  0.25500000920E-02 0. -1.
        2   -1    0    0  501    0  0.00000000000E+00  0.00000000000E+00 -0.10319384628E+04  0.10319384628E+04  0.25500000920E-02 0.  1.
    10030    2    1    2    0    0  0.00000000000E+00  0.00000000000E+00 -0.73802639001E+03  0.13258505356E+04  0.11014520826E+04 0.  0.
        5    1    3    3  502    0  0.29876551470E+03  0.28950074406E+03  0.65340719512E+02  0.42114488387E+03  0.46999998093E+01 0. -1.
       -5    1    3    3    0  502 -0.29876551470E+03 -0.28950074406E+03 -0.80336710953E+03  0.90470565172E+03  0.46999998093E+01 0.  1.
</event>
<event>
 5   0  0.9346836E-05  0.1100033E+04  0.7818609E-02  0.9205160E-01
        1   -1    0    0  501    0  0.00000000000E+00  0.00000000000E+00  0.39148107220E+03  0.39148107224E+03  0.50400001928E-02 0. -1.
       -1   -1    0    0    0  501  0.00000000000E+00  0.00000000000E+00 -0.77275236937E+03  0.77275236939E+03  0.50400001928E-02 0.  1.
    10030    2    1    2    0    0  0.00000000000E+00  0.00000000000E+00 -0.38127129717E+03  0.11642334416E+04  0.11000325925E+04 0.  0.
        5    1    3    3  502    0  0.21414531882E+03 -0.38413128335E+03  0.15891380360E+03  0.46764382535E+03  0.46999998093E+01 0. -1.
       -5    1    3    3    0  502 -0.21414531882E+03  0.38413128335E+03 -0.54018510077E+03  0.69658961628E+03  0.46999998093E+01 0.  1.
</event>
<event>
 5   0  0.1553937E-04  0.1099588E+04  0.7818609E-02  0.9205594E-01
        2   -1    0    0  501    0  0.00000000000E+00  0.00000000000E+00  0.13497508887E+04  0.13497508887E+04  0.25500000920E-02 0. -1.
       -2   -1    0    0    0  501  0.00000000000E+00  0.00000000000E+00 -0.22394742388E+03  0.22394742390E+03  0.25500000920E-02 0.  1.
    10030    2    1    2    0    0  0.00000000000E+00  0.00000000000E+00  0.11258034648E+04  0.15736983126E+04  0.10995876217E+04 0.  0.
        1    1    3    3  502    0 -0.88514677001E+02  0.44640325840E+03  0.12140794401E+03  0.47101019740E+03  0.50400001928E-02 0. -1.
       -1    1    3    3    0  502  0.88514677001E+02 -0.44640325840E+03  0.10043955208E+04  0.11026881152E+04  0.50400001928E-02 0.  1.
</event>
<event>
 5   0  0.8621738E-05  0.1101403E+04  0.7818609E-02  0.9203826E-01
       -1   -1    0    0    0  501  0.00000000000E+00  0.00000000000E+00  0.29800391803E+03  0.29800391807E+03  0.50400001928E-02 0.  1.
        1   -1    0    0  501    0  0.00000000000E+00  0.00000000000E+00 -0.10176780245E+04  0.10176780245E+04  0.50400001928E-02 0. -1.
    10030    2    1    2    0    0  0.00000000000E+00  0.00000000000E+00 -0.71967410649E+03  0.13156819426E+04  0.11014028121E+04 0.  0.
        2    1    3    3  502    0  0.25205822216E+03 -0.25301856890E+03 -0.86058098507E+03  0.93174641155E+03  0.25500000920E-02 0. -1.
       -2    1    3    3    0  502 -0.25205822216E+03  0.25301856890E+03  0.14090687858E+03  0.38393553105E+03  0.25500000920E-02 0.  1.
</event>
<event>
 5   0  0.8621738E-05  0.1100246E+04  0.7818609E-02  0.9204952E-01
        1   -1    0    0  501    0  0.00000000000E+00  0.00000000000E+00  0.57036613134E+03  0.57036613136E+03  0.50400001928E-02 0.  1.
       -1   -1    0    0    0  501  0.00000000000E+00  0.00000000000E+00 -0.53059801410E+03  0.53059801412E+03  0.50400001928E-02 0. -1.
    10030    2    1    2    0    0  0.00000000000E+00  0.00000000000E+00  0.39768117238E+02  0.11009641455E+04  0.11002456755E+04 0.  0.
        2    1    3    3  502    0 -0.44739332617E+03 -0.31911970639E+03  0.45138631759E+02  0.55139429757E+03  0.25500000920E-02 0. -1.
       -2    1    3    3    0  502  0.44739332617E+03  0.31911970639E+03 -0.53705145212E+01  0.54956984792E+03  0.25500000920E-02 0.  1.
</event>
<event>
 5   0  0.8921459E-05  0.1099854E+04  0.7818609E-02  0.9205335E-01
        1   -1    0    0  501    0  0.00000000000E+00  0.00000000000E+00  0.59390305866E+03  0.59390305869E+03  0.50400001928E-02 0.  1.
       -1   -1    0    0    0  501  0.00000000000E+00  0.00000000000E+00 -0.50920687386E+03  0.50920687389E+03  0.50400001928E-02 0. -1.
    10030    2    1    2    0    0  0.00000000000E+00  0.00000000000E+00  0.84696184799E+02  0.11031099326E+04  0.10998536628E+04 0.  0.
        3    1    3    3  502    0  0.28047456396E+03  0.11940244430E+03  0.50141116960E+03  0.58680158140E+03  0.10100000352E+00 0.  1.
       -3    1    3    3    0  502 -0.28047456396E+03 -0.11940244430E+03 -0.41671498480E+03  0.51630835117E+03  0.10100000352E+00 0. -1.
</event>
<event>
 5   0  0.1553937E-04  0.1100026E+04  0.7818609E-02  0.9205166E-01
        2   -1    0    0  501    0  0.00000000000E+00  0.00000000000E+00  0.14431447570E+04  0.14431447570E+04  0.25500000920E-02 0.  1.
       -2   -1    0    0    0  501  0.00000000000E+00  0.00000000000E+00 -0.20962164961E+03  0.20962164962E+03  0.25500000920E-02 0. -1.
    10030    2    1    2    0    0  0.00000000000E+00  0.00000000000E+00  0.12335231074E+04  0.16527664066E+04  0.11000261535E+04 0.  0.
        1    1    3    3  502    0  0.32661863769E+03 -0.15046014247E+03  0.12420463817E+04  0.12930573086E+04  0.50400001928E-02 0.  1.
       -1    1    3    3    0  502 -0.32661863769E+03  0.15046014247E+03 -0.85232743396E+01  0.35970909801E+03  0.50400001928E-02 0. -1.
</event>
<event>
 5   0  0.9016738E-05  0.1100386E+04  0.7818609E-02  0.9204816E-01
        1   -1    0    0  501    0  0.00000000000E+00  0.00000000000E+00  0.53529599774E+03  0.53529599777E+03  0.50400001928E-02 0.  1.
       -1   -1    0    0    0  501  0.00000000000E+00  0.00000000000E+00 -0.56550453472E+03  0.56550453474E+03  0.50400001928E-02 0. -1.
    10030    2    1    2    0    0  0.00000000000E+00  0.00000000000E+00 -0.30208536978E+02  0.11008005325E+04  0.11003859580E+04 0.  0.
        4    1    3    3  502    0 -0.10968353147E+02  0.51337109385E+03 -0.21276544159E+03  0.55582455038E+03  0.12699999809E+01 0. -1.
       -4    1    3    3    0  502  0.10968353147E+02 -0.51337109385E+03  0.18255690462E+03  0.54497598213E+03  0.12699999809E+01 0.  1.
</event>
<event>
 5   0  0.9016738E-05  0.1099936E+04  0.7818609E-02  0.9205255E-01
        1   -1    0    0  501    0  0.00000000000E+00  0.00000000000E+00  0.86135362362E+03  0.86135362363E+03  0.50400001928E-02 0.  1.
       -1   -1    0    0    0  501  0.00000000000E+00  0.00000000000E+00 -0.35115036712E+03  0.35115036716E+03  0.50400001928E-02 0. -1.
    10030    2    1    2    0    0  0.00000000000E+00  0.00000000000E+00  0.51020325650E+03  0.12125039908E+04  0.10999357094E+04 0.  0.
        4    1    3    3  502    0 -0.89961820849E+02 -0.37087171780E+03 -0.18143655098E+03  0.42256336235E+03  0.12699999809E+01 0. -1.
       -4    1    3    3    0  502  0.89961820849E+02  0.37087171780E+03  0.69163980748E+03  0.78994062844E+03  0.12699999809E+01 0.  1.
</event>
<event>
 5   0  0.8921459E-05  0.1100452E+04  0.7818609E-02  0.9204752E-01
       -1   -1    0    0    0  501  0.00000000000E+00  0.00000000000E+00  0.11289963801E+04  0.11289963801E+04  0.50400001928E-02 0.  1.
        1   -1    0    0  501    0  0.00000000000E+00  0.00000000000E+00 -0.26815719448E+03  0.26815719452E+03  0.50400001928E-02 0. -1.
    10030    2    1    2    0    0  0.00000000000E+00  0.00000000000E+00  0.86083918562E+03  0.13971535746E+04  0.11004517289E+04 0.  0.
        3    1    3    3  502    0 -0.47706909577E+03  0.26963131195E+03  0.36754431944E+03  0.65983695219E+03  0.10100000352E+00 0.  1.
       -3    1    3    3    0  502  0.47706909577E+03 -0.26963131195E+03  0.49329486617E+03  0.73731662243E+03  0.10100000352E+00 0. -1.
</event>
<event>
 5   0  0.1540772E-04  0.1099754E+04  0.7818609E-02  0.9205431E-01
       -2   -1    0    0    0  501  0.00000000000E+00  0.00000000000E+00  0.28232329201E+04  0.28232329201E+04  0.25500000920E-02 0.  1.
        2   -1    0    0  501    0  0.00000000000E+00  0.00000000000E+00 -0.10709881296E+03  0.10709881299E+03  0.25500000920E-02 0. -1.
    10030    2    1    2    0    0  0.00000000000E+00  0.00000000000E+00  0.27161341072E+04  0.29303317331E+04  0.10997543262E+04 0.  0.
        2    1    3    3  502    0 -0.14097516148E+03  0.11401432726E+03  0.27412949878E+04  0.27472843816E+04  0.25500000920E-02 0.  1.
       -2    1    3    3    0  502  0.14097516148E+03 -0.11401432726E+03 -0.25160880694E+02  0.18304735152E+03  0.25500000920E-02 0. -1.
</event>
<event>
 5   0  0.1574101E-04  0.1100762E+04  0.7818609E-02  0.9204450E-01
       -2   -1    0    0    0  501  0.00000000000E+00  0.00000000000E+00  0.57752293506E+03  0.57752293507E+03  0.25500000920E-02 0.  1.
        2   -1    0    0  501    0  0.00000000000E+00  0.00000000000E+00 -0.52451444370E+03  0.52451444371E+03  0.25500000920E-02 0. -1.
    10030    2    1    2    0    0  0.00000000000E+00  0.00000000000E+00  0.53008491361E+02  0.11020373788E+04  0.11007617744E+04 0.  0.
        4    1    3    3  502    0 -0.16914169417E+03  0.53341998986E+02  0.54812935511E+03  0.57610909071E+03  0.12699999809E+01 0.  1.
       -4    1    3    3    0  502  0.16914169417E+03 -0.53341998986E+02 -0.49512086375E+03  0.52592828806E+03  0.12699999809E+01 0. -1.
</event>
<event>
 5   0  0.1503277E-04  0.1099810E+04  0.7818609E-02  0.9205377E-01
       -2   -1    0    0    0  501  0.00000000000E+00  0.00000000000E+00  0.20683680356E+03  0.20683680358E+03  0.25500000920E-02 0.  1.
        2   -1    0    0  501    0  0.00000000000E+00  0.00000000000E+00 -0.14620000281E+04  0.14620000281E+04  0.25500000920E-02 0. -1.
    10030    2    1    2    0    0  0.00000000000E+00  0.00000000000E+00 -0.12551632245E+04  0.16688368317E+04  0.10998098247E+04 0.  0.
        5    1    3    3  502    0  0.23693006506E+03 -0.51385666315E+02 -0.13764960987E+04  0.13976909323E+04  0.46999998093E+01 0. -1.
       -5    1    3    3    0  502 -0.23693006506E+03  0.51385666315E+02  0.12133287414E+03  0.27114589943E+03  0.46999998093E+01 0.  1.
</event>
<event>
 5   0  0.1464205E-04  0.1099471E+04  0.7818609E-02  0.9205707E-01
       -2   -1    0    0    0  501  0.00000000000E+00  0.00000000000E+00  0.97100110602E+03  0.97100110603E+03  0.25500000920E-02 0. -1.
        2   -1    0    0  501    0  0.00000000000E+00  0.00000000000E+00 -0.31123481718E+03  0.31123481719E+03  0.25500000920E-02 0.  1.
    10030    2    1    2    0    0  0.00000000000E+00  0.00000000000E+00  0.65976628885E+03  0.12822359232E+04  0.10994714216E+04 0.  0.
        3    1    3    3  502    0  0.37414991406E+03 -0.18122597496E+03  0.74936652960E+03  0.85696045304E+03  0.10100000352E+00 0. -1.
       -3    1    3    3    0  502 -0.37414991406E+03  0.18122597496E+03 -0.89600240754E+02  0.42527547018E+03  0.10100000352E+00 0.  1.
</event>
<event>
 5   0  0.1503277E-04  0.1099938E+04  0.7818609E-02  0.9205253E-01
        2   -1    0    0  501    0  0.00000000000E+00  0.00000000000E+00  0.59685624741E+03  0.59685624742E+03  0.25500000920E-02 0.  1.
       -2   -1    0    0    0  501  0.00000000000E+00  0.00000000000E+00 -0.50676487069E+03  0.50676487070E+03  0.25500000920E-02 0. -1.
    10030    2    1    2    0    0  0.00000000000E+00  0.00000000000E+00  0.90091376720E+02  0.11036211181E+04  0.10999377783E+04 0.  0.
        5    1    3    3  502    0  0.35016260565E+03  0.40984464419E+03  0.15430112866E+03  0.56072935634E+03  0.46999998093E+01 0.  1.
       -5    1    3    3    0  502 -0.35016260565E+03 -0.40984464419E+03 -0.64209751937E+02  0.54289176178E+03  0.46999998093E+01 0. -1.
</event>
<event>
 5   0  0.1540772E-04  0.1097331E+04  0.7818609E-02  0.9207797E-01
       -2   -1    0    0    0  501  0.00000000000E+00  0.00000000000E+00  0.15867281567E+03  0.15867281569E+03  0.25500000920E-02 0. -1.
        2   -1    0    0  501    0  0.00000000000E+00  0.00000000000E+00 -0.18971998164E+04  0.18971998164E+04  0.25500000920E-02 0.  1.
    10030    2    1    2    0    0  0.00000000000E+00  0.00000000000E+00 -0.17385270008E+04  0.20558726321E+04  0.10973313753E+04 0.  0.
        2    1    3    3  502    0 -0.40112838302E+03 -0.24688258298E+03 -0.34207789387E+03  0.58212737002E+03  0.25500000920E-02 0. -1.
       -2    1    3    3    0  502  0.40112838302E+03  0.24688258298E+03 -0.13964491069E+04  0.14737452621E+04  0.25500000920E-02 0.  1.
</event>
<event>
 5   0  0.8657442E-05  0.1093897E+04  0.7818609E-02  0.9211161E-01
       -1   -1    0    0    0  501  0.00000000000E+00  0.00000000000E+00  0.33612748856E+03  0.33612748860E+03  0.50400001928E-02 0. -1.
        1   -1    0    0  501    0  0.00000000000E+00  0.00000000000E+00 -0.88999789992E+03  0.88999789993E+03  0.50400001928E-02 0.  1.
    10030    2    1    2    0    0  0.00000000000E+00  0.00000000000E+00 -0.55387041135E+03  0.12261253885E+04  0.10938971779E+04 0.  0.
        1    1    3    3  502    0 -0.14710535747E+03  0.52379785303E+03 -0.21404024062E+03  0.58465152157E+03  0.50400001928E-02 0. -1.
       -1    1    3    3    0  502  0.14710535747E+03 -0.52379785303E+03 -0.33983017073E+03  0.64147386697E+03  0.50400001928E-02 0.  1.
</event>
<event>
 5   0  0.9016738E-05  0.1100119E+04  0.7818609E-02  0.9205076E-01
        1   -1    0    0  501    0  0.00000000000E+00  0.00000000000E+00  0.28244651165E+04  0.28244651165E+04  0.50400001928E-02 0.  1.
       -1   -1    0    0    0  501  0.00000000000E+00  0.00000000000E+00 -0.10712302844E+03  0.10712302856E+03  0.50400001928E-02 0. -1.
    10030    2    1    2    0    0  0.00000000000E+00  0.00000000000E+00  0.27173420881E+04  0.29315881451E+04  0.11001186430E+04 0.  0.
        4    1    3    3  502    0 -0.47565180445E+02 -0.17180086755E+03  0.27453510799E+04  0.27511328847E+04  0.12699999809E+01 0.  1.
       -4    1    3    3    0  502  0.47565180445E+02  0.17180086755E+03 -0.28008991801E+02  0.18045526040E+03  0.12699999809E+01 0. -1.
</event>
<event>
 5   0  0.1574101E-04  0.1100398E+04  0.7818609E-02  0.9204804E-01
        2   -1    0    0  501    0  0.00000000000E+00  0.00000000000E+00  0.12137119819E+04  0.12137119819E+04  0.25500000920E-02 0. -1.
       -2   -1    0    0    0  501  0.00000000000E+00  0.00000000000E+00 -0.24941580202E+03  0.24941580203E+03  0.25500000920E-02 0.  1.
    10030    2    1    2    0    0  0.00000000000E+00  0.00000000000E+00  0.96429617986E+03  0.14631277839E+04  0.11003980142E+04 0.  0.
        4    1    3    3  502    0 -0.17750172011E+03  0.63554576519E+02  0.11694180359E+04  0.11845193964E+04  0.12699999809E+01 0. -1.
       -4    1    3    3    0  502  0.17750172011E+03 -0.63554576519E+02 -0.20512185608E+03  0.27860838749E+03  0.12699999809E+01 0.  1.
</event>
<event>
 5   0  0.1574101E-04  0.1096501E+04  0.7818609E-02  0.9208609E-01
       -2   -1    0    0    0  501  0.00000000000E+00  0.00000000000E+00  0.87195749436E+03  0.87195749436E+03  0.25500000920E-02 0.  1.
        2   -1    0    0  501    0  0.00000000000E+00  0.00000000000E+00 -0.34471684750E+03  0.34471684751E+03  0.25500000920E-02 0. -1.
    10030    2    1    2    0    0  0.00000000000E+00  0.00000000000E+00  0.52724064686E+03  0.12166743419E+04  0.10965006860E+04 0.  0.
        4    1    3    3  502    0  0.68559343708E+01 -0.52769650390E+03  0.98792915162E+02  0.53690991521E+03  0.12699999809E+01 0.  1.
       -4    1    3    3    0  502 -0.68559343708E+01  0.52769650390E+03  0.42844773170E+03  0.67976442667E+03  0.12699999809E+01 0. -1.
</event>
<event>
 5   0  0.8621738E-05  0.1099800E+04  0.7818609E-02  0.9205387E-01
       -1   -1    0    0    0  501  0.00000000000E+00  0.00000000000E+00  0.31207576033E+03  0.31207576038E+03  0.50400001928E-02 0.  1.
        1   -1    0    0  501    0  0.00000000000E+00  0.00000000000E+00 -0.96896330130E+03  0.96896330131E+03  0.50400001928E-02 0. -1.
    10030    2    1    2    0    0  0.00000000000E+00  0.00000000000E+00 -0.65688754096E+03  0.12810390617E+04  0.10997999073E+04 0.  0.
        2    1    3    3  502    0 -0.44479415675E+03  0.21522307669E+03 -0.47375746975E+02  0.49639427477E+03  0.25500000920E-02 0.  1.
       -2    1    3    3    0  502  0.44479415675E+03 -0.21522307669E+03 -0.60951179399E+03  0.78464478691E+03  0.25500000920E-02 0. -1.
</event>
<event>
 5   0  0.6010125E-05  0.1097904E+04  0.7818609E-02  0.9207238E-01
       -4   -1    0    0    0  501  0.00000000000E+00  0.00000000000E+00  0.16315857811E+04  0.16315862754E+04  0.12699999809E+01 0.  1.
        4   -1    0    0  501    0  0.00000000000E+00  0.00000000000E+00 -0.18469372350E+03  0.18469808986E+03  0.12699999809E+01 0. -1.
    10030    2    1    2    0    0  0.00000000000E+00  0.00000000000E+00  0.14468920576E+04  0.18162843653E+04  0.10979035791E+04 0.  0.
        1    1    3    3  502    0 -0.28221885797E+03  0.17867969008E+03  0.14441188988E+04  0.14822460353E+04  0.50400001928E-02 0.  1.
       -1    1    3    3    0  502  0.28221885797E+03 -0.17867969008E+03  0.27731588728E+01  0.33403832995E+03  0.50400001928E-02 0. -1.
</event>
<event>
 5   0  0.1540772E-04  0.1098867E+04  0.7818609E-02  0.9206297E-01
       -2   -1    0    0    0  501  0.00000000000E+00  0.00000000000E+00  0.40498516221E+03  0.40498516222E+03  0.25500000920E-02 0.  1.
        2   -1    0    0  501    0  0.00000000000E+00  0.00000000000E+00 -0.74540245580E+03  0.74540245581E+03  0.25500000920E-02 0. -1.
    10030    2    1    2    0    0  0.00000000000E+00  0.00000000000E+00 -0.34041729360E+03  0.11503876180E+04  0.10988665697E+04 0.  0.
        2    1    3    3  502    0 -0.53914975462E+03 -0.10543875123E+03 -0.17940375429E+03  0.57791478198E+03  0.25500000920E-02 0. -1.
       -2    1    3    3    0  502  0.53914975462E+03  0.10543875123E+03 -0.16101353930E+03  0.57247283605E+03  0.25500000920E-02 0.  1.
</event>
<event>
 5   0  0.1464205E-04  0.1099492E+04  0.7818609E-02  0.9205688E-01
        2   -1    0    0  501    0  0.00000000000E+00  0.00000000000E+00  0.10451499078E+04  0.10451499078E+04  0.25500000920E-02 0.  1.
       -2   -1    0    0    0  501  0.00000000000E+00  0.00000000000E+00 -0.28916468681E+03  0.28916468682E+03  0.25500000920E-02 0. -1.
    10030    2    1    2    0    0  0.00000000000E+00  0.00000000000E+00  0.75598522102E+03  0.13343145946E+04  0.10994916021E+04 0.  0.
        3    1    3    3  502    0  0.91590325210E+02 -0.10854930162E+03  0.10225006939E+04  0.10323174986E+04  0.10100000352E+00 0.  1.
       -3    1    3    3    0  502 -0.91590325210E+02  0.10854930162E+03 -0.26651547290E+03  0.30199709609E+03  0.10100000352E+00 0. -1.
</event>
<event>
 5   0  0.6010125E-05  0.1098718E+04  0.7818609E-02  0.9206442E-01
        3   -1    0    0  501    0  0.00000000000E+00  0.00000000000E+00  0.15947708715E+04  0.15947708747E+04  0.10100000352E+00 0.  1.
       -3   -1    0    0    0  501  0.00000000000E+00  0.00000000000E+00 -0.18924045713E+03  0.18924048408E+03  0.10100000352E+00 0. -1.
    10030    2    1    2    0    0  0.00000000000E+00  0.00000000000E+00  0.14055304144E+04  0.17840113588E+04  0.10987177902E+04 0.  0.
        1    1    3    3  502    0  0.39187022058E+03 -0.30287706432E+03  0.31681651773E+03  0.58793663927E+03  0.50400001928E-02 0. -1.
       -1    1    3    3    0  502 -0.39187022058E+03  0.30287706432E+03  0.10887138966E+04  0.11960747195E+04  0.50400001928E-02 0.  1.
</event>
<event>
 5   0  0.1540772E-04  0.1100034E+04  0.7818609E-02  0.9205158E-01
        2   -1    0    0  501    0  0.00000000000E+00  0.00000000000E+00  0.77757845471E+03  0.77757845472E+03  0.25500000920E-02 0. -1.
       -2   -1    0    0    0  501  0.00000000000E+00  0.00000000000E+00 -0.38905253927E+03  0.38905253928E+03  0.25500000920E-02 0.  1.
    10030    2    1    2    0    0  0.00000000000E+00  0.00000000000E+00  0.38852591544E+03  0.11666309940E+04  0.11000343127E+04 0.  0.
        2    1    3    3  502    0 -0.38849244787E+03  0.22176883123E+03 -0.14512837100E+03  0.47028718953E+03  0.25500000920E-02 0.  1.
       -2    1    3    3    0  502  0.38849244787E+03 -0.22176883123E+03  0.53365428645E+03  0.69634380446E+03  0.25500000920E-02 0. -1.
</event>
<event>
 5   0  0.1553937E-04  0.1099506E+04  0.7818609E-02  0.9205673E-01
       -2   -1    0    0    0  501  0.00000000000E+00  0.00000000000E+00  0.19476322115E+03  0.19476322116E+03  0.25500000920E-02 0. -1.
        2   -1    0    0  501    0  0.00000000000E+00  0.00000000000E+00 -0.15517742899E+04  0.15517742899E+04  0.25500000920E-02 0.  1.
    10030    2    1    2    0    0  0.00000000000E+00  0.00000000000E+00 -0.13570110688E+04  0.17465375111E+04  0.10995063605E+04 0.  0.
        1    1    3    3  502    0  0.34659541754E+03 -0.30740506233E+03 -0.20835391721E+03  0.50797402556E+03  0.50400001928E-02 0. -1.
       -1    1    3    3    0  502 -0.34659541754E+03  0.30740506233E+03 -0.11486571516E+04  0.12385634855E+04  0.50400001928E-02 0.  1.
</event>
<event>
 5   0  0.8921459E-05  0.1099709E+04  0.7818609E-02  0.9205475E-01
        1   -1    0    0  501    0  0.00000000000E+00  0.00000000000E+00  0.17961498582E+04  0.17961498582E+04  0.50400001928E-02 0. -1.
       -1   -1    0    0    0  501  0.00000000000E+00  0.00000000000E+00 -0.16832683491E+03  0.16832683498E+03  0.50400001928E-02 0.  1.
    10030    2    1    2    0    0  0.00000000000E+00  0.00000000000E+00  0.16278230233E+04  0.19644766932E+04  0.10997094539E+04 0.  0.
        3    1    3    3  502    0  0.52202464034E+03 -0.12103371720E+03  0.59380962925E+03  0.79985546933E+03  0.10100000352E+00 0.  1.
       -3    1    3    3    0  502 -0.52202464034E+03  0.12103371720E+03  0.10340133941E+04  0.11646212239E+04  0.10100000352E+00 0. -1.
</event>
<event>
 5   0  0.1503277E-04  0.1100224E+04  0.7818609E-02  0.9204974E-01
       -2   -1    0    0    0  501  0.00000000000E+00  0.00000000000E+00  0.50092903630E+03  0.50092903631E+03  0.25500000920E-02 0.  1.
        2   -1    0    0  501    0  0.00000000000E+00  0.00000000000E+00 -0.60412364247E+03  0.60412364248E+03  0.25500000920E-02 0. -1.
    10030    2    1    2    0    0  0.00000000000E+00  0.00000000000E+00 -0.10319460617E+03  0.11050526788E+04  0.11002237482E+04 0.  0.
        5    1    3    3  502    0 -0.22547856519E+03  0.62906273209E+02 -0.55158051625E+03  0.59921693774E+03  0.46999998093E+01 0. -1.
       -5    1    3    3    0  502  0.22547856519E+03 -0.62906273209E+02  0.44838591008E+03  0.50583574105E+03  0.46999998093E+01 0.  1.
</event>
<event>
 5   0  0.1574101E-04  0.1101705E+04  0.7818609E-02  0.9203531E-01
       -2   -1    0    0    0  501  0.00000000000E+00  0.00000000000E+00  0.40464290252E+03  0.40464290253E+03  0.25500000920E-02 0.  1.
        2   -1    0    0  501    0  0.00000000000E+00  0.00000000000E+00 -0.74989232969E+03  0.74989232969E+03  0.25500000920E-02 0. -1.
    10030    2    1    2    0    0  0.00000000000E+00  0.00000000000E+00 -0.34524942717E+03  0.11545352322E+04  0.11017052398E+04 0.  0.
        4    1    3    3  502    0  0.27765959452E+03  0.39349788090E+03  0.10759555441E+03  0.49347122402E+03  0.12699999809E+01 0.  1.
       -4    1    3    3    0  502 -0.27765959452E+03 -0.39349788090E+03 -0.45284498158E+03  0.66106400820E+03  0.12699999809E+01 0. -1.
</event>
<event>
 5   0  0.1540772E-04  0.1101626E+04  0.7818609E-02  0.9203608E-01
       -2   -1    0    0    0  501  0.00000000000E+00  0.00000000000E+00  0.29807711352E+03  0.29807711354E+03  0.25500000920E-02 0.  1.
        2   -1    0    0  501    0  0.00000000000E+00  0.00000000000E+00 -0.10178406708E+04  0.10178406708E+04  0.25500000920E-02 0. -1.
    10030    2    1    2    0    0  0.00000000000E+00  0.00000000000E+00 -0.71976355728E+03  0.13159177843E+04  0.11016260875E+04 0.  0.
        2    1    3    3  502    0 -0.23383231005E+03  0.46252497885E+03 -0.58267907877E+03  0.77982165534E+03  0.25500000920E-02 0. -1.
       -2    1    3    3    0  502  0.23383231005E+03 -0.46252497885E+03 -0.13708447850E+03  0.53609612901E+03  0.25500000920E-02 0.  1.
</event>
<event>
 5   0  0.8921459E-05  0.1100303E+04  0.7818609E-02  0.9204896E-01
       -1   -1    0    0    0  501  0.00000000000E+00  0.00000000000E+00  0.67380716041E+03  0.67380716043E+03  0.50400001928E-02 0.  1.
        1   -1    0    0  501    0  0.00000000000E+00  0.00000000000E+00 -0.44918898533E+03  0.44918898536E+03  0.50400001928E-02 0. -1.
    10030    2    1    2    0    0  0.00000000000E+00  0.00000000000E+00  0.22461817508E+03  0.11229961458E+04  0.11003031486E+04 0.  0.
        3    1    3    3  502    0  0.43872107655E+03 -0.33091769631E+03  0.13900265299E+03  0.56683723633E+03  0.10100000352E+00 0.  1.
       -3    1    3    3    0  502 -0.43872107655E+03  0.33091769631E+03  0.85615522099E+02  0.55615890946E+03  0.10100000352E+00 0. -1.
</event>
<event>
 5   0  0.9346836E-05  0.1100280E+04  0.7818609E-02  0.9204919E-01
       -1   -1    0    0    0  501  0.00000000000E+00  0.00000000000E+00  0.16790389204E+03  0.16790389211E+03  0.50400001928E-02 0. -1.
        1   -1    0    0  501    0  0.00000000000E+00  0.00000000000E+00 -0.18025446560E+04  0.18025446560E+04  0.50400001928E-02 0.  1.
    10030    2    1    2    0    0  0.00000000000E+00  0.00000000000E+00 -0.16346407639E+04  0.19704485481E+04  0.11002804431E+04 0.  0.
        5    1    3    3  502    0 -0.12587138871E+03 -0.20398297744E+03  0.69434919216E+02  0.24959158557E+03  0.46999998093E+01 0. -1.
       -5    1    3    3    0  502  0.12587138871E+03  0.20398297744E+03 -0.17040756831E+04  0.17208569625E+04  0.46999998093E+01 0.  1.
</event>
<event>
 5   0  0.1553937E-04  0.1099767E+04  0.7818609E-02  0.9205419E-01
        2   -1    0    0  501    0  0.00000000000E+00  0.00000000000E+00  0.14262686430E+04  0.14262686430E+04  0.25500000920E-02 0.  1.
       -2   -1    0    0    0  501  0.00000000000E+00  0.00000000000E+00 -0.21200209402E+03  0.21200209403E+03  0.25500000920E-02 0. -1.
    10030    2    1    2    0    0  0.00000000000E+00  0.00000000000E+00  0.12142665489E+04  0.16382707370E+04  0.10997671371E+04 0.  0.
        1    1    3    3  502    0 -0.30167586352E+03  0.28201103797E+03  0.11480091863E+04  0.12200260834E+04  0.50400001928E-02 0.  1.
       -1    1    3    3    0  502  0.30167586352E+03 -0.28201103797E+03  0.66257362621E+02  0.41824465364E+03  0.50400001928E-02 0. -1.
</event>
<event>
 5   0  0.1503277E-04  0.1099988E+04  0.7818609E-02  0.9205204E-01
        2   -1    0    0  501    0  0.00000000000E+00  0.00000000000E+00  0.49546192726E+03  0.49546192727E+03  0.25500000920E-02 0. -1.
       -2   -1    0    0    0  501  0.00000000000E+00  0.00000000000E+00 -0.61052758097E+03  0.61052758097E+03  0.25500000920E-02 0.  1.
    10030    2    1    2    0    0  0.00000000000E+00  0.00000000000E+00 -0.11506565370E+03  0.11059895082E+04  0.10999875852E+04 0.  0.
        5    1    3    3  502    0  0.20122243481E+03 -0.48577208635E+03 -0.21967679065E+03  0.56986399298E+03  0.46999998093E+01 0.  1.
       -5    1    3    3    0  502 -0.20122243481E+03  0.48577208635E+03  0.10461113694E+03  0.53612551526E+03  0.46999998093E+01 0. -1.
</event>
<event>
 5   0  0.1503277E-04  0.1099959E+04  0.7818609E-02  0.9205232E-01
        2   -1    0    0  501    0  0.00000000000E+00  0.00000000000E+00  0.12261721677E+04  0.12261721677E+04  0.25500000920E-02 0.  1.
       -2   -1    0    0    0  501  0.00000000000E+00  0.00000000000E+00 -0.24668430822E+03  0.24668430823E+03  0.25500000920E-02 0. -1.
    10030    2    1    2    0    0  0.00000000000E+00  0.00000000000E+00  0.97948785949E+03  0.14728564759E+04  0.10999589682E+04 0.  0.
        5    1    3    3  502    0 -0.11681173805E+03 -0.32357958125E+03  0.10642817742E+04  0.11185108459E+04  0.46999998093E+01 0.  1.
       -5    1    3    3    0  502  0.11681173805E+03  0.32357958125E+03 -0.84793914703E+02  0.35434563003E+03  0.46999998093E+01 0. -1.
</event>
<event>
 5   0  0.9016738E-05  0.1099851E+04  0.7818609E-02  0.9205338E-01
       -1   -1    0    0    0  501  0.00000000000E+00  0.00000000000E+00  0.44366365949E+03  0.44366365952E+03  0.50400001928E-02 0.  1.
        1   -1    0    0  501    0  0.00000000000E+00  0.00000000000E+00 -0.68163748743E+03  0.68163748745E+03  0.50400001928E-02 0. -1.
    10030    2    1    2    0    0  0.00000000000E+00  0.00000000000E+00 -0.23797382794E+03  0.11253011470E+04  0.10998505028E+04 0.  0.
        4    1    3    3  502    0  0.42852711730E+03 -0.29481793855E+03 -0.30161974818E+03  0.60127297673E+03  0.12699999809E+01 0.  1.
       -4    1    3    3    0  502 -0.42852711730E+03  0.29481793855E+03  0.63645920239E+02  0.52402817025E+03  0.12699999809E+01 0. -1.
</event>
<event>
 5   0  0.9016738E-05  0.1099779E+04  0.7818609E-02  0.9205407E-01
        1   -1    0    0  501    0  0.00000000000E+00  0.00000000000E+00  0.12545310033E+04  0.12545310033E+04  0.50400001928E-02 0. -1.
       -1   -1    0    0    0  501  0.00000000000E+00  0.00000000000E+00 -0.24102901058E+03  0.24102901063E+03  0.50400001928E-02 0.  1.
    10030    2    1    2    0    0  0.00000000000E+00  0.00000000000E+00  0.10135019927E+04  0.14955600140E+04  0.10997788260E+04 0.  0.
        4    1    3    3  502    0  0.53149782824E+03  0.76829676975E+02  0.66756149535E+03  0.85675708557E+03  0.12699999809E+01 0.  1.
       -4    1    3    3    0  502 -0.53149782824E+03 -0.76829676975E+02  0.34594049739E+03  0.63880292839E+03  0.12699999809E+01 0. -1.
</event>
<event>
 5   0  0.8621738E-05  0.1100157E+04  0.7818609E-02  0.9205039E-01
        1   -1    0    0  501    0  0.00000000000E+00  0.00000000000E+00  0.13302271145E+03  0.13302271155E+03  0.50400001928E-02 0. -1.
       -1   -1    0    0    0  501  0.00000000000E+00  0.00000000000E+00 -0.22746962366E+04  0.22746962366E+04  0.50400001928E-02 0.  1.
    10030    2    1    2    0    0  0.00000000000E+00  0.00000000000E+00 -0.21416735251E+04  0.24077189481E+04  0.11001568274E+04 0.  0.
        2    1    3    3  502    0 -0.46080897344E+03  0.10882916804E+03 -0.16836137889E+04  0.17489265531E+04  0.25500000920E-02 0.  1.
       -2    1    3    3    0  502  0.46080897344E+03 -0.10882916804E+03 -0.45805973617E+03  0.65879239502E+03  0.25500000920E-02 0. -1.
</event>
<event>
 5   0  0.1553937E-04  0.1100025E+04  0.7818609E-02  0.9205168E-01
        2   -1    0    0  501    0  0.00000000000E+00  0.00000000000E+00  0.56331409805E+03  0.56331409805E+03  0.25500000920E-02 0.  1.
       -2   -1    0    0    0  501  0.00000000000E+00  0.00000000000E+00 -0.53702471031E+03  0.53702471032E+03  0.25500000920E-02 0. -1.
    10030    2    1    2    0    0  0.00000000000E+00  0.00000000000E+00  0.26289387735E+02  0.11003388084E+04  0.11000247094E+04 0.  0.
        1    1    3    3  502    0  0.13420900512E+03 -0.21457428155E+03 -0.47531780098E+03  0.53849901701E+03  0.50400001928E-02 0. -1.
       -1    1    3    3    0  502 -0.13420900512E+03  0.21457428155E+03  0.50160718872E+03  0.56183979136E+03  0.50400001928E-02 0.  1.
</event>
<event>
 5   0  0.1503277E-04  0.1100088E+04  0.7818609E-02  0.9205106E-01
        2   -1    0    0  501    0  0.00000000000E+00  0.00000000000E+00  0.71071470366E+03  0.71071470366E+03  0.25500000920E-02 0. -1.
       -2   -1    0    0    0  501  0.00000000000E+00  0.00000000000E+00 -0.42569635643E+03  0.42569635644E+03  0.25500000920E-02 0.  1.
    10030    2    1    2    0    0  0.00000000000E+00  0.00000000000E+00  0.28501834723E+03  0.11364110601E+04  0.11000884688E+04 0.  0.
        5    1    3    3  502    0  0.13787555009E+03  0.10178324569E+03  0.68241009042E+03  0.70361574593E+03  0.46999998093E+01 0. -1.
       -5    1    3    3    0  502 -0.13787555009E+03 -0.10178324569E+03 -0.39739174319E+03  0.43279531417E+03  0.46999998093E+01 0.  1.
</event>
<event>
 5   0  0.1464205E-04  0.1100170E+04  0.7818609E-02  0.9205026E-01
       -2   -1    0    0    0  501  0.00000000000E+00  0.00000000000E+00  0.41855176546E+03  0.41855176547E+03  0.25500000920E-02 0.  1.
        2   -1    0    0  501    0  0.00000000000E+00  0.00000000000E+00 -0.72295349811E+03  0.72295349812E+03  0.25500000920E-02 0. -1.
    10030    2    1    2    0    0  0.00000000000E+00  0.00000000000E+00 -0.30440173265E+03  0.11415052636E+04  0.11001699196E+04 0.  0.
        3    1    3    3  502    0 -0.11646906157E+03 -0.35004110922E+03 -0.57557545855E+03  0.68365264508E+03  0.10100000352E+00 0. -1.
       -3    1    3    3    0  502  0.11646906157E+03  0.35004110922E+03  0.27117372590E+03  0.45785261850E+03  0.10100000352E+00 0.  1.
</event>
<event>
 5   0  0.9016738E-05  0.1096780E+04  0.7818609E-02  0.9208336E-01
        1   -1    0    0  501    0  0.00000000000E+00  0.00000000000E+00  0.52560971511E+03  0.52560971513E+03  0.50400001928E-02 0.  1.
       -1   -1    0    0    0  501  0.00000000000E+00  0.00000000000E+00 -0.57215729576E+03  0.57215729578E+03  0.50400001928E-02 0. -1.
    10030    2    1    2    0    0  0.00000000000E+00  0.00000000000E+00 -0.46547580650E+02  0.10977670109E+04  0.10967797103E+04 0.  0.
        4    1    3    3  502    0 -0.19861727442E+03  0.18832621127E+03 -0.49890071059E+03  0.56905106579E+03  0.12699999809E+01 0. -1.
       -4    1    3    3    0  502  0.19861727442E+03 -0.18832621127E+03  0.45235312994E+03  0.52871594512E+03  0.12699999809E+01 0.  1.
</event>
<event>
 5   0  0.1553937E-04  0.1103774E+04  0.7818609E-02  0.9201521E-01
       -2   -1    0    0    0  501  0.00000000000E+00  0.00000000000E+00  0.88949157793E+03  0.88949157793E+03  0.25500000920E-02 0.  1.
        2   -1    0    0  501    0  0.00000000000E+00  0.00000000000E+00 -0.34241955438E+03  0.34241955439E+03  0.25500000920E-02 0. -1.
    10030    2    1    2    0    0  0.00000000000E+00  0.00000000000E+00  0.54707202354E+03  0.12319111323E+04  0.11037740888E+04 0.  0.
        1    1    3    3  502    0  0.81239167189E+02 -0.52914415290E+03  0.42321683131E+03  0.68242642326E+03  0.50400001928E-02 0. -1.
       -1    1    3    3    0  502 -0.81239167189E+02  0.52914415290E+03  0.12385519223E+03  0.54948470907E+03  0.50400001928E-02 0.  1.
</event>
<event>
 5   0  0.9016738E-05  0.1100267E+04  0.7818609E-02  0.9204932E-01
        1   -1    0    0  501    0  0.00000000000E+00  0.00000000000E+00  0.97651061240E+03  0.97651061242E+03  0.50400001928E-02 0.  1.
       -1   -1    0    0    0  501  0.00000000000E+00  0.00000000000E+00 -0.30992668117E+03  0.30992668121E+03  0.50400001928E-02 0. -1.
    10030    2    1    2    0    0  0.00000000000E+00  0.00000000000E+00  0.66658393123E+03  0.12864372936E+04  0.11002666827E+04 0.  0.
        4    1    3    3  502    0 -0.34781975676E+03 -0.41119843397E+03  0.46444292002E+03  0.71117619065E+03  0.12699999809E+01 0. -1.
       -4    1    3    3    0  502  0.34781975676E+03  0.41119843397E+03  0.20214101121E+03  0.57526110298E+03  0.12699999809E+01 0.  1.
</event>
<event>
 5   0  0.1464205E-04  0.1103353E+04  0.7818609E-02  0.9201930E-01
       -2   -1    0    0    0  501  0.00000000000E+00  0.00000000000E+00  0.90322577326E+03  0.90322577326E+03  0.25500000920E-02 0.  1.
        2   -1    0    0  501    0  0.00000000000E+00  0.00000000000E+00 -0.33695559234E+03  0.33695559235E+03  0.25500000920E-02 0. -1.
    10030    2    1    2    0    0  0.00000000000E+00  0.00000000000E+00  0.56627018092E+03  0.12401813656E+04  0.11033530268E+04 0.  0.
        3    1    3    3  502    0  0.71337019637E+02 -0.30102310772E+03  0.79655500140E+03  0.85451960902E+03  0.10100000352E+00 0.  1.
       -3    1    3    3    0  502 -0.71337019637E+02  0.30102310772E+03 -0.23028482048E+03  0.38566175659E+03  0.10100000352E+00 0. -1.
</event>
<event>
 5   0  0.1574101E-04  0.1100329E+04  0.7818609E-02  0.9204871E-01
        2   -1    0    0  501    0  0.00000000000E+00  0.00000000000E+00  0.10796734573E+04  0.10796734573E+04  0.25500000920E-02 0. -1.
       -2   -1    0    0    0  501  0.00000000000E+00  0.00000000000E+00 -0.28034506539E+03  0.28034506540E+03  0.25500000920E-02 0.  1.
    10030    2    1    2    0    0  0.00000000000E+00  0.00000000000E+00  0.79932839191E+03  0.13600185227E+04  0.11003292707E+04 0.  0.
        4    1    3    3  502    0 -0.48654713927E+03  0.25660260665E+03  0.41241947802E+03  0.68750596741E+03  0.12699999809E+01 0. -1.
       -4    1    3    3    0  502  0.48654713927E+03 -0.25660260665E+03  0.38690891389E+03  0.67251255529E+03  0.12699999809E+01 0.  1.
</event>
<event>
 5   0  0.8657442E-05  0.1100558E+04  0.7818609E-02  0.9204649E-01
        1   -1    0    0  501    0  0.00000000000E+00  0.00000000000E+00  0.82949294805E+03  0.82949294807E+03  0.50400001928E-02 0.  1.
       -1   -1    0    0    0  501  0.00000000000E+00  0.00000000000E+00 -0.36505037390E+03  0.36505037394E+03  0.50400001928E-02 0. -1.
    10030    2    1    2    0    0  0.00000000000E+00  0.00000000000E+00  0.46444257415E+03  0.11945433220E+04  0.11005575148E+04 0.  0.
        1    1    3    3  502    0 -0.31268425166E+03 -0.45241152107E+03  0.25278909069E+03  0.60526849417E+03  0.50400001928E-02 0.  1.
       -1    1    3    3    0  502  0.31268425166E+03  0.45241152107E+03  0.21165348345E+03  0.58927482783E+03  0.50400001928E-02 0. -1.
</event>
<event>
 5   0  0.1553937E-04  0.1100433E+04  0.7818609E-02  0.9204770E-01
       -2   -1    0    0    0  501  0.00000000000E+00  0.00000000000E+00  0.49256785060E+03  0.49256785060E+03  0.25500000920E-02 0. -1.
        2   -1    0    0  501    0  0.00000000000E+00  0.00000000000E+00 -0.61461187636E+03  0.61461187637E+03  0.25500000920E-02 0.  1.
    10030    2    1    2    0    0  0.00000000000E+00  0.00000000000E+00 -0.12204402577E+03  0.11071797270E+04  0.11004327347E+04 0.  0.
        1    1    3    3  502    0  0.27651198896E+03 -0.39062054378E+03 -0.33415423203E+03  0.58369713043E+03  0.50400001928E-02 0.  1.
       -1    1    3    3    0  502 -0.27651198896E+03  0.39062054378E+03  0.21211020626E+03  0.52348259654E+03  0.50400001928E-02 0. -1.
</event>
<event>
 5   0  0.8921459E-05  0.1099495E+04  0.7818609E-02  0.9205684E-01
       -1   -1    0    0    0  501  0.00000000000E+00  0.00000000000E+00  0.68357074983E+03  0.68357074985E+03  0.50400001928E-02 0.  1.
        1   -1    0    0  501    0  0.00000000000E+00  0.00000000000E+00 -0.44212293521E+03  0.44212293524E+03  0.50400001928E-02 0. -1.
    10030    2    1    2    0    0  0.00000000000E+00  0.00000000000E+00  0.24144781462E+03  0.11256936851E+04  0.10994949866E+04 0.  0.
        3    1    3    3  502    0 -0.43573962706E+03  0.19577392393E+03  0.39928384783E+03  0.62259461387E+03  0.10100000352E+00 0.  1.
       -3    1    3    3    0  502  0.43573962706E+03 -0.19577392393E+03 -0.15783603320E+03  0.50309907122E+03  0.10100000352E+00 0. -1.
</event>
<event>
 5   0  0.9346836E-05  0.1100047E+04  0.7818609E-02  0.9205146E-01
        1   -1    0    0  501    0  0.00000000000E+00  0.00000000000E+00  0.13302811309E+04  0.13302811309E+04  0.50400001928E-02 0. -1.
       -1   -1    0    0    0  501  0.00000000000E+00  0.00000000000E+00 -0.22741501975E+03  0.22741501981E+03  0.50400001928E-02 0.  1.
    10030    2    1    2    0    0  0.00000000000E+00  0.00000000000E+00  0.11028661112E+04  0.15576961508E+04  0.11000471076E+04 0.  0.
        5    1    3    3  502    0  0.37769655368E+03 -0.11731578837E+03  0.10926557120E+04  0.11620397049E+04  0.46999998093E+01 0. -1.
       -5    1    3    3    0  502 -0.37769655368E+03  0.11731578837E+03  0.10210399158E+02  0.39565644581E+03  0.46999998093E+01 0.  1.
</event>
<event>
 5   0  0.9016738E-05  0.1098811E+04  0.7818609E-02  0.9206351E-01
        1   -1    0    0  501    0  0.00000000000E+00  0.00000000000E+00  0.12906680656E+04  0.12906680656E+04  0.50400001928E-02 0.  1.
       -1   -1    0    0    0  501  0.00000000000E+00  0.00000000000E+00 -0.23386852814E+03  0.23386852820E+03  0.50400001928E-02 0. -1.
    10030    2    1    2    0    0  0.00000000000E+00  0.00000000000E+00  0.10567995374E+04  0.15245365938E+04  0.10988114322E+04 0.  0.
        4    1    3    3  502    0  0.45737078996E+02 -0.18542609871E+03  0.12431278564E+04  0.12577134804E+04  0.12699999809E+01 0.  1.
       -4    1    3    3    0  502 -0.45737078996E+02  0.18542609871E+03 -0.18632831899E+03  0.26682311338E+03  0.12699999809E+01 0. -1.
</event>
<event>
 5   0  0.8921459E-05  0.1099987E+04  0.7818609E-02  0.9205205E-01
       -1   -1    0    0    0  501  0.00000000000E+00  0.00000000000E+00  0.39061795621E+03  0.39061795624E+03  0.50400001928E-02 0.  1.
        1   -1    0    0  501    0  0.00000000000E+00  0.00000000000E+00 -0.77439510521E+03  0.77439510522E+03  0.50400001928E-02 0. -1.
    10030    2    1    2    0    0  0.00000000000E+00  0.00000000000E+00 -0.38377714900E+03  0.11650130615E+04  0.10999866060E+04 0.  0.
        3    1    3    3  502    0  0.78205029911E+02 -0.40546811808E+03 -0.57664388999E+03  0.70925214666E+03  0.10100000352E+00 0. -1.
       -3    1    3    3    0  502 -0.78205029911E+02  0.40546811808E+03  0.19286674099E+03  0.45576091480E+03  0.10100000352E+00 0.  1.
</event>
<event>
 5   0  0.8921459E-05  0.1100030E+04  0.7818609E-02  0.9205163E-01
        1   -1    0    0  501    0  0.00000000000E+00  0.00000000000E+00  0.97247437581E+03  0.97247437583E+03  0.50400001928E-02 0. -1.
       -1   -1    0    0    0  501  0.00000000000E+00  0.00000000000E+00 -0.31107894635E+03  0.31107894639E+03  0.50400001928E-02 0.  1.
    10030    2    1    2    0    0  0.00000000000E+00  0.00000000000E+00  0.66139542947E+03  0.12835533222E+04  0.11000296436E+04 0.  0.
        3    1    3    3  502    0 -0.20504110089E+03 -0.49430677851E+03  0.47891449388E+03  0.71815050441E+03  0.10100000352E+00 0.  1.
       -3    1    3    3    0  502  0.20504110089E+03  0.49430677851E+03  0.18248093559E+03  0.56540281781E+03  0.10100000352E+00 0. -1.
</event>
<event>
 5   0  0.9016738E-05  0.1100139E+04  0.7818609E-02  0.9205056E-01
       -1   -1    0    0    0  501  0.00000000000E+00  0.00000000000E+00  0.31424968359E+03  0.31424968363E+03  0.50400001928E-02 0. -1.
        1   -1    0    0  501    0  0.00000000000E+00  0.00000000000E+00 -0.96285371472E+03  0.96285371473E+03  0.50400001928E-02 0.  1.
    10030    2    1    2    0    0  0.00000000000E+00  0.00000000000E+00 -0.64860403113E+03  0.12771033984E+04  0.11001390371E+04 0.  0.
        4    1    3    3  502    0  0.53518915184E+03  0.11932007484E+03 -0.37503759858E+03  0.66431884043E+03  0.12699999809E+01 0.  1.
       -4    1    3    3    0  502 -0.53518915184E+03 -0.11932007484E+03 -0.27356643255E+03  0.61278455792E+03  0.12699999809E+01 0. -1.
</event>
<event>
 5   0  0.8921459E-05  0.1099209E+04  0.7818609E-02  0.9205963E-01
        1   -1    0    0  501    0  0.00000000000E+00  0.00000000000E+00  0.14212028441E+04  0.14212028442E+04  0.50400001928E-02 0.  1.
       -1   -1    0    0    0  501  0.00000000000E+00  0.00000000000E+00 -0.21254180294E+03  0.21254180300E+03  0.50400001928E-02 0. -1.
    10030    2    1    2    0    0  0.00000000000E+00  0.00000000000E+00  0.12086610412E+04  0.16337446472E+04  0.10992088335E+04 0.  0.
        3    1    3    3  502    0 -0.11953769380E+03 -0.41918979108E+03  0.10679868684E+03  0.44879317163E+03  0.10100000352E+00 0. -1.
       -3    1    3    3    0  502  0.11953769380E+03  0.41918979108E+03  0.11018623544E+04  0.11849514755E+04  0.10100000352E+00 0.  1.
</event>
<event>
 5   0  0.8657442E-05  0.1099836E+04  0.7818609E-02  0.9205352E-01
       -1   -1    0    0    0  501  0.00000000000E+00  0.00000000000E+00  0.31929437810E+03  0.31929437814E+03  0.50400001928E-02 0. -1.
        1   -1    0    0  501    0  0.00000000000E+00  0.00000000000E+00 -0.94711931161E+03  0.94711931162E+03  0.50400001928E-02 0.  1.
    10030    2    1    2    0    0  0.00000000000E+00  0.00000000000E+00 -0.62782493351E+03  0.12664136898E+04  0.10998361180E+04 0.  0.
        1    1    3    3  502    0 -0.42680069532E+02 -0.42363936446E+03  0.86817586772E+02  0.43454481110E+03  0.50400001928E-02 0. -1.
       -1    1    3    3    0  502  0.42680069532E+02  0.42363936446E+03 -0.71464252028E+03  0.83186887866E+03  0.50400001928E-02 0.  1.
</event>
<event>
 5   0  0.8921459E-05  0.1098230E+04  0.7818609E-02  0.9206918E-01
       -1   -1    0    0    0  501  0.00000000000E+00  0.00000000000E+00  0.26615902188E+03  0.26615902193E+03  0.50400001928E-02 0. -1.
        1   -1    0    0  501    0  0.00000000000E+00  0.00000000000E+00 -0.11328846125E+04  0.11328846125E+04  0.50400001928E-02 0.  1.
    10030    2    1    2    0    0  0.00000000000E+00  0.00000000000E+00 -0.86672559063E+03  0.13990436344E+04  0.10982303227E+04 0.  0.
        3    1    3    3  502    0  0.42939852620E+02  0.49490548650E+03 -0.73144670363E+03  0.88418864614E+03  0.10100000352E+00 0. -1.
       -3    1    3    3    0  502 -0.42939852620E+02 -0.49490548650E+03 -0.13527888701E+03  0.51485498831E+03  0.10100000352E+00 0.  1.
</event>
<event>
 5   0  0.1464205E-04  0.1100512E+04  0.7818609E-02  0.9204693E-01
        2   -1    0    0  501    0  0.00000000000E+00  0.00000000000E+00  0.16113446248E+04  0.16113446248E+04  0.25500000920E-02 0. -1.
       -2   -1    0    0    0  501  0.00000000000E+00  0.00000000000E+00 -0.18790622086E+03  0.18790622088E+03  0.25500000920E-02 0.  1.
    10030    2    1    2    0    0  0.00000000000E+00  0.00000000000E+00  0.14234384040E+04  0.17992508457E+04  0.11005120244E+04 0.  0.
        3    1    3    3  502    0  0.30586316384E+03 -0.33807442293E+01 -0.36099650444E+02  0.30800470677E+03  0.10100000352E+00 0.  1.
       -3    1    3    3    0  502 -0.30586316384E+03  0.33807442293E+01  0.14595380544E+04  0.14912461389E+04  0.10100000352E+00 0. -1.
</event>
<event>
 5   0  0.1540772E-04  0.1099170E+04  0.7818609E-02  0.9206002E-01
        2   -1    0    0  501    0  0.00000000000E+00  0.00000000000E+00  0.28791344130E+03  0.28791344132E+03  0.25500000920E-02 0. -1.
       -2   -1    0    0    0  501  0.00000000000E+00  0.00000000000E+00 -0.10490771160E+04  0.10490771160E+04  0.25500000920E-02 0.  1.
    10030    2    1    2    0    0  0.00000000000E+00  0.00000000000E+00 -0.76116367468E+03  0.13369905573E+04  0.10991695095E+04 0.  0.
        2    1    3    3  502    0 -0.45925656400E+03  0.29684694892E+03 -0.44730138762E+03  0.70647946470E+03  0.25500000920E-02 0. -1.
       -2    1    3    3    0  502  0.45925656400E+03 -0.29684694892E+03 -0.31386228705E+03  0.63051109261E+03  0.25500000920E-02 0.  1.
</event>
<event>
 5   0  0.9346836E-05  0.1100603E+04  0.7818609E-02  0.9204604E-01
       -1   -1    0    0    0  501  0.00000000000E+00  0.00000000000E+00  0.78781273967E+03  0.78781273968E+03  0.50400001928E-02 0.  1.
        1   -1    0    0  501    0  0.00000000000E+00  0.00000000000E+00 -0.38439554229E+03  0.38439554232E+03  0.50400001928E-02 0. -1.
    10030    2    1    2    0    0  0.00000000000E+00  0.00000000000E+00  0.40341719738E+03  0.11722082820E+04  0.11006029353E+04 0.  0.
        5    1    3    3  502    0  0.36873787947E+03  0.10580026659E+03 -0.21848197241E+03  0.44149494044E+03  0.46999998093E+01 0. -1.
       -5    1    3    3    0  502 -0.36873787947E+03 -0.10580026659E+03  0.62189916978E+03  0.73071334157E+03  0.46999998093E+01 0.  1.
</event>
<event>
 5   0  0.1464205E-04  0.1098488E+04  0.7818609E-02  0.9206667E-01
        2   -1    0    0  501    0  0.00000000000E+00  0.00000000000E+00  0.21750755858E+04  0.21750755858E+04  0.25500000920E-02 0. -1.
       -2   -1    0    0    0  501  0.00000000000E+00  0.00000000000E+00 -0.13869350670E+03  0.13869350672E+03  0.25500000920E-02 0.  1.
    10030    2    1    2    0    0  0.00000000000E+00  0.00000000000E+00  0.20363820791E+04  0.23137690925E+04  0.10984877976E+04 0.  0.
        3    1    3    3  502    0  0.48623487737E+03 -0.22311904185E+01  0.48019368072E+03  0.68338518815E+03  0.10100000352E+00 0. -1.
       -3    1    3    3    0  502 -0.48623487737E+03  0.22311904185E+01  0.15561883983E+04  0.16303839043E+04  0.10100000352E+00 0.  1.
</event>
<event>
 5   0  0.1553937E-04  0.1099879E+04  0.7818609E-02  0.9205310E-01
       -2   -1    0    0    0  501  0.00000000000E+00  0.00000000000E+00  0.13362089039E+04  0.13362089039E+04  0.25500000920E-02 0.  1.
        2   -1    0    0  501    0  0.00000000000E+00  0.00000000000E+00 -0.22633701539E+03  0.22633701540E+03  0.25500000920E-02 0. -1.
    10030    2    1    2    0    0  0.00000000000E+00  0.00000000000E+00  0.11098718885E+04  0.15625459193E+04  0.10998791484E+04 0.  0.
        1    1    3    3  502    0 -0.86859262140E+02  0.48214241868E+03  0.19997836040E+03  0.52914760509E+03  0.50400001928E-02 0. -1.
       -1    1    3    3    0  502  0.86859262140E+02 -0.48214241868E+03  0.90989352814E+03  0.10333983143E+04  0.50400001928E-02 0.  1.
</event>
<event>
 5   0  0.1574101E-04  0.1100745E+04  0.7818609E-02  0.9204466E-01
        2   -1    0    0  501    0  0.00000000000E+00  0.00000000000E+00  0.56626933986E+03  0.56626933987E+03  0.25500000920E-02 0.  1.
       -2   -1    0    0    0  501  0.00000000000E+00  0.00000000000E+00 -0.53492161065E+03  0.53492161066E+03  0.25500000920E-02 0. -1.
    10030    2    1    2    0    0  0.00000000000E+00  0.00000000000E+00  0.31347729207E+02  0.11011909505E+04  0.11007446704E+04 0.  0.
        4    1    3    3  502    0  0.20847778144E+03 -0.92955184837E+02 -0.48533297527E+03  0.53633325603E+03  0.12699999809E+01 0. -1.
       -4    1    3    3    0  502 -0.20847778144E+03  0.92955184837E+02  0.51668070448E+03  0.56485769449E+03  0.12699999809E+01 0.  1.
</event>
<event>
 5   0  0.1540772E-04  0.1101009E+04  0.7818609E-02  0.9204209E-01
       -2   -1    0    0    0  501  0.00000000000E+00  0.00000000000E+00  0.34498417910E+03  0.34498417911E+03  0.25500000920E-02 0. -1.
        2   -1    0    0  501    0  0.00000000000E+00  0.00000000000E+00 -0.87846076742E+03  0.87846076742E+03  0.25500000920E-02 0.  1.
    10030    2    1    2    0    0  0.00000000000E+00  0.00000000000E+00 -0.53347658832E+03  0.12234449465E+04  0.11010087497E+04 0.  0.
        2    1    3    3  502    0 -0.29591363547E+02  0.55861264241E+02  0.34093766312E+03  0.34674864064E+03  0.25500000920E-02 0. -1.
       -2    1    3    3    0  502  0.29591363547E+02 -0.55861264241E+02 -0.87441425144E+03  0.87669630590E+03  0.25500000920E-02 0.  1.
</event>
<event>
 5   0  0.9346836E-05  0.1093812E+04  0.7818609E-02  0.9211244E-01
       -1   -1    0    0    0  501  0.00000000000E+00  0.00000000000E+00  0.49197302071E+03  0.49197302073E+03  0.50400001928E-02 0. -1.
        1   -1    0    0  501    0  0.00000000000E+00  0.00000000000E+00 -0.60797302321E+03  0.60797302323E+03  0.50400001928E-02 0.  1.
    10030    2    1    2    0    0  0.00000000000E+00  0.00000000000E+00 -0.11600000250E+03  0.10999460440E+04  0.10938122778E+04 0.  0.
        5    1    3    3  502    0 -0.30598165239E+03 -0.35633302527E+03  0.22372497139E+03  0.52026238507E+03  0.46999998093E+01 0. -1.
       -5    1    3    3    0  502  0.30598165239E+03  0.35633302527E+03 -0.33972497389E+03  0.57968365889E+03  0.46999998093E+01 0.  1.
</event>
<event>
 5   0  0.1540772E-04  0.1102026E+04  0.7818609E-02  0.9203220E-01
        2   -1    0    0  501    0  0.00000000000E+00  0.00000000000E+00  0.81282582469E+03  0.81282582469E+03  0.25500000920E-02 0.  1.
       -2   -1    0    0    0  501  0.00000000000E+00  0.00000000000E+00 -0.37353031625E+03  0.37353031626E+03  0.25500000920E-02 0. -1.
    10030    2    1    2    0    0  0.00000000000E+00  0.00000000000E+00  0.43929550843E+03  0.11863561409E+04  0.11020255666E+04 0.  0.
        2    1    3    3  502    0 -0.32223234244E+03  0.36235070565E+03  0.50136664986E+03  0.69749568744E+03  0.25500000920E-02 0.  1.
       -2    1    3    3    0  502  0.32223234244E+03 -0.36235070565E+03 -0.62071141427E+02  0.48886045351E+03  0.25500000920E-02 0. -1.
</event>
<event>
 5   0  0.9346836E-05  0.1100404E+04  0.7818609E-02  0.9204799E-01
       -1   -1    0    0    0  501  0.00000000000E+00  0.00000000000E+00  0.84936458785E+03  0.84936458786E+03  0.50400001928E-02 0. -1.
        1   -1    0    0  501    0  0.00000000000E+00  0.00000000000E+00 -0.35640998457E+03  0.35640998461E+03  0.50400001928E-02 0.  1.
    10030    2    1    2    0    0  0.00000000000E+00  0.00000000000E+00  0.49295460328E+03  0.12057745725E+04  0.11004035981E+04 0.  0.
        5    1    3    3  502    0 -0.10244551461E+03  0.27830534728E+02 -0.34505910210E+03  0.36105054503E+03  0.46999998093E+01 0.  1.
       -5    1    3    3    0  502  0.10244551461E+03 -0.27830534728E+02  0.83801370538E+03  0.84472402744E+03  0.46999998093E+01 0. -1.
</event>
<event>
 5   0  0.8621738E-05  0.1100146E+04  0.7818609E-02  0.9205049E-01
       -1   -1    0    0    0  501  0.00000000000E+00  0.00000000000E+00  0.23000196609E+03  0.23000196614E+03  0.50400001928E-02 0. -1.
        1   -1    0    0  501    0  0.00000000000E+00  0.00000000000E+00 -0.13155557589E+04  0.13155557589E+04  0.50400001928E-02 0.  1.
    10030    2    1    2    0    0  0.00000000000E+00  0.00000000000E+00 -0.10855537928E+04  0.15455577250E+04  0.11001461923E+04 0.  0.
        2    1    3    3  502    0  0.21207218792E+03  0.41207658899E+02 -0.12534608831E+04  0.12719421644E+04  0.25500000920E-02 0.  1.
       -2    1    3    3    0  502 -0.21207218792E+03 -0.41207658899E+02  0.16790709032E+03  0.27361556065E+03  0.25500000920E-02 0. -1.
</event>
<event>
 5   0  0.8621738E-05  0.1100256E+04  0.7818609E-02  0.9204942E-01
       -1   -1    0    0    0  501  0.00000000000E+00  0.00000000000E+00  0.40099858180E+03  0.40099858183E+03  0.50400001928E-02 0. -1.
        1   -1    0    0  501    0  0.00000000000E+00  0.00000000000E+00 -0.75471828863E+03  0.75471828865E+03  0.50400001928E-02 0.  1.
    10030    2    1    2    0    0  0.00000000000E+00  0.00000000000E+00 -0.35371970683E+03  0.11557168705E+04  0.11002562673E+04 0.  0.
        2    1    3    3  502    0  0.13189441414E+03  0.11636964801E+03  0.37066616833E+03  0.41028214659E+03  0.25500000920E-02 0. -1.
       -2    1    3    3    0  502 -0.13189441414E+03 -0.11636964801E+03 -0.72438587515E+03  0.74543472389E+03  0.25500000920E-02 0.  1.
</event>
<event>
 5   0  0.8621738E-05  0.1100151E+04  0.7818609E-02  0.9205044E-01
       -1   -1    0    0    0  501  0.00000000000E+00  0.00000000000E+00  0.28930715806E+03  0.28930715810E+03  0.50400001928E-02 0. -1.
        1   -1    0    0  501    0  0.00000000000E+00  0.00000000000E+00 -0.10458893636E+04  0.10458893637E+04  0.50400001928E-02 0.  1.
    10030    2    1    2    0    0  0.00000000000E+00  0.00000000000E+00 -0.75658220559E+03  0.13351965218E+04  0.11001514068E+04 0.  0.
        2    1    3    3  502    0 -0.20467156466E+03 -0.37478921125E+03  0.42524380971E+02  0.42914534278E+03  0.25500000920E-02 0. -1.
       -2    1    3    3    0  502  0.20467156466E+03  0.37478921125E+03 -0.79910658656E+03  0.90605117898E+03  0.25500000920E-02 0.  1.
</event>
<event>
 5   0  0.1553937E-04  0.1099509E+04  0.7818609E-02  0.9205670E-01
        2   -1    0    0  501    0  0.00000000000E+00  0.00000000000E+00  0.85567069179E+03  0.85567069179E+03  0.25500000920E-02 0. -1.
       -2   -1    0    0    0  501  0.00000000000E+00  0.00000000000E+00 -0.35320844377E+03  0.35320844378E+03  0.25500000920E-02 0.  1.
    10030    2    1    2    0    0  0.00000000000E+00  0.00000000000E+00  0.50246224802E+03  0.12088791356E+04  0.10995091877E+04 0.  0.
        1    1    3    3  502    0 -0.42250137120E+03 -0.10703871503E+01  0.63796009827E+03  0.76518079002E+03  0.50400001928E-02 0. -1.
       -1    1    3    3    0  502  0.42250137120E+03  0.10703871503E+01 -0.13549785025E+03  0.44369834555E+03  0.50400001928E-02 0.  1.
</event>
<event>
 5   0  0.1574101E-04  0.1099029E+04  0.7818609E-02  0.9206139E-01
       -2   -1    0    0    0  501  0.00000000000E+00  0.00000000000E+00  0.34115944497E+03  0.34115944498E+03  0.25500000920E-02 0. -1.
        2   -1    0    0  501    0  0.00000000000E+00  0.00000000000E+00 -0.88511710232E+03  0.88511710232E+03  0.25500000920E-02 0.  1.
    10030    2    1    2    0    0  0.00000000000E+00  0.00000000000E+00 -0.54395765735E+03  0.12262765473E+04  0.10990287701E+04 0.  0.
        4    1    3    3  502    0  0.40471835759E+03 -0.36605770685E+03 -0.34402459629E+03  0.64509668226E+03  0.12699999809E+01 0. -1.
       -4    1    3    3    0  502 -0.40471835759E+03  0.36605770685E+03 -0.19993306106E+03  0.58117986503E+03  0.12699999809E+01 0.  1.
</event>
<event>
 5   0  0.8921459E-05  0.1099705E+04  0.7818609E-02  0.9205480E-01
       -1   -1    0    0    0  501  0.00000000000E+00  0.00000000000E+00  0.26436343457E+03  0.26436343462E+03  0.50400001928E-02 0. -1.
        1   -1    0    0  501    0  0.00000000000E+00  0.00000000000E+00 -0.11436442645E+04  0.11436442645E+04  0.50400001928E-02 0.  1.
    10030    2    1    2    0    0  0.00000000000E+00  0.00000000000E+00 -0.87928082992E+03  0.14080076991E+04  0.10997049163E+04 0.  0.
        3    1    3    3  502    0  0.49343396028E+03 -0.24232543283E+03 -0.42454384160E+03  0.69457625370E+03  0.10100000352E+00 0. -1.
       -3    1    3    3    0  502 -0.49343396028E+03  0.24232543283E+03 -0.45473698832E+03  0.71343144542E+03  0.10100000352E+00 0.  1.
</event>
<event>
 5   0  0.1464205E-04  0.1100044E+04  0.7818609E-02  0.9205149E-01
       -2   -1    0    0    0  501  0.00000000000E+00  0.00000000000E+00  0.34942802821E+03  0.34942802822E+03  0.25500000920E-02 0. -1.
        2   -1    0    0  501    0  0.00000000000E+00  0.00000000000E+00 -0.86577010396E+03  0.86577010396E+03  0.25500000920E-02 0.  1.
    10030    2    1    2    0    0  0.00000000000E+00  0.00000000000E+00 -0.51634207575E+03  0.12151981322E+04  0.11000442542E+04 0.  0.
        3    1    3    3  502    0 -0.13012859452E+03  0.10162982237E+03 -0.83774687422E+03  0.85386293242E+03  0.10100000352E+00 0.  1.
       -3    1    3    3    0  502  0.13012859452E+03 -0.10162982237E+03  0.32140479846E+03  0.36133519976E+03  0.10100000352E+00 0. -1.
</event>
<event>
 5   0  0.8921459E-05  0.1100283E+04  0.7818609E-02  0.9204916E-01
       -1   -1    0    0    0  501  0.00000000000E+00  0.00000000000E+00  0.66427755753E+03  0.66427755755E+03  0.50400001928E-02 0.  1.
        1   -1    0    0  501    0  0.00000000000E+00  0.00000000000E+00 -0.45561635400E+03  0.45561635402E+03  0.50400001928E-02 0. -1.
    10030    2    1    2    0    0  0.00000000000E+00  0.00000000000E+00  0.20866120353E+03  0.11198939116E+04  0.11002830887E+04 0.  0.
        3    1    3    3  502    0 -0.25936033197E+03 -0.44704990487E+03  0.29619587888E+03  0.59569573451E+03  0.10100000352E+00 0.  1.
       -3    1    3    3    0  502  0.25936033197E+03  0.44704990487E+03 -0.87534675345E+02  0.52419817706E+03  0.10100000352E+00 0. -1.
</event>
<event>
 5   0  0.8621738E-05  0.1096338E+04  0.7818609E-02  0.9208768E-01
       -1   -1    0    0    0  501  0.00000000000E+00  0.00000000000E+00  0.13175094000E+04  0.13175094000E+04  0.50400001928E-02 0. -1.
        1   -1    0    0  501    0  0.00000000000E+00  0.00000000000E+00 -0.22807378525E+03  0.22807378530E+03  0.50400001928E-02 0.  1.
    10030    2    1    2    0    0  0.00000000000E+00  0.00000000000E+00  0.10894356148E+04  0.15455831853E+04  0.10963381887E+04 0.  0.
        2    1    3    3  502    0  0.27010459936E+03  0.17074085303E+03 -0.83191972870E+02  0.33019666541E+03  0.25500000920E-02 0.  1.
       -2    1    3    3    0  502 -0.27010459936E+03 -0.17074085303E+03  0.11726275877E+04  0.12153865199E+04  0.25500000920E-02 0. -1.
</event>
<event>
 5   0  0.1540772E-04  0.1102691E+04  0.7818609E-02  0.9202573E-01
        2   -1    0    0  501    0  0.00000000000E+00  0.00000000000E+00  0.14759373246E+04  0.14759373246E+04  0.25500000920E-02 0. -1.
       -2   -1    0    0    0  501  0.00000000000E+00  0.00000000000E+00 -0.20595837747E+03  0.20595837749E+03  0.25500000920E-02 0.  1.
    10030    2    1    2    0    0  0.00000000000E+00  0.00000000000E+00  0.12699789471E+04  0.16818957021E+04  0.11026906305E+04 0.  0.
        2    1    3    3  502    0  0.72049743278E+02  0.12253512295E+03  0.14475073565E+04  0.14544702021E+04  0.25500000920E-02 0. -1.
       -2    1    3    3    0  502 -0.72049743278E+02 -0.12253512295E+03 -0.17752840939E+03  0.22742549991E+03  0.25500000920E-02 0.  1.
</event>
<event>
 5   0  0.9346836E-05  0.1100221E+04  0.7818609E-02  0.9204977E-01
        1   -1    0    0  501    0  0.00000000000E+00  0.00000000000E+00  0.16518540695E+04  0.16518540696E+04  0.50400001928E-02 0. -1.
       -1   -1    0    0    0  501  0.00000000000E+00  0.00000000000E+00 -0.18320112738E+03  0.18320112745E+03  0.50400001928E-02 0.  1.
    10030    2    1    2    0    0  0.00000000000E+00  0.00000000000E+00  0.14686529422E+04  0.18350551970E+04  0.11002209376E+04 0.  0.
        5    1    3    3  502    0  0.29725747768E+01  0.53230711263E+03  0.96567610711E+03  0.11026840582E+04  0.46999998093E+01 0. -1.
       -5    1    3    3    0  502 -0.29725747768E+01 -0.53230711263E+03  0.50297683506E+03  0.73237113881E+03  0.46999998093E+01 0.  1.
</event>
<event>
 5   0  0.9016738E-05  0.1099998E+04  0.7818609E-02  0.9205194E-01
       -1   -1    0    0    0  501  0.00000000000E+00  0.00000000000E+00  0.57922706150E+03  0.57922706152E+03  0.50400001928E-02 0.  1.
        1   -1    0    0  501    0  0.00000000000E+00  0.00000000000E+00 -0.52224597370E+03  0.52224597373E+03  0.50400001928E-02 0. -1.
    10030    2    1    2    0    0  0.00000000000E+00  0.00000000000E+00  0.56981087797E+02  0.11014730352E+04  0.10999981832E+04 0.  0.
        4    1    3    3  502    0  0.41402649482E+03  0.29059455902E+03 -0.18774864724E+03  0.53955009368E+03  0.12699999809E+01 0. -1.
       -4    1    3    3    0  502 -0.41402649482E+03 -0.29059455902E+03  0.24472973504E+03  0.56192294157E+03  0.12699999809E+01 0.  1.
</event>
<event>
 5   0  0.1574101E-04  0.1099744E+04  0.7818609E-02  0.9205441E-01
       -2   -1    0    0    0  501  0.00000000000E+00  0.00000000000E+00  0.60149604543E+03  0.60149604544E+03  0.25500000920E-02 0. -1.
        2   -1    0    0  501    0  0.00000000000E+00  0.00000000000E+00 -0.50267903086E+03  0.50267903087E+03  0.25500000920E-02 0.  1.
    10030    2    1    2    0    0  0.00000000000E+00  0.00000000000E+00  0.98817014571E+02  0.11041750763E+04  0.10997444234E+04 0.  0.
        4    1    3    3  502    0 -0.41034926472E+02  0.32488989609E+03  0.49291261961E+03  0.59177848325E+03  0.12699999809E+01 0. -1.
       -4    1    3    3    0  502  0.41034926472E+02 -0.32488989609E+03 -0.39409560504E+03  0.51239659306E+03  0.12699999809E+01 0.  1.
</event>
<event>
 5   0  0.8657442E-05  0.1100367E+04  0.7818609E-02  0.9204834E-01
        1   -1    0    0  501    0  0.00000000000E+00  0.00000000000E+00  0.19840965494E+04  0.19840965494E+04  0.50400001928E-02 0.  1.
       -1   -1    0    0    0  501  0.00000000000E+00  0.00000000000E+00 -0.15256414315E+03  0.15256414323E+03  0.50400001928E-02 0. -1.
    10030    2    1    2    0    0  0.00000000000E+00  0.00000000000E+00  0.18315324063E+04  0.21366606927E+04  0.11003671934E+04 0.  0.
        1    1    3    3  502    0 -0.40624709316E+02 -0.18493392579E+03  0.19188388737E+04  0.19281580711E+04  0.50400001928E-02 0.  1.
       -1    1    3    3    0  502  0.40624709316E+02  0.18493392579E+03 -0.87306467431E+02  0.20850262156E+03  0.50400001928E-02 0. -1.
</event>
<event>
 5   0  0.1574101E-04  0.1104740E+04  0.7818609E-02  0.9200584E-01
       -2   -1    0    0    0  501  0.00000000000E+00  0.00000000000E+00  0.14048860380E+03  0.14048860382E+03  0.25500000920E-02 0. -1.
        2   -1    0    0  501    0  0.00000000000E+00  0.00000000000E+00 -0.21717968474E+04  0.21717968474E+04  0.25500000920E-02 0.  1.
    10030    2    1    2    0    0  0.00000000000E+00  0.00000000000E+00 -0.20313082436E+04  0.23122854512E+04  0.11047401629E+04 0.  0.
        4    1    3    3  502    0  0.34907945928E+03 -0.27076795333E+03 -0.32165668365E+03  0.54647633845E+03  0.12699999809E+01 0. -1.
       -4    1    3    3    0  502 -0.34907945928E+03  0.27076795333E+03 -0.17096515599E+04  0.17658091128E+04  0.12699999809E+01 0.  1.
</event>
<event>
 5   0  0.1503277E-04  0.1100508E+04  0.7818609E-02  0.9204697E-01
       -2   -1    0    0    0  501  0.00000000000E+00  0.00000000000E+00  0.16572543330E+03  0.16572543332E+03  0.25500000920E-02 0. -1.
        2   -1    0    0  501    0  0.00000000000E+00  0.00000000000E+00 -0.18269936606E+04  0.18269936606E+04  0.25500000920E-02 0.  1.
    10030    2    1    2    0    0  0.00000000000E+00  0.00000000000E+00 -0.16612682273E+04  0.19927190939E+04  0.11005077302E+04 0.  0.
        5    1    3    3  502    0  0.22312908669E+03  0.41034075338E+03 -0.13572759158E+04  0.14354045161E+04  0.46999998093E+01 0.  1.
       -5    1    3    3    0  502 -0.22312908669E+03 -0.41034075338E+03 -0.30399231151E+03  0.55731457783E+03  0.46999998093E+01 0. -1.
</event>
<event>
 5   0  0.9016738E-05  0.1099391E+04  0.7818609E-02  0.9205786E-01
       -1   -1    0    0    0  501  0.00000000000E+00  0.00000000000E+00  0.62344967271E+03  0.62344967273E+03  0.50400001928E-02 0.  1.
        1   -1    0    0  501    0  0.00000000000E+00  0.00000000000E+00 -0.48466607548E+03  0.48466607551E+03  0.50400001928E-02 0. -1.
    10030    2    1    2    0    0  0.00000000000E+00  0.00000000000E+00  0.13878359723E+03  0.11081157482E+04  0.10993905697E+04 0.  0.
        4    1    3    3  502    0 -0.28005104302E+03  0.14149040363E+03  0.52432203996E+03  0.61103464345E+03  0.12699999809E+01 0.  1.
       -4    1    3    3    0  502  0.28005104302E+03 -0.14149040363E+03 -0.38553844273E+03  0.49708110479E+03  0.12699999809E+01 0. -1.
</event>
<event>
 5   0  0.1503277E-04  0.1099796E+04  0.7818609E-02  0.9205391E-01
       -2   -1    0    0    0  501  0.00000000000E+00  0.00000000000E+00  0.24627988315E+03  0.24627988317E+03  0.25500000920E-02 0.  1.
        2   -1    0    0  501    0  0.00000000000E+00  0.00000000000E+00 -0.12278215281E+04  0.12278215281E+04  0.25500000920E-02 0. -1.
    10030    2    1    2    0    0  0.00000000000E+00  0.00000000000E+00 -0.98154164493E+03  0.14741014113E+04  0.10997958765E+04 0.  0.
        5    1    3    3  502    0  0.35373678948E+03  0.36045851522E+03 -0.19924869154E+03  0.54293847580E+03  0.46999998093E+01 0.  1.
       -5    1    3    3    0  502 -0.35373678948E+03 -0.36045851522E+03 -0.78229295340E+03  0.93116293545E+03  0.46999998093E+01 0. -1.
</event>
<event>
 5   0  0.6010125E-05  0.1101898E+04  0.7818609E-02  0.9203344E-01
       -4   -1    0    0    0  501  0.00000000000E+00  0.00000000000E+00  0.73302549056E+03  0.73302659072E+03  0.12699999809E+01 0.  1.
        4   -1    0    0  501    0  0.00000000000E+00  0.00000000000E+00 -0.41409619019E+03  0.41409813768E+03  0.12699999809E+01 0. -1.
    10030    2    1    2    0    0  0.00000000000E+00  0.00000000000E+00  0.31892930037E+03  0.11471247284E+04  0.11018980188E+04 0.  0.
        4    1    3    3  502    0 -0.51396776050E+03  0.17986923503E+03  0.24673495651E+03  0.59782568714E+03  0.12699999809E+01 0.  1.
       -4    1    3    3    0  502  0.51396776050E+03 -0.17986923503E+03  0.72194343857E+02  0.54929904126E+03  0.12699999809E+01 0. -1.
</event>
<event>
 5   0  0.1540772E-04  0.1098013E+04  0.7818609E-02  0.9207131E-01
        2   -1    0    0  501    0  0.00000000000E+00  0.00000000000E+00  0.12383737834E+04  0.12383737834E+04  0.25500000920E-02 0.  1.
       -2   -1    0    0    0  501  0.00000000000E+00  0.00000000000E+00 -0.24339018567E+03  0.24339018569E+03  0.25500000920E-02 0. -1.
    10030    2    1    2    0    0  0.00000000000E+00  0.00000000000E+00  0.99498359772E+03  0.14817639691E+04  0.10980127961E+04 0.  0.
        2    1    3    3  502    0  0.41053101041E+03  0.42924200077E+02  0.90006335133E+01  0.41286705956E+03  0.25500000920E-02 0. -1.
       -2    1    3    3    0  502 -0.41053101041E+03 -0.42924200077E+02  0.98598296421E+03  0.10688969095E+04  0.25500000920E-02 0.  1.
</event>
<event>
 5   0  0.8921459E-05  0.1100384E+04  0.7818609E-02  0.9204818E-01
       -1   -1    0    0    0  501  0.00000000000E+00  0.00000000000E+00  0.25696216181E+03  0.25696216186E+03  0.50400001928E-02 0.  1.
        1   -1    0    0  501    0  0.00000000000E+00  0.00000000000E+00 -0.11780371217E+04  0.11780371217E+04  0.50400001928E-02 0. -1.
    10030    2    1    2    0    0  0.00000000000E+00  0.00000000000E+00 -0.92107495992E+03  0.14349992836E+04  0.11003835068E+04 0.  0.
        3    1    3    3  502    0 -0.38492706861E+02 -0.50116395101E+03 -0.75232735361E+03  0.90478917514E+03  0.10100000352E+00 0. -1.
       -3    1    3    3    0  502  0.38492706861E+02  0.50116395101E+03 -0.16874760632E+03  0.53021010846E+03  0.10100000352E+00 0.  1.
</event>
</LesHouchesEvents>
