<LesHouchesEvents version="3.0">
<header>
<!--
#*********************************************************************
#                                                                    *
#                        MadGraph5_aMC@NLO                           *
#                                                                    *
#                           Going Beyond                             *
#                                                                    *
#                   http://madgraph.hep.uiuc.edu                     *
#                   http://madgraph.phys.ucl.ac.be                   *
#                   http://amcatnlo.cern.ch                          *
#                                                                    *
#                     The MadGraph5_aMC@NLO team                     *
#                                                                    *
#....................................................................*
#                                                                    *
# This file contains all the information necessary to reproduce      *
# the events generated:                                              *
#                                                                    *
# 1. software version                                                *
# 2. proc_card          : code generation info including model       *
# 3. param_card         : model primary parameters in the LH format  *
# 4. run_card           : running parameters (collider and cuts)     *
# 5. pythia_card        : present only if pythia has been run        *
# 6. pgs_card           : present only if pgs has been run           *
# 7. delphes_cards      : present only if delphes has been run       *
#                                                                    *
#                                                                    *
#*********************************************************************
-->
<MGVersion>
#5.2.2.3
</MGVersion>
<MG5ProcCard>
#************************************************************
#*                     MadGraph5_aMC@NLO                    *
#*                                                          *
#*                *                       *                 *
#*                  *        * *        *                   *
#*                    * * * * 5 * * * *                     *
#*                  *        * *        *                   *
#*                *                       *                 *
#*                                                          *
#*                                                          *
#*         VERSION 2.2.3                 2015-02-10         *
#*                                                          *
#*    The MadGraph5_aMC@NLO Development Team - Find us at   *
#*    https://server06.fynu.ucl.ac.be/projects/madgraph     *
#*                                                          *
#************************************************************
#*                                                          *
#*               Command File for MadGraph5_aMC@NLO         *
#*                                                          *
#*     run as ./bin/mg5_aMC  filename                       *
#*                                                          *
#************************************************************
set group_subprocesses Auto
set ignore_six_quark_processes False
set loop_optimized_output True
set gauge unitary
set complex_mass_scheme False
import model sm
define p = g u c d s u~ c~ d~ s~
define j = g u c d s u~ c~ d~ s~
define l+ = e+ mu+
define l- = e- mu-
define vl = ve vm vt
define vl~ = ve~ vm~ vt~
import model Zprime_UFO
generate p p > zph, zph > j j
add process p p > zph, zph > b b~
output Dijet_signal
</MG5ProcCard>
<MGProcCard>
#*********************************************************************
#                        MadGraph/MadEvent                           *
#                   http://madgraph.hep.uiuc.edu                     *
#                                                                    *
#                          proc_card.dat                             *
#*********************************************************************
#                                                                    *
#            This Files is generated by MADGRAPH 5                   *
#                                                                    *
# WARNING: This Files is generated for MADEVENT (compatibility issue)*
#          This files is NOT a valid MG4 proc_card.dat               *
#          Running this in MG4 will NEVER reproduce the result of MG5*
#                                                                    *
#*********************************************************************
#*********************************************************************
# Process(es) requested : mg2 input                                  *
#*********************************************************************
# Begin PROCESS # This is TAG. Do not modify this line
p p > zph , zph > j j           #Process
# Be carefull the coupling are here in MG5 convention
          
end_coup           # End the couplings input

done               # this tells MG there are no more procs
# End PROCESS  # This is TAG. Do not modify this line
#*********************************************************************
# Model information                                                  *
#*********************************************************************
# Begin MODEL  # This is TAG. Do not modify this line
Zprime_UFO
# End   MODEL  # This is TAG. Do not modify this line
#*********************************************************************
# Start multiparticle definitions                                    *
#*********************************************************************
# Begin MULTIPARTICLES # This is TAG. Do not modify this line

# End  MULTIPARTICLES # This is TAG. Do not modify this line
</MGProcCard>
<MGRunCard>
#*********************************************************************
#                       MadGraph5_aMC@NLO                            *
#                                                                    *
#                     run_card.dat MadEvent                          *
#                                                                    *
#  This file is used to set the parameters of the run.               *
#                                                                    *
#  Some notation/conventions:                                        *
#                                                                    *
#   Lines starting with a '# ' are info or comments                  *
#                                                                    *
#   mind the format:   value    = variable     ! comment             *
#*********************************************************************
#
#*******************                                                 
# Running parameters
#*******************                                                 
#                                                                    
#*********************************************************************
# Tag name for the run (one word)                                    *
#*********************************************************************
  tag_1     = run_tag ! name of the run 
#*********************************************************************
# Run to generate the grid pack                                      *
#*********************************************************************
  .false.     = gridpack  !True = setting up the grid pack
#*********************************************************************
# Number of events and rnd seed                                      *
# Warning: Do not generate more than 1M events in a single run       *
# If you want to run Pythia, avoid more than 50k events in a run.    *
#*********************************************************************
  2000 = nevents ! Number of unweighted events requested 
 507 = iseed   ! rnd seed (0=assigned automatically=default))
#*********************************************************************
# Collider type and energy                                           *
# lpp: 0=No PDF, 1=proton, -1=antiproton, 2=photon from proton,      *
#                                         3=photon from electron     *
#*********************************************************************
        1     = lpp1    ! beam 1 type 
        1     = lpp2    ! beam 2 type
     4000     = ebeam1  ! beam 1 total energy in GeV
     4000     = ebeam2  ! beam 2 total energy in GeV
#*********************************************************************
# Beam polarization from -100 (left-handed) to 100 (right-handed)    *
#*********************************************************************
        0     = polbeam1 ! beam polarization for beam 1
        0     = polbeam2 ! beam polarization for beam 2
#*********************************************************************
# PDF CHOICE: this automatically fixes also alpha_s and its evol.    *
#*********************************************************************
 'nn23lo1'    = pdlabel     ! PDF set                                     
 230000    = lhaid     ! if pdlabel=lhapdf, this is the lhapdf number
#*********************************************************************
# Renormalization and factorization scales                           *
#*********************************************************************
 F        = fixed_ren_scale  ! if .true. use fixed ren scale
 F        = fixed_fac_scale  ! if .true. use fixed fac scale
 91.1880  = scale            ! fixed ren scale
 91.1880  = dsqrt_q2fact1    ! fixed fact scale for pdf1
 91.1880  = dsqrt_q2fact2    ! fixed fact scale for pdf2
 1        = scalefact        ! scale factor for event-by-event scales
#*********************************************************************
# Matching - Warning! ickkw > 1 is still beta
#*********************************************************************
 0        = ickkw            ! 0 no matching, 1 MLM, 2 CKKW matching
 1        = highestmult      ! for ickkw=2, highest mult group
 1        = ktscheme         ! for ickkw=1, 1 Durham kT, 2 Pythia pTE
 1        = alpsfact         ! scale factor for QCD emission vx
 F        = chcluster        ! cluster only according to channel diag
 T        = pdfwgt           ! for ickkw=1, perform pdf reweighting
 5        = asrwgtflavor     ! highest quark flavor for a_s reweight
 T        = clusinfo         ! include clustering tag in output
 3.0      = lhe_version       ! Change the way clustering information pass to shower.        
#*********************************************************************
#**********************************************************
#
#**********************************************************
# Automatic ptj and mjj cuts if xqcut > 0
# (turn off for VBF and single top processes)
#**********************************************************
   T  = auto_ptj_mjj  ! Automatic setting of ptj and mjj
#**********************************************************
#                                                                    
#**********************************
# BW cutoff (M+/-bwcutoff*Gamma)
#**********************************
  15  = bwcutoff      ! (M+/-bwcutoff*Gamma)
#**********************************************************
# Apply pt/E/eta/dr/mij cuts on decay products or not
# (note that etmiss/ptll/ptheavy/ht/sorted cuts always apply)
#**********************************************************
   T  = cut_decays    ! Cut decay products 
#*************************************************************
# Number of helicities to sum per event (0 = all helicities)
# 0 gives more stable result, but longer run time (needed for
# long decay chains e.g.).
# Use >=2 if most helicities contribute, e.g. pure QCD.
#*************************************************************
   0  = nhel          ! Number of helicities used per event
#*******************                                                 
# Standard Cuts
#*******************                                                 
#                                                                    
#*********************************************************************
# Minimum and maximum pt's (for max, -1 means no cut)                *
#*********************************************************************
 20  = ptj       ! minimum pt for the jets 
  0  = ptb       ! minimum pt for the b 
 10  = pta       ! minimum pt for the photons 
 10  = ptl       ! minimum pt for the charged leptons 
  0  = misset    ! minimum missing Et (sum of neutrino's momenta)
  0  = ptheavy   ! minimum pt for one heavy final state
 1.0 = ptonium   ! minimum pt for the quarkonium states
 -1  = ptjmax    ! maximum pt for the jets
 -1  = ptbmax    ! maximum pt for the b
 -1  = ptamax    ! maximum pt for the photons
 -1  = ptlmax    ! maximum pt for the charged leptons
 -1  = missetmax ! maximum missing Et (sum of neutrino's momenta)
#*********************************************************************
# Minimum and maximum E's (in the center of mass frame)              *
#*********************************************************************
  0  = ej     ! minimum E for the jets 
  0  = eb     ! minimum E for the b 
  0  = ea     ! minimum E for the photons 
  0  = el     ! minimum E for the charged leptons 
 -1   = ejmax ! maximum E for the jets
 -1   = ebmax ! maximum E for the b
 -1   = eamax ! maximum E for the photons
 -1   = elmax ! maximum E for the charged leptons
#*********************************************************************
# Maximum and minimum absolute rapidity (for max, -1 means no cut)   *
#*********************************************************************
   5  = etaj    ! max rap for the jets 
  -1  = etab    ! max rap for the b
 2.5  = etaa    ! max rap for the photons 
 2.5  = etal    ! max rap for the charged leptons 
 0.6  = etaonium ! max rap for the quarkonium states
   0  = etajmin ! min rap for the jets
   0  = etabmin ! min rap for the b
   0  = etaamin ! min rap for the photons
   0  = etalmin ! main rap for the charged leptons
#*********************************************************************
# Minimum and maximum DeltaR distance                                *
#*********************************************************************
 0.4 = drjj    ! min distance between jets 
 0   = drbb    ! min distance between b's 
 0.4 = drll    ! min distance between leptons 
 0.4 = draa    ! min distance between gammas 
 0   = drbj    ! min distance between b and jet 
 0.4 = draj    ! min distance between gamma and jet 
 0.4 = drjl    ! min distance between jet and lepton 
 0   = drab    ! min distance between gamma and b 
 0   = drbl    ! min distance between b and lepton 
 0.4 = dral    ! min distance between gamma and lepton 
 -1  = drjjmax ! max distance between jets
 -1  = drbbmax ! max distance between b's
 -1  = drllmax ! max distance between leptons
 -1  = draamax ! max distance between gammas
 -1  = drbjmax ! max distance between b and jet
 -1  = drajmax ! max distance between gamma and jet
 -1  = drjlmax ! max distance between jet and lepton
 -1  = drabmax ! max distance between gamma and b
 -1  = drblmax ! max distance between b and lepton
 -1  = dralmax ! maxdistance between gamma and lepton
#*********************************************************************
# Minimum and maximum invariant mass for pairs                       *
# WARNING: for four lepton final state mmll cut require to have      *
#          different lepton masses for each flavor!                  *           
#*********************************************************************
 0   = mmjj    ! min invariant mass of a jet pair 
 0   = mmbb    ! min invariant mass of a b pair 
 0   = mmaa    ! min invariant mass of gamma gamma pair
 0   = mmll    ! min invariant mass of l+l- (same flavour) lepton pair
 -1  = mmjjmax ! max invariant mass of a jet pair
 -1  = mmbbmax ! max invariant mass of a b pair
 -1  = mmaamax ! max invariant mass of gamma gamma pair
 -1  = mmllmax ! max invariant mass of l+l- (same flavour) lepton pair
#*********************************************************************
# Minimum and maximum invariant mass for all letpons                 *
#*********************************************************************
 0   = mmnl    ! min invariant mass for all letpons (l+- and vl) 
 -1  = mmnlmax ! max invariant mass for all letpons (l+- and vl) 
#*********************************************************************
# Minimum and maximum pt for 4-momenta sum of leptons                *
#*********************************************************************
 0   = ptllmin  ! Minimum pt for 4-momenta sum of leptons(l and vl)
 -1  = ptllmax  ! Maximum pt for 4-momenta sum of leptons(l and vl)
#*********************************************************************
# Inclusive cuts                                                     *
#*********************************************************************
 0  = xptj ! minimum pt for at least one jet  
 0  = xptb ! minimum pt for at least one b 
 0  = xpta ! minimum pt for at least one photon 
 0  = xptl ! minimum pt for at least one charged lepton 
#*********************************************************************
# Control the pt's of the jets sorted by pt                          *
#*********************************************************************
 0   = ptj1min ! minimum pt for the leading jet in pt
 0   = ptj2min ! minimum pt for the second jet in pt
 0   = ptj3min ! minimum pt for the third jet in pt
 0   = ptj4min ! minimum pt for the fourth jet in pt
 -1  = ptj1max ! maximum pt for the leading jet in pt 
 -1  = ptj2max ! maximum pt for the second jet in pt
 -1  = ptj3max ! maximum pt for the third jet in pt
 -1  = ptj4max ! maximum pt for the fourth jet in pt
 0   = cutuse  ! reject event if fails any (0) / all (1) jet pt cuts
#*********************************************************************
# Control the pt's of leptons sorted by pt                           *
#*********************************************************************
 0   = ptl1min ! minimum pt for the leading lepton in pt
 0   = ptl2min ! minimum pt for the second lepton in pt
 0   = ptl3min ! minimum pt for the third lepton in pt
 0   = ptl4min ! minimum pt for the fourth lepton in pt
 -1  = ptl1max ! maximum pt for the leading lepton in pt 
 -1  = ptl2max ! maximum pt for the second lepton in pt
 -1  = ptl3max ! maximum pt for the third lepton in pt
 -1  = ptl4max ! maximum pt for the fourth lepton in pt
#*********************************************************************
# Control the Ht(k)=Sum of k leading jets                            *
#*********************************************************************
 0   = htjmin ! minimum jet HT=Sum(jet pt)
 -1  = htjmax ! maximum jet HT=Sum(jet pt)
 0   = ihtmin  !inclusive Ht for all partons (including b)
 -1  = ihtmax  !inclusive Ht for all partons (including b)
 0   = ht2min ! minimum Ht for the two leading jets
 0   = ht3min ! minimum Ht for the three leading jets
 0   = ht4min ! minimum Ht for the four leading jets
 -1  = ht2max ! maximum Ht for the two leading jets
 -1  = ht3max ! maximum Ht for the three leading jets
 -1  = ht4max ! maximum Ht for the four leading jets
#***********************************************************************
# Photon-isolation cuts, according to hep-ph/9801442                   *
# When ptgmin=0, all the other parameters are ignored                  *
# When ptgmin>0, pta and draj are not going to be used                 *
#***********************************************************************
   0 = ptgmin ! Min photon transverse momentum
 0.4 = R0gamma ! Radius of isolation code
 1.0 = xn ! n parameter of eq.(3.4) in hep-ph/9801442
 1.0 = epsgamma ! epsilon_gamma parameter of eq.(3.4) in hep-ph/9801442
 .true. = isoEM ! isolate photons from EM energy (photons and leptons)
#*********************************************************************
# WBF cuts                                                           *
#*********************************************************************
 0   = xetamin ! minimum rapidity for two jets in the WBF case  
 0   = deltaeta ! minimum rapidity for two jets in the WBF case 
#*********************************************************************
# KT DURHAM CUT                                                      *
#*********************************************************************
 -1    =  ktdurham        
 0.4  =  dparameter 
#*********************************************************************
# maximal pdg code for quark to be considered as a light jet         *
# (otherwise b cuts are applied)                                     *
#*********************************************************************
 4 = maxjetflavor    ! Maximum jet pdg code
#*********************************************************************
# Jet measure cuts                                                   *
#*********************************************************************
 0   = xqcut   ! minimum kt jet measure between partons
#*********************************************************************
#
#*********************************************************************
# Store info for systematics studies                                 *
# WARNING: If use_syst is T, matched Pythia output is                *
#          meaningful ONLY if plotted taking matchscale              *
#          reweighting into account!                                 *
#*********************************************************************
   F  = use_syst      ! Enable systematics studies
#
#**************************************
# Parameter of the systematics study
#  will be used by SysCalc (if installed)
#**************************************                                  
#
0.5 1 2 = sys_scalefact  # factorization/renormalization scale factor
0.5 1 2 = sys_alpsfact  # \alpha_s emission scale factors
30 50 = sys_matchscale # variation of merging scale
# PDF sets and number of members (0 or none for all members).
CT10nlo.LHgrid = sys_pdf # matching scales
# MSTW2008nlo68cl.LHgrid 1  = sys_pdf
</MGRunCard>
<slha>
######################################################################
## PARAM_CARD AUTOMATICALY GENERATED BY MG5 FOLLOWING UFO MODEL   ####
######################################################################
##                                                                  ##
##  Width set on Auto will be computed following the information    ##
##        present in the decay.py files of the model.               ##
##        See  arXiv:1402.1178 for more details.                    ##
##                                                                  ##
######################################################################

###################################
## INFORMATION FOR CKMBLOCK
###################################
Block ckmblock 
    1 2.277360e-01 # cabi 

###################################
## INFORMATION FOR FRBLOCK
###################################
Block frblock 
    1 2.000000e-01 # gz 

###################################
## INFORMATION FOR MASS
###################################
Block mass 
    1 5.040000e-03 # MD 
    2 2.550000e-03 # MU 
    3 1.010000e-01 # MS 
    4 1.270000e+00 # MC 
    5 4.700000e+00 # MB 
    6 1.720000e+02 # MT 
   11 5.110000e-04 # Me 
   13 1.056600e-01 # MM 
   15 1.777000e+00 # MTA 
   23 9.118760e+01 # MZ 
   25 1.200000e+02 # MH 
  10030 6.000000e+02 # MZph 
  10031 3.000000e+02 # MZpl 
## Dependent parameters, given by model restrictions.
## Those values should be edited following the 
## analytical expression. MG5 ignores those values 
## but they are important for interfacing the output of MG5
## to external program such as Pythia.
  12 0.000000 # ve : 0.0 
  14 0.000000 # vm : 0.0 
  16 0.000000 # vt : 0.0 
  21 0.000000 # g : 0.0 
  22 0.000000 # a : 0.0 
  24 79.824360 # w+ : cmath.sqrt(MZ__exp__2/2. + cmath.sqrt(MZ__exp__4/4. - (aEW*cmath.pi*MZ__exp__2)/(Gf*sqrt__2))) 

###################################
## INFORMATION FOR SMINPUTS
###################################
Block sminputs 
    1 1.279000e+02 # aEWM1 
    2 1.166370e-05 # Gf 
    3 1.184000e-01 # aS 

###################################
## INFORMATION FOR YUKAWA
###################################
Block yukawa 
    1 5.040000e-03 # ymdo 
    2 2.550000e-03 # ymup 
    3 1.010000e-01 # yms 
    4 1.270000e+00 # ymc 
    5 4.700000e+00 # ymb 
    6 1.720000e+02 # ymt 
   11 5.110000e-04 # yme 
   13 1.056600e-01 # ymm 
   15 1.777000e+00 # ymtau 

###################################
## INFORMATION FOR DECAY
###################################
DECAY   6 1.508336e+00 # WT 
DECAY  23 2.495200e+00 # WZ 
DECAY  24 2.085000e+00 # WW 
DECAY  25 5.753088e-03 # WH 
## Dependent parameters, given by model restrictions.
## Those values should be edited following the 
## analytical expression. MG5 ignores those values 
## but they are important for interfacing the output of MG5
## to external program such as Pythia.
DECAY  1 0.000000 # d : 0.0 
DECAY  2 0.000000 # u : 0.0 
DECAY  3 0.000000 # s : 0.0 
DECAY  4 0.000000 # c : 0.0 
DECAY  5 0.000000 # b : 0.0 
DECAY  11 0.000000 # e- : 0.0 
DECAY  12 0.000000 # ve : 0.0 
DECAY  13 0.000000 # mu- : 0.0 
DECAY  14 0.000000 # vm : 0.0 
DECAY  15 0.000000 # ta- : 0.0 
DECAY  16 0.000000 # vt : 0.0 
DECAY  21 0.000000 # g : 0.0 
DECAY  22 0.000000 # a : 0.0 
DECAY  10030 0.308725 # zph : (gz__exp__2*MZph*(5 + cmath.sqrt(1 - (4*MT__exp__2)/MZph__exp__2)))/(144.*cmath.pi) 
DECAY  10031 0.132629 # zpl : (5*gz__exp__2*MZpl)/(144.*cmath.pi) 
#===========================================================
# QUANTUM NUMBERS OF NEW STATE(S) (NON SM PDG CODE)
#===========================================================

Block QNUMBERS 10030  # zph 
        1 0  # 3 times electric charge
        2 3  # number of spin states (2S+1)
        3 1  # colour rep (1: singlet, 3: triplet, 8: octet)
        4 0  # Particle/Antiparticle distinction (0=own anti)
Block QNUMBERS 10031  # zpl 
        1 0  # 3 times electric charge
        2 3  # number of spin states (2S+1)
        3 1  # colour rep (1: singlet, 3: triplet, 8: octet)
        4 0  # Particle/Antiparticle distinction (0=own anti)
</slha>
## END BANNER##
<MGGenerationInfo>
#  Number of Events        :         4187
#  Integrated weight (pb)  :  0.75974E+00
#  Max wgt                 :  0.24212E-03
#  Average wgt             :  0.18145E-03
</MGGenerationInfo>
</header>
<init>
     2212     2212  0.40000000000E+04  0.40000000000E+04 0 0  247000  247000 2   1
  0.75853644440E+00  0.17696920627E-02  0.24212100000E-03   0
</init>
<event>
 5   0  0.2421210E-03  0.6005824E+03  0.7818609E-02  0.9904199E-01
       -2   -1    0    0    0  501  0.00000000000E+00  0.00000000000E+00  0.10796796440E+03  0.10796796443E+03  0.25500000920E-02 0.  1.
        2   -1    0    0  501    0  0.00000000000E+00  0.00000000000E+00 -0.83519951552E+03  0.83519951552E+03  0.25500000920E-02 0. -1.
    10030    2    1    2    0    0  0.00000000000E+00  0.00000000000E+00 -0.72723155112E+03  0.94316747995E+03  0.60058235596E+03 0.  0.
        1    1    3    3  502    0 -0.26833757353E+03  0.12522210714E+03 -0.44196646736E+03  0.53199622910E+03  0.50400001928E-02 0. -1.
       -1    1    3    3    0  502  0.26833757353E+03 -0.12522210714E+03 -0.28526508376E+03  0.41117125085E+03  0.50400001928E-02 0.  1.
</event>
<event>
 5   0  0.9496750E-04  0.6001658E+03  0.7818609E-02  0.9905062E-01
       -3   -1    0    0    0  501  0.00000000000E+00  0.00000000000E+00  0.21342117932E+03  0.21342120322E+03  0.10100000352E+00 0. -1.
        3   -1    0    0  501    0  0.00000000000E+00  0.00000000000E+00 -0.42193437522E+03  0.42193438731E+03  0.10100000352E+00 0.  1.
    10030    2    1    2    0    0  0.00000000000E+00  0.00000000000E+00 -0.20851319590E+03  0.63535559053E+03  0.60016578839E+03 0.  0.
        1    1    3    3  502    0 -0.24618610102E+03  0.15505352038E+03 -0.18205393476E+03  0.34320959442E+03  0.50400001928E-02 0.  1.
       -1    1    3    3    0  502  0.24618610102E+03 -0.15505352038E+03 -0.26459261140E+02  0.29214599611E+03  0.50400001928E-02 0. -1.
</event>
<event>
 5   0  0.2421210E-03  0.6000921E+03  0.7818609E-02  0.9905215E-01
        2   -1    0    0  501    0  0.00000000000E+00  0.00000000000E+00  0.34432831199E+03  0.34432831200E+03  0.25500000920E-02 0.  1.
       -2   -1    0    0    0  501  0.00000000000E+00  0.00000000000E+00 -0.26145871538E+03  0.26145871540E+03  0.25500000920E-02 0. -1.
    10030    2    1    2    0    0  0.00000000000E+00  0.00000000000E+00  0.82869596602E+02  0.60578702739E+03  0.60009212003E+03 0.  0.
        1    1    3    3  502    0 -0.21192067960E+03 -0.20239889237E+03  0.10648193866E+03  0.31179174036E+03  0.50400001928E-02 0. -1.
       -1    1    3    3    0  502  0.21192067960E+03  0.20239889237E+03 -0.23612342059E+02  0.29399528703E+03  0.50400001928E-02 0.  1.
</event>
<event>
 5   0  0.2346281E-03  0.5997519E+03  0.7818609E-02  0.9905921E-01
       -2   -1    0    0    0  501  0.00000000000E+00  0.00000000000E+00  0.16017147139E+03  0.16017147141E+03  0.25500000920E-02 0. -1.
        2   -1    0    0  501    0  0.00000000000E+00  0.00000000000E+00 -0.56143326563E+03  0.56143326564E+03  0.25500000920E-02 0.  1.
    10030    2    1    2    0    0  0.00000000000E+00  0.00000000000E+00 -0.40126179424E+03  0.72160473704E+03  0.59975192289E+03 0.  0.
        3    1    3    3  502    0  0.83640248711E+02  0.12820675944E+02 -0.54677142637E+03  0.55328027602E+03  0.10100000352E+00 0.  1.
       -3    1    3    3    0  502 -0.83640248711E+02 -0.12820675944E+02  0.14550963213E+03  0.16832446102E+03  0.10100000352E+00 0. -1.
</event>
<event>
 5   0  0.2421210E-03  0.5998795E+03  0.7818609E-02  0.9905656E-01
        2   -1    0    0  501    0  0.00000000000E+00  0.00000000000E+00  0.63822145877E+03  0.63822145877E+03  0.25500000920E-02 0.  1.
       -2   -1    0    0    0  501  0.00000000000E+00  0.00000000000E+00 -0.14096026840E+03  0.14096026843E+03  0.25500000920E-02 0. -1.
    10030    2    1    2    0    0  0.00000000000E+00  0.00000000000E+00  0.49726119036E+03  0.77918172720E+03  0.59987954837E+03 0.  0.
        1    1    3    3  502    0  0.41364216801E+02  0.29707135096E+03  0.25021190313E+03  0.39060002879E+03  0.50400001928E-02 0.  1.
       -1    1    3    3    0  502 -0.41364216801E+02 -0.29707135096E+03  0.24704928723E+03  0.38858169841E+03  0.50400001928E-02 0. -1.
</event>
<event>
 5   0  0.2346281E-03  0.6001160E+03  0.7818609E-02  0.9905165E-01
       -2   -1    0    0    0  501  0.00000000000E+00  0.00000000000E+00  0.43918177826E+03  0.43918177826E+03  0.25500000920E-02 0.  1.
        2   -1    0    0  501    0  0.00000000000E+00  0.00000000000E+00 -0.20500576367E+03  0.20500576368E+03  0.25500000920E-02 0. -1.
    10030    2    1    2    0    0  0.00000000000E+00  0.00000000000E+00  0.23417601459E+03  0.64418754195E+03  0.60011597495E+03 0.  0.
        3    1    3    3  502    0  0.87971728223E+02  0.47799293949E+02  0.42072309106E+03  0.43247164881E+03  0.10100000352E+00 0.  1.
       -3    1    3    3    0  502 -0.87971728223E+02 -0.47799293949E+02 -0.18654707647E+03  0.21171589314E+03  0.10100000352E+00 0. -1.
</event>
<event>
 5   0  0.1423430E-03  0.6001807E+03  0.7818609E-02  0.9905031E-01
       -1   -1    0    0    0  501  0.00000000000E+00  0.00000000000E+00  0.14168903182E+03  0.14168903191E+03  0.50400001928E-02 0.  1.
        1   -1    0    0  501    0  0.00000000000E+00  0.00000000000E+00 -0.63557652766E+03  0.63557652768E+03  0.50400001928E-02 0. -1.
    10030    2    1    2    0    0  0.00000000000E+00  0.00000000000E+00 -0.49388749584E+03  0.77726555959E+03  0.60018071577E+03 0.  0.
        1    1    3    3  502    0 -0.14905306964E+03 -0.25709906003E+03 -0.19296197748E+03  0.35433186283E+03  0.50400001928E-02 0.  1.
       -1    1    3    3    0  502  0.14905306964E+03  0.25709906003E+03 -0.30092551836E+03  0.42293369677E+03  0.50400001928E-02 0. -1.
</event>
<event>
 5   0  0.1479385E-03  0.6000064E+03  0.7818609E-02  0.9905393E-01
       -1   -1    0    0    0  501  0.00000000000E+00  0.00000000000E+00  0.28558879382E+03  0.28558879387E+03  0.50400001928E-02 0.  1.
        1   -1    0    0  501    0  0.00000000000E+00  0.00000000000E+00 -0.31514509811E+03  0.31514509815E+03  0.50400001928E-02 0. -1.
    10030    2    1    2    0    0  0.00000000000E+00  0.00000000000E+00 -0.29556304286E+02  0.60073389202E+03  0.60000636155E+03 0.  0.
        3    1    3    3  502    0  0.13100023827E+03 -0.16760361802E+03  0.19701998449E+03  0.28994640830E+03  0.10100000352E+00 0.  1.
       -3    1    3    3    0  502 -0.13100023827E+03  0.16760361802E+03 -0.22657628877E+03  0.31078748372E+03  0.10100000352E+00 0. -1.
</event>
<event>
 5   0  0.2421210E-03  0.5989505E+03  0.7818609E-02  0.9907586E-01
       -2   -1    0    0    0  501  0.00000000000E+00  0.00000000000E+00  0.66523565087E+02  0.66523565136E+02  0.25500000920E-02 0.  1.
        2   -1    0    0  501    0  0.00000000000E+00  0.00000000000E+00 -0.13481750536E+04  0.13481750536E+04  0.25500000920E-02 0. -1.
    10030    2    1    2    0    0  0.00000000000E+00  0.00000000000E+00 -0.12816514885E+04  0.14146986187E+04  0.59895045191E+03 0.  0.
        1    1    3    3  502    0  0.63999337882E+02  0.23588187738E+03 -0.10495834038E+04  0.10776648351E+04  0.50400001928E-02 0.  1.
       -1    1    3    3    0  502 -0.63999337882E+02 -0.23588187738E+03 -0.23206808472E+03  0.33703378361E+03  0.50400001928E-02 0. -1.
</event>
<event>
 5   0  0.9496750E-04  0.6001275E+03  0.7818609E-02  0.9905141E-01
        4   -1    0    0  501    0  0.00000000000E+00  0.00000000000E+00  0.19205764761E+03  0.19206184656E+03  0.12699999809E+01 0.  1.
       -4   -1    0    0    0  501  0.00000000000E+00  0.00000000000E+00 -0.46879835590E+03  0.46880007615E+03  0.12699999809E+01 0. -1.
    10030    2    1    2    0    0  0.00000000000E+00  0.00000000000E+00 -0.27674070830E+03  0.66086192271E+03  0.60012753749E+03 0.  0.
        3    1    3    3  502    0  0.40604470355E+02 -0.19183856362E+03 -0.38848516235E+03  0.43516834567E+03  0.10100000352E+00 0. -1.
       -3    1    3    3    0  502 -0.40604470355E+02  0.19183856362E+03  0.11174445405E+03  0.22569357704E+03  0.10100000352E+00 0.  1.
</event>
<event>
 5   0  0.2421210E-03  0.5998863E+03  0.7818609E-02  0.9905642E-01
        2   -1    0    0  501    0  0.00000000000E+00  0.00000000000E+00  0.31265128191E+03  0.31265128192E+03  0.25500000920E-02 0.  1.
       -2   -1    0    0    0  501  0.00000000000E+00  0.00000000000E+00 -0.28775155311E+03  0.28775155312E+03  0.25500000920E-02 0. -1.
    10030    2    1    2    0    0  0.00000000000E+00  0.00000000000E+00  0.24899728805E+02  0.60040283504E+03  0.59988629575E+03 0.  0.
        1    1    3    3  502    0 -0.11508657634E+03 -0.96977329671E+02  0.27212725359E+03  0.31097068141E+03  0.50400001928E-02 0.  1.
       -1    1    3    3    0  502  0.11508657634E+03  0.96977329671E+02 -0.24722752478E+03  0.28943215364E+03  0.50400001928E-02 0. -1.
</event>
<event>
 5   0  0.9496750E-04  0.5999548E+03  0.7818609E-02  0.9905500E-01
       -4   -1    0    0    0  501  0.00000000000E+00  0.00000000000E+00  0.92127056691E+02  0.92135809947E+02  0.12699999809E+01 0.  1.
        4   -1    0    0  501    0  0.00000000000E+00  0.00000000000E+00 -0.97670888484E+03  0.97670971052E+03  0.12699999809E+01 0. -1.
    10030    2    1    2    0    0  0.00000000000E+00  0.00000000000E+00 -0.88458182815E+03  0.10688455205E+04  0.59995477824E+03 0.  0.
        2    1    3    3  502    0  0.23246897411E+03  0.90872623762E+02 -0.73872805832E+03  0.77975560391E+03  0.25500000920E-02 0. -1.
       -2    1    3    3    0  502 -0.23246897411E+03 -0.90872623762E+02 -0.14585376983E+03  0.28908991656E+03  0.25500000920E-02 0.  1.
</event>
<event>
 5   0  0.2406307E-03  0.5999388E+03  0.7818609E-02  0.9905533E-01
       -2   -1    0    0    0  501  0.00000000000E+00  0.00000000000E+00  0.85862135418E+02  0.85862135456E+02  0.25500000920E-02 0.  1.
        2   -1    0    0  501    0  0.00000000000E+00  0.00000000000E+00 -0.10479781165E+04  0.10479781165E+04  0.25500000920E-02 0. -1.
    10030    2    1    2    0    0  0.00000000000E+00  0.00000000000E+00 -0.96211598111E+03  0.11338402520E+04  0.59993879348E+03 0.  0.
        5    1    3    3  502    0 -0.25179721460E+02  0.14120012263E+03  0.16779140658E+02  0.14448225691E+03  0.46999998093E+01 0.  1.
       -5    1    3    3    0  502  0.25179721460E+02 -0.14120012263E+03 -0.97889512176E+03  0.98935799507E+03  0.46999998093E+01 0. -1.
</event>
<event>
 5   0  0.1418763E-03  0.6033763E+03  0.7818609E-02  0.9898426E-01
        1   -1    0    0  501    0  0.00000000000E+00  0.00000000000E+00  0.64027888486E+03  0.64027888488E+03  0.50400001928E-02 0. -1.
       -1   -1    0    0    0  501  0.00000000000E+00  0.00000000000E+00 -0.14215013065E+03  0.14215013074E+03  0.50400001928E-02 0.  1.
    10030    2    1    2    0    0  0.00000000000E+00  0.00000000000E+00  0.49812875421E+03  0.78242901562E+03  0.60337625800E+03 0.  0.
        5    1    3    3  502    0 -0.25840243122E+03  0.27642800031E+02  0.44767359905E+03  0.51765788137E+03  0.46999998093E+01 0.  1.
       -5    1    3    3    0  502  0.25840243122E+03 -0.27642800031E+02  0.50455155159E+02  0.26477113426E+03  0.46999998093E+01 0. -1.
</event>
<event>
 5   0  0.9496750E-04  0.6044725E+03  0.7818609E-02  0.9896170E-01
       -3   -1    0    0    0  501  0.00000000000E+00  0.00000000000E+00  0.12043361470E+03  0.12043365705E+03  0.10100000352E+00 0. -1.
        3   -1    0    0  501    0  0.00000000000E+00  0.00000000000E+00 -0.75848201512E+03  0.75848202184E+03  0.10100000352E+00 0.  1.
    10030    2    1    2    0    0  0.00000000000E+00  0.00000000000E+00 -0.63804840041E+03  0.87891567889E+03  0.60447250503E+03 0.  0.
        2    1    3    3  502    0 -0.85543413023E+02  0.63828841438E+02 -0.73016762984E+03  0.73792720792E+03  0.25500000920E-02 0.  1.
       -2    1    3    3    0  502  0.85543413023E+02 -0.63828841438E+02  0.92119229428E+02  0.14098847098E+03  0.25500000920E-02 0. -1.
</event>
<event>
 5   0  0.9496750E-04  0.6001674E+03  0.7818609E-02  0.9905059E-01
       -3   -1    0    0    0  501  0.00000000000E+00  0.00000000000E+00  0.87705560166E+02  0.87705618321E+02  0.10100000352E+00 0. -1.
        3   -1    0    0  501    0  0.00000000000E+00  0.00000000000E+00 -0.10267329036E+04  0.10267329086E+04  0.10100000352E+00 0.  1.
    10030    2    1    2    0    0  0.00000000000E+00  0.00000000000E+00 -0.93902734347E+03  0.11144385269E+04  0.60016737541E+03 0.  0.
        5    1    3    3  502    0 -0.13454278734E+03  0.67387614964E+02 -0.95153498742E+03  0.96337104719E+03  0.46999998093E+01 0.  1.
       -5    1    3    3    0  502  0.13454278734E+03 -0.67387614964E+02  0.12507643956E+02  0.15106747973E+03  0.46999998093E+01 0. -1.
</event>
<event>
 5   0  0.1423430E-03  0.6013974E+03  0.7818609E-02  0.9902511E-01
       -1   -1    0    0    0  501  0.00000000000E+00  0.00000000000E+00  0.26695471261E+03  0.26695471266E+03  0.50400001928E-02 0. -1.
        1   -1    0    0  501    0  0.00000000000E+00  0.00000000000E+00 -0.33870807990E+03  0.33870807994E+03  0.50400001928E-02 0.  1.
    10030    2    1    2    0    0  0.00000000000E+00  0.00000000000E+00 -0.71753367286E+02  0.60566279260E+03  0.60139743317E+03 0.  0.
        1    1    3    3  502    0 -0.22698053159E+03 -0.19520413251E+03 -0.74826946408E+01  0.29946753716E+03  0.50400001928E-02 0. -1.
       -1    1    3    3    0  502  0.22698053159E+03  0.19520413251E+03 -0.64270672645E+02  0.30619525544E+03  0.50400001928E-02 0.  1.
</event>
<event>
 5   0  0.1479385E-03  0.6002023E+03  0.7818609E-02  0.9904987E-01
       -1   -1    0    0    0  501  0.00000000000E+00  0.00000000000E+00  0.41751668520E+03  0.41751668523E+03  0.50400001928E-02 0.  1.
        1   -1    0    0  501    0  0.00000000000E+00  0.00000000000E+00 -0.21570559660E+03  0.21570559666E+03  0.50400001928E-02 0. -1.
    10030    2    1    2    0    0  0.00000000000E+00  0.00000000000E+00  0.20181108860E+03  0.63322228188E+03  0.60020225157E+03 0.  0.
        3    1    3    3  502    0 -0.21445800443E+03 -0.16993097540E+03  0.23094186226E+03  0.35805436181E+03  0.10100000352E+00 0.  1.
       -3    1    3    3    0  502  0.21445800443E+03  0.16993097540E+03 -0.29130773660E+02  0.27516792008E+03  0.10100000352E+00 0. -1.
</event>
<event>
 5   0  0.1479385E-03  0.6000304E+03  0.7818609E-02  0.9905343E-01
        1   -1    0    0  501    0  0.00000000000E+00  0.00000000000E+00  0.18071997329E+03  0.18071997336E+03  0.50400001928E-02 0.  1.
       -1   -1    0    0    0  501  0.00000000000E+00  0.00000000000E+00 -0.49805857022E+03  0.49805857024E+03  0.50400001928E-02 0. -1.
    10030    2    1    2    0    0  0.00000000000E+00  0.00000000000E+00 -0.31733859692E+03  0.67877854361E+03  0.60003043770E+03 0.  0.
        3    1    3    3  502    0  0.20972691321E+03 -0.69352683071E+02 -0.38832484391E+03  0.44675649673E+03  0.10100000352E+00 0. -1.
       -3    1    3    3    0  502 -0.20972691321E+03  0.69352683071E+02  0.70986246990E+02  0.23202204687E+03  0.10100000352E+00 0.  1.
</event>
<event>
 5   0  0.2421210E-03  0.6043532E+03  0.7818609E-02  0.9896415E-01
        2   -1    0    0  501    0  0.00000000000E+00  0.00000000000E+00  0.16777314915E+04  0.16777314915E+04  0.25500000920E-02 0.  1.
       -2   -1    0    0    0  501  0.00000000000E+00  0.00000000000E+00 -0.54425101905E+02  0.54425101964E+02  0.25500000920E-02 0. -1.
    10030    2    1    2    0    0  0.00000000000E+00  0.00000000000E+00  0.16233063896E+04  0.17321565934E+04  0.60435323262E+03 0.  0.
        1    1    3    3  502    0  0.58947324419E+01  0.13819915986E+03  0.15816617850E+04  0.15876988876E+04  0.50400001928E-02 0.  1.
       -1    1    3    3    0  502 -0.58947324419E+01 -0.13819915986E+03  0.41644604605E+02  0.14445770584E+03  0.50400001928E-02 0. -1.
</event>
<event>
 5   0  0.1392854E-03  0.5999041E+03  0.7818609E-02  0.9905605E-01
       -1   -1    0    0    0  501  0.00000000000E+00  0.00000000000E+00  0.11142904911E+03  0.11142904923E+03  0.50400001928E-02 0. -1.
        1   -1    0    0  501    0  0.00000000000E+00  0.00000000000E+00 -0.80743062204E+03  0.80743062206E+03  0.50400001928E-02 0.  1.
    10030    2    1    2    0    0  0.00000000000E+00  0.00000000000E+00 -0.69600157292E+03  0.91885967128E+03  0.59990408067E+03 0.  0.
        4    1    3    3  502    0  0.25389228101E+03 -0.14149125334E+03 -0.46147472440E+03  0.54538206726E+03  0.12699999809E+01 0.  1.
       -4    1    3    3    0  502 -0.25389228101E+03  0.14149125334E+03 -0.23452684853E+03  0.37347760403E+03  0.12699999809E+01 0. -1.
</event>
<event>
 5   0  0.1423430E-03  0.6001009E+03  0.7818609E-02  0.9905197E-01
       -1   -1    0    0    0  501  0.00000000000E+00  0.00000000000E+00  0.28240996465E+03  0.28240996470E+03  0.50400001928E-02 0. -1.
        1   -1    0    0  501    0  0.00000000000E+00  0.00000000000E+00 -0.31879285727E+03  0.31879285731E+03  0.50400001928E-02 0.  1.
    10030    2    1    2    0    0  0.00000000000E+00  0.00000000000E+00 -0.36382892615E+02  0.60120282201E+03  0.60010092344E+03 0.  0.
        1    1    3    3  502    0  0.26063545212E+03 -0.48837769226E+02 -0.15885692828E+03  0.30911404091E+03  0.50400001928E-02 0.  1.
       -1    1    3    3    0  502 -0.26063545212E+03  0.48837769226E+02  0.12247403566E+03  0.29208878109E+03  0.50400001928E-02 0. -1.
</event>
<event>
 5   0  0.2313168E-03  0.5996013E+03  0.7818609E-02  0.9906234E-01
       -2   -1    0    0    0  501  0.00000000000E+00  0.00000000000E+00  0.12082258289E+03  0.12082258292E+03  0.25500000920E-02 0.  1.
        2   -1    0    0  501    0  0.00000000000E+00  0.00000000000E+00 -0.74390426850E+03  0.74390426850E+03  0.25500000920E-02 0. -1.
    10030    2    1    2    0    0  0.00000000000E+00  0.00000000000E+00 -0.62308168561E+03  0.86472685143E+03  0.59960131808E+03 0.  0.
        2    1    3    3  502    0  0.23752008188E+03 -0.17180253885E+03 -0.22091870991E+03  0.36706535936E+03  0.25500000920E-02 0.  1.
       -2    1    3    3    0  502 -0.23752008188E+03  0.17180253885E+03 -0.40216297570E+03  0.49766149206E+03  0.25500000920E-02 0. -1.
</event>
<event>
 5   0  0.1479385E-03  0.5997987E+03  0.7818609E-02  0.9905824E-01
        1   -1    0    0  501    0  0.00000000000E+00  0.00000000000E+00  0.22596040666E+04  0.22596040666E+04  0.50400001928E-02 0.  1.
       -1   -1    0    0    0  501  0.00000000000E+00  0.00000000000E+00 -0.39803260967E+02  0.39803261286E+02  0.50400001928E-02 0. -1.
    10030    2    1    2    0    0  0.00000000000E+00  0.00000000000E+00  0.22198008056E+04  0.22994073279E+04  0.59979866861E+03 0.  0.
        3    1    3    3  502    0  0.73310436863E+02  0.25796325329E+03  0.59527704067E+03  0.65289679548E+03  0.10100000352E+00 0. -1.
       -3    1    3    3    0  502 -0.73310436863E+02 -0.25796325329E+03  0.16245237650E+04  0.16465105324E+04  0.10100000352E+00 0.  1.
</event>
<event>
 5   0  0.9496750E-04  0.5998327E+03  0.7818609E-02  0.9905753E-01
       -3   -1    0    0    0  501  0.00000000000E+00  0.00000000000E+00  0.47791531384E+03  0.47791532452E+03  0.10100000352E+00 0.  1.
        3   -1    0    0  501    0  0.00000000000E+00  0.00000000000E+00 -0.18821284655E+03  0.18821287365E+03  0.10100000352E+00 0. -1.
    10030    2    1    2    0    0  0.00000000000E+00  0.00000000000E+00  0.28970246730E+03  0.66612819816E+03  0.59983269070E+03 0.  0.
        2    1    3    3  502    0  0.28403112376E+03 -0.72994666907E+02  0.21462810677E+03  0.36341040834E+03  0.25500000920E-02 0. -1.
       -2    1    3    3    0  502 -0.28403112376E+03  0.72994666907E+02  0.75074360526E+02  0.30271778983E+03  0.25500000920E-02 0.  1.
</event>
<event>
 5   0  0.2346281E-03  0.6001298E+03  0.7818609E-02  0.9905137E-01
       -2   -1    0    0    0  501  0.00000000000E+00  0.00000000000E+00  0.11554621133E+03  0.11554621136E+03  0.25500000920E-02 0. -1.
        2   -1    0    0  501    0  0.00000000000E+00  0.00000000000E+00 -0.77924623039E+03  0.77924623039E+03  0.25500000920E-02 0.  1.
    10030    2    1    2    0    0  0.00000000000E+00  0.00000000000E+00 -0.66370001906E+03  0.89479244175E+03  0.60012981805E+03 0.  0.
        3    1    3    3  502    0 -0.10946476894E+03  0.24900434366E+03 -0.52076153677E+03  0.58751875475E+03  0.10100000352E+00 0.  1.
       -3    1    3    3    0  502  0.10946476894E+03 -0.24900434366E+03 -0.14293848228E+03  0.30727368700E+03  0.10100000352E+00 0. -1.
</event>
<event>
 5   0  0.1392854E-03  0.6000509E+03  0.7818609E-02  0.9905300E-01
        1   -1    0    0  501    0  0.00000000000E+00  0.00000000000E+00  0.27857241199E+03  0.27857241203E+03  0.50400001928E-02 0. -1.
       -1   -1    0    0    0  501  0.00000000000E+00  0.00000000000E+00 -0.32313064014E+03  0.32313064018E+03  0.50400001928E-02 0.  1.
    10030    2    1    2    0    0  0.00000000000E+00  0.00000000000E+00 -0.44558228149E+02  0.60170305221E+03  0.60005093729E+03 0.  0.
        4    1    3    3  502    0  0.25106673268E+03 -0.10372980720E+03  0.10542651457E+03  0.29139447496E+03  0.12699999809E+01 0. -1.
       -4    1    3    3    0  502 -0.25106673268E+03  0.10372980720E+03 -0.14998474272E+03  0.31030857725E+03  0.12699999809E+01 0.  1.
</event>
<event>
 5   0  0.2313168E-03  0.5994301E+03  0.7818609E-02  0.9906589E-01
        2   -1    0    0  501    0  0.00000000000E+00  0.00000000000E+00  0.72106683569E+03  0.72106683569E+03  0.25500000920E-02 0.  1.
       -2   -1    0    0    0  501  0.00000000000E+00  0.00000000000E+00 -0.12457807579E+03  0.12457807582E+03  0.25500000920E-02 0. -1.
    10030    2    1    2    0    0  0.00000000000E+00  0.00000000000E+00  0.59648875990E+03  0.84564491151E+03  0.59943012577E+03 0.  0.
        2    1    3    3  502    0  0.20036674947E+02  0.57249715957E+02  0.71231786266E+03  0.71489561181E+03  0.25500000920E-02 0.  1.
       -2    1    3    3    0  502 -0.20036674947E+02 -0.57249715957E+02 -0.11582910276E+03  0.13074929970E+03  0.25500000920E-02 0. -1.
</event>
<event>
 5   0  0.1416315E-03  0.6001601E+03  0.7818609E-02  0.9905074E-01
       -1   -1    0    0    0  501  0.00000000000E+00  0.00000000000E+00  0.10950276584E+03  0.10950276596E+03  0.50400001928E-02 0.  1.
        1   -1    0    0  501    0  0.00000000000E+00  0.00000000000E+00 -0.82233566539E+03  0.82233566541E+03  0.50400001928E-02 0. -1.
    10030    2    1    2    0    0  0.00000000000E+00  0.00000000000E+00 -0.71283289955E+03  0.93183843136E+03  0.60016007822E+03 0.  0.
        2    1    3    3  502    0 -0.63099288928E+02 -0.29290756126E+03 -0.33082502396E+03  0.44634242034E+03  0.25500000920E-02 0.  1.
       -2    1    3    3    0  502  0.63099288928E+02  0.29290756126E+03 -0.38200787559E+03  0.48549601103E+03  0.25500000920E-02 0. -1.
</event>
<event>
 5   0  0.2346281E-03  0.5999842E+03  0.7818609E-02  0.9905439E-01
        2   -1    0    0  501    0  0.00000000000E+00  0.00000000000E+00  0.13917583962E+03  0.13917583964E+03  0.25500000920E-02 0. -1.
       -2   -1    0    0    0  501  0.00000000000E+00  0.00000000000E+00 -0.64662994268E+03  0.64662994269E+03  0.25500000920E-02 0.  1.
    10030    2    1    2    0    0  0.00000000000E+00  0.00000000000E+00 -0.50745410306E+03  0.78580578233E+03  0.59998421715E+03 0.  0.
        3    1    3    3  502    0 -0.76845820576E+02  0.16633051586E+03  0.57378561282E+02  0.19199851599E+03  0.10100000352E+00 0. -1.
       -3    1    3    3    0  502  0.76845820576E+02 -0.16633051586E+03 -0.56483266434E+03  0.59380726634E+03  0.10100000352E+00 0.  1.
</event>
<event>
 5   0  0.2406307E-03  0.5998698E+03  0.7818609E-02  0.9905676E-01
       -2   -1    0    0    0  501  0.00000000000E+00  0.00000000000E+00  0.56525220861E+02  0.56525220919E+02  0.25500000920E-02 0. -1.
        2   -1    0    0  501    0  0.00000000000E+00  0.00000000000E+00 -0.15915184148E+04  0.15915184148E+04  0.25500000920E-02 0.  1.
    10030    2    1    2    0    0  0.00000000000E+00  0.00000000000E+00 -0.15349931939E+04  0.16480436357E+04  0.59986975236E+03 0.  0.
        5    1    3    3  502    0 -0.92213107744E+02 -0.87008034843E+02 -0.20821552642E+02  0.12856625692E+03  0.46999998093E+01 0. -1.
       -5    1    3    3    0  502  0.92213107744E+02  0.87008034843E+02 -0.15141716413E+04  0.15194773788E+04  0.46999998093E+01 0.  1.
</event>
<event>
 5   0  0.1416315E-03  0.5998282E+03  0.7818609E-02  0.9905762E-01
       -1   -1    0    0    0  501  0.00000000000E+00  0.00000000000E+00  0.27337959136E+03  0.27337959140E+03  0.50400001928E-02 0. -1.
        1   -1    0    0  501    0  0.00000000000E+00  0.00000000000E+00 -0.32902410763E+03  0.32902410767E+03  0.50400001928E-02 0.  1.
    10030    2    1    2    0    0  0.00000000000E+00  0.00000000000E+00 -0.55644516270E+02  0.60240369907E+03  0.59982822913E+03 0.  0.
        2    1    3    3  502    0 -0.10525096482E+02  0.24751666955E+03 -0.19758412603E+03  0.31688289040E+03  0.25500000920E-02 0.  1.
       -2    1    3    3    0  502  0.10525096482E+02 -0.24751666955E+03  0.14193960976E+03  0.28552080868E+03  0.25500000920E-02 0. -1.
</event>
<event>
 5   0  0.2346281E-03  0.5999340E+03  0.7818609E-02  0.9905543E-01
        2   -1    0    0  501    0  0.00000000000E+00  0.00000000000E+00  0.19559149268E+03  0.19559149269E+03  0.25500000920E-02 0.  1.
       -2   -1    0    0    0  501  0.00000000000E+00  0.00000000000E+00 -0.46004143720E+03  0.46004143721E+03  0.25500000920E-02 0. -1.
    10030    2    1    2    0    0  0.00000000000E+00  0.00000000000E+00 -0.26444994453E+03  0.65563292990E+03  0.59993396771E+03 0.  0.
        3    1    3    3  502    0 -0.57862157097E+01  0.11747258707E+03  0.16934173768E+03  0.20617934748E+03  0.10100000352E+00 0.  1.
       -3    1    3    3    0  502  0.57862157097E+01 -0.11747258707E+03 -0.43379168220E+03  0.44945358243E+03  0.10100000352E+00 0. -1.
</event>
<event>
 5   0  0.2421210E-03  0.6001333E+03  0.7818609E-02  0.9905130E-01
        2   -1    0    0  501    0  0.00000000000E+00  0.00000000000E+00  0.81249242759E+03  0.81249242759E+03  0.25500000920E-02 0. -1.
       -2   -1    0    0    0  501  0.00000000000E+00  0.00000000000E+00 -0.11081947033E+03  0.11081947036E+03  0.25500000920E-02 0.  1.
    10030    2    1    2    0    0  0.00000000000E+00  0.00000000000E+00  0.70167295725E+03  0.92331189796E+03  0.60013325351E+03 0.  0.
        1    1    3    3  502    0  0.25770938399E+03 -0.28064351449E+01  0.58727710170E+03  0.64133953323E+03  0.50400001928E-02 0. -1.
       -1    1    3    3    0  502 -0.25770938399E+03  0.28064351449E+01  0.11439585555E+03  0.28197236473E+03  0.50400001928E-02 0.  1.
</event>
<event>
 5   0  0.1479385E-03  0.5999775E+03  0.7818609E-02  0.9905453E-01
        1   -1    0    0  501    0  0.00000000000E+00  0.00000000000E+00  0.51109556759E+03  0.51109556761E+03  0.50400001928E-02 0.  1.
       -1   -1    0    0    0  501  0.00000000000E+00  0.00000000000E+00 -0.17607912720E+03  0.17607912727E+03  0.50400001928E-02 0. -1.
    10030    2    1    2    0    0  0.00000000000E+00  0.00000000000E+00  0.33501644038E+03  0.68717469489E+03  0.59997753788E+03 0.  0.
        3    1    3    3  502    0 -0.57484918914E+02  0.28140404631E+01 -0.16969651437E+03  0.17919082543E+03  0.10100000352E+00 0. -1.
       -3    1    3    3    0  502  0.57484918914E+02 -0.28140404631E+01  0.50471295476E+03  0.50798386946E+03  0.10100000352E+00 0.  1.
</event>
<event>
 5   0  0.2346281E-03  0.5998662E+03  0.7818609E-02  0.9905684E-01
       -2   -1    0    0    0  501  0.00000000000E+00  0.00000000000E+00  0.17758063246E+03  0.17758063248E+03  0.25500000920E-02 0.  1.
        2   -1    0    0  501    0  0.00000000000E+00  0.00000000000E+00 -0.50658603327E+03  0.50658603328E+03  0.25500000920E-02 0. -1.
    10030    2    1    2    0    0  0.00000000000E+00  0.00000000000E+00 -0.32900540081E+03  0.68416666576E+03  0.59986621240E+03 0.  0.
        3    1    3    3  502    0  0.32979266010E+02  0.15146100787E+03 -0.45735924914E+03  0.48291361740E+03  0.10100000352E+00 0. -1.
       -3    1    3    3    0  502 -0.32979266010E+02 -0.15146100787E+03  0.12835384834E+03  0.20125304836E+03  0.10100000352E+00 0.  1.
</event>
<event>
 5   0  0.1392854E-03  0.6002117E+03  0.7818609E-02  0.9904967E-01
        1   -1    0    0  501    0  0.00000000000E+00  0.00000000000E+00  0.85525421882E+03  0.85525421883E+03  0.50400001928E-02 0. -1.
       -1   -1    0    0    0  501  0.00000000000E+00  0.00000000000E+00 -0.10530613069E+03  0.10530613082E+03  0.50400001928E-02 0.  1.
    10030    2    1    2    0    0  0.00000000000E+00  0.00000000000E+00  0.74994808812E+03  0.96056034965E+03  0.60021167136E+03 0.  0.
        4    1    3    3  502    0 -0.12090834098E+03 -0.63107017441E+02  0.80278655331E+03  0.81429060270E+03  0.12699999809E+01 0. -1.
       -4    1    3    3    0  502  0.12090834098E+03  0.63107017441E+02 -0.52838465184E+02  0.14626974695E+03  0.12699999809E+01 0.  1.
</event>
<event>
 5   0  0.1392854E-03  0.5998739E+03  0.7818609E-02  0.9905668E-01
        1   -1    0    0  501    0  0.00000000000E+00  0.00000000000E+00  0.60406812519E+02  0.60406812729E+02  0.50400001928E-02 0.  1.
       -1   -1    0    0    0  501  0.00000000000E+00  0.00000000000E+00 -0.14892720167E+04  0.14892720168E+04  0.50400001928E-02 0. -1.
    10030    2    1    2    0    0  0.00000000000E+00  0.00000000000E+00 -0.14288652042E+04  0.15496788295E+04  0.59987390567E+03 0.  0.
        4    1    3    3  502    0 -0.21715801410E+01 -0.18114980887E+03 -0.13319569758E+04  0.13442213238E+04  0.12699999809E+01 0. -1.
       -4    1    3    3    0  502  0.21715801410E+01  0.18114980887E+03 -0.96908228429E+02  0.20545750571E+03  0.12699999809E+01 0.  1.
</event>
<event>
 5   0  0.1479385E-03  0.6000451E+03  0.7818609E-02  0.9905313E-01
        1   -1    0    0  501    0  0.00000000000E+00  0.00000000000E+00  0.91222410077E+03  0.91222410078E+03  0.50400001928E-02 0. -1.
       -1   -1    0    0    0  501  0.00000000000E+00  0.00000000000E+00 -0.98674796530E+02  0.98674796658E+02  0.50400001928E-02 0.  1.
    10030    2    1    2    0    0  0.00000000000E+00  0.00000000000E+00  0.81354930424E+03  0.10108988974E+04  0.60004509032E+03 0.  0.
        3    1    3    3  502    0  0.97296116262E+01 -0.26501900354E+03  0.64313688580E+03  0.69566860045E+03  0.10100000352E+00 0. -1.
       -3    1    3    3    0  502 -0.97296116262E+01  0.26501900354E+03  0.17041241844E+03  0.31523029699E+03  0.10100000352E+00 0.  1.
</event>
<event>
 5   0  0.2324616E-03  0.6001529E+03  0.7818609E-02  0.9905089E-01
       -2   -1    0    0    0  501  0.00000000000E+00  0.00000000000E+00  0.61964115110E+02  0.61964115162E+02  0.25500000920E-02 0. -1.
        2   -1    0    0  501    0  0.00000000000E+00  0.00000000000E+00 -0.14531939170E+04  0.14531939170E+04  0.25500000920E-02 0.  1.
    10030    2    1    2    0    0  0.00000000000E+00  0.00000000000E+00 -0.13912298019E+04  0.15151580322E+04  0.60015289782E+03 0.  0.
        4    1    3    3  502    0 -0.26864746602E+03  0.18936899667E+02 -0.10297261646E+04  0.10643625576E+04  0.12699999809E+01 0.  1.
       -4    1    3    3    0  502  0.26864746602E+03 -0.18936899667E+02 -0.36150363729E+03  0.45079547451E+03  0.12699999809E+01 0. -1.
</event>
<event>
 5   0  0.2324616E-03  0.6000115E+03  0.7818609E-02  0.9905382E-01
       -2   -1    0    0    0  501  0.00000000000E+00  0.00000000000E+00  0.37085809039E+03  0.37085809040E+03  0.25500000920E-02 0. -1.
        2   -1    0    0  501    0  0.00000000000E+00  0.00000000000E+00 -0.24268976442E+03  0.24268976443E+03  0.25500000920E-02 0.  1.
    10030    2    1    2    0    0  0.00000000000E+00  0.00000000000E+00  0.12816832597E+03  0.61354785483E+03  0.60001154188E+03 0.  0.
        4    1    3    3  502    0  0.93008011229E+02  0.28110280403E+03  0.14697865326E+02  0.29645727640E+03  0.12699999809E+01 0. -1.
       -4    1    3    3    0  502 -0.93008011229E+02 -0.28110280403E+03  0.11347046065E+03  0.31709057843E+03  0.12699999809E+01 0.  1.
</event>
<event>
 5   0  0.9496750E-04  0.5999214E+03  0.7818609E-02  0.9905569E-01
       -4   -1    0    0    0  501  0.00000000000E+00  0.00000000000E+00  0.64696476597E+02  0.64708940526E+02  0.12699999809E+01 0. -1.
        4   -1    0    0  501    0  0.00000000000E+00  0.00000000000E+00 -0.13906000051E+04  0.13906005851E+04  0.12699999809E+01 0.  1.
    10030    2    1    2    0    0  0.00000000000E+00  0.00000000000E+00 -0.13259035285E+04  0.14553095256E+04  0.59992136842E+03 0.  0.
        4    1    3    3  502    0 -0.11274116719E+03  0.11717186953E+02 -0.13366479366E+04  0.13414459298E+04  0.12699999809E+01 0.  1.
       -4    1    3    3    0  502  0.11274116719E+03 -0.11717186953E+02  0.10744408038E+02  0.11386359582E+03  0.12699999809E+01 0. -1.
</event>
<event>
 5   0  0.1479385E-03  0.6001157E+03  0.7818609E-02  0.9905166E-01
        1   -1    0    0  501    0  0.00000000000E+00  0.00000000000E+00  0.17247966040E+04  0.17247966040E+04  0.50400001928E-02 0. -1.
       -1   -1    0    0    0  501  0.00000000000E+00  0.00000000000E+00 -0.52200190574E+02  0.52200190818E+02  0.50400001928E-02 0.  1.
    10030    2    1    2    0    0  0.00000000000E+00  0.00000000000E+00  0.16725964134E+04  0.17769967948E+04  0.60011569435E+03 0.  0.
        3    1    3    3  502    0 -0.58748007274E+02  0.30867744511E+02  0.17027931654E+04  0.17040858900E+04  0.10100000352E+00 0. -1.
       -3    1    3    3    0  502  0.58748007274E+02 -0.30867744511E+02 -0.30196752015E+02  0.72910904830E+02  0.10100000352E+00 0.  1.
</event>
<event>
 5   0  0.1418763E-03  0.6000204E+03  0.7818609E-02  0.9905364E-01
       -1   -1    0    0    0  501  0.00000000000E+00  0.00000000000E+00  0.15599605928E+03  0.15599605936E+03  0.50400001928E-02 0. -1.
        1   -1    0    0  501    0  0.00000000000E+00  0.00000000000E+00 -0.57697696678E+03  0.57697696680E+03  0.50400001928E-02 0.  1.
    10030    2    1    2    0    0  0.00000000000E+00  0.00000000000E+00 -0.42098090750E+03  0.73297302616E+03  0.60002044349E+03 0.  0.
        5    1    3    3  502    0  0.16168380193E+03 -0.13494007572E+03  0.50463664524E+02  0.21660828073E+03  0.46999998093E+01 0. -1.
       -5    1    3    3    0  502 -0.16168380193E+03  0.13494007572E+03 -0.47144457202E+03  0.51636474544E+03  0.46999998093E+01 0.  1.
</event>
<event>
 5   0  0.2313168E-03  0.5999521E+03  0.7818609E-02  0.9905505E-01
        2   -1    0    0  501    0  0.00000000000E+00  0.00000000000E+00  0.61353649225E+03  0.61353649225E+03  0.25500000920E-02 0.  1.
       -2   -1    0    0    0  501  0.00000000000E+00  0.00000000000E+00 -0.14666713635E+03  0.14666713637E+03  0.25500000920E-02 0. -1.
    10030    2    1    2    0    0  0.00000000000E+00  0.00000000000E+00  0.46686935590E+03  0.76020362862E+03  0.59995213266E+03 0.  0.
        2    1    3    3  502    0 -0.32278164377E+02 -0.28070291093E+03  0.10577945862E+03  0.30170399064E+03  0.25500000920E-02 0. -1.
       -2    1    3    3    0  502  0.32278164377E+02  0.28070291093E+03  0.36108989728E+03  0.45849963798E+03  0.25500000920E-02 0.  1.
</event>
<event>
 5   0  0.2346281E-03  0.5992586E+03  0.7818609E-02  0.9906945E-01
        2   -1    0    0  501    0  0.00000000000E+00  0.00000000000E+00  0.82287572849E+03  0.82287572850E+03  0.25500000920E-02 0. -1.
       -2   -1    0    0    0  501  0.00000000000E+00  0.00000000000E+00 -0.10910241678E+03  0.10910241681E+03  0.25500000920E-02 0.  1.
    10030    2    1    2    0    0  0.00000000000E+00  0.00000000000E+00  0.71377331171E+03  0.93197814531E+03  0.59925864435E+03 0.  0.
        3    1    3    3  502    0  0.15420200379E+02  0.14398757668E+03  0.76483893124E+03  0.77842713581E+03  0.10100000352E+00 0. -1.
       -3    1    3    3    0  502 -0.15420200379E+02 -0.14398757668E+03 -0.51065619535E+02  0.15355100950E+03  0.10100000352E+00 0.  1.
</event>
<event>
 5   0  0.2421210E-03  0.5999445E+03  0.7818609E-02  0.9905521E-01
        2   -1    0    0  501    0  0.00000000000E+00  0.00000000000E+00  0.66860527186E+03  0.66860527186E+03  0.25500000920E-02 0.  1.
       -2   -1    0    0    0  501  0.00000000000E+00  0.00000000000E+00 -0.13458364685E+03  0.13458364688E+03  0.25500000920E-02 0. -1.
    10030    2    1    2    0    0  0.00000000000E+00  0.00000000000E+00  0.53402162501E+03  0.80318891874E+03  0.59994445010E+03 0.  0.
        1    1    3    3  502    0 -0.82933183740E+02 -0.16886870006E+03 -0.45783164414E+02  0.19362502161E+03  0.50400001928E-02 0. -1.
       -1    1    3    3    0  502  0.82933183740E+02  0.16886870006E+03  0.57980478942E+03  0.60956389713E+03  0.50400001928E-02 0.  1.
</event>
<event>
 5   0  0.2313168E-03  0.6000343E+03  0.7818609E-02  0.9905335E-01
       -2   -1    0    0    0  501  0.00000000000E+00  0.00000000000E+00  0.23393517144E+03  0.23393517146E+03  0.25500000920E-02 0.  1.
        2   -1    0    0  501    0  0.00000000000E+00  0.00000000000E+00 -0.38476601213E+03  0.38476601214E+03  0.25500000920E-02 0. -1.
    10030    2    1    2    0    0  0.00000000000E+00  0.00000000000E+00 -0.15083084068E+03  0.61870118359E+03  0.60003434241E+03 0.  0.
        2    1    3    3  502    0 -0.21936629334E+03  0.10132374163E+03 -0.25877394160E+03  0.35405087788E+03  0.25500000920E-02 0. -1.
       -2    1    3    3    0  502  0.21936629334E+03 -0.10132374163E+03  0.10794310091E+03  0.26465030571E+03  0.25500000920E-02 0.  1.
</event>
<event>
 5   0  0.2346281E-03  0.5997765E+03  0.7818609E-02  0.9905870E-01
       -2   -1    0    0    0  501  0.00000000000E+00  0.00000000000E+00  0.81287344530E+02  0.81287344570E+02  0.25500000920E-02 0.  1.
        2   -1    0    0  501    0  0.00000000000E+00  0.00000000000E+00 -0.11063588716E+04  0.11063588716E+04  0.25500000920E-02 0. -1.
    10030    2    1    2    0    0  0.00000000000E+00  0.00000000000E+00 -0.10250715271E+04  0.11876462162E+04  0.59977654104E+03 0.  0.
        3    1    3    3  502    0  0.25620408796E+03 -0.89881339436E+02 -0.76467456347E+03  0.81144709507E+03  0.10100000352E+00 0. -1.
       -3    1    3    3    0  502 -0.25620408796E+03  0.89881339436E+02 -0.26039696358E+03  0.37619912109E+03  0.10100000352E+00 0.  1.
</event>
<event>
 5   0  0.1479385E-03  0.6001701E+03  0.7818609E-02  0.9905053E-01
       -1   -1    0    0    0  501  0.00000000000E+00  0.00000000000E+00  0.32185927451E+03  0.32185927455E+03  0.50400001928E-02 0.  1.
        1   -1    0    0  501    0  0.00000000000E+00  0.00000000000E+00 -0.27978389359E+03  0.27978389364E+03  0.50400001928E-02 0. -1.
    10030    2    1    2    0    0  0.00000000000E+00  0.00000000000E+00  0.42075380917E+02  0.60164316819E+03  0.60017011267E+03 0.  0.
        3    1    3    3  502    0 -0.17568043137E+03  0.37603790948E+02  0.26198855131E+03  0.31767226867E+03  0.10100000352E+00 0. -1.
       -3    1    3    3    0  502  0.17568043137E+03 -0.37603790948E+02 -0.21991317039E+03  0.28397089952E+03  0.10100000352E+00 0.  1.
</event>
<event>
 5   0  0.2406307E-03  0.5999752E+03  0.7818609E-02  0.9905458E-01
       -2   -1    0    0    0  501  0.00000000000E+00  0.00000000000E+00  0.10436110157E+03  0.10436110160E+03  0.25500000920E-02 0. -1.
        2   -1    0    0  501    0  0.00000000000E+00  0.00000000000E+00 -0.86231888514E+03  0.86231888514E+03  0.25500000920E-02 0.  1.
    10030    2    1    2    0    0  0.00000000000E+00  0.00000000000E+00 -0.75795778357E+03  0.96667998674E+03  0.59997516206E+03 0.  0.
        5    1    3    3  502    0  0.30970411076E+01 -0.22772380393E+02 -0.86083891868E+03  0.86115846793E+03  0.46999998093E+01 0.  1.
       -5    1    3    3    0  502 -0.30970411076E+01  0.22772380393E+02  0.10288113511E+03  0.10552151881E+03  0.46999998093E+01 0. -1.
</event>
<event>
 5   0  0.1418763E-03  0.6001495E+03  0.7818609E-02  0.9905096E-01
       -1   -1    0    0    0  501  0.00000000000E+00  0.00000000000E+00  0.37641586315E+03  0.37641586318E+03  0.50400001928E-02 0. -1.
        1   -1    0    0  501    0  0.00000000000E+00  0.00000000000E+00 -0.23921642875E+03  0.23921642880E+03  0.50400001928E-02 0.  1.
    10030    2    1    2    0    0  0.00000000000E+00  0.00000000000E+00  0.13719943440E+03  0.61563229198E+03  0.60014950982E+03 0.  0.
        5    1    3    3  502    0 -0.77558244535E+01 -0.80229570311E+02 -0.22786454005E+03  0.24174630374E+03  0.46999998093E+01 0.  1.
       -5    1    3    3    0  502  0.77558244535E+01  0.80229570311E+02  0.36506397445E+03  0.37388598824E+03  0.46999998093E+01 0. -1.
</event>
<event>
 5   0  0.1479385E-03  0.6002984E+03  0.7818609E-02  0.9904787E-01
        1   -1    0    0  501    0  0.00000000000E+00  0.00000000000E+00  0.22651471251E+03  0.22651471256E+03  0.50400001928E-02 0. -1.
       -1   -1    0    0    0  501  0.00000000000E+00  0.00000000000E+00 -0.39772055332E+03  0.39772055336E+03  0.50400001928E-02 0.  1.
    10030    2    1    2    0    0  0.00000000000E+00  0.00000000000E+00 -0.17120584082E+03  0.62423526592E+03  0.60029844851E+03 0.  0.
        3    1    3    3  502    0 -0.19766711502E+03 -0.35731602866E+02  0.14631601025E+03  0.24851040393E+03  0.10100000352E+00 0. -1.
       -3    1    3    3    0  502  0.19766711502E+03  0.35731602866E+02 -0.31752185107E+03  0.37572486199E+03  0.10100000352E+00 0.  1.
</event>
<event>
 5   0  0.9496750E-04  0.6001531E+03  0.7818609E-02  0.9905089E-01
        3   -1    0    0  501    0  0.00000000000E+00  0.00000000000E+00  0.88319659111E+02  0.88319716861E+02  0.10100000352E+00 0.  1.
       -3   -1    0    0    0  501  0.00000000000E+00  0.00000000000E+00 -0.10195452522E+04  0.10195452572E+04  0.10100000352E+00 0. -1.
    10030    2    1    2    0    0  0.00000000000E+00  0.00000000000E+00 -0.93122559306E+03  0.11078649740E+04  0.60015306008E+03 0.  0.
        3    1    3    3  502    0 -0.84062118103E+02  0.10911776105E+03  0.26513400139E+02  0.14027150838E+03  0.10100000352E+00 0.  1.
       -3    1    3    3    0  502  0.84062118103E+02 -0.10911776105E+03 -0.95773899320E+03  0.96759346565E+03  0.10100000352E+00 0. -1.
</event>
<event>
 5   0  0.2346281E-03  0.5992871E+03  0.7818609E-02  0.9906886E-01
       -2   -1    0    0    0  501  0.00000000000E+00  0.00000000000E+00  0.16780258123E+03  0.16780258125E+03  0.25500000920E-02 0. -1.
        2   -1    0    0  501    0  0.00000000000E+00  0.00000000000E+00 -0.53507081893E+03  0.53507081894E+03  0.25500000920E-02 0.  1.
    10030    2    1    2    0    0  0.00000000000E+00  0.00000000000E+00 -0.36726823770E+03  0.70287340019E+03  0.59928712507E+03 0.  0.
        3    1    3    3  502    0  0.17073549166E+03 -0.19124436582E+03 -0.36556279203E+03  0.44649880255E+03  0.10100000352E+00 0.  1.
       -3    1    3    3    0  502 -0.17073549166E+03  0.19124436582E+03 -0.17054456726E+01  0.25637459764E+03  0.10100000352E+00 0. -1.
</event>
<event>
 5   0  0.1423430E-03  0.6001905E+03  0.7818609E-02  0.9905011E-01
       -1   -1    0    0    0  501  0.00000000000E+00  0.00000000000E+00  0.10445883947E+03  0.10445883959E+03  0.50400001928E-02 0. -1.
        1   -1    0    0  501    0  0.00000000000E+00  0.00000000000E+00 -0.86213050819E+03  0.86213050821E+03  0.50400001928E-02 0.  1.
    10030    2    1    2    0    0  0.00000000000E+00  0.00000000000E+00 -0.75767166872E+03  0.96658934780E+03  0.60019047785E+03 0.  0.
        1    1    3    3  502    0  0.10891202629E+03  0.18861759793E+03 -0.71130634363E+03  0.74390533150E+03  0.50400001928E-02 0.  1.
       -1    1    3    3    0  502 -0.10891202629E+03 -0.18861759793E+03 -0.46365325092E+02  0.22268401630E+03  0.50400001928E-02 0. -1.
</event>
<event>
 5   0  0.1479385E-03  0.5998478E+03  0.7818609E-02  0.9905722E-01
        1   -1    0    0  501    0  0.00000000000E+00  0.00000000000E+00  0.28322684599E+03  0.28322684603E+03  0.50400001928E-02 0.  1.
       -1   -1    0    0    0  501  0.00000000000E+00  0.00000000000E+00 -0.31760532367E+03  0.31760532371E+03  0.50400001928E-02 0. -1.
    10030    2    1    2    0    0  0.00000000000E+00  0.00000000000E+00 -0.34378477679E+02  0.60083216974E+03  0.59984782776E+03 0.  0.
        3    1    3    3  502    0 -0.19612206180E+03  0.22635203328E+03 -0.11868580690E+01  0.29950045898E+03  0.10100000352E+00 0.  1.
       -3    1    3    3    0  502  0.19612206180E+03 -0.22635203328E+03 -0.33191619610E+02  0.30133171076E+03  0.10100000352E+00 0. -1.
</event>
<event>
 5   0  0.1416315E-03  0.5979280E+03  0.7818609E-02  0.9909714E-01
        1   -1    0    0  501    0  0.00000000000E+00  0.00000000000E+00  0.18129200496E+03  0.18129200503E+03  0.50400001928E-02 0.  1.
       -1   -1    0    0    0  501  0.00000000000E+00  0.00000000000E+00 -0.49301393950E+03  0.49301393953E+03  0.50400001928E-02 0. -1.
    10030    2    1    2    0    0  0.00000000000E+00  0.00000000000E+00 -0.31172193454E+03  0.67430594456E+03  0.59792804116E+03 0.  0.
        2    1    3    3  502    0 -0.18411502594E+03 -0.17200058965E+02  0.10906209977E+03  0.21468285078E+03  0.25500000920E-02 0.  1.
       -2    1    3    3    0  502  0.18411502594E+03  0.17200058965E+02 -0.42078403431E+03  0.45962309378E+03  0.25500000920E-02 0. -1.
</event>
<event>
 5   0  0.1418763E-03  0.5999343E+03  0.7818609E-02  0.9905542E-01
       -1   -1    0    0    0  501  0.00000000000E+00  0.00000000000E+00  0.17290499099E+03  0.17290499107E+03  0.50400001928E-02 0.  1.
        1   -1    0    0  501    0  0.00000000000E+00  0.00000000000E+00 -0.52040314749E+03  0.52040314751E+03  0.50400001928E-02 0. -1.
    10030    2    1    2    0    0  0.00000000000E+00  0.00000000000E+00 -0.34749815649E+03  0.69330813858E+03  0.59993433495E+03 0.  0.
        5    1    3    3  502    0  0.14176198871E+03 -0.11064456740E+03 -0.45114970345E+03  0.48569211097E+03  0.46999998093E+01 0. -1.
       -5    1    3    3    0  502 -0.14176198871E+03  0.11064456740E+03  0.10365154695E+03  0.20761602761E+03  0.46999998093E+01 0.  1.
</event>
<event>
 5   0  0.2324616E-03  0.5998756E+03  0.7818609E-02  0.9905664E-01
       -2   -1    0    0    0  501  0.00000000000E+00  0.00000000000E+00  0.16954142602E+03  0.16954142604E+03  0.25500000920E-02 0.  1.
        2   -1    0    0  501    0  0.00000000000E+00  0.00000000000E+00 -0.53062358809E+03  0.53062358810E+03  0.25500000920E-02 0. -1.
    10030    2    1    2    0    0  0.00000000000E+00  0.00000000000E+00 -0.36108216207E+03  0.70016501414E+03  0.59987558649E+03 0.  0.
        4    1    3    3  502    0 -0.28727780946E+03  0.79724185681E+02 -0.21883789456E+03  0.36983256020E+03  0.12699999809E+01 0. -1.
       -4    1    3    3    0  502  0.28727780946E+03 -0.79724185681E+02 -0.14224426750E+03  0.33033245394E+03  0.12699999809E+01 0.  1.
</event>
<event>
 5   0  0.2421210E-03  0.5998280E+03  0.7818609E-02  0.9905763E-01
        2   -1    0    0  501    0  0.00000000000E+00  0.00000000000E+00  0.99493398334E+03  0.99493398334E+03  0.25500000920E-02 0.  1.
       -2   -1    0    0    0  501  0.00000000000E+00  0.00000000000E+00 -0.90406398891E+02  0.90406398927E+02  0.25500000920E-02 0. -1.
    10030    2    1    2    0    0  0.00000000000E+00  0.00000000000E+00  0.90452758445E+03  0.10853403823E+04  0.59982797063E+03 0.  0.
        1    1    3    3  502    0  0.80396786451E+02  0.23310022174E+03  0.14333997613E+03  0.28521168529E+03  0.50400001928E-02 0. -1.
       -1    1    3    3    0  502 -0.80396786451E+02 -0.23310022174E+03  0.76118760832E+03  0.80012869697E+03  0.50400001928E-02 0.  1.
</event>
<event>
 5   0  0.1392854E-03  0.5998531E+03  0.7818609E-02  0.9905711E-01
        1   -1    0    0  501    0  0.00000000000E+00  0.00000000000E+00  0.20543517084E+03  0.20543517090E+03  0.50400001928E-02 0.  1.
       -1   -1    0    0    0  501  0.00000000000E+00  0.00000000000E+00 -0.43787993113E+03  0.43787993116E+03  0.50400001928E-02 0. -1.
    10030    2    1    2    0    0  0.00000000000E+00  0.00000000000E+00 -0.23244476029E+03  0.64331510206E+03  0.59985311032E+03 0.  0.
        4    1    3    3  502    0 -0.16027787980E+03  0.23984514804E+03 -0.28178957545E+02  0.28984540766E+03  0.12699999809E+01 0.  1.
       -4    1    3    3    0  502  0.16027787980E+03 -0.23984514804E+03 -0.20426580274E+03  0.35346969440E+03  0.12699999809E+01 0. -1.
</event>
<event>
 5   0  0.2313168E-03  0.6001178E+03  0.7818609E-02  0.9905162E-01
        2   -1    0    0  501    0  0.00000000000E+00  0.00000000000E+00  0.10329174076E+04  0.10329174076E+04  0.25500000920E-02 0.  1.
       -2   -1    0    0    0  501  0.00000000000E+00  0.00000000000E+00 -0.87166063414E+02  0.87166063451E+02  0.25500000920E-02 0. -1.
    10030    2    1    2    0    0  0.00000000000E+00  0.00000000000E+00  0.94575134414E+03  0.11200834710E+04  0.60011780267E+03 0.  0.
        2    1    3    3  502    0 -0.16047393120E+03 -0.15190336976E+03  0.85176206550E+03  0.87995746066E+03  0.25500000920E-02 0.  1.
       -2    1    3    3    0  502  0.16047393120E+03  0.15190336976E+03  0.93989278645E+02  0.24012601035E+03  0.25500000920E-02 0. -1.
</event>
<event>
 5   0  0.1479385E-03  0.5999922E+03  0.7818609E-02  0.9905422E-01
       -1   -1    0    0    0  501  0.00000000000E+00  0.00000000000E+00  0.16591167769E+03  0.16591167776E+03  0.50400001928E-02 0. -1.
        1   -1    0    0  501    0  0.00000000000E+00  0.00000000000E+00 -0.54244322539E+03  0.54244322542E+03  0.50400001928E-02 0.  1.
    10030    2    1    2    0    0  0.00000000000E+00  0.00000000000E+00 -0.37653154771E+03  0.70835490318E+03  0.59999221865E+03 0.  0.
        3    1    3    3  502    0  0.23703629073E+03 -0.81233235512E+02  0.64900327641E+01  0.25065349070E+03  0.10100000352E+00 0. -1.
       -3    1    3    3    0  502 -0.23703629073E+03  0.81233235512E+02 -0.38302158047E+03  0.45770141248E+03  0.10100000352E+00 0.  1.
</event>
<event>
 5   0  0.2313168E-03  0.6001293E+03  0.7818609E-02  0.9905138E-01
        2   -1    0    0  501    0  0.00000000000E+00  0.00000000000E+00  0.81664148645E+03  0.81664148645E+03  0.25500000920E-02 0. -1.
       -2   -1    0    0    0  501  0.00000000000E+00  0.00000000000E+00 -0.11025497771E+03  0.11025497774E+03  0.25500000920E-02 0.  1.
    10030    2    1    2    0    0  0.00000000000E+00  0.00000000000E+00  0.70638650874E+03  0.92689646420E+03  0.60012928242E+03 0.  0.
        2    1    3    3  502    0 -0.19470408670E+03 -0.19380665617E+03  0.53961118332E+03  0.60551707698E+03  0.25500000920E-02 0. -1.
       -2    1    3    3    0  502  0.19470408670E+03  0.19380665617E+03  0.16677532542E+03  0.32137938721E+03  0.25500000920E-02 0.  1.
</event>
<event>
 5   0  0.1416315E-03  0.5999879E+03  0.7818609E-02  0.9905431E-01
        1   -1    0    0  501    0  0.00000000000E+00  0.00000000000E+00  0.60875117626E+03  0.60875117628E+03  0.50400001928E-02 0. -1.
       -1   -1    0    0    0  501  0.00000000000E+00  0.00000000000E+00 -0.14783771631E+03  0.14783771639E+03  0.50400001928E-02 0.  1.
    10030    2    1    2    0    0  0.00000000000E+00  0.00000000000E+00  0.46091345995E+03  0.75658889267E+03  0.59998794567E+03 0.  0.
        2    1    3    3  502    0 -0.29112568702E+02 -0.92686127886E+01 -0.14587075435E+03  0.14903598834E+03  0.25500000920E-02 0.  1.
       -2    1    3    3    0  502  0.29112568702E+02  0.92686127886E+01  0.60678421430E+03  0.60755290433E+03  0.25500000920E-02 0. -1.
</event>
<event>
 5   0  0.1416315E-03  0.5994152E+03  0.7818609E-02  0.9906620E-01
        1   -1    0    0  501    0  0.00000000000E+00  0.00000000000E+00  0.57263791136E+03  0.57263791139E+03  0.50400001928E-02 0. -1.
       -1   -1    0    0    0  501  0.00000000000E+00  0.00000000000E+00 -0.15686116489E+03  0.15686116497E+03  0.50400001928E-02 0.  1.
    10030    2    1    2    0    0  0.00000000000E+00  0.00000000000E+00  0.41577674647E+03  0.72949907636E+03  0.59941521461E+03 0.  0.
        2    1    3    3  502    0 -0.42526727095E+02 -0.21068071076E+03  0.46209591056E+03  0.50963468776E+03  0.25500000920E-02 0. -1.
       -2    1    3    3    0  502  0.42526727095E+02  0.21068071076E+03 -0.46319164088E+02  0.21986438860E+03  0.25500000920E-02 0.  1.
</event>
<event>
 5   0  0.1416315E-03  0.6000052E+03  0.7818609E-02  0.9905395E-01
       -1   -1    0    0    0  501  0.00000000000E+00  0.00000000000E+00  0.94275254802E+02  0.94275254936E+02  0.50400001928E-02 0. -1.
        1   -1    0    0  501    0  0.00000000000E+00  0.00000000000E+00 -0.95466801499E+03  0.95466801500E+03  0.50400001928E-02 0.  1.
    10030    2    1    2    0    0  0.00000000000E+00  0.00000000000E+00 -0.86039276019E+03  0.10489432699E+04  0.60000523478E+03 0.  0.
        2    1    3    3  502    0  0.10588881509E+03  0.27371767510E+03 -0.53892075593E+03  0.61365249775E+03  0.25500000920E-02 0. -1.
       -2    1    3    3    0  502 -0.10588881509E+03 -0.27371767510E+03 -0.32147200426E+03  0.43529077219E+03  0.25500000920E-02 0.  1.
</event>
<event>
 5   0  0.2313168E-03  0.5999258E+03  0.7818609E-02  0.9905560E-01
        2   -1    0    0  501    0  0.00000000000E+00  0.00000000000E+00  0.46303057756E+03  0.46303057757E+03  0.25500000920E-02 0. -1.
       -2   -1    0    0    0  501  0.00000000000E+00  0.00000000000E+00 -0.19432355401E+03  0.19432355403E+03  0.25500000920E-02 0.  1.
    10030    2    1    2    0    0  0.00000000000E+00  0.00000000000E+00  0.26870702355E+03  0.65735413160E+03  0.59992582027E+03 0.  0.
        2    1    3    3  502    0  0.19983503455E+03 -0.65189012045E+01  0.37936818934E+03  0.42883185539E+03  0.25500000920E-02 0. -1.
       -2    1    3    3    0  502 -0.19983503455E+03  0.65189012045E+01 -0.11066116578E+03  0.22852227621E+03  0.25500000920E-02 0.  1.
</event>
<event>
 5   0  0.1418763E-03  0.5999539E+03  0.7818609E-02  0.9905502E-01
        1   -1    0    0  501    0  0.00000000000E+00  0.00000000000E+00  0.44045072974E+03  0.44045072977E+03  0.50400001928E-02 0.  1.
       -1   -1    0    0    0  501  0.00000000000E+00  0.00000000000E+00 -0.20430474701E+03  0.20430474707E+03  0.50400001928E-02 0. -1.
    10030    2    1    2    0    0  0.00000000000E+00  0.00000000000E+00  0.23614598273E+03  0.64475547685E+03  0.59995391470E+03 0.  0.
        5    1    3    3  502    0 -0.22468466795E+01 -0.88513028044E+02  0.42604657466E+03  0.43517511215E+03  0.46999998093E+01 0.  1.
       -5    1    3    3    0  502  0.22468466795E+01  0.88513028044E+02 -0.18990059193E+03  0.20958036470E+03  0.46999998093E+01 0. -1.
</event>
<event>
 5   0  0.2406307E-03  0.6002937E+03  0.7818609E-02  0.9904797E-01
        2   -1    0    0  501    0  0.00000000000E+00  0.00000000000E+00  0.31236907519E+03  0.31236907520E+03  0.25500000920E-02 0. -1.
       -2   -1    0    0    0  501  0.00000000000E+00  0.00000000000E+00 -0.28840286162E+03  0.28840286163E+03  0.25500000920E-02 0.  1.
    10030    2    1    2    0    0  0.00000000000E+00  0.00000000000E+00  0.23966213574E+02  0.60077193683E+03  0.60029371202E+03 0.  0.
        5    1    3    3  502    0 -0.63392545135E+01  0.18852933381E+03 -0.22161781593E+03  0.29106707507E+03  0.46999998093E+01 0.  1.
       -5    1    3    3    0  502  0.63392545135E+01 -0.18852933381E+03  0.24558402950E+03  0.30970486176E+03  0.46999998093E+01 0. -1.
</event>
<event>
 5   0  0.2406307E-03  0.6000971E+03  0.7818609E-02  0.9905205E-01
       -2   -1    0    0    0  501  0.00000000000E+00  0.00000000000E+00  0.71115766384E+03  0.71115766385E+03  0.25500000920E-02 0. -1.
        2   -1    0    0  501    0  0.00000000000E+00  0.00000000000E+00 -0.12659516325E+03  0.12659516328E+03  0.25500000920E-02 0.  1.
    10030    2    1    2    0    0  0.00000000000E+00  0.00000000000E+00  0.58456250059E+03  0.83775282712E+03  0.60009706069E+03 0.  0.
        5    1    3    3  502    0  0.16920888009E+03 -0.16753728986E+03  0.54705801995E+03  0.59665312853E+03  0.46999998093E+01 0.  1.
       -5    1    3    3    0  502 -0.16920888009E+03  0.16753728986E+03  0.37504480639E+02  0.24109969859E+03  0.46999998093E+01 0. -1.
</event>
<event>
 5   0  0.2324616E-03  0.6001171E+03  0.7818609E-02  0.9905163E-01
        2   -1    0    0  501    0  0.00000000000E+00  0.00000000000E+00  0.39271584957E+03  0.39271584958E+03  0.25500000920E-02 0.  1.
       -2   -1    0    0    0  501  0.00000000000E+00  0.00000000000E+00 -0.22926278113E+03  0.22926278114E+03  0.25500000920E-02 0. -1.
    10030    2    1    2    0    0  0.00000000000E+00  0.00000000000E+00  0.16345306845E+03  0.62197863072E+03  0.60011708149E+03 0.  0.
        4    1    3    3  502    0  0.82713117611E+00 -0.26688492799E+03 -0.60401325558E+02  0.27363878008E+03  0.12699999809E+01 0. -1.
       -4    1    3    3    0  502 -0.82713117611E+00  0.26688492799E+03  0.22385439400E+03  0.34833985065E+03  0.12699999809E+01 0.  1.
</event>
<event>
 5   0  0.1392854E-03  0.5999065E+03  0.7818609E-02  0.9905600E-01
       -1   -1    0    0    0  501  0.00000000000E+00  0.00000000000E+00  0.30290707577E+03  0.30290707581E+03  0.50400001928E-02 0.  1.
        1   -1    0    0  501    0  0.00000000000E+00  0.00000000000E+00 -0.29702821320E+03  0.29702821325E+03  0.50400001928E-02 0. -1.
    10030    2    1    2    0    0  0.00000000000E+00  0.00000000000E+00  0.58788625625E+01  0.59993528905E+03  0.59990648440E+03 0.  0.
        4    1    3    3  502    0 -0.26980769183E+03  0.86125255673E+02  0.10171959794E+03  0.30093560730E+03  0.12699999809E+01 0.  1.
       -4    1    3    3    0  502  0.26980769183E+03 -0.86125255673E+02 -0.95840735378E+02  0.29899968176E+03  0.12699999809E+01 0. -1.
</event>
<event>
 5   0  0.9496750E-04  0.5997155E+03  0.7818609E-02  0.9905996E-01
        4   -1    0    0  501    0  0.00000000000E+00  0.00000000000E+00  0.17001063357E+03  0.17001537703E+03  0.12699999809E+01 0.  1.
       -4   -1    0    0    0  501  0.00000000000E+00  0.00000000000E+00 -0.52886388882E+03  0.52886541369E+03  0.12699999809E+01 0. -1.
    10030    2    1    2    0    0  0.00000000000E+00  0.00000000000E+00 -0.35885325525E+03  0.69888079071E+03  0.59971551658E+03 0.  0.
        5    1    3    3  502    0 -0.12168344457E+03 -0.61272733399E+01  0.13982116526E+03  0.18551671734E+03  0.46999998093E+01 0.  1.
       -5    1    3    3    0  502  0.12168344457E+03  0.61272733399E+01 -0.49867442051E+03  0.51336407337E+03  0.46999998093E+01 0. -1.
</event>
<event>
 5   0  0.9496750E-04  0.5998623E+03  0.7818609E-02  0.9905692E-01
       -3   -1    0    0    0  501  0.00000000000E+00  0.00000000000E+00  0.20325741054E+03  0.20325743564E+03  0.10100000352E+00 0.  1.
        3   -1    0    0  501    0  0.00000000000E+00  0.00000000000E+00 -0.44258506030E+03  0.44258507183E+03  0.10100000352E+00 0. -1.
    10030    2    1    2    0    0  0.00000000000E+00  0.00000000000E+00 -0.23932764976E+03  0.64584250746E+03  0.59986233463E+03 0.  0.
        4    1    3    3  502    0  0.10335841327E+02 -0.23251342466E+03  0.84013344510E+02  0.24744530147E+03  0.12699999809E+01 0.  1.
       -4    1    3    3    0  502 -0.10335841327E+02  0.23251342466E+03 -0.32334099427E+03  0.39839720599E+03  0.12699999809E+01 0. -1.
</event>
<event>
 5   0  0.2313168E-03  0.5999925E+03  0.7818609E-02  0.9905422E-01
        2   -1    0    0  501    0  0.00000000000E+00  0.00000000000E+00  0.14803381253E+04  0.14803381253E+04  0.25500000920E-02 0. -1.
       -2   -1    0    0    0  501  0.00000000000E+00  0.00000000000E+00 -0.60795394290E+02  0.60795394343E+02  0.25500000920E-02 0.  1.
    10030    2    1    2    0    0  0.00000000000E+00  0.00000000000E+00  0.14195427310E+04  0.15411335197E+04  0.59999246680E+03 0.  0.
        2    1    3    3  502    0  0.23412777875E+03  0.17221158687E+03  0.51884572783E+03  0.59470457938E+03  0.25500000920E-02 0.  1.
       -2    1    3    3    0  502 -0.23412777875E+03 -0.17221158687E+03  0.90069700318E+03  0.94642894027E+03  0.25500000920E-02 0. -1.
</event>
<event>
 5   0  0.1416315E-03  0.5994804E+03  0.7818609E-02  0.9906485E-01
       -1   -1    0    0    0  501  0.00000000000E+00  0.00000000000E+00  0.18347955611E+03  0.18347955618E+03  0.50400001928E-02 0.  1.
        1   -1    0    0  501    0  0.00000000000E+00  0.00000000000E+00 -0.48966865392E+03  0.48966865395E+03  0.50400001928E-02 0. -1.
    10030    2    1    2    0    0  0.00000000000E+00  0.00000000000E+00 -0.30618909781E+03  0.67314821013E+03  0.59948039933E+03 0.  0.
        2    1    3    3  502    0  0.28672252606E+03 -0.87321698113E+02 -0.14966995261E+03  0.33501638860E+03  0.25500000920E-02 0.  1.
       -2    1    3    3    0  502 -0.28672252606E+03  0.87321698113E+02 -0.15651914520E+03  0.33813182153E+03  0.25500000920E-02 0. -1.
</event>
<event>
 5   0  0.2346281E-03  0.5999815E+03  0.7818609E-02  0.9905444E-01
        2   -1    0    0  501    0  0.00000000000E+00  0.00000000000E+00  0.34626168555E+03  0.34626168556E+03  0.25500000920E-02 0. -1.
       -2   -1    0    0    0  501  0.00000000000E+00  0.00000000000E+00 -0.25990299194E+03  0.25990299195E+03  0.25500000920E-02 0.  1.
    10030    2    1    2    0    0  0.00000000000E+00  0.00000000000E+00  0.86358693614E+02  0.60616467751E+03  0.59998149330E+03 0.  0.
        3    1    3    3  502    0 -0.27940569706E+03 -0.90891111903E+02  0.10434832655E+03  0.31179692305E+03  0.10100000352E+00 0.  1.
       -3    1    3    3    0  502  0.27940569706E+03  0.90891111903E+02 -0.17989632937E+02  0.29436775446E+03  0.10100000352E+00 0. -1.
</event>
<event>
 5   0  0.2406307E-03  0.5999454E+03  0.7818609E-02  0.9905519E-01
        2   -1    0    0  501    0  0.00000000000E+00  0.00000000000E+00  0.10727041514E+04  0.10727041514E+04  0.25500000920E-02 0.  1.
       -2   -1    0    0    0  501  0.00000000000E+00  0.00000000000E+00 -0.83884844145E+02  0.83884844184E+02  0.25500000920E-02 0. -1.
    10030    2    1    2    0    0  0.00000000000E+00  0.00000000000E+00  0.98881930724E+03  0.11565889956E+04  0.59994539944E+03 0.  0.
        5    1    3    3  502    0  0.65899721123E+01  0.22385593237E+03  0.10977801604E+03  0.24945582574E+03  0.46999998093E+01 0. -1.
       -5    1    3    3    0  502 -0.65899721123E+01 -0.22385593237E+03  0.87904129120E+03  0.90713316984E+03  0.46999998093E+01 0.  1.
</event>
<event>
 5   0  0.1418763E-03  0.6003388E+03  0.7818609E-02  0.9904703E-01
        1   -1    0    0  501    0  0.00000000000E+00  0.00000000000E+00  0.28212361289E+03  0.28212361293E+03  0.50400001928E-02 0. -1.
       -1   -1    0    0    0  501  0.00000000000E+00  0.00000000000E+00 -0.31936945711E+03  0.31936945715E+03  0.50400001928E-02 0.  1.
    10030    2    1    2    0    0  0.00000000000E+00  0.00000000000E+00 -0.37245844223E+02  0.60149307009E+03  0.60033878806E+03 0.  0.
        5    1    3    3  502    0  0.23572094298E+03 -0.68740848620E+02 -0.19155230996E+03  0.31145472332E+03  0.46999998093E+01 0.  1.
       -5    1    3    3    0  502 -0.23572094298E+03  0.68740848620E+02  0.15430646573E+03  0.29003834677E+03  0.46999998093E+01 0. -1.
</event>
<event>
 5   0  0.1479385E-03  0.6003973E+03  0.7818609E-02  0.9904582E-01
        1   -1    0    0  501    0  0.00000000000E+00  0.00000000000E+00  0.35817490675E+03  0.35817490679E+03  0.50400001928E-02 0. -1.
       -1   -1    0    0    0  501  0.00000000000E+00  0.00000000000E+00 -0.25160679872E+03  0.25160679877E+03  0.50400001928E-02 0.  1.
    10030    2    1    2    0    0  0.00000000000E+00  0.00000000000E+00  0.10656810803E+03  0.60978170556E+03  0.60039734076E+03 0.  0.
        3    1    3    3  502    0  0.26523173875E+02  0.14819980492E+03 -0.21049170606E+03  0.25879225153E+03  0.10100000352E+00 0.  1.
       -3    1    3    3    0  502 -0.26523173875E+02 -0.14819980492E+03  0.31705981409E+03  0.35098945403E+03  0.10100000352E+00 0. -1.
</event>
<event>
 5   0  0.2346281E-03  0.5998088E+03  0.7818609E-02  0.9905803E-01
       -2   -1    0    0    0  501  0.00000000000E+00  0.00000000000E+00  0.54808819516E+02  0.54808819575E+02  0.25500000920E-02 0. -1.
        2   -1    0    0  501    0  0.00000000000E+00  0.00000000000E+00 -0.16410251939E+04  0.16410251939E+04  0.25500000920E-02 0.  1.
    10030    2    1    2    0    0  0.00000000000E+00  0.00000000000E+00 -0.15862163744E+04  0.16958340135E+04  0.59980881529E+03 0.  0.
        3    1    3    3  502    0 -0.10276117812E+03  0.20507150708E+03 -0.24685933343E+03  0.33697733373E+03  0.10100000352E+00 0. -1.
       -3    1    3    3    0  502  0.10276117812E+03 -0.20507150708E+03 -0.13393570409E+04  0.13588566797E+04  0.10100000352E+00 0.  1.
</event>
<event>
 5   0  0.2421210E-03  0.6001794E+03  0.7818609E-02  0.9905034E-01
        2   -1    0    0  501    0  0.00000000000E+00  0.00000000000E+00  0.16468060883E+04  0.16468060883E+04  0.25500000920E-02 0. -1.
       -2   -1    0    0    0  501  0.00000000000E+00  0.00000000000E+00 -0.54683920922E+02  0.54683920982E+02  0.25500000920E-02 0.  1.
    10030    2    1    2    0    0  0.00000000000E+00  0.00000000000E+00  0.15921221674E+04  0.17014900093E+04  0.60017935306E+03 0.  0.
        1    1    3    3  502    0 -0.13254175633E+03 -0.26793361605E+03  0.72115809772E+03  0.78065660935E+03  0.50400001928E-02 0.  1.
       -1    1    3    3    0  502  0.13254175633E+03  0.26793361605E+03  0.87096406967E+03  0.92083339995E+03  0.50400001928E-02 0. -1.
</event>
<event>
 5   0  0.2421210E-03  0.5999057E+03  0.7818609E-02  0.9905602E-01
        2   -1    0    0  501    0  0.00000000000E+00  0.00000000000E+00  0.82865932365E+03  0.82865932365E+03  0.25500000920E-02 0.  1.
       -2   -1    0    0    0  501  0.00000000000E+00  0.00000000000E+00 -0.10857501497E+03  0.10857501500E+03  0.25500000920E-02 0. -1.
    10030    2    1    2    0    0  0.00000000000E+00  0.00000000000E+00  0.72008430868E+03  0.93723433865E+03  0.59990565421E+03 0.  0.
        1    1    3    3  502    0  0.52834303079E+02 -0.55486667281E+01  0.82125092235E+03  0.82296739229E+03  0.50400001928E-02 0.  1.
       -1    1    3    3    0  502 -0.52834303079E+02  0.55486667281E+01 -0.10116661367E+03  0.11426694637E+03  0.50400001928E-02 0. -1.
</event>
<event>
 5   0  0.2313168E-03  0.5997794E+03  0.7818609E-02  0.9905864E-01
        2   -1    0    0  501    0  0.00000000000E+00  0.00000000000E+00  0.36992793692E+03  0.36992793692E+03  0.25500000920E-02 0.  1.
       -2   -1    0    0    0  501  0.00000000000E+00  0.00000000000E+00 -0.24311172553E+03  0.24311172554E+03  0.25500000920E-02 0. -1.
    10030    2    1    2    0    0  0.00000000000E+00  0.00000000000E+00  0.12681621138E+03  0.61303966247E+03  0.59977935634E+03 0.  0.
        2    1    3    3  502    0  0.19773325026E+03 -0.70459820110E+02 -0.15550168769E+03  0.26123514195E+03  0.25500000920E-02 0. -1.
       -2    1    3    3    0  502 -0.19773325026E+03  0.70459820110E+02  0.28231789908E+03  0.35180452052E+03  0.25500000920E-02 0.  1.
</event>
<event>
 5   0  0.1423430E-03  0.6000328E+03  0.7818609E-02  0.9905338E-01
       -1   -1    0    0    0  501  0.00000000000E+00  0.00000000000E+00  0.90466631586E+02  0.90466631726E+02  0.50400001928E-02 0. -1.
        1   -1    0    0  501    0  0.00000000000E+00  0.00000000000E+00 -0.99495073493E+03  0.99495073494E+03  0.50400001928E-02 0.  1.
    10030    2    1    2    0    0  0.00000000000E+00  0.00000000000E+00 -0.90448410334E+03  0.10854173667E+04  0.60003280466E+03 0.  0.
        1    1    3    3  502    0 -0.27189256278E+03 -0.34415588368E+02 -0.67304894164E+03  0.72670824702E+03  0.50400001928E-02 0.  1.
       -1    1    3    3    0  502  0.27189256278E+03  0.34415588368E+02 -0.23143516171E+03  0.35870911965E+03  0.50400001928E-02 0. -1.
</event>
<event>
 5   0  0.2421210E-03  0.5999104E+03  0.7818609E-02  0.9905592E-01
       -2   -1    0    0    0  501  0.00000000000E+00  0.00000000000E+00  0.12645362618E+03  0.12645362620E+03  0.25500000920E-02 0.  1.
        2   -1    0    0  501    0  0.00000000000E+00  0.00000000000E+00 -0.71151081809E+03  0.71151081810E+03  0.25500000920E-02 0. -1.
    10030    2    1    2    0    0  0.00000000000E+00  0.00000000000E+00 -0.58505719192E+03  0.83796444430E+03  0.59991040339E+03 0.  0.
        1    1    3    3  502    0  0.28061628108E+03  0.13318136117E+02 -0.43936214963E+03  0.52149973011E+03  0.50400001928E-02 0. -1.
       -1    1    3    3    0  502 -0.28061628108E+03 -0.13318136117E+02 -0.14569504229E+03  0.31646471419E+03  0.50400001928E-02 0.  1.
</event>
<event>
 5   0  0.2324616E-03  0.6003494E+03  0.7818609E-02  0.9904681E-01
       -2   -1    0    0    0  501  0.00000000000E+00  0.00000000000E+00  0.16142742540E+03  0.16142742542E+03  0.25500000920E-02 0. -1.
        2   -1    0    0  501    0  0.00000000000E+00  0.00000000000E+00 -0.55817566716E+03  0.55817566717E+03  0.25500000920E-02 0.  1.
    10030    2    1    2    0    0  0.00000000000E+00  0.00000000000E+00 -0.39674824176E+03  0.71960309259E+03  0.60034943451E+03 0.  0.
        4    1    3    3  502    0  0.35648760499E+02  0.18237561944E+03  0.84188792514E+02  0.20401241721E+03  0.12699999809E+01 0. -1.
       -4    1    3    3    0  502 -0.35648760499E+02 -0.18237561944E+03 -0.48093703428E+03  0.51559067537E+03  0.12699999809E+01 0.  1.
</event>
<event>
 5   0  0.2346281E-03  0.6000482E+03  0.7818609E-02  0.9905306E-01
       -2   -1    0    0    0  501  0.00000000000E+00  0.00000000000E+00  0.31107289881E+03  0.31107289882E+03  0.25500000920E-02 0. -1.
        2   -1    0    0  501    0  0.00000000000E+00  0.00000000000E+00 -0.28936771316E+03  0.28936771317E+03  0.25500000920E-02 0.  1.
    10030    2    1    2    0    0  0.00000000000E+00  0.00000000000E+00  0.21705185649E+02  0.60044061199E+03  0.60004817594E+03 0.  0.
        3    1    3    3  502    0  0.36209001222E+02 -0.29747980637E+03 -0.36177150456E+01  0.29969722226E+03  0.10100000352E+00 0.  1.
       -3    1    3    3    0  502 -0.36209001222E+02  0.29747980637E+03  0.25322900695E+02  0.30074338973E+03  0.10100000352E+00 0. -1.
</event>
<event>
 5   0  0.1479385E-03  0.6000438E+03  0.7818609E-02  0.9905315E-01
       -1   -1    0    0    0  501  0.00000000000E+00  0.00000000000E+00  0.53963486837E+03  0.53963486839E+03  0.50400001928E-02 0. -1.
        1   -1    0    0  501    0  0.00000000000E+00  0.00000000000E+00 -0.16680379111E+03  0.16680379119E+03  0.50400001928E-02 0.  1.
    10030    2    1    2    0    0  0.00000000000E+00  0.00000000000E+00  0.37283107725E+03  0.70643865958E+03  0.60004380472E+03 0.  0.
        3    1    3    3  502    0 -0.47428436602E+01 -0.26847783727E+03  0.28856694296E+02  0.27006584878E+03  0.10100000352E+00 0. -1.
       -3    1    3    3    0  502  0.47428436602E+01  0.26847783727E+03  0.34397438296E+03  0.43637281080E+03  0.10100000352E+00 0.  1.
</event>
<event>
 5   0  0.9496750E-04  0.6001748E+03  0.7818609E-02  0.9905043E-01
        4   -1    0    0  501    0  0.00000000000E+00  0.00000000000E+00  0.26756528441E+03  0.26756829842E+03  0.12699999809E+01 0. -1.
       -4   -1    0    0    0  501  0.00000000000E+00  0.00000000000E+00 -0.33655646452E+03  0.33655886070E+03  0.12699999809E+01 0.  1.
    10030    2    1    2    0    0  0.00000000000E+00  0.00000000000E+00 -0.68991180117E+02  0.60412715912E+03  0.60017484240E+03 0.  0.
        1    1    3    3  502    0  0.15933220454E+02 -0.27834034685E+03  0.77254617498E+02  0.28930173202E+03  0.50400001928E-02 0. -1.
       -1    1    3    3    0  502 -0.15933220454E+02  0.27834034685E+03 -0.14624579762E+03  0.31482542710E+03  0.50400001928E-02 0.  1.
</event>
<event>
 5   0  0.2421210E-03  0.5997550E+03  0.7818609E-02  0.9905915E-01
        2   -1    0    0  501    0  0.00000000000E+00  0.00000000000E+00  0.56951988776E+03  0.56951988776E+03  0.25500000920E-02 0. -1.
       -2   -1    0    0    0  501  0.00000000000E+00  0.00000000000E+00 -0.15789880763E+03  0.15789880765E+03  0.25500000920E-02 0.  1.
    10030    2    1    2    0    0  0.00000000000E+00  0.00000000000E+00  0.41162108013E+03  0.72741869542E+03  0.59975498734E+03 0.  0.
        1    1    3    3  502    0 -0.20298289271E+02  0.90707584649E+02 -0.13998559582E+03  0.16803527464E+03  0.50400001928E-02 0.  1.
       -1    1    3    3    0  502  0.20298289271E+02 -0.90707584649E+02  0.55160667595E+03  0.55938342078E+03  0.50400001928E-02 0. -1.
</event>
<event>
 5   0  0.2324616E-03  0.5998849E+03  0.7818609E-02  0.9905645E-01
       -2   -1    0    0    0  501  0.00000000000E+00  0.00000000000E+00  0.16975839470E+03  0.16975839472E+03  0.25500000920E-02 0.  1.
        2   -1    0    0  501    0  0.00000000000E+00  0.00000000000E+00 -0.52996177105E+03  0.52996177106E+03  0.25500000920E-02 0. -1.
    10030    2    1    2    0    0  0.00000000000E+00  0.00000000000E+00 -0.36020337635E+03  0.69972016578E+03  0.59988485400E+03 0.  0.
        4    1    3    3  502    0  0.21050290262E+03 -0.17677361987E+03 -0.32008940742E+03  0.42192324697E+03  0.12699999809E+01 0. -1.
       -4    1    3    3    0  502 -0.21050290262E+03  0.17677361987E+03 -0.40113968930E+02  0.27779691880E+03  0.12699999809E+01 0.  1.
</event>
<event>
 5   0  0.2346281E-03  0.5998533E+03  0.7818609E-02  0.9905710E-01
        2   -1    0    0  501    0  0.00000000000E+00  0.00000000000E+00  0.18767893741E+04  0.18767893741E+04  0.25500000920E-02 0. -1.
       -2   -1    0    0    0  501  0.00000000000E+00  0.00000000000E+00 -0.47930795891E+02  0.47930795959E+02  0.25500000920E-02 0.  1.
    10030    2    1    2    0    0  0.00000000000E+00  0.00000000000E+00  0.18288585782E+04  0.19247201701E+04  0.59985334370E+03 0.  0.
        3    1    3    3  502    0  0.17987970844E+03  0.17484671584E+03  0.38692161313E+03  0.46112517656E+03  0.10100000352E+00 0.  1.
       -3    1    3    3    0  502 -0.17987970844E+03 -0.17484671584E+03  0.14419369651E+04  0.14635949935E+04  0.10100000352E+00 0. -1.
</event>
<event>
 5   0  0.1423430E-03  0.5998800E+03  0.7818609E-02  0.9905655E-01
        1   -1    0    0  501    0  0.00000000000E+00  0.00000000000E+00  0.13610089971E+04  0.13610089971E+04  0.50400001928E-02 0. -1.
       -1   -1    0    0    0  501  0.00000000000E+00  0.00000000000E+00 -0.66100968941E+02  0.66100969133E+02  0.50400001928E-02 0.  1.
    10030    2    1    2    0    0  0.00000000000E+00  0.00000000000E+00  0.12949080281E+04  0.14271099662E+04  0.59988003330E+03 0.  0.
        1    1    3    3  502    0  0.11732400827E+03 -0.61835537079E+02  0.12874668610E+04  0.12942795196E+04  0.50400001928E-02 0. -1.
       -1    1    3    3    0  502 -0.11732400827E+03  0.61835537079E+02  0.74411671204E+01  0.13283044664E+03  0.50400001928E-02 0.  1.
</event>
<event>
 5   0  0.2313168E-03  0.5999002E+03  0.7818609E-02  0.9905613E-01
       -2   -1    0    0    0  501  0.00000000000E+00  0.00000000000E+00  0.12349540106E+03  0.12349540109E+03  0.25500000920E-02 0.  1.
        2   -1    0    0  501    0  0.00000000000E+00  0.00000000000E+00 -0.72852961542E+03  0.72852961542E+03  0.25500000920E-02 0. -1.
    10030    2    1    2    0    0  0.00000000000E+00  0.00000000000E+00 -0.60503421436E+03  0.85202501651E+03  0.59990018188E+03 0.  0.
        2    1    3    3  502    0 -0.19711187566E+03  0.29446468701E+02  0.15859263995E+02  0.19992924325E+03  0.25500000920E-02 0.  1.
       -2    1    3    3    0  502  0.19711187566E+03 -0.29446468701E+02 -0.62089347835E+03  0.65209577326E+03  0.25500000920E-02 0. -1.
</event>
<event>
 5   0  0.1392854E-03  0.6002640E+03  0.7818609E-02  0.9904858E-01
        1   -1    0    0  501    0  0.00000000000E+00  0.00000000000E+00  0.35232101498E+03  0.35232101502E+03  0.50400001928E-02 0.  1.
       -1   -1    0    0    0  501  0.00000000000E+00  0.00000000000E+00 -0.25567371182E+03  0.25567371186E+03  0.50400001928E-02 0. -1.
    10030    2    1    2    0    0  0.00000000000E+00  0.00000000000E+00  0.96647303164E+02  0.60799472688E+03  0.60026401417E+03 0.  0.
        4    1    3    3  502    0 -0.61959827155E+02  0.96972876553E+02  0.32908455282E+03  0.34862732936E+03  0.12699999809E+01 0.  1.
       -4    1    3    3    0  502  0.61959827155E+02 -0.96972876553E+02 -0.23243724966E+03  0.25936739752E+03  0.12699999809E+01 0. -1.
</event>
<event>
 5   0  0.1416315E-03  0.6008326E+03  0.7818609E-02  0.9903680E-01
        1   -1    0    0  501    0  0.00000000000E+00  0.00000000000E+00  0.66818389311E+03  0.66818389313E+03  0.50400001928E-02 0. -1.
       -1   -1    0    0    0  501  0.00000000000E+00  0.00000000000E+00 -0.13506752933E+03  0.13506752942E+03  0.50400001928E-02 0.  1.
    10030    2    1    2    0    0  0.00000000000E+00  0.00000000000E+00  0.53311636378E+03  0.80325142255E+03  0.60083258109E+03 0.  0.
        2    1    3    3  502    0 -0.17172758362E+03  0.17449171717E+03  0.33798937649E+02  0.24714386606E+03  0.25500000920E-02 0.  1.
       -2    1    3    3    0  502  0.17172758362E+03 -0.17449171717E+03  0.49931742613E+03  0.55610755649E+03  0.25500000920E-02 0. -1.
</event>
<event>
 5   0  0.2406307E-03  0.5998254E+03  0.7818609E-02  0.9905768E-01
       -2   -1    0    0    0  501  0.00000000000E+00  0.00000000000E+00  0.23210695992E+03  0.23210695993E+03  0.25500000920E-02 0. -1.
        2   -1    0    0  501    0  0.00000000000E+00  0.00000000000E+00 -0.38752666211E+03  0.38752666212E+03  0.25500000920E-02 0.  1.
    10030    2    1    2    0    0  0.00000000000E+00  0.00000000000E+00 -0.15541970219E+03  0.61963362205E+03  0.59982542606E+03 0.  0.
        5    1    3    3  502    0  0.11445593179E+02 -0.19010081855E+03 -0.31699742777E+03  0.36983615565E+03  0.46999998093E+01 0.  1.
       -5    1    3    3    0  502 -0.11445593179E+02  0.19010081855E+03  0.16157772558E+03  0.24979746640E+03  0.46999998093E+01 0. -1.
</event>
<event>
 5   0  0.1423430E-03  0.5992545E+03  0.7818609E-02  0.9906954E-01
       -1   -1    0    0    0  501  0.00000000000E+00  0.00000000000E+00  0.17127491819E+03  0.17127491827E+03  0.50400001928E-02 0. -1.
        1   -1    0    0  501    0  0.00000000000E+00  0.00000000000E+00 -0.52416607690E+03  0.52416607693E+03  0.50400001928E-02 0.  1.
    10030    2    1    2    0    0  0.00000000000E+00  0.00000000000E+00 -0.35289115871E+03  0.69544099519E+03  0.59925454350E+03 0.  0.
        1    1    3    3  502    0 -0.40364708121E+02  0.22313399796E+03 -0.40373501906E+03  0.46305513317E+03  0.50400001928E-02 0.  1.
       -1    1    3    3    0  502  0.40364708121E+02 -0.22313399796E+03  0.50843860356E+02  0.23238586203E+03  0.50400001928E-02 0. -1.
</event>
<event>
 5   0  0.2324616E-03  0.5998150E+03  0.7818609E-02  0.9905790E-01
        2   -1    0    0  501    0  0.00000000000E+00  0.00000000000E+00  0.10058225318E+04  0.10058225318E+04  0.25500000920E-02 0. -1.
       -2   -1    0    0    0  501  0.00000000000E+00  0.00000000000E+00 -0.89423826172E+02  0.89423826208E+02  0.25500000920E-02 0.  1.
    10030    2    1    2    0    0  0.00000000000E+00  0.00000000000E+00  0.91639870563E+03  0.10952463580E+04  0.59981496902E+03 0.  0.
        4    1    3    3  502    0 -0.12206163611E+03  0.14877218508E+03  0.38183008512E+02  0.19619317292E+03  0.12699999809E+01 0.  1.
       -4    1    3    3    0  502  0.12206163611E+03 -0.14877218508E+03  0.87821569712E+03  0.89905318509E+03  0.12699999809E+01 0. -1.
</event>
<event>
 5   0  0.1418763E-03  0.6002930E+03  0.7818609E-02  0.9904798E-01
       -1   -1    0    0    0  501  0.00000000000E+00  0.00000000000E+00  0.32805567980E+03  0.32805567984E+03  0.50400001928E-02 0.  1.
        1   -1    0    0  501    0  0.00000000000E+00  0.00000000000E+00 -0.27461170733E+03  0.27461170737E+03  0.50400001928E-02 0. -1.
    10030    2    1    2    0    0  0.00000000000E+00  0.00000000000E+00  0.53443972477E+02  0.60266738721E+03  0.60029302962E+03 0.  0.
        5    1    3    3  502    0  0.54375314398E+02  0.24015202154E+03  0.19897033083E+03  0.31660851349E+03  0.46999998093E+01 0.  1.
       -5    1    3    3    0  502 -0.54375314398E+02 -0.24015202154E+03 -0.14552635835E+03  0.28605887373E+03  0.46999998093E+01 0. -1.
</event>
<event>
 5   0  0.2346281E-03  0.6004773E+03  0.7818609E-02  0.9904416E-01
       -2   -1    0    0    0  501  0.00000000000E+00  0.00000000000E+00  0.11308392027E+03  0.11308392030E+03  0.25500000920E-02 0.  1.
        2   -1    0    0  501    0  0.00000000000E+00  0.00000000000E+00 -0.79713573258E+03  0.79713573259E+03  0.25500000920E-02 0. -1.
    10030    2    1    2    0    0  0.00000000000E+00  0.00000000000E+00 -0.68405181231E+03  0.91021965289E+03  0.60047725568E+03 0.  0.
        3    1    3    3  502    0  0.15400993885E+03  0.18579667468E+03 -0.71274596351E+02  0.25163374947E+03  0.10100000352E+00 0.  1.
       -3    1    3    3    0  502 -0.15400993885E+03 -0.18579667468E+03 -0.61277721596E+03  0.65858590342E+03  0.10100000352E+00 0. -1.
</event>
<event>
 5   0  0.2346281E-03  0.5998658E+03  0.7818609E-02  0.9905685E-01
        2   -1    0    0  501    0  0.00000000000E+00  0.00000000000E+00  0.58934480645E+03  0.58934480646E+03  0.25500000920E-02 0.  1.
       -2   -1    0    0    0  501  0.00000000000E+00  0.00000000000E+00 -0.15264363049E+03  0.15264363052E+03  0.25500000920E-02 0. -1.
    10030    2    1    2    0    0  0.00000000000E+00  0.00000000000E+00  0.43670117596E+03  0.74198843698E+03  0.59986575458E+03 0.  0.
        3    1    3    3  502    0  0.22394242130E+03  0.19003913134E+03  0.29353524125E+03  0.41524453947E+03  0.10100000352E+00 0.  1.
       -3    1    3    3    0  502 -0.22394242130E+03 -0.19003913134E+03  0.14316593471E+03  0.32674389751E+03  0.10100000352E+00 0. -1.
</event>
<event>
 5   0  0.1479385E-03  0.5995738E+03  0.7818609E-02  0.9906291E-01
       -1   -1    0    0    0  501  0.00000000000E+00  0.00000000000E+00  0.66100889685E+02  0.66100889877E+02  0.50400001928E-02 0. -1.
        1   -1    0    0  501    0  0.00000000000E+00  0.00000000000E+00 -0.13596216359E+04  0.13596216359E+04  0.50400001928E-02 0.  1.
    10030    2    1    2    0    0  0.00000000000E+00  0.00000000000E+00 -0.12935207462E+04  0.14257225258E+04  0.59957384837E+03 0.  0.
        3    1    3    3  502    0 -0.16882489344E+03 -0.15129450039E+03 -0.18030332197E+03  0.28965698440E+03  0.10100000352E+00 0. -1.
       -3    1    3    3    0  502  0.16882489344E+03  0.15129450039E+03 -0.11132174243E+04  0.11360655414E+04  0.10100000352E+00 0.  1.
</event>
<event>
 5   0  0.2313168E-03  0.5999663E+03  0.7818609E-02  0.9905476E-01
       -2   -1    0    0    0  501  0.00000000000E+00  0.00000000000E+00  0.12129604418E+03  0.12129604421E+03  0.25500000920E-02 0. -1.
        2   -1    0    0  501    0  0.00000000000E+00  0.00000000000E+00 -0.74190302885E+03  0.74190302885E+03  0.25500000920E-02 0.  1.
    10030    2    1    2    0    0  0.00000000000E+00  0.00000000000E+00 -0.62060698467E+03  0.86319907306E+03  0.59996634099E+03 0.  0.
        2    1    3    3  502    0  0.58966552626E+02  0.15261311192E+03  0.51454796306E+02  0.17150921937E+03  0.25500000920E-02 0. -1.
       -2    1    3    3    0  502 -0.58966552626E+02 -0.15261311192E+03 -0.67206178097E+03  0.69168985370E+03  0.25500000920E-02 0.  1.
</event>
<event>
 5   0  0.2324616E-03  0.6004770E+03  0.7818609E-02  0.9904417E-01
        2   -1    0    0  501    0  0.00000000000E+00  0.00000000000E+00  0.72299197845E+03  0.72299197846E+03  0.25500000920E-02 0. -1.
       -2   -1    0    0    0  501  0.00000000000E+00  0.00000000000E+00 -0.12468073435E+03  0.12468073437E+03  0.25500000920E-02 0.  1.
    10030    2    1    2    0    0  0.00000000000E+00  0.00000000000E+00  0.59831124411E+03  0.84767271283E+03  0.60047704640E+03 0.  0.
        4    1    3    3  502    0  0.15756459016E+02 -0.14410104521E+03  0.67031407504E+03  0.68581043250E+03  0.12699999809E+01 0. -1.
       -4    1    3    3    0  502 -0.15756459016E+02  0.14410104521E+03 -0.72002830933E+02  0.16186228033E+03  0.12699999809E+01 0.  1.
</event>
<event>
 5   0  0.2324616E-03  0.5993788E+03  0.7818609E-02  0.9906696E-01
       -2   -1    0    0    0  501  0.00000000000E+00  0.00000000000E+00  0.52823039961E+02  0.52823040022E+02  0.25500000920E-02 0. -1.
        2   -1    0    0  501    0  0.00000000000E+00  0.00000000000E+00 -0.17002760756E+04  0.17002760756E+04  0.25500000920E-02 0.  1.
    10030    2    1    2    0    0  0.00000000000E+00  0.00000000000E+00 -0.16474530357E+04  0.17530991157E+04  0.59937884895E+03 0.  0.
        4    1    3    3  502    0  0.74880853298E+02 -0.28755593301E+03 -0.70982279311E+03  0.76950995271E+03  0.12699999809E+01 0. -1.
       -4    1    3    3    0  502 -0.74880853298E+02  0.28755593301E+03 -0.93763024256E+03  0.98358916295E+03  0.12699999809E+01 0.  1.
</event>
<event>
 5   0  0.1416315E-03  0.5999940E+03  0.7818609E-02  0.9905418E-01
       -1   -1    0    0    0  501  0.00000000000E+00  0.00000000000E+00  0.59009096549E+02  0.59009096764E+02  0.50400001928E-02 0.  1.
        1   -1    0    0  501    0  0.00000000000E+00  0.00000000000E+00 -0.15251581750E+04  0.15251581750E+04  0.50400001928E-02 0. -1.
    10030    2    1    2    0    0  0.00000000000E+00  0.00000000000E+00 -0.14661490784E+04  0.15841672717E+04  0.59999402056E+03 0.  0.
        2    1    3    3  502    0 -0.17014385510E+03 -0.22652632153E+03 -0.99358449893E+03  0.10331859766E+04  0.25500000920E-02 0. -1.
       -2    1    3    3    0  502  0.17014385510E+03  0.22652632153E+03 -0.47256457948E+03  0.55098129511E+03  0.25500000920E-02 0.  1.
</event>
<event>
 5   0  0.1479385E-03  0.5998820E+03  0.7818609E-02  0.9905651E-01
       -1   -1    0    0    0  501  0.00000000000E+00  0.00000000000E+00  0.26235205136E+03  0.26235205141E+03  0.50400001928E-02 0.  1.
        1   -1    0    0  501    0  0.00000000000E+00  0.00000000000E+00 -0.34291555105E+03  0.34291555109E+03  0.50400001928E-02 0. -1.
    10030    2    1    2    0    0  0.00000000000E+00  0.00000000000E+00 -0.80563499691E+02  0.60526760249E+03  0.59988198268E+03 0.  0.
        3    1    3    3  502    0 -0.63240609289E+02 -0.24160582155E+03 -0.20788095131E+03  0.32494191448E+03  0.10100000352E+00 0. -1.
       -3    1    3    3    0  502  0.63240609289E+02  0.24160582155E+03  0.12731745162E+03  0.28032568801E+03  0.10100000352E+00 0.  1.
</event>
<event>
 5   0  0.1392854E-03  0.5999034E+03  0.7818609E-02  0.9905607E-01
        1   -1    0    0  501    0  0.00000000000E+00  0.00000000000E+00  0.21139737277E+03  0.21139737283E+03  0.50400001928E-02 0. -1.
       -1   -1    0    0    0  501  0.00000000000E+00  0.00000000000E+00 -0.42560135274E+03  0.42560135277E+03  0.50400001928E-02 0.  1.
    10030    2    1    2    0    0  0.00000000000E+00  0.00000000000E+00 -0.21420397997E+03  0.63699872560E+03  0.59990335170E+03 0.  0.
        4    1    3    3  502    0 -0.64734119248E+02 -0.26352911888E+03  0.28594167681E+02  0.27286872671E+03  0.12699999809E+01 0. -1.
       -4    1    3    3    0  502  0.64734119248E+02  0.26352911888E+03 -0.24279814765E+03  0.36412999889E+03  0.12699999809E+01 0.  1.
</event>
<event>
 5   0  0.1416315E-03  0.5999847E+03  0.7818609E-02  0.9905438E-01
        1   -1    0    0  501    0  0.00000000000E+00  0.00000000000E+00  0.11251130983E+03  0.11251130994E+03  0.50400001928E-02 0. -1.
       -1   -1    0    0    0  501  0.00000000000E+00  0.00000000000E+00 -0.79987881800E+03  0.79987881802E+03  0.50400001928E-02 0.  1.
    10030    2    1    2    0    0  0.00000000000E+00  0.00000000000E+00 -0.68736750818E+03  0.91239012795E+03  0.59998471172E+03 0.  0.
        2    1    3    3  502    0 -0.35014063211E+02  0.21656400478E+03 -0.32519946412E+02  0.22177353248E+03  0.25500000920E-02 0. -1.
       -2    1    3    3    0  502  0.35014063211E+02 -0.21656400478E+03 -0.65484756176E+03  0.69061659547E+03  0.25500000920E-02 0.  1.
</event>
<event>
 5   0  0.1423430E-03  0.6001760E+03  0.7818609E-02  0.9905041E-01
        1   -1    0    0  501    0  0.00000000000E+00  0.00000000000E+00  0.51154660021E+03  0.51154660023E+03  0.50400001928E-02 0.  1.
       -1   -1    0    0    0  501  0.00000000000E+00  0.00000000000E+00 -0.17604030726E+03  0.17604030733E+03  0.50400001928E-02 0. -1.
    10030    2    1    2    0    0  0.00000000000E+00  0.00000000000E+00  0.33550629295E+03  0.68758690756E+03  0.60017604321E+03 0.  0.
        1    1    3    3  502    0 -0.18124854273E+03 -0.10805012119E+03  0.41219932815E+03  0.46307035004E+03  0.50400001928E-02 0.  1.
       -1    1    3    3    0  502  0.18124854273E+03  0.10805012119E+03 -0.76693035200E+02  0.22451655753E+03  0.50400001928E-02 0. -1.
</event>
<event>
 5   0  0.2313168E-03  0.6001644E+03  0.7818609E-02  0.9905065E-01
        2   -1    0    0  501    0  0.00000000000E+00  0.00000000000E+00  0.55486426416E+03  0.55486426416E+03  0.25500000920E-02 0. -1.
       -2   -1    0    0    0  501  0.00000000000E+00  0.00000000000E+00 -0.16229073512E+03  0.16229073514E+03  0.25500000920E-02 0.  1.
    10030    2    1    2    0    0  0.00000000000E+00  0.00000000000E+00  0.39257352904E+03  0.71715499930E+03  0.60016440857E+03 0.  0.
        2    1    3    3  502    0  0.12221626464E+03  0.73192857706E+01 -0.13108710565E+03  0.17937172732E+03  0.25500000920E-02 0.  1.
       -2    1    3    3    0  502 -0.12221626464E+03 -0.73192857706E+01  0.52366063469E+03  0.53778327198E+03  0.25500000920E-02 0. -1.
</event>
<event>
 5   0  0.1416315E-03  0.6012032E+03  0.7818609E-02  0.9902913E-01
        1   -1    0    0  501    0  0.00000000000E+00  0.00000000000E+00  0.46357619232E+03  0.46357619235E+03  0.50400001928E-02 0. -1.
       -1   -1    0    0    0  501  0.00000000000E+00  0.00000000000E+00 -0.19492225989E+03  0.19492225995E+03  0.50400001928E-02 0.  1.
    10030    2    1    2    0    0  0.00000000000E+00  0.00000000000E+00  0.26865393244E+03  0.65849845230E+03  0.60120319050E+03 0.  0.
        2    1    3    3  502    0 -0.33100588420E+02  0.98953389452E+02 -0.17445059731E+03  0.20327428058E+03  0.25500000920E-02 0.  1.
       -2    1    3    3    0  502  0.33100588420E+02 -0.98953389452E+02  0.44310452974E+03  0.45522417173E+03  0.25500000920E-02 0. -1.
</event>
<event>
 5   0  0.2313168E-03  0.6000771E+03  0.7818609E-02  0.9905246E-01
        2   -1    0    0  501    0  0.00000000000E+00  0.00000000000E+00  0.13591298643E+03  0.13591298646E+03  0.25500000920E-02 0.  1.
       -2   -1    0    0    0  501  0.00000000000E+00  0.00000000000E+00 -0.66235864451E+03  0.66235864451E+03  0.25500000920E-02 0. -1.
    10030    2    1    2    0    0  0.00000000000E+00  0.00000000000E+00 -0.52644565808E+03  0.79827163097E+03  0.60007713329E+03 0.  0.
        2    1    3    3  502    0  0.59766872358E+02 -0.29235347543E+03 -0.22156763587E+03  0.37166497131E+03  0.25500000920E-02 0.  1.
       -2    1    3    3    0  502 -0.59766872358E+02  0.29235347543E+03 -0.30487802221E+03  0.42660665966E+03  0.25500000920E-02 0. -1.
</event>
<event>
 5   0  0.1392854E-03  0.6000183E+03  0.7818609E-02  0.9905368E-01
       -1   -1    0    0    0  501  0.00000000000E+00  0.00000000000E+00  0.48479096343E+03  0.48479096345E+03  0.50400001928E-02 0.  1.
        1   -1    0    0  501    0  0.00000000000E+00  0.00000000000E+00 -0.18565834999E+03  0.18565835005E+03  0.50400001928E-02 0. -1.
    10030    2    1    2    0    0  0.00000000000E+00  0.00000000000E+00  0.29913261344E+03  0.67044931351E+03  0.60001830102E+03 0.  0.
        4    1    3    3  502    0 -0.52650523364E+02 -0.46138622305E+02  0.47553354905E+03  0.48066060714E+03  0.12699999809E+01 0.  1.
       -4    1    3    3    0  502  0.52650523364E+02  0.46138622305E+02 -0.17640093562E+03  0.18978870637E+03  0.12699999809E+01 0. -1.
</event>
<event>
 5   0  0.1479385E-03  0.6000225E+03  0.7818609E-02  0.9905359E-01
       -1   -1    0    0    0  501  0.00000000000E+00  0.00000000000E+00  0.87626565123E+02  0.87626565268E+02  0.50400001928E-02 0. -1.
        1   -1    0    0  501    0  0.00000000000E+00  0.00000000000E+00 -0.10271627564E+04  0.10271627564E+04  0.50400001928E-02 0.  1.
    10030    2    1    2    0    0  0.00000000000E+00  0.00000000000E+00 -0.93953619127E+03  0.11147893217E+04  0.60002248042E+03 0.  0.
        3    1    3    3  502    0  0.18983193108E+03 -0.19863835736E+03 -0.69359355588E+03  0.74603310251E+03  0.10100000352E+00 0.  1.
       -3    1    3    3    0  502 -0.18983193108E+03  0.19863835736E+03 -0.24594263539E+03  0.36875621916E+03  0.10100000352E+00 0. -1.
</event>
<event>
 5   0  0.2313168E-03  0.5967530E+03  0.7818609E-02  0.9912166E-01
        2   -1    0    0  501    0  0.00000000000E+00  0.00000000000E+00  0.14788663430E+04  0.14788663431E+04  0.25500000920E-02 0.  1.
       -2   -1    0    0    0  501  0.00000000000E+00  0.00000000000E+00 -0.60200529594E+02  0.60200529648E+02  0.25500000920E-02 0. -1.
    10030    2    1    2    0    0  0.00000000000E+00  0.00000000000E+00  0.14186658135E+04  0.15390668727E+04  0.59675300449E+03 0.  0.
        2    1    3    3  502    0 -0.17406541442E+03  0.39075427534E+02  0.92493910358E+02  0.20094969767E+03  0.25500000920E-02 0. -1.
       -2    1    3    3    0  502  0.17406541442E+03 -0.39075427534E+02  0.13261719031E+04  0.13381171750E+04  0.25500000920E-02 0.  1.
</event>
<event>
 5   0  0.2421210E-03  0.5999379E+03  0.7818609E-02  0.9905535E-01
        2   -1    0    0  501    0  0.00000000000E+00  0.00000000000E+00  0.70769309337E+03  0.70769309337E+03  0.25500000920E-02 0. -1.
       -2   -1    0    0    0  501  0.00000000000E+00  0.00000000000E+00 -0.12714746791E+03  0.12714746794E+03  0.25500000920E-02 0.  1.
    10030    2    1    2    0    0  0.00000000000E+00  0.00000000000E+00  0.58054562546E+03  0.83484056131E+03  0.59993794643E+03 0.  0.
        1    1    3    3  502    0 -0.16612972116E+03  0.10386072558E+02  0.63753067721E+03  0.65890235936E+03  0.50400001928E-02 0. -1.
       -1    1    3    3    0  502  0.16612972116E+03 -0.10386072558E+02 -0.56985051753E+02  0.17593820195E+03  0.50400001928E-02 0.  1.
</event>
<event>
 5   0  0.2406307E-03  0.5999175E+03  0.7818609E-02  0.9905577E-01
        2   -1    0    0  501    0  0.00000000000E+00  0.00000000000E+00  0.16406904129E+03  0.16406904131E+03  0.25500000920E-02 0.  1.
       -2   -1    0    0    0  501  0.00000000000E+00  0.00000000000E+00 -0.54839870667E+03  0.54839870667E+03  0.25500000920E-02 0. -1.
    10030    2    1    2    0    0  0.00000000000E+00  0.00000000000E+00 -0.38432966538E+03  0.71246774799E+03  0.59991749452E+03 0.  0.
        5    1    3    3  502    0  0.28051494844E+03 -0.79321353839E+02 -0.10841817569E+03  0.31105804007E+03  0.46999998093E+01 0.  1.
       -5    1    3    3    0  502 -0.28051494844E+03  0.79321353839E+02 -0.27591148968E+03  0.40140970792E+03  0.46999998093E+01 0. -1.
</event>
<event>
 5   0  0.1392854E-03  0.5999859E+03  0.7818609E-02  0.9905435E-01
        1   -1    0    0  501    0  0.00000000000E+00  0.00000000000E+00  0.18803724868E+04  0.18803724868E+04  0.50400001928E-02 0. -1.
       -1   -1    0    0    0  501  0.00000000000E+00  0.00000000000E+00 -0.47860603433E+02  0.47860603699E+02  0.50400001928E-02 0.  1.
    10030    2    1    2    0    0  0.00000000000E+00  0.00000000000E+00  0.18325118834E+04  0.19282330905E+04  0.59998587370E+03 0.  0.
        4    1    3    3  502    0  0.20434782477E+03  0.19092465138E+03  0.56738651921E+03  0.63256567333E+03  0.12699999809E+01 0.  1.
       -4    1    3    3    0  502 -0.20434782477E+03 -0.19092465138E+03  0.12651253642E+04  0.12956674172E+04  0.12699999809E+01 0. -1.
</event>
<event>
 5   0  0.1423430E-03  0.5999664E+03  0.7818609E-02  0.9905476E-01
       -1   -1    0    0    0  501  0.00000000000E+00  0.00000000000E+00  0.22583911972E+03  0.22583911977E+03  0.50400001928E-02 0. -1.
        1   -1    0    0  501    0  0.00000000000E+00  0.00000000000E+00 -0.39846909024E+03  0.39846909028E+03  0.50400001928E-02 0.  1.
    10030    2    1    2    0    0  0.00000000000E+00  0.00000000000E+00 -0.17262997053E+03  0.62430821005E+03  0.59996636106E+03 0.  0.
        1    1    3    3  502    0 -0.35521651315E+02 -0.28614887523E+03 -0.17241841916E+03  0.33596291134E+03  0.50400001928E-02 0.  1.
       -1    1    3    3    0  502  0.35521651315E+02  0.28614887523E+03 -0.21155136538E+00  0.28834529870E+03  0.50400001928E-02 0. -1.
</event>
<event>
 5   0  0.1479385E-03  0.5998873E+03  0.7818609E-02  0.9905640E-01
       -1   -1    0    0    0  501  0.00000000000E+00  0.00000000000E+00  0.23019712323E+03  0.23019712328E+03  0.50400001928E-02 0. -1.
        1   -1    0    0  501    0  0.00000000000E+00  0.00000000000E+00 -0.39082243973E+03  0.39082243976E+03  0.50400001928E-02 0.  1.
    10030    2    1    2    0    0  0.00000000000E+00  0.00000000000E+00 -0.16062531650E+03  0.62101956304E+03  0.59988732724E+03 0.  0.
        3    1    3    3  502    0 -0.28480533392E+03  0.36319717253E+02 -0.17016291444E+03  0.33374934867E+03  0.10100000352E+00 0.  1.
       -3    1    3    3    0  502  0.28480533392E+03 -0.36319717253E+02  0.95375979393E+01  0.28727021437E+03  0.10100000352E+00 0. -1.
</event>
<event>
 5   0  0.2346281E-03  0.5999138E+03  0.7818609E-02  0.9905585E-01
       -2   -1    0    0    0  501  0.00000000000E+00  0.00000000000E+00  0.26386165715E+03  0.26386165716E+03  0.25500000920E-02 0.  1.
        2   -1    0    0  501    0  0.00000000000E+00  0.00000000000E+00 -0.34098984752E+03  0.34098984753E+03  0.25500000920E-02 0. -1.
    10030    2    1    2    0    0  0.00000000000E+00  0.00000000000E+00 -0.77128190373E+02  0.60485150469E+03  0.59991381462E+03 0.  0.
        3    1    3    3  502    0  0.12406071633E+03 -0.23373664811E+03 -0.18097200680E+03  0.32058502687E+03  0.10100000352E+00 0. -1.
       -3    1    3    3    0  502 -0.12406071633E+03  0.23373664811E+03  0.10384381643E+03  0.28426647783E+03  0.10100000352E+00 0.  1.
</event>
<event>
 5   0  0.2313168E-03  0.5999613E+03  0.7818609E-02  0.9905486E-01
       -2   -1    0    0    0  501  0.00000000000E+00  0.00000000000E+00  0.50386897039E+02  0.50386897104E+02  0.25500000920E-02 0. -1.
        2   -1    0    0  501    0  0.00000000000E+00  0.00000000000E+00 -0.17859482085E+04  0.17859482085E+04  0.25500000920E-02 0.  1.
    10030    2    1    2    0    0  0.00000000000E+00  0.00000000000E+00 -0.17355613115E+04  0.18363351057E+04  0.59996129396E+03 0.  0.
        2    1    3    3  502    0 -0.14613255418E+03  0.12107047902E+03 -0.15788753861E+04  0.15902390604E+04  0.25500000920E-02 0.  1.
       -2    1    3    3    0  502  0.14613255418E+03 -0.12107047902E+03 -0.15668592542E+03  0.24609604529E+03  0.25500000920E-02 0. -1.
</event>
<event>
 5   0  0.9496750E-04  0.5999623E+03  0.7818609E-02  0.9905484E-01
       -4   -1    0    0    0  501  0.00000000000E+00  0.00000000000E+00  0.10169863556E+03  0.10170656505E+03  0.12699999809E+01 0.  1.
        4   -1    0    0  501    0  0.00000000000E+00  0.00000000000E+00 -0.88481352134E+03  0.88481443277E+03  0.12699999809E+01 0. -1.
    10030    2    1    2    0    0  0.00000000000E+00  0.00000000000E+00 -0.78311488578E+03  0.98652099782E+03  0.59996229450E+03 0.  0.
        1    1    3    3  502    0  0.14200200446E+03 -0.21553300683E+03 -0.14019035757E+03  0.29372160745E+03  0.50400001928E-02 0. -1.
       -1    1    3    3    0  502 -0.14200200446E+03  0.21553300683E+03 -0.64292452821E+03  0.69279939038E+03  0.50400001928E-02 0.  1.
</event>
<event>
 5   0  0.9496750E-04  0.6000239E+03  0.7818609E-02  0.9905356E-01
        4   -1    0    0  501    0  0.00000000000E+00  0.00000000000E+00  0.11828743661E+03  0.11829425413E+03  0.12699999809E+01 0. -1.
       -4   -1    0    0    0  501  0.00000000000E+00  0.00000000000E+00 -0.76088995377E+03  0.76089101365E+03  0.12699999809E+01 0.  1.
    10030    2    1    2    0    0  0.00000000000E+00  0.00000000000E+00 -0.64260251716E+03  0.87918526777E+03  0.60002394952E+03 0.  0.
        5    1    3    3  502    0 -0.13857033564E+03 -0.26021230298E+03 -0.24007675747E+03  0.38022509125E+03  0.46999998093E+01 0. -1.
       -5    1    3    3    0  502  0.13857033564E+03  0.26021230298E+03 -0.40252575969E+03  0.49896017652E+03  0.46999998093E+01 0.  1.
</event>
<event>
 5   0  0.2324616E-03  0.5997688E+03  0.7818609E-02  0.9905886E-01
       -2   -1    0    0    0  501  0.00000000000E+00  0.00000000000E+00  0.88668601931E+02  0.88668601967E+02  0.25500000920E-02 0. -1.
        2   -1    0    0  501    0  0.00000000000E+00  0.00000000000E+00 -0.10142334507E+04  0.10142334508E+04  0.25500000920E-02 0.  1.
    10030    2    1    2    0    0  0.00000000000E+00  0.00000000000E+00 -0.92556484882E+03  0.11029020527E+04  0.59976882924E+03 0.  0.
        4    1    3    3  502    0 -0.64893828787E+02 -0.14788646822E+03  0.18663259518E+01  0.16151381542E+03  0.12699999809E+01 0. -1.
       -4    1    3    3    0  502  0.64893828787E+02  0.14788646822E+03 -0.92743117477E+03  0.94138823730E+03  0.12699999809E+01 0.  1.
</event>
<event>
 5   0  0.1423430E-03  0.6001788E+03  0.7818609E-02  0.9905035E-01
       -1   -1    0    0    0  501  0.00000000000E+00  0.00000000000E+00  0.15970280032E+03  0.15970280040E+03  0.50400001928E-02 0. -1.
        1   -1    0    0  501    0  0.00000000000E+00  0.00000000000E+00 -0.56388266430E+03  0.56388266433E+03  0.50400001928E-02 0.  1.
    10030    2    1    2    0    0  0.00000000000E+00  0.00000000000E+00 -0.40417986399E+03  0.72358546473E+03  0.60017877529E+03 0.  0.
        1    1    3    3  502    0  0.54064950185E+02 -0.18125073914E+03 -0.48297217540E+03  0.51868773989E+03  0.50400001928E-02 0.  1.
       -1    1    3    3    0  502 -0.54064950185E+02  0.18125073914E+03  0.78792311416E+02  0.20489772483E+03  0.50400001928E-02 0. -1.
</event>
<event>
 5   0  0.2421210E-03  0.5993200E+03  0.7818609E-02  0.9906818E-01
       -2   -1    0    0    0  501  0.00000000000E+00  0.00000000000E+00  0.60087473924E+02  0.60087473978E+02  0.25500000920E-02 0.  1.
        2   -1    0    0  501    0  0.00000000000E+00  0.00000000000E+00 -0.14944232564E+04  0.14944232564E+04  0.25500000920E-02 0. -1.
    10030    2    1    2    0    0  0.00000000000E+00  0.00000000000E+00 -0.14343357824E+04  0.15545107303E+04  0.59932000965E+03 0.  0.
        1    1    3    3  502    0 -0.24970980117E+03  0.16383830113E+02 -0.11447321296E+04  0.11717657886E+04  0.50400001928E-02 0. -1.
       -1    1    3    3    0  502  0.24970980117E+03 -0.16383830113E+02 -0.28960365281E+03  0.38274494175E+03  0.50400001928E-02 0.  1.
</event>
<event>
 5   0  0.9496750E-04  0.6000734E+03  0.7818609E-02  0.9905254E-01
        4   -1    0    0  501    0  0.00000000000E+00  0.00000000000E+00  0.25043370431E+03  0.25043692450E+03  0.12699999809E+01 0.  1.
       -4   -1    0    0    0  501  0.00000000000E+00  0.00000000000E+00 -0.35945777080E+03  0.35946001431E+03  0.12699999809E+01 0. -1.
    10030    2    1    2    0    0  0.00000000000E+00  0.00000000000E+00 -0.10902406649E+03  0.60989693881E+03  0.60007335293E+03 0.  0.
        1    1    3    3  502    0 -0.22910832214E+03 -0.12687343568E+03 -0.20331409368E+03  0.33154805484E+03  0.50400001928E-02 0. -1.
       -1    1    3    3    0  502  0.22910832214E+03  0.12687343568E+03  0.94290027188E+02  0.27834888397E+03  0.50400001928E-02 0.  1.
</event>
<event>
 5   0  0.1416315E-03  0.5999783E+03  0.7818609E-02  0.9905451E-01
        1   -1    0    0  501    0  0.00000000000E+00  0.00000000000E+00  0.77615551188E+03  0.77615551190E+03  0.50400001928E-02 0. -1.
       -1   -1    0    0    0  501  0.00000000000E+00  0.00000000000E+00 -0.11594774399E+03  0.11594774410E+03  0.50400001928E-02 0.  1.
    10030    2    1    2    0    0  0.00000000000E+00  0.00000000000E+00  0.66020776789E+03  0.89210325600E+03  0.59997826843E+03 0.  0.
        2    1    3    3  502    0  0.17035644986E+02  0.11862014446E+03 -0.78811938032E+02  0.14343037842E+03  0.25500000920E-02 0.  1.
       -2    1    3    3    0  502 -0.17035644986E+02 -0.11862014446E+03  0.73901970592E+03  0.74867287757E+03  0.25500000920E-02 0. -1.
</event>
<event>
 5   0  0.2324616E-03  0.5996416E+03  0.7818609E-02  0.9906150E-01
        2   -1    0    0  501    0  0.00000000000E+00  0.00000000000E+00  0.16996710741E+03  0.16996710743E+03  0.25500000920E-02 0.  1.
       -2   -1    0    0    0  501  0.00000000000E+00  0.00000000000E+00 -0.52888177982E+03  0.52888177983E+03  0.25500000920E-02 0. -1.
    10030    2    1    2    0    0  0.00000000000E+00  0.00000000000E+00 -0.35891467241E+03  0.69884888726E+03  0.59964158057E+03 0.  0.
        4    1    3    3  502    0  0.22789859005E+03  0.18696662544E+03 -0.24325524354E+03  0.38218976018E+03  0.12699999809E+01 0.  1.
       -4    1    3    3    0  502 -0.22789859005E+03 -0.18696662544E+03 -0.11565942887E+03  0.31665912708E+03  0.12699999809E+01 0. -1.
</event>
<event>
 5   0  0.2313168E-03  0.6010306E+03  0.7818609E-02  0.9903270E-01
       -2   -1    0    0    0  501  0.00000000000E+00  0.00000000000E+00  0.99198398878E+02  0.99198398911E+02  0.25500000920E-02 0.  1.
        2   -1    0    0  501    0  0.00000000000E+00  0.00000000000E+00 -0.91039220859E+03  0.91039220859E+03  0.25500000920E-02 0. -1.
    10030    2    1    2    0    0  0.00000000000E+00  0.00000000000E+00 -0.81119380971E+03  0.10095906075E+04  0.60103061307E+03 0.  0.
        2    1    3    3  502    0  0.13919171080E+03 -0.70584486588E+02  0.25788862804E+02  0.15818207090E+03  0.25500000920E-02 0.  1.
       -2    1    3    3    0  502 -0.13919171080E+03  0.70584486588E+02 -0.83698267251E+03  0.85140853660E+03  0.25500000920E-02 0. -1.
</event>
<event>
 5   0  0.1418763E-03  0.5993817E+03  0.7818609E-02  0.9906690E-01
        1   -1    0    0  501    0  0.00000000000E+00  0.00000000000E+00  0.10374868257E+04  0.10374868257E+04  0.50400001928E-02 0.  1.
       -1   -1    0    0    0  501  0.00000000000E+00  0.00000000000E+00 -0.86569388574E+02  0.86569388721E+02  0.50400001928E-02 0. -1.
    10030    2    1    2    0    0  0.00000000000E+00  0.00000000000E+00  0.95091743714E+03  0.11240562144E+04  0.59938168222E+03 0.  0.
        5    1    3    3  502    0 -0.29384793467E+03 -0.55469895350E+02  0.43943461481E+03  0.53155280894E+03  0.46999998093E+01 0.  1.
       -5    1    3    3    0  502  0.29384793467E+03  0.55469895350E+02  0.51148282233E+03  0.59250340551E+03  0.46999998093E+01 0. -1.
</event>
<event>
 5   0  0.2406307E-03  0.6002537E+03  0.7818609E-02  0.9904880E-01
       -2   -1    0    0    0  501  0.00000000000E+00  0.00000000000E+00  0.80631026474E+02  0.80631026514E+02  0.25500000920E-02 0. -1.
        2   -1    0    0  501    0  0.00000000000E+00  0.00000000000E+00 -0.11171396023E+04  0.11171396023E+04  0.25500000920E-02 0.  1.
    10030    2    1    2    0    0  0.00000000000E+00  0.00000000000E+00 -0.10365085758E+04  0.11977706288E+04  0.60025365595E+03 0.  0.
        5    1    3    3  502    0 -0.48290409299E+02  0.28955231712E+03 -0.64257385065E+03  0.70646709160E+03  0.46999998093E+01 0.  1.
       -5    1    3    3    0  502  0.48290409299E+02 -0.28955231712E+03 -0.39393472515E+03  0.49130353719E+03  0.46999998093E+01 0. -1.
</event>
<event>
 5   0  0.2313168E-03  0.5991900E+03  0.7818609E-02  0.9907088E-01
       -2   -1    0    0    0  501  0.00000000000E+00  0.00000000000E+00  0.41105659981E+03  0.41105659982E+03  0.25500000920E-02 0. -1.
        2   -1    0    0  501    0  0.00000000000E+00  0.00000000000E+00 -0.21835717205E+03  0.21835717207E+03  0.25500000920E-02 0.  1.
    10030    2    1    2    0    0  0.00000000000E+00  0.00000000000E+00  0.19269942776E+03  0.62941377188E+03  0.59918997553E+03 0.  0.
        2    1    3    3  502    0 -0.11992674071E+03 -0.27228619770E+03  0.59435114068E+02  0.30340522307E+03  0.25500000920E-02 0.  1.
       -2    1    3    3    0  502  0.11992674071E+03  0.27228619770E+03  0.13326431369E+03  0.32600854882E+03  0.25500000920E-02 0. -1.
</event>
<event>
 5   0  0.9496750E-04  0.5998932E+03  0.7818609E-02  0.9905628E-01
        4   -1    0    0  501    0  0.00000000000E+00  0.00000000000E+00  0.12063500820E+03  0.12064169306E+03  0.12699999809E+01 0. -1.
       -4   -1    0    0    0  501  0.00000000000E+00  0.00000000000E+00 -0.74575874069E+03  0.74575982207E+03  0.12699999809E+01 0.  1.
    10030    2    1    2    0    0  0.00000000000E+00  0.00000000000E+00 -0.62512373249E+03  0.86640151513E+03  0.59989324425E+03 0.  0.
        2    1    3    3  502    0 -0.22441081627E+02  0.29779957680E+03 -0.35289230591E+03  0.46229986986E+03  0.25500000920E-02 0. -1.
       -2    1    3    3    0  502  0.22441081627E+02 -0.29779957680E+03 -0.27223142658E+03  0.40410164527E+03  0.25500000920E-02 0.  1.
</event>
<event>
 5   0  0.1479385E-03  0.6000619E+03  0.7818609E-02  0.9905278E-01
       -1   -1    0    0    0  501  0.00000000000E+00  0.00000000000E+00  0.16458478813E+03  0.16458478820E+03  0.50400001928E-02 0.  1.
        1   -1    0    0  501    0  0.00000000000E+00  0.00000000000E+00 -0.54694346784E+03  0.54694346787E+03  0.50400001928E-02 0. -1.
    10030    2    1    2    0    0  0.00000000000E+00  0.00000000000E+00 -0.38235867972E+03  0.71152825607E+03  0.60006191283E+03 0.  0.
        3    1    3    3  502    0 -0.39516433521E+02 -0.90545354384E+02 -0.52710389998E+03  0.53628214710E+03  0.10100000352E+00 0. -1.
       -3    1    3    3    0  502  0.39516433521E+02  0.90545354384E+02  0.14474522027E+03  0.17524610897E+03  0.10100000352E+00 0.  1.
</event>
<event>
 5   0  0.2421210E-03  0.5998546E+03  0.7818609E-02  0.9905708E-01
       -2   -1    0    0    0  501  0.00000000000E+00  0.00000000000E+00  0.68876655264E+02  0.68876655312E+02  0.25500000920E-02 0.  1.
        2   -1    0    0  501    0  0.00000000000E+00  0.00000000000E+00 -0.13060506055E+04  0.13060506055E+04  0.25500000920E-02 0. -1.
    10030    2    1    2    0    0  0.00000000000E+00  0.00000000000E+00 -0.12371739502E+04  0.13749272608E+04  0.59985464021E+03 0.  0.
        1    1    3    3  502    0  0.11164085671E+03  0.13615250470E+03 -0.11751249488E+04  0.11882423283E+04  0.50400001928E-02 0. -1.
       -1    1    3    3    0  502 -0.11164085671E+03 -0.13615250470E+03 -0.62049001418E+02  0.18668493251E+03  0.50400001928E-02 0.  1.
</event>
<event>
 5   0  0.1479385E-03  0.6001049E+03  0.7818609E-02  0.9905189E-01
       -1   -1    0    0    0  501  0.00000000000E+00  0.00000000000E+00  0.27584982808E+03  0.27584982813E+03  0.50400001928E-02 0. -1.
        1   -1    0    0  501    0  0.00000000000E+00  0.00000000000E+00 -0.32637852217E+03  0.32637852221E+03  0.50400001928E-02 0.  1.
    10030    2    1    2    0    0  0.00000000000E+00  0.00000000000E+00 -0.50528694092E+02  0.60222835034E+03  0.60010485503E+03 0.  0.
        3    1    3    3  502    0  0.22624349681E+03 -0.90369601742E+02 -0.20103739337E+03  0.31586204030E+03  0.10100000352E+00 0.  1.
       -3    1    3    3    0  502 -0.22624349681E+03  0.90369601742E+02  0.15050869928E+03  0.28636631004E+03  0.10100000352E+00 0. -1.
</event>
<event>
 5   0  0.2313168E-03  0.6001647E+03  0.7818609E-02  0.9905064E-01
       -2   -1    0    0    0  501  0.00000000000E+00  0.00000000000E+00  0.88912188035E+03  0.88912188035E+03  0.25500000920E-02 0. -1.
        2   -1    0    0  501    0  0.00000000000E+00  0.00000000000E+00 -0.10127903616E+03  0.10127903619E+03  0.25500000920E-02 0.  1.
    10030    2    1    2    0    0  0.00000000000E+00  0.00000000000E+00  0.78784284419E+03  0.99040091654E+03  0.60016466769E+03 0.  0.
        2    1    3    3  502    0  0.10149174161E+03 -0.28117377065E+03  0.35056928422E+03  0.46071475553E+03  0.25500000920E-02 0.  1.
       -2    1    3    3    0  502 -0.10149174161E+03  0.28117377065E+03  0.43727355997E+03  0.52968616102E+03  0.25500000920E-02 0. -1.
</event>
<event>
 5   0  0.2346281E-03  0.6003500E+03  0.7818609E-02  0.9904680E-01
       -2   -1    0    0    0  501  0.00000000000E+00  0.00000000000E+00  0.11693815227E+03  0.11693815229E+03  0.25500000920E-02 0. -1.
        2   -1    0    0  501    0  0.00000000000E+00  0.00000000000E+00 -0.77053586736E+03  0.77053586736E+03  0.25500000920E-02 0.  1.
    10030    2    1    2    0    0  0.00000000000E+00  0.00000000000E+00 -0.65359771509E+03  0.88747401965E+03  0.60035003322E+03 0.  0.
        3    1    3    3  502    0  0.24411922476E+03 -0.12347917338E+03 -0.14416494557E+03  0.30923266951E+03  0.10100000352E+00 0. -1.
       -3    1    3    3    0  502 -0.24411922476E+03  0.12347917338E+03 -0.50943276952E+03  0.57824135015E+03  0.10100000352E+00 0.  1.
</event>
<event>
 5   0  0.2421210E-03  0.6000460E+03  0.7818609E-02  0.9905311E-01
        2   -1    0    0  501    0  0.00000000000E+00  0.00000000000E+00  0.18386870729E+04  0.18386870729E+04  0.25500000920E-02 0. -1.
       -2   -1    0    0    0  501  0.00000000000E+00  0.00000000000E+00 -0.48955474445E+02  0.48955474512E+02  0.25500000920E-02 0.  1.
    10030    2    1    2    0    0  0.00000000000E+00  0.00000000000E+00  0.17897315984E+04  0.18876425474E+04  0.60004599182E+03 0.  0.
        1    1    3    3  502    0  0.18042220917E+03 -0.34467637740E+02  0.16411213820E+04  0.16513690024E+04  0.50400001928E-02 0. -1.
       -1    1    3    3    0  502 -0.18042220917E+03  0.34467637740E+02  0.14861021645E+03  0.23627354501E+03  0.50400001928E-02 0.  1.
</event>
<event>
 5   0  0.2406307E-03  0.5999810E+03  0.7818609E-02  0.9905445E-01
        2   -1    0    0  501    0  0.00000000000E+00  0.00000000000E+00  0.36812735245E+03  0.36812735246E+03  0.25500000920E-02 0.  1.
       -2   -1    0    0    0  501  0.00000000000E+00  0.00000000000E+00 -0.24446516437E+03  0.24446516438E+03  0.25500000920E-02 0. -1.
    10030    2    1    2    0    0  0.00000000000E+00  0.00000000000E+00  0.12366218809E+03  0.61259251684E+03  0.59998104547E+03 0.  0.
        5    1    3    3  502    0  0.24465237142E+03 -0.35834564034E+02  0.23520411628E+03  0.34129454308E+03  0.46999998093E+01 0.  1.
       -5    1    3    3    0  502 -0.24465237142E+03  0.35834564034E+02 -0.11154192820E+03  0.27129797376E+03  0.46999998093E+01 0. -1.
</event>
<event>
 5   0  0.1392854E-03  0.6001547E+03  0.7818609E-02  0.9905085E-01
       -1   -1    0    0    0  501  0.00000000000E+00  0.00000000000E+00  0.15277038433E+03  0.15277038441E+03  0.50400001928E-02 0. -1.
        1   -1    0    0  501    0  0.00000000000E+00  0.00000000000E+00 -0.58942330818E+03  0.58942330820E+03  0.50400001928E-02 0.  1.
    10030    2    1    2    0    0  0.00000000000E+00  0.00000000000E+00 -0.43665292385E+03  0.74219369261E+03  0.60015473125E+03 0.  0.
        4    1    3    3  502    0 -0.17391857625E+03 -0.21999122926E+03 -0.86280384500E+02  0.29341051406E+03  0.12699999809E+01 0. -1.
       -4    1    3    3    0  502  0.17391857625E+03  0.21999122926E+03 -0.35037253935E+03  0.44878317854E+03  0.12699999809E+01 0.  1.
</event>
<event>
 5   0  0.1479385E-03  0.6005226E+03  0.7818609E-02  0.9904323E-01
       -1   -1    0    0    0  501  0.00000000000E+00  0.00000000000E+00  0.25201235655E+03  0.25201235660E+03  0.50400001928E-02 0. -1.
        1   -1    0    0  501    0  0.00000000000E+00  0.00000000000E+00 -0.35774768010E+03  0.35774768013E+03  0.50400001928E-02 0.  1.
    10030    2    1    2    0    0  0.00000000000E+00  0.00000000000E+00 -0.10573532355E+03  0.60976003673E+03  0.60052255890E+03 0.  0.
        3    1    3    3  502    0 -0.76502785738E+02  0.10238011814E+03  0.22301467149E+03  0.25704069467E+03  0.10100000352E+00 0. -1.
       -3    1    3    3    0  502  0.76502785738E+02 -0.10238011814E+03 -0.32874999505E+03  0.35271934206E+03  0.10100000352E+00 0.  1.
</event>
<event>
 5   0  0.9496750E-04  0.5998792E+03  0.7818609E-02  0.9905657E-01
        3   -1    0    0  501    0  0.00000000000E+00  0.00000000000E+00  0.13196748936E+03  0.13196752801E+03  0.10100000352E+00 0.  1.
       -3   -1    0    0    0  501  0.00000000000E+00  0.00000000000E+00 -0.68171144123E+03  0.68171144871E+03  0.10100000352E+00 0. -1.
    10030    2    1    2    0    0  0.00000000000E+00  0.00000000000E+00 -0.54974395187E+03  0.81367897672E+03  0.59987920830E+03 0.  0.
        2    1    3    3  502    0  0.29405708266E+03 -0.43021257574E+02 -0.21988536939E+03  0.36968902086E+03  0.25500000920E-02 0.  1.
       -2    1    3    3    0  502 -0.29405708266E+03  0.43021257574E+02 -0.32985858248E+03  0.44398995586E+03  0.25500000920E-02 0. -1.
</event>
<event>
 5   0  0.2324616E-03  0.6003533E+03  0.7818609E-02  0.9904673E-01
       -2   -1    0    0    0  501  0.00000000000E+00  0.00000000000E+00  0.12628146027E+03  0.12628146029E+03  0.25500000920E-02 0. -1.
        2   -1    0    0  501    0  0.00000000000E+00  0.00000000000E+00 -0.71353321952E+03  0.71353321953E+03  0.25500000920E-02 0.  1.
    10030    2    1    2    0    0  0.00000000000E+00  0.00000000000E+00 -0.58725175926E+03  0.83981467982E+03  0.60035328573E+03 0.  0.
        4    1    3    3  502    0  0.29137103578E+03 -0.71384668506E+02 -0.30840050518E+03  0.43023869641E+03  0.12699999809E+01 0.  1.
       -4    1    3    3    0  502 -0.29137103578E+03  0.71384668506E+02 -0.27885125408E+03  0.40957598341E+03  0.12699999809E+01 0. -1.
</event>
<event>
 5   0  0.1392854E-03  0.5998999E+03  0.7818609E-02  0.9905614E-01
       -1   -1    0    0    0  501  0.00000000000E+00  0.00000000000E+00  0.11124168672E+03  0.11124168684E+03  0.50400001928E-02 0. -1.
        1   -1    0    0  501    0  0.00000000000E+00  0.00000000000E+00 -0.80877928558E+03  0.80877928559E+03  0.50400001928E-02 0.  1.
    10030    2    1    2    0    0  0.00000000000E+00  0.00000000000E+00 -0.69753759886E+03  0.92002097243E+03  0.59989989822E+03 0.  0.
        4    1    3    3  502    0  0.18475613561E+03  0.87991719709E+02 -0.12450279565E+02  0.20502193723E+03  0.12699999809E+01 0. -1.
       -4    1    3    3    0  502 -0.18475613561E+03 -0.87991719709E+02 -0.68508731929E+03  0.71499903520E+03  0.12699999809E+01 0.  1.
</event>
<event>
 5   0  0.9496750E-04  0.5999962E+03  0.7818609E-02  0.9905414E-01
       -3   -1    0    0    0  501  0.00000000000E+00  0.00000000000E+00  0.20263555429E+03  0.20263557946E+03  0.10100000352E+00 0.  1.
        3   -1    0    0  501    0  0.00000000000E+00  0.00000000000E+00 -0.44414142711E+03  0.44414143860E+03  0.10100000352E+00 0. -1.
    10030    2    1    2    0    0  0.00000000000E+00  0.00000000000E+00 -0.24150587282E+03  0.64677701806E+03  0.59999618706E+03 0.  0.
        4    1    3    3  502    0  0.96824491158E+02  0.27710431224E+03 -0.53993157443E+02  0.29846047628E+03  0.12699999809E+01 0.  1.
       -4    1    3    3    0  502 -0.96824491158E+02 -0.27710431224E+03 -0.18751271538E+03  0.34831654178E+03  0.12699999809E+01 0. -1.
</event>
<event>
 5   0  0.1423430E-03  0.6014298E+03  0.7818609E-02  0.9902444E-01
        1   -1    0    0  501    0  0.00000000000E+00  0.00000000000E+00  0.15597205470E+04  0.15597205471E+04  0.50400001928E-02 0. -1.
       -1   -1    0    0    0  501  0.00000000000E+00  0.00000000000E+00 -0.57977976639E+02  0.57977976858E+02  0.50400001928E-02 0.  1.
    10030    2    1    2    0    0  0.00000000000E+00  0.00000000000E+00  0.15017425704E+04  0.16176985239E+04  0.60142976855E+03 0.  0.
        1    1    3    3  502    0  0.21663287463E+02 -0.27807344506E+03  0.10532181675E+04  0.10895240462E+04  0.50400001928E-02 0.  1.
       -1    1    3    3    0  502 -0.21663287463E+02  0.27807344506E+03  0.44852440286E+03  0.52817447767E+03  0.50400001928E-02 0. -1.
</event>
<event>
 5   0  0.2421210E-03  0.6000113E+03  0.7818609E-02  0.9905383E-01
       -2   -1    0    0    0  501  0.00000000000E+00  0.00000000000E+00  0.14521198556E+03  0.14521198558E+03  0.25500000920E-02 0. -1.
        2   -1    0    0  501    0  0.00000000000E+00  0.00000000000E+00 -0.61980687096E+03  0.61980687096E+03  0.25500000920E-02 0.  1.
    10030    2    1    2    0    0  0.00000000000E+00  0.00000000000E+00 -0.47459488540E+03  0.76501885654E+03  0.60001128791E+03 0.  0.
        1    1    3    3  502    0  0.24882108692E+03  0.12139373519E+03 -0.89952614994E+02  0.29110109105E+03  0.50400001928E-02 0.  1.
       -1    1    3    3    0  502 -0.24882108692E+03 -0.12139373519E+03 -0.38464227041E+03  0.47391776549E+03  0.50400001928E-02 0. -1.
</event>
<event>
 5   0  0.1418763E-03  0.5995430E+03  0.7818609E-02  0.9906355E-01
       -1   -1    0    0    0  501  0.00000000000E+00  0.00000000000E+00  0.91929002970E+02  0.91929003108E+02  0.50400001928E-02 0. -1.
        1   -1    0    0  501    0  0.00000000000E+00  0.00000000000E+00 -0.97752566766E+03  0.97752566768E+03  0.50400001928E-02 0.  1.
    10030    2    1    2    0    0  0.00000000000E+00  0.00000000000E+00 -0.88559666469E+03  0.10694546708E+04  0.59954302627E+03 0.  0.
        5    1    3    3  502    0 -0.25293125039E+03 -0.10390575897E+03 -0.22381946986E+03  0.35339477820E+03  0.46999998093E+01 0.  1.
       -5    1    3    3    0  502  0.25293125039E+03  0.10390575897E+03 -0.66177719484E+03  0.71605989259E+03  0.46999998093E+01 0. -1.
</event>
<event>
 5   0  0.2324616E-03  0.5999314E+03  0.7818609E-02  0.9905548E-01
        2   -1    0    0  501    0  0.00000000000E+00  0.00000000000E+00  0.63682901562E+03  0.63682901562E+03  0.25500000920E-02 0. -1.
       -2   -1    0    0    0  501  0.00000000000E+00  0.00000000000E+00 -0.14129289213E+03  0.14129289216E+03  0.25500000920E-02 0.  1.
    10030    2    1    2    0    0  0.00000000000E+00  0.00000000000E+00  0.49553612349E+03  0.77812190778E+03  0.59993137415E+03 0.  0.
        4    1    3    3  502    0 -0.22145938270E+02 -0.21330333584E+01  0.63575389715E+03  0.63614434137E+03  0.12699999809E+01 0. -1.
       -4    1    3    3    0  502  0.22145938270E+02  0.21330333584E+01 -0.14021777366E+03  0.14197756641E+03  0.12699999809E+01 0.  1.
</event>
<event>
 5   0  0.2421210E-03  0.5999385E+03  0.7818609E-02  0.9905534E-01
       -2   -1    0    0    0  501  0.00000000000E+00  0.00000000000E+00  0.16507097359E+03  0.16507097361E+03  0.25500000920E-02 0. -1.
        2   -1    0    0  501    0  0.00000000000E+00  0.00000000000E+00 -0.54510832757E+03  0.54510832758E+03  0.25500000920E-02 0.  1.
    10030    2    1    2    0    0  0.00000000000E+00  0.00000000000E+00 -0.38003735398E+03  0.71017930119E+03  0.59993853804E+03 0.  0.
        1    1    3    3  502    0 -0.24341723769E+03 -0.12176506019E+03 -0.40739527421E+02  0.27520608751E+03  0.50400001928E-02 0. -1.
       -1    1    3    3    0  502  0.24341723769E+03  0.12176506019E+03 -0.33929782656E+03  0.43497321368E+03  0.50400001928E-02 0.  1.
</event>
<event>
 5   0  0.2346281E-03  0.6000396E+03  0.7818609E-02  0.9905324E-01
        2   -1    0    0  501    0  0.00000000000E+00  0.00000000000E+00  0.82610782864E+03  0.82610782864E+03  0.25500000920E-02 0. -1.
       -2   -1    0    0    0  501  0.00000000000E+00  0.00000000000E+00 -0.10895901073E+03  0.10895901075E+03  0.25500000920E-02 0.  1.
    10030    2    1    2    0    0  0.00000000000E+00  0.00000000000E+00  0.71714881791E+03  0.93506683940E+03  0.60003963795E+03 0.  0.
        3    1    3    3  502    0 -0.28689458017E+03 -0.26119769446E+02  0.48915135395E+03  0.56767931067E+03  0.10100000352E+00 0.  1.
       -3    1    3    3    0  502  0.28689458017E+03  0.26119769446E+02  0.22799746396E+03  0.36738752872E+03  0.10100000352E+00 0. -1.
</event>
<event>
 5   0  0.2313168E-03  0.6004123E+03  0.7818609E-02  0.9904551E-01
       -2   -1    0    0    0  501  0.00000000000E+00  0.00000000000E+00  0.18185811711E+03  0.18185811712E+03  0.25500000920E-02 0.  1.
        2   -1    0    0  501    0  0.00000000000E+00  0.00000000000E+00 -0.49557170327E+03  0.49557170328E+03  0.25500000920E-02 0. -1.
    10030    2    1    2    0    0  0.00000000000E+00  0.00000000000E+00 -0.31371358617E+03  0.67742982040E+03  0.60041231452E+03 0.  0.
        2    1    3    3  502    0 -0.29191619607E+03  0.11763281641E+02 -0.78929891774E+02  0.30262744116E+03  0.25500000920E-02 0.  1.
       -2    1    3    3    0  502  0.29191619607E+03 -0.11763281641E+02 -0.23478369439E+03  0.37480237924E+03  0.25500000920E-02 0. -1.
</event>
<event>
 5   0  0.2421210E-03  0.5999950E+03  0.7818609E-02  0.9905416E-01
        2   -1    0    0  501    0  0.00000000000E+00  0.00000000000E+00  0.18022906829E+03  0.18022906831E+03  0.25500000920E-02 0.  1.
       -2   -1    0    0    0  501  0.00000000000E+00  0.00000000000E+00 -0.49935624741E+03  0.49935624742E+03  0.25500000920E-02 0. -1.
    10030    2    1    2    0    0  0.00000000000E+00  0.00000000000E+00 -0.31912717912E+03  0.67958531573E+03  0.59999503740E+03 0.  0.
        1    1    3    3  502    0  0.11175637558E+03  0.22487113136E+03 -0.34547721827E+03  0.42709603320E+03  0.50400001928E-02 0. -1.
       -1    1    3    3    0  502 -0.11175637558E+03 -0.22487113136E+03  0.26350039152E+02  0.25248928253E+03  0.50400001928E-02 0.  1.
</event>
<event>
 5   0  0.2406307E-03  0.5999126E+03  0.7818609E-02  0.9905587E-01
        2   -1    0    0  501    0  0.00000000000E+00  0.00000000000E+00  0.10563379015E+04  0.10563379015E+04  0.25500000920E-02 0. -1.
       -2   -1    0    0    0  501  0.00000000000E+00  0.00000000000E+00 -0.85175178576E+02  0.85175178614E+02  0.25500000920E-02 0.  1.
    10030    2    1    2    0    0  0.00000000000E+00  0.00000000000E+00  0.97116272290E+03  0.11415130801E+04  0.59991255836E+03 0.  0.
        5    1    3    3  502    0 -0.84505527926E+01 -0.27979741142E+03  0.28069949536E+03  0.39644961846E+03  0.46999998093E+01 0.  1.
       -5    1    3    3    0  502  0.84505527926E+01  0.27979741142E+03  0.69046322754E+03  0.74506346164E+03  0.46999998093E+01 0. -1.
</event>
<event>
 5   0  0.9496750E-04  0.5999515E+03  0.7818609E-02  0.9905507E-01
       -3   -1    0    0    0  501  0.00000000000E+00  0.00000000000E+00  0.62264409102E+03  0.62264409921E+03  0.10100000352E+00 0.  1.
        3   -1    0    0  501    0  0.00000000000E+00  0.00000000000E+00 -0.14452144680E+03  0.14452148210E+03  0.10100000352E+00 0. -1.
    10030    2    1    2    0    0  0.00000000000E+00  0.00000000000E+00  0.47812264421E+03  0.76716558131E+03  0.59995146990E+03 0.  0.
        3    1    3    3  502    0  0.77007731662E+02 -0.21343671778E+03  0.48996290370E+03  0.53995285020E+03  0.10100000352E+00 0.  1.
       -3    1    3    3    0  502 -0.77007731662E+02  0.21343671778E+03 -0.11840259494E+02  0.22721273111E+03  0.10100000352E+00 0. -1.
</event>
<event>
 5   0  0.2313168E-03  0.5999961E+03  0.7818609E-02  0.9905414E-01
        2   -1    0    0  501    0  0.00000000000E+00  0.00000000000E+00  0.44627247687E+03  0.44627247688E+03  0.25500000920E-02 0. -1.
       -2   -1    0    0    0  501  0.00000000000E+00  0.00000000000E+00 -0.20166786573E+03  0.20166786575E+03  0.25500000920E-02 0.  1.
    10030    2    1    2    0    0  0.00000000000E+00  0.00000000000E+00  0.24460461114E+03  0.64794034262E+03  0.59999605983E+03 0.  0.
        2    1    3    3  502    0 -0.14819776479E+03 -0.16601895322E+03  0.33955961935E+03  0.40598719859E+03  0.25500000920E-02 0. -1.
       -2    1    3    3    0  502  0.14819776479E+03  0.16601895322E+03 -0.94955008208E+02  0.24195314404E+03  0.25500000920E-02 0.  1.
</event>
<event>
 5   0  0.1479385E-03  0.6000032E+03  0.7818609E-02  0.9905399E-01
       -1   -1    0    0    0  501  0.00000000000E+00  0.00000000000E+00  0.20920454999E+03  0.20920455005E+03  0.50400001928E-02 0.  1.
        1   -1    0    0  501    0  0.00000000000E+00  0.00000000000E+00 -0.43020558202E+03  0.43020558205E+03  0.50400001928E-02 0. -1.
    10030    2    1    2    0    0  0.00000000000E+00  0.00000000000E+00 -0.22100103203E+03  0.63941013210E+03  0.60000321739E+03 0.  0.
        3    1    3    3  502    0 -0.26414262831E+03  0.12956403886E+03 -0.17302944595E+03  0.34131710714E+03  0.10100000352E+00 0.  1.
       -3    1    3    3    0  502  0.26414262831E+03 -0.12956403886E+03 -0.47971586080E+02  0.29809302496E+03  0.10100000352E+00 0. -1.
</event>
<event>
 5   0  0.1423430E-03  0.6000388E+03  0.7818609E-02  0.9905325E-01
       -1   -1    0    0    0  501  0.00000000000E+00  0.00000000000E+00  0.97977102796E+02  0.97977102926E+02  0.50400001928E-02 0. -1.
        1   -1    0    0  501    0  0.00000000000E+00  0.00000000000E+00 -0.91870088027E+03  0.91870088028E+03  0.50400001928E-02 0.  1.
    10030    2    1    2    0    0  0.00000000000E+00  0.00000000000E+00 -0.82072377747E+03  0.10166779832E+04  0.60003883427E+03 0.  0.
        1    1    3    3  502    0  0.14809599718E+03  0.73629552916E+02  0.13761312114E+02  0.16596116769E+03  0.50400001928E-02 0. -1.
       -1    1    3    3    0  502 -0.14809599718E+03 -0.73629552916E+02 -0.83448508959E+03  0.85071681552E+03  0.50400001928E-02 0.  1.
</event>
<event>
 5   0  0.2313168E-03  0.6000379E+03  0.7818609E-02  0.9905328E-01
       -2   -1    0    0    0  501  0.00000000000E+00  0.00000000000E+00  0.97320604801E+02  0.97320604835E+02  0.25500000920E-02 0.  1.
        2   -1    0    0  501    0  0.00000000000E+00  0.00000000000E+00 -0.92489517729E+03  0.92489517729E+03  0.25500000920E-02 0. -1.
    10030    2    1    2    0    0  0.00000000000E+00  0.00000000000E+00 -0.82757457249E+03  0.10222157821E+04  0.60003785897E+03 0.  0.
        2    1    3    3  502    0  0.12667299768E+03 -0.14920959574E+03 -0.80114908333E+03  0.82471171056E+03  0.25500000920E-02 0. -1.
       -2    1    3    3    0  502 -0.12667299768E+03  0.14920959574E+03 -0.26425489156E+02  0.19750407157E+03  0.25500000920E-02 0.  1.
</event>
<event>
 5   0  0.2406307E-03  0.6000113E+03  0.7818609E-02  0.9905383E-01
        2   -1    0    0  501    0  0.00000000000E+00  0.00000000000E+00  0.11381536202E+03  0.11381536205E+03  0.25500000920E-02 0. -1.
       -2   -1    0    0    0  501  0.00000000000E+00  0.00000000000E+00 -0.79078412507E+03  0.79078412508E+03  0.25500000920E-02 0.  1.
    10030    2    1    2    0    0  0.00000000000E+00  0.00000000000E+00 -0.67696876305E+03  0.90459948713E+03  0.60001127153E+03 0.  0.
        5    1    3    3  502    0 -0.29304109819E+02  0.26328357592E+03 -0.12631784443E+03  0.29352216274E+03  0.46999998093E+01 0. -1.
       -5    1    3    3    0  502  0.29304109819E+02 -0.26328357592E+03 -0.55065091862E+03  0.61107732439E+03  0.46999998093E+01 0.  1.
</event>
<event>
 5   0  0.2406307E-03  0.6002214E+03  0.7818609E-02  0.9904947E-01
       -2   -1    0    0    0  501  0.00000000000E+00  0.00000000000E+00  0.10407637946E+03  0.10407637949E+03  0.25500000920E-02 0.  1.
        2   -1    0    0  501    0  0.00000000000E+00  0.00000000000E+00 -0.86538774685E+03  0.86538774686E+03  0.25500000920E-02 0. -1.
    10030    2    1    2    0    0  0.00000000000E+00  0.00000000000E+00 -0.76131136740E+03  0.96946412634E+03  0.60022137095E+03 0.  0.
        5    1    3    3  502    0 -0.14228044166E+03 -0.61968636926E+02  0.34166764305E+02  0.15897576489E+03  0.46999998093E+01 0.  1.
       -5    1    3    3    0  502  0.14228044166E+03  0.61968636926E+02 -0.79547813170E+03  0.81048836145E+03  0.46999998093E+01 0. -1.
</event>
<event>
 5   0  0.1392854E-03  0.6000671E+03  0.7818609E-02  0.9905267E-01
       -1   -1    0    0    0  501  0.00000000000E+00  0.00000000000E+00  0.12032697096E+03  0.12032697107E+03  0.50400001928E-02 0.  1.
        1   -1    0    0  501    0  0.00000000000E+00  0.00000000000E+00 -0.74812922243E+03  0.74812922245E+03  0.50400001928E-02 0. -1.
    10030    2    1    2    0    0  0.00000000000E+00  0.00000000000E+00 -0.62780225147E+03  0.86845619352E+03  0.60006707384E+03 0.  0.
        4    1    3    3  502    0  0.25103452546E+03  0.27454301384E+02 -0.54836898137E+03  0.60372363236E+03  0.12699999809E+01 0.  1.
       -4    1    3    3    0  502 -0.25103452546E+03 -0.27454301384E+02 -0.79433270096E+02  0.26473256115E+03  0.12699999809E+01 0. -1.
</event>
<event>
 5   0  0.1418763E-03  0.5972774E+03  0.7818609E-02  0.9911071E-01
        1   -1    0    0  501    0  0.00000000000E+00  0.00000000000E+00  0.74412724307E+03  0.74412724308E+03  0.50400001928E-02 0. -1.
       -1   -1    0    0    0  501  0.00000000000E+00  0.00000000000E+00 -0.11985191455E+03  0.11985191466E+03  0.50400001928E-02 0.  1.
    10030    2    1    2    0    0  0.00000000000E+00  0.00000000000E+00  0.62427532851E+03  0.86397915774E+03  0.59727740558E+03 0.  0.
        5    1    3    3  502    0 -0.40791132637E+02  0.73878726725E+02  0.72646411323E+03  0.73136460166E+03  0.46999998093E+01 0. -1.
       -5    1    3    3    0  502  0.40791132637E+02 -0.73878726725E+02 -0.10218878471E+03  0.13261455608E+03  0.46999998093E+01 0.  1.
</event>
<event>
 5   0  0.2421210E-03  0.5999898E+03  0.7818609E-02  0.9905427E-01
        2   -1    0    0  501    0  0.00000000000E+00  0.00000000000E+00  0.14790128425E+04  0.14790128425E+04  0.25500000920E-02 0.  1.
       -2   -1    0    0    0  501  0.00000000000E+00  0.00000000000E+00 -0.60849330622E+02  0.60849330676E+02  0.25500000920E-02 0. -1.
    10030    2    1    2    0    0  0.00000000000E+00  0.00000000000E+00  0.14181635119E+04  0.15398621732E+04  0.59998980489E+03 0.  0.
        1    1    3    3  502    0  0.46822966219E+02 -0.74677698282E+02  0.14450300381E+04  0.14477157732E+04  0.50400001928E-02 0.  1.
       -1    1    3    3    0  502 -0.46822966219E+02  0.74677698282E+02 -0.26866526203E+02  0.92146400048E+02  0.50400001928E-02 0. -1.
</event>
<event>
 5   0  0.2324616E-03  0.5991129E+03  0.7818609E-02  0.9907248E-01
       -2   -1    0    0    0  501  0.00000000000E+00  0.00000000000E+00  0.69854266098E+02  0.69854266145E+02  0.25500000920E-02 0. -1.
        2   -1    0    0  501    0  0.00000000000E+00  0.00000000000E+00 -0.12845897429E+04  0.12845897429E+04  0.25500000920E-02 0.  1.
    10030    2    1    2    0    0  0.00000000000E+00  0.00000000000E+00 -0.12147354768E+04  0.13544440091E+04  0.59911292345E+03 0.  0.
        4    1    3    3  502    0 -0.51485345973E+02  0.23467477743E+03 -0.20289281393E+03  0.31446796158E+03  0.12699999809E+01 0. -1.
       -4    1    3    3    0  502  0.51485345973E+02 -0.23467477743E+03 -0.10118426629E+04  0.10399760475E+04  0.12699999809E+01 0.  1.
</event>
<event>
 5   0  0.2313168E-03  0.5999308E+03  0.7818609E-02  0.9905550E-01
       -2   -1    0    0    0  501  0.00000000000E+00  0.00000000000E+00  0.49769179230E+03  0.49769179231E+03  0.25500000920E-02 0.  1.
        2   -1    0    0  501    0  0.00000000000E+00  0.00000000000E+00 -0.18079308558E+03  0.18079308559E+03  0.25500000920E-02 0. -1.
    10030    2    1    2    0    0  0.00000000000E+00  0.00000000000E+00  0.31689870673E+03  0.67848487790E+03  0.59993077869E+03 0.  0.
        2    1    3    3  502    0  0.14284320778E+03 -0.18843549880E+03 -0.50291142630E+02  0.24174639243E+03  0.25500000920E-02 0. -1.
       -2    1    3    3    0  502 -0.14284320778E+03  0.18843549880E+03  0.36718984936E+03  0.43673848548E+03  0.25500000920E-02 0.  1.
</event>
<event>
 5   0  0.2313168E-03  0.6000429E+03  0.7818609E-02  0.9905317E-01
        2   -1    0    0  501    0  0.00000000000E+00  0.00000000000E+00  0.59602607905E+03  0.59602607905E+03  0.25500000920E-02 0. -1.
       -2   -1    0    0    0  501  0.00000000000E+00  0.00000000000E+00 -0.15102168489E+03  0.15102168491E+03  0.25500000920E-02 0.  1.
    10030    2    1    2    0    0  0.00000000000E+00  0.00000000000E+00  0.44500439416E+03  0.74704776396E+03  0.60004287415E+03 0.  0.
        2    1    3    3  502    0  0.46276880919E+02 -0.62987435012E+02 -0.13812389966E+03  0.15870468910E+03  0.25500000920E-02 0.  1.
       -2    1    3    3    0  502 -0.46276880919E+02  0.62987435012E+02  0.58312829382E+03  0.58834307486E+03  0.25500000920E-02 0. -1.
</event>
<event>
 5   0  0.9496750E-04  0.6018783E+03  0.7818609E-02  0.9901517E-01
       -4   -1    0    0    0  501  0.00000000000E+00  0.00000000000E+00  0.10544107661E+04  0.10544115309E+04  0.12699999809E+01 0. -1.
        4   -1    0    0  501    0  0.00000000000E+00  0.00000000000E+00 -0.85885487653E+02  0.85894876968E+02  0.12699999809E+01 0.  1.
    10030    2    1    2    0    0  0.00000000000E+00  0.00000000000E+00  0.96852527842E+03  0.11403064079E+04  0.60187830074E+03 0.  0.
        4    1    3    3  502    0  0.11012701110E+02 -0.73349212382E+02  0.10368221676E+04  0.10394725618E+04  0.12699999809E+01 0. -1.
       -4    1    3    3    0  502 -0.11012701110E+02  0.73349212382E+02 -0.68296889199E+02  0.10083384609E+03  0.12699999809E+01 0.  1.
</event>
<event>
 5   0  0.1423430E-03  0.6004055E+03  0.7818609E-02  0.9904565E-01
        1   -1    0    0  501    0  0.00000000000E+00  0.00000000000E+00  0.27903874214E+04  0.27903874214E+04  0.50400001928E-02 0. -1.
       -1   -1    0    0    0  501  0.00000000000E+00  0.00000000000E+00 -0.32297196198E+02  0.32297196592E+02  0.50400001928E-02 0.  1.
    10030    2    1    2    0    0  0.00000000000E+00  0.00000000000E+00  0.27580902252E+04  0.28226846180E+04  0.60040549825E+03 0.  0.
        1    1    3    3  502    0 -0.76368518117E+01  0.21757481804E+03  0.40729067176E+03  0.46182552363E+03  0.50400001928E-02 0.  1.
       -1    1    3    3    0  502  0.76368518117E+01 -0.21757481804E+03  0.23507995535E+04  0.23608590944E+04  0.50400001928E-02 0. -1.
</event>
<event>
 5   0  0.2406307E-03  0.5996803E+03  0.7818609E-02  0.9906070E-01
       -2   -1    0    0    0  501  0.00000000000E+00  0.00000000000E+00  0.12412412299E+03  0.12412412302E+03  0.25500000920E-02 0.  1.
        2   -1    0    0  501    0  0.00000000000E+00  0.00000000000E+00 -0.72430814951E+03  0.72430814952E+03  0.25500000920E-02 0. -1.
    10030    2    1    2    0    0  0.00000000000E+00  0.00000000000E+00 -0.60018402652E+03  0.84843227254E+03  0.59968029431E+03 0.  0.
        5    1    3    3  502    0 -0.13216509845E+03 -0.15438976369E+03  0.11738178884E+02  0.20362634216E+03  0.46999998093E+01 0.  1.
       -5    1    3    3    0  502  0.13216509845E+03  0.15438976369E+03 -0.61192220541E+03  0.64480593038E+03  0.46999998093E+01 0. -1.
</event>
<event>
 5   0  0.2421210E-03  0.6012810E+03  0.7818609E-02  0.9902752E-01
        2   -1    0    0  501    0  0.00000000000E+00  0.00000000000E+00  0.14752355488E+04  0.14752355488E+04  0.25500000920E-02 0.  1.
       -2   -1    0    0    0  501  0.00000000000E+00  0.00000000000E+00 -0.61267995389E+02  0.61267995442E+02  0.25500000920E-02 0. -1.
    10030    2    1    2    0    0  0.00000000000E+00  0.00000000000E+00  0.14139675534E+04  0.15365035443E+04  0.60128104858E+03 0.  0.
        1    1    3    3  502    0  0.26037222657E+03  0.13424702887E+03  0.87970885510E+03  0.92720204427E+03  0.50400001928E-02 0. -1.
       -1    1    3    3    0  502 -0.26037222657E+03 -0.13424702887E+03  0.53425869834E+03  0.60930150001E+03  0.50400001928E-02 0.  1.
</event>
<event>
 5   0  0.1392854E-03  0.5999092E+03  0.7818609E-02  0.9905594E-01
       -1   -1    0    0    0  501  0.00000000000E+00  0.00000000000E+00  0.21051312727E+03  0.21051312733E+03  0.50400001928E-02 0.  1.
        1   -1    0    0  501    0  0.00000000000E+00  0.00000000000E+00 -0.42739737514E+03  0.42739737517E+03  0.50400001928E-02 0. -1.
    10030    2    1    2    0    0  0.00000000000E+00  0.00000000000E+00 -0.21688424787E+03  0.63791050250E+03  0.59990918665E+03 0.  0.
        4    1    3    3  502    0  0.56908608016E+02  0.19606092682E+03  0.12523426978E+03  0.23950722728E+03  0.12699999809E+01 0.  1.
       -4    1    3    3    0  502 -0.56908608016E+02 -0.19606092682E+03 -0.34211851764E+03  0.39840327522E+03  0.12699999809E+01 0. -1.
</event>
<event>
 5   0  0.1479385E-03  0.6010753E+03  0.7818609E-02  0.9903178E-01
       -1   -1    0    0    0  501  0.00000000000E+00  0.00000000000E+00  0.94218760431E+02  0.94218760566E+02  0.50400001928E-02 0. -1.
        1   -1    0    0  501    0  0.00000000000E+00  0.00000000000E+00 -0.95865081150E+03  0.95865081151E+03  0.50400001928E-02 0.  1.
    10030    2    1    2    0    0  0.00000000000E+00  0.00000000000E+00 -0.86443205107E+03  0.10528695721E+04  0.60107534045E+03 0.  0.
        3    1    3    3  502    0  0.23140649691E+03 -0.60108694488E+02 -0.11323962714E+03  0.26454724591E+03  0.10100000352E+00 0. -1.
       -3    1    3    3    0  502 -0.23140649691E+03  0.60108694488E+02 -0.75119242393E+03  0.78832232617E+03  0.10100000352E+00 0.  1.
</event>
<event>
 5   0  0.2406307E-03  0.5998811E+03  0.7818609E-02  0.9905653E-01
        2   -1    0    0  501    0  0.00000000000E+00  0.00000000000E+00  0.28146576278E+03  0.28146576279E+03  0.25500000920E-02 0.  1.
       -2   -1    0    0    0  501  0.00000000000E+00  0.00000000000E+00 -0.31962793797E+03  0.31962793798E+03  0.25500000920E-02 0. -1.
    10030    2    1    2    0    0  0.00000000000E+00  0.00000000000E+00 -0.38162175192E+02  0.60109370078E+03  0.59988105946E+03 0.  0.
        5    1    3    3  502    0  0.26294549376E+03  0.56758580637E+02  0.11377789925E+03  0.29211191267E+03  0.46999998093E+01 0.  1.
       -5    1    3    3    0  502 -0.26294549376E+03 -0.56758580637E+02 -0.15194007444E+03  0.30898178811E+03  0.46999998093E+01 0. -1.
</event>
<event>
 5   0  0.2406307E-03  0.6001115E+03  0.7818609E-02  0.9905175E-01
        2   -1    0    0  501    0  0.00000000000E+00  0.00000000000E+00  0.34036712587E+03  0.34036712588E+03  0.25500000920E-02 0. -1.
       -2   -1    0    0    0  501  0.00000000000E+00  0.00000000000E+00 -0.26451860806E+03  0.26451860807E+03  0.25500000920E-02 0.  1.
    10030    2    1    2    0    0  0.00000000000E+00  0.00000000000E+00  0.75848517814E+02  0.60488573395E+03  0.60011145089E+03 0.  0.
        5    1    3    3  502    0  0.15109643279E+03 -0.76575345382E+02 -0.21166932107E+03  0.27114554579E+03  0.46999998093E+01 0.  1.
       -5    1    3    3    0  502 -0.15109643279E+03  0.76575345382E+02  0.28751783888E+03  0.33374018816E+03  0.46999998093E+01 0. -1.
</event>
<event>
 5   0  0.2313168E-03  0.5999915E+03  0.7818609E-02  0.9905424E-01
       -2   -1    0    0    0  501  0.00000000000E+00  0.00000000000E+00  0.33207372681E+03  0.33207372682E+03  0.25500000920E-02 0.  1.
        2   -1    0    0  501    0  0.00000000000E+00  0.00000000000E+00 -0.27101647711E+03  0.27101647713E+03  0.25500000920E-02 0. -1.
    10030    2    1    2    0    0  0.00000000000E+00  0.00000000000E+00  0.61057249692E+02  0.60309020394E+03  0.59999150523E+03 0.  0.
        2    1    3    3  502    0 -0.39609751034E+01  0.21375460904E+03  0.24206915514E+03  0.32296160467E+03  0.25500000920E-02 0.  1.
       -2    1    3    3    0  502  0.39609751034E+01 -0.21375460904E+03 -0.18101190545E+03  0.28012859928E+03  0.25500000920E-02 0. -1.
</event>
<event>
 5   0  0.2324616E-03  0.6000171E+03  0.7818609E-02  0.9905371E-01
        2   -1    0    0  501    0  0.00000000000E+00  0.00000000000E+00  0.60307249211E+03  0.60307249211E+03  0.25500000920E-02 0.  1.
       -2   -1    0    0    0  501  0.00000000000E+00  0.00000000000E+00 -0.14924428046E+03  0.14924428048E+03  0.25500000920E-02 0. -1.
    10030    2    1    2    0    0  0.00000000000E+00  0.00000000000E+00  0.45382821165E+03  0.75231677259E+03  0.60001706695E+03 0.  0.
        4    1    3    3  502    0  0.24038516506E+03 -0.12198774210E+03  0.61820593296E+02  0.27656723497E+03  0.12699999809E+01 0. -1.
       -4    1    3    3    0  502 -0.24038516506E+03  0.12198774210E+03  0.39200761836E+03  0.47574953763E+03  0.12699999809E+01 0.  1.
</event>
<event>
 5   0  0.1423430E-03  0.5997633E+03  0.7818609E-02  0.9905897E-01
       -1   -1    0    0    0  501  0.00000000000E+00  0.00000000000E+00  0.14780987942E+03  0.14780987951E+03  0.50400001928E-02 0. -1.
        1   -1    0    0  501    0  0.00000000000E+00  0.00000000000E+00 -0.60840995184E+03  0.60840995186E+03  0.50400001928E-02 0.  1.
    10030    2    1    2    0    0  0.00000000000E+00  0.00000000000E+00 -0.46060007242E+03  0.75621983137E+03  0.59976329218E+03 0.  0.
        1    1    3    3  502    0  0.91525164273E+02  0.27833673018E+03 -0.14975451457E+03  0.32905106856E+03  0.50400001928E-02 0. -1.
       -1    1    3    3    0  502 -0.91525164273E+02 -0.27833673018E+03 -0.31084555785E+03  0.42716876281E+03  0.50400001928E-02 0.  1.
</event>
<event>
 5   0  0.1423430E-03  0.6000301E+03  0.7818609E-02  0.9905344E-01
       -1   -1    0    0    0  501  0.00000000000E+00  0.00000000000E+00  0.24684070643E+03  0.24684070648E+03  0.50400001928E-02 0.  1.
        1   -1    0    0  501    0  0.00000000000E+00  0.00000000000E+00 -0.36464419015E+03  0.36464419018E+03  0.50400001928E-02 0. -1.
    10030    2    1    2    0    0  0.00000000000E+00  0.00000000000E+00 -0.11780348371E+03  0.61148489666E+03  0.60003009764E+03 0.  0.
        1    1    3    3  502    0 -0.15207043357E+03 -0.14775679820E+03  0.15740374017E+03  0.26407087236E+03  0.50400001928E-02 0.  1.
       -1    1    3    3    0  502  0.15207043357E+03  0.14775679820E+03 -0.27520722389E+03  0.34741402431E+03  0.50400001928E-02 0. -1.
</event>
<event>
 5   0  0.1479385E-03  0.6001680E+03  0.7818609E-02  0.9905057E-01
       -1   -1    0    0    0  501  0.00000000000E+00  0.00000000000E+00  0.54146699193E+03  0.54146699195E+03  0.50400001928E-02 0.  1.
        1   -1    0    0  501    0  0.00000000000E+00  0.00000000000E+00 -0.16630823727E+03  0.16630823734E+03  0.50400001928E-02 0. -1.
    10030    2    1    2    0    0  0.00000000000E+00  0.00000000000E+00  0.37515875466E+03  0.70777522930E+03  0.60016804647E+03 0.  0.
        3    1    3    3  502    0 -0.13373284439E+02 -0.27043662411E+03  0.35018522827E+02  0.27302219606E+03  0.10100000352E+00 0. -1.
       -3    1    3    3    0  502  0.13373284439E+02  0.27043662411E+03  0.34014023184E+03  0.43475303324E+03  0.10100000352E+00 0.  1.
</event>
<event>
 5   0  0.2421210E-03  0.5999300E+03  0.7818609E-02  0.9905551E-01
        2   -1    0    0  501    0  0.00000000000E+00  0.00000000000E+00  0.10392266519E+04  0.10392266519E+04  0.25500000920E-02 0. -1.
       -2   -1    0    0    0  501  0.00000000000E+00  0.00000000000E+00 -0.86582665945E+02  0.86582665982E+02  0.25500000920E-02 0.  1.
    10030    2    1    2    0    0  0.00000000000E+00  0.00000000000E+00  0.95264398596E+03  0.11258093179E+04  0.59993004281E+03 0.  0.
        1    1    3    3  502    0  0.53742722532E+02  0.18108549874E+03  0.91360162399E+03  0.93292452292E+03  0.50400001928E-02 0. -1.
       -1    1    3    3    0  502 -0.53742722532E+02 -0.18108549874E+03  0.39042361972E+02  0.19288479497E+03  0.50400001928E-02 0.  1.
</event>
<event>
 5   0  0.1418763E-03  0.6001696E+03  0.7818609E-02  0.9905054E-01
       -1   -1    0    0    0  501  0.00000000000E+00  0.00000000000E+00  0.75631459799E+02  0.75631459967E+02  0.50400001928E-02 0. -1.
        1   -1    0    0  501    0  0.00000000000E+00  0.00000000000E+00 -0.11906538131E+04  0.11906538131E+04  0.50400001928E-02 0.  1.
    10030    2    1    2    0    0  0.00000000000E+00  0.00000000000E+00 -0.11150223533E+04  0.12662852730E+04  0.60016959640E+03 0.  0.
        5    1    3    3  502    0 -0.10878546951E+03  0.13431804986E+03 -0.40039173751E+02  0.17748476646E+03  0.46999998093E+01 0. -1.
       -5    1    3    3    0  502  0.10878546951E+03 -0.13431804986E+03 -0.10749831795E+04  0.10888005066E+04  0.46999998093E+01 0.  1.
</event>
<event>
 5   0  0.2324616E-03  0.6000453E+03  0.7818609E-02  0.9905312E-01
        2   -1    0    0  501    0  0.00000000000E+00  0.00000000000E+00  0.11491435283E+04  0.11491435283E+04  0.25500000920E-02 0. -1.
       -2   -1    0    0    0  501  0.00000000000E+00  0.00000000000E+00 -0.78331013866E+02  0.78331013908E+02  0.25500000920E-02 0.  1.
    10030    2    1    2    0    0  0.00000000000E+00  0.00000000000E+00  0.10708125144E+04  0.12274745422E+04  0.60004525722E+03 0.  0.
        4    1    3    3  502    0 -0.10390689644E+03 -0.24551937033E+03  0.81689923678E+03  0.85930342737E+03  0.12699999809E+01 0.  1.
       -4    1    3    3    0  502  0.10390689644E+03  0.24551937033E+03  0.25391327766E+03  0.36817111485E+03  0.12699999809E+01 0. -1.
</event>
<event>
 5   0  0.1392854E-03  0.5998134E+03  0.7818609E-02  0.9905793E-01
        1   -1    0    0  501    0  0.00000000000E+00  0.00000000000E+00  0.72161869825E+03  0.72161869827E+03  0.50400001928E-02 0.  1.
       -1   -1    0    0    0  501  0.00000000000E+00  0.00000000000E+00 -0.12464203129E+03  0.12464203139E+03  0.50400001928E-02 0. -1.
    10030    2    1    2    0    0  0.00000000000E+00  0.00000000000E+00  0.59697666696E+03  0.84626072966E+03  0.59981337236E+03 0.  0.
        4    1    3    3  502    0  0.17808336485E+03  0.43196349329E+02 -0.36465009735E+02  0.18684463939E+03  0.12699999809E+01 0. -1.
       -4    1    3    3    0  502 -0.17808336485E+03 -0.43196349329E+02  0.63344167670E+03  0.65941609027E+03  0.12699999809E+01 0.  1.
</event>
<event>
 5   0  0.1418763E-03  0.5998533E+03  0.7818609E-02  0.9905710E-01
       -1   -1    0    0    0  501  0.00000000000E+00  0.00000000000E+00  0.28161546679E+03  0.28161546684E+03  0.50400001928E-02 0. -1.
        1   -1    0    0  501    0  0.00000000000E+00  0.00000000000E+00 -0.31942847686E+03  0.31942847690E+03  0.50400001928E-02 0.  1.
    10030    2    1    2    0    0  0.00000000000E+00  0.00000000000E+00 -0.37813010069E+02  0.60104394374E+03  0.59985331421E+03 0.  0.
        5    1    3    3  502    0  0.18938676590E+03  0.97733019834E+02  0.19249762647E+03  0.28722206820E+03  0.46999998093E+01 0. -1.
       -5    1    3    3    0  502 -0.18938676590E+03 -0.97733019834E+02 -0.23031063654E+03  0.31382187554E+03  0.46999998093E+01 0.  1.
</event>
<event>
 5   0  0.2421210E-03  0.6001024E+03  0.7818609E-02  0.9905194E-01
        2   -1    0    0  501    0  0.00000000000E+00  0.00000000000E+00  0.96550428785E+02  0.96550428819E+02  0.25500000920E-02 0.  1.
       -2   -1    0    0    0  501  0.00000000000E+00  0.00000000000E+00 -0.93247368036E+03  0.93247368036E+03  0.25500000920E-02 0. -1.
    10030    2    1    2    0    0  0.00000000000E+00  0.00000000000E+00 -0.83592325158E+03  0.10290241092E+04  0.60010243688E+03 0.  0.
        1    1    3    3  502    0  0.18030566993E+03  0.17587368374E+03 -0.13835237177E+03  0.28737269537E+03  0.50400001928E-02 0.  1.
       -1    1    3    3    0  502 -0.18030566993E+03 -0.17587368374E+03 -0.69757087980E+03  0.74165141382E+03  0.50400001928E-02 0. -1.
</event>
<event>
 5   0  0.1479385E-03  0.5998106E+03  0.7818609E-02  0.9905799E-01
        1   -1    0    0  501    0  0.00000000000E+00  0.00000000000E+00  0.52906674671E+03  0.52906674673E+03  0.50400001928E-02 0.  1.
       -1   -1    0    0    0  501  0.00000000000E+00  0.00000000000E+00 -0.17000345905E+03  0.17000345912E+03  0.50400001928E-02 0. -1.
    10030    2    1    2    0    0  0.00000000000E+00  0.00000000000E+00  0.35906328766E+03  0.69907020585E+03  0.59981056023E+03 0.  0.
        3    1    3    3  502    0 -0.21482943569E+02  0.29707654633E+03  0.13870346201E+03  0.32856453220E+03  0.10100000352E+00 0. -1.
       -3    1    3    3    0  502  0.21482943569E+02 -0.29707654633E+03  0.22035982565E+03  0.37050567365E+03  0.10100000352E+00 0.  1.
</event>
<event>
 5   0  0.2313168E-03  0.5999070E+03  0.7818609E-02  0.9905599E-01
        2   -1    0    0  501    0  0.00000000000E+00  0.00000000000E+00  0.87134840544E+02  0.87134840582E+02  0.25500000920E-02 0. -1.
       -2   -1    0    0    0  501  0.00000000000E+00  0.00000000000E+00 -0.10325618884E+04  0.10325618884E+04  0.25500000920E-02 0.  1.
    10030    2    1    2    0    0  0.00000000000E+00  0.00000000000E+00 -0.94542704786E+03  0.11196967290E+04  0.59990704454E+03 0.  0.
        2    1    3    3  502    0  0.25421434175E+03  0.71024736634E+02 -0.20676778667E+03  0.33529444131E+03  0.25500000920E-02 0. -1.
       -2    1    3    3    0  502 -0.25421434175E+03 -0.71024736634E+02 -0.73865926119E+03  0.78440228768E+03  0.25500000920E-02 0.  1.
</event>
<event>
 5   0  0.2313168E-03  0.6000053E+03  0.7818609E-02  0.9905395E-01
        2   -1    0    0  501    0  0.00000000000E+00  0.00000000000E+00  0.68359129951E+03  0.68359129951E+03  0.25500000920E-02 0.  1.
       -2   -1    0    0    0  501  0.00000000000E+00  0.00000000000E+00 -0.13165993040E+03  0.13165993043E+03  0.25500000920E-02 0. -1.
    10030    2    1    2    0    0  0.00000000000E+00  0.00000000000E+00  0.55193136910E+03  0.81525122994E+03  0.60000527641E+03 0.  0.
        2    1    3    3  502    0  0.61729730715E+02 -0.65709375638E+01  0.67476885730E+03  0.67761843811E+03  0.25500000920E-02 0.  1.
       -2    1    3    3    0  502 -0.61729730715E+02  0.65709375638E+01 -0.12283748820E+03  0.13763279183E+03  0.25500000920E-02 0. -1.
</event>
<event>
 5   0  0.2324616E-03  0.6000768E+03  0.7818609E-02  0.9905247E-01
        2   -1    0    0  501    0  0.00000000000E+00  0.00000000000E+00  0.13088221196E+04  0.13088221196E+04  0.25500000920E-02 0.  1.
       -2   -1    0    0    0  501  0.00000000000E+00  0.00000000000E+00 -0.68781729769E+02  0.68781729816E+02  0.25500000920E-02 0. -1.
    10030    2    1    2    0    0  0.00000000000E+00  0.00000000000E+00  0.12400403899E+04  0.13776038494E+04  0.60007682635E+03 0.  0.
        4    1    3    3  502    0 -0.48419900683E+02 -0.24128937103E+03  0.10140301966E+04  0.10434672491E+04  0.12699999809E+01 0.  1.
       -4    1    3    3    0  502  0.48419900683E+02  0.24128937103E+03  0.22601019326E+03  0.33413660038E+03  0.12699999809E+01 0. -1.
</event>
<event>
 5   0  0.2346281E-03  0.6000265E+03  0.7818609E-02  0.9905351E-01
        2   -1    0    0  501    0  0.00000000000E+00  0.00000000000E+00  0.25003539106E+03  0.25003539108E+03  0.25500000920E-02 0.  1.
       -2   -1    0    0    0  501  0.00000000000E+00  0.00000000000E+00 -0.35998082185E+03  0.35998082186E+03  0.25500000920E-02 0. -1.
    10030    2    1    2    0    0  0.00000000000E+00  0.00000000000E+00 -0.10994543078E+03  0.61001621294E+03  0.60002648466E+03 0.  0.
        3    1    3    3  502    0 -0.21464524482E+03  0.20367573934E+03 -0.46352771867E+01  0.29593560772E+03  0.10100000352E+00 0.  1.
       -3    1    3    3    0  502  0.21464524482E+03 -0.20367573934E+03 -0.10531015360E+03  0.31408060522E+03  0.10100000352E+00 0. -1.
</event>
<event>
 5   0  0.2421210E-03  0.6000435E+03  0.7818609E-02  0.9905316E-01
        2   -1    0    0  501    0  0.00000000000E+00  0.00000000000E+00  0.22390947310E+03  0.22390947311E+03  0.25500000920E-02 0.  1.
       -2   -1    0    0    0  501  0.00000000000E+00  0.00000000000E+00 -0.40200639018E+03  0.40200639018E+03  0.25500000920E-02 0. -1.
    10030    2    1    2    0    0  0.00000000000E+00  0.00000000000E+00 -0.17809691708E+03  0.62591586330E+03  0.60004346181E+03 0.  0.
        1    1    3    3  502    0 -0.21602279709E+03  0.19549156296E+03 -0.14334448451E+02  0.29169894839E+03  0.50400001928E-02 0.  1.
       -1    1    3    3    0  502  0.21602279709E+03 -0.19549156296E+03 -0.16376246862E+03  0.33421691491E+03  0.50400001928E-02 0. -1.
</event>
<event>
 5   0  0.2406307E-03  0.5999170E+03  0.7818609E-02  0.9905578E-01
       -2   -1    0    0    0  501  0.00000000000E+00  0.00000000000E+00  0.68584575823E+02  0.68584575871E+02  0.25500000920E-02 0. -1.
        2   -1    0    0  501    0  0.00000000000E+00  0.00000000000E+00 -0.13118855330E+04  0.13118855330E+04  0.25500000920E-02 0.  1.
    10030    2    1    2    0    0  0.00000000000E+00  0.00000000000E+00 -0.12433009572E+04  0.13804701089E+04  0.59991703708E+03 0.  0.
        5    1    3    3  502    0 -0.60882274363E+02  0.21456087620E+03 -0.10830773249E+04  0.11058126435E+04  0.46999998093E+01 0. -1.
       -5    1    3    3    0  502  0.60882274363E+02 -0.21456087620E+03 -0.16022363232E+03  0.27465746537E+03  0.46999998093E+01 0.  1.
</event>
<event>
 5   0  0.1392854E-03  0.5999760E+03  0.7818609E-02  0.9905456E-01
        1   -1    0    0  501    0  0.00000000000E+00  0.00000000000E+00  0.11873763916E+04  0.11873763916E+04  0.50400001928E-02 0. -1.
       -1   -1    0    0    0  501  0.00000000000E+00  0.00000000000E+00 -0.75791311874E+02  0.75791312041E+02  0.50400001928E-02 0.  1.
    10030    2    1    2    0    0  0.00000000000E+00  0.00000000000E+00  0.11115850797E+04  0.12631677037E+04  0.59997604792E+03 0.  0.
        4    1    3    3  502    0 -0.10486538148E+03 -0.42499135619E+02 -0.29135947771E+02  0.11684794013E+03  0.12699999809E+01 0.  1.
       -4    1    3    3    0  502  0.10486538148E+03  0.42499135619E+02  0.11407210275E+04  0.11463197635E+04  0.12699999809E+01 0. -1.
</event>
<event>
 5   0  0.1479385E-03  0.6002311E+03  0.7818609E-02  0.9904927E-01
        1   -1    0    0  501    0  0.00000000000E+00  0.00000000000E+00  0.60480434805E+03  0.60480434807E+03  0.50400001928E-02 0. -1.
       -1   -1    0    0    0  501  0.00000000000E+00  0.00000000000E+00 -0.14892311869E+03  0.14892311877E+03  0.50400001928E-02 0.  1.
    10030    2    1    2    0    0  0.00000000000E+00  0.00000000000E+00  0.45588122936E+03  0.75372746684E+03  0.60023112131E+03 0.  0.
        3    1    3    3  502    0  0.18528560675E+03  0.77288948225E+02 -0.52188239742E+02  0.20743182049E+03  0.10100000352E+00 0.  1.
       -3    1    3    3    0  502 -0.18528560675E+03 -0.77288948225E+02  0.50806946910E+03  0.54629564635E+03  0.10100000352E+00 0. -1.
</event>
<event>
 5   0  0.2324616E-03  0.5998695E+03  0.7818609E-02  0.9905677E-01
        2   -1    0    0  501    0  0.00000000000E+00  0.00000000000E+00  0.13868768365E+04  0.13868768365E+04  0.25500000920E-02 0.  1.
       -2   -1    0    0    0  501  0.00000000000E+00  0.00000000000E+00 -0.64865783890E+02  0.64865783940E+02  0.25500000920E-02 0. -1.
    10030    2    1    2    0    0  0.00000000000E+00  0.00000000000E+00  0.13220110526E+04  0.14517426204E+04  0.59986949646E+03 0.  0.
        4    1    3    3  502    0 -0.18177980181E+03 -0.16663688211E+03  0.10741799742E+04  0.11021233945E+04  0.12699999809E+01 0.  1.
       -4    1    3    3    0  502  0.18177980181E+03  0.16663688211E+03  0.24783107842E+03  0.34961922595E+03  0.12699999809E+01 0. -1.
</event>
<event>
 5   0  0.2313168E-03  0.6000121E+03  0.7818609E-02  0.9905381E-01
       -2   -1    0    0    0  501  0.00000000000E+00  0.00000000000E+00  0.39860345000E+03  0.39860345001E+03  0.25500000920E-02 0.  1.
        2   -1    0    0  501    0  0.00000000000E+00  0.00000000000E+00 -0.22579741384E+03  0.22579741386E+03  0.25500000920E-02 0. -1.
    10030    2    1    2    0    0  0.00000000000E+00  0.00000000000E+00  0.17280603616E+03  0.62440086387E+03  0.60001209376E+03 0.  0.
        2    1    3    3  502    0  0.10872710547E+03  0.11932046037E+03 -0.17674837574E+03  0.23937197844E+03  0.25500000920E-02 0. -1.
       -2    1    3    3    0  502 -0.10872710547E+03 -0.11932046037E+03  0.34955441190E+03  0.38502888543E+03  0.25500000920E-02 0.  1.
</event>
<event>
 5   0  0.1418763E-03  0.5998530E+03  0.7818609E-02  0.9905711E-01
       -1   -1    0    0    0  501  0.00000000000E+00  0.00000000000E+00  0.38111902141E+03  0.38111902144E+03  0.50400001928E-02 0.  1.
        1   -1    0    0  501    0  0.00000000000E+00  0.00000000000E+00 -0.23603099669E+03  0.23603099674E+03  0.50400001928E-02 0. -1.
    10030    2    1    2    0    0  0.00000000000E+00  0.00000000000E+00  0.14508802472E+03  0.61715001818E+03  0.59985299034E+03 0.  0.
        5    1    3    3  502    0 -0.21385888595E+03  0.20190847485E+03  0.12278864648E+02  0.29440705805E+03  0.46999998093E+01 0. -1.
       -5    1    3    3    0  502  0.21385888595E+03 -0.20190847485E+03  0.13280916007E+03  0.32274296013E+03  0.46999998093E+01 0.  1.
</event>
<event>
 5   0  0.1416315E-03  0.6000359E+03  0.7818609E-02  0.9905332E-01
       -1   -1    0    0    0  501  0.00000000000E+00  0.00000000000E+00  0.60723499875E+03  0.60723499877E+03  0.50400001928E-02 0. -1.
        1   -1    0    0  501    0  0.00000000000E+00  0.00000000000E+00 -0.14823053579E+03  0.14823053587E+03  0.50400001928E-02 0.  1.
    10030    2    1    2    0    0  0.00000000000E+00  0.00000000000E+00  0.45900446297E+03  0.75546553465E+03  0.60003589644E+03 0.  0.
        2    1    3    3  502    0  0.23067362720E+03  0.18484119365E+03  0.16488324302E+03  0.33847167236E+03  0.25500000920E-02 0.  1.
       -2    1    3    3    0  502 -0.23067362720E+03 -0.18484119365E+03  0.29412121995E+03  0.41699386229E+03  0.25500000920E-02 0. -1.
</event>
<event>
 5   0  0.2406307E-03  0.6000796E+03  0.7818609E-02  0.9905241E-01
       -2   -1    0    0    0  501  0.00000000000E+00  0.00000000000E+00  0.91555950056E+02  0.91555950091E+02  0.25500000920E-02 0.  1.
        2   -1    0    0  501    0  0.00000000000E+00  0.00000000000E+00 -0.98326618404E+03  0.98326618404E+03  0.25500000920E-02 0. -1.
    10030    2    1    2    0    0  0.00000000000E+00  0.00000000000E+00 -0.89171023399E+03  0.10748221341E+04  0.60007956025E+03 0.  0.
        5    1    3    3  502    0  0.57419111791E+02  0.11131632745E+03 -0.93412689932E+03  0.94249850567E+03  0.46999998093E+01 0. -1.
       -5    1    3    3    0  502 -0.57419111791E+02 -0.11131632745E+03  0.42416665334E+02  0.13232362847E+03  0.46999998093E+01 0.  1.
</event>
<event>
 5   0  0.1416315E-03  0.6000219E+03  0.7818609E-02  0.9905361E-01
       -1   -1    0    0    0  501  0.00000000000E+00  0.00000000000E+00  0.35027213214E+03  0.35027213217E+03  0.50400001928E-02 0.  1.
        1   -1    0    0  501    0  0.00000000000E+00  0.00000000000E+00 -0.25696180978E+03  0.25696180983E+03  0.50400001928E-02 0. -1.
    10030    2    1    2    0    0  0.00000000000E+00  0.00000000000E+00  0.93310322361E+02  0.60723394200E+03  0.60002186965E+03 0.  0.
        2    1    3    3  502    0 -0.28342904750E+03  0.32458608745E+02 -0.47310061179E+02  0.28917784864E+03  0.25500000920E-02 0. -1.
       -2    1    3    3    0  502  0.28342904750E+03 -0.32458608745E+02  0.14062038354E+03  0.31805609336E+03  0.25500000920E-02 0.  1.
</event>
<event>
 5   0  0.1423430E-03  0.5999614E+03  0.7818609E-02  0.9905486E-01
        1   -1    0    0  501    0  0.00000000000E+00  0.00000000000E+00  0.23260545490E+03  0.23260545495E+03  0.50400001928E-02 0. -1.
       -1   -1    0    0    0  501  0.00000000000E+00  0.00000000000E+00 -0.38687146378E+03  0.38687146381E+03  0.50400001928E-02 0.  1.
    10030    2    1    2    0    0  0.00000000000E+00  0.00000000000E+00 -0.15426600888E+03  0.61947691877E+03  0.59996137491E+03 0.  0.
        1    1    3    3  502    0 -0.20260789625E+03  0.20868596554E+03 -0.15292802180E+03  0.32861340769E+03  0.50400001928E-02 0.  1.
       -1    1    3    3    0  502  0.20260789625E+03 -0.20868596554E+03 -0.13379870791E+01  0.29086351107E+03  0.50400001928E-02 0. -1.
</event>
<event>
 5   0  0.1423430E-03  0.5994825E+03  0.7818609E-02  0.9906480E-01
       -1   -1    0    0    0  501  0.00000000000E+00  0.00000000000E+00  0.58593094515E+03  0.58593094517E+03  0.50400001928E-02 0. -1.
        1   -1    0    0  501    0  0.00000000000E+00  0.00000000000E+00 -0.15333688936E+03  0.15333688944E+03  0.50400001928E-02 0.  1.
    10030    2    1    2    0    0  0.00000000000E+00  0.00000000000E+00  0.43259405579E+03  0.73926783461E+03  0.59948253869E+03 0.  0.
        1    1    3    3  502    0 -0.15269923431E+03  0.22994113615E+03  0.72195468597E+02  0.28531065169E+03  0.50400001928E-02 0.  1.
       -1    1    3    3    0  502  0.15269923431E+03 -0.22994113615E+03  0.36039858719E+03  0.45395718293E+03  0.50400001928E-02 0. -1.
</event>
<event>
 5   0  0.2421210E-03  0.5984556E+03  0.7818609E-02  0.9908615E-01
        2   -1    0    0  501    0  0.00000000000E+00  0.00000000000E+00  0.19123594856E+03  0.19123594858E+03  0.25500000920E-02 0. -1.
       -2   -1    0    0    0  501  0.00000000000E+00  0.00000000000E+00 -0.46820311149E+03  0.46820311150E+03  0.25500000920E-02 0.  1.
    10030    2    1    2    0    0  0.00000000000E+00  0.00000000000E+00 -0.27696716293E+03  0.65943906008E+03  0.59845556611E+03 0.  0.
        1    1    3    3  502    0 -0.20071160657E+03 -0.15390961945E+03  0.37696458543E+02  0.25572317647E+03  0.50400001928E-02 0. -1.
       -1    1    3    3    0  502  0.20071160657E+03  0.15390961945E+03 -0.31466362148E+03  0.40371588361E+03  0.50400001928E-02 0.  1.
</event>
<event>
 5   0  0.1418763E-03  0.5997624E+03  0.7818609E-02  0.9905899E-01
        1   -1    0    0  501    0  0.00000000000E+00  0.00000000000E+00  0.81151869274E+03  0.81151869275E+03  0.50400001928E-02 0.  1.
       -1   -1    0    0    0  501  0.00000000000E+00  0.00000000000E+00 -0.11081535642E+03  0.11081535653E+03  0.50400001928E-02 0. -1.
    10030    2    1    2    0    0  0.00000000000E+00  0.00000000000E+00  0.70070333632E+03  0.92233404928E+03  0.59976239706E+03 0.  0.
        5    1    3    3  502    0 -0.14935315700E+03 -0.16085130967E+03  0.66448808502E+03  0.69981855824E+03  0.46999998093E+01 0.  1.
       -5    1    3    3    0  502  0.14935315700E+03  0.16085130967E+03  0.36215251305E+02  0.22251549104E+03  0.46999998093E+01 0. -1.
</event>
<event>
 5   0  0.2346281E-03  0.6002053E+03  0.7818609E-02  0.9904980E-01
        2   -1    0    0  501    0  0.00000000000E+00  0.00000000000E+00  0.59407094101E+03  0.59407094101E+03  0.25500000920E-02 0.  1.
       -2   -1    0    0    0  501  0.00000000000E+00  0.00000000000E+00 -0.15160076267E+03  0.15160076269E+03  0.25500000920E-02 0. -1.
    10030    2    1    2    0    0  0.00000000000E+00  0.00000000000E+00  0.44247017834E+03  0.74567170370E+03  0.60020532402E+03 0.  0.
        3    1    3    3  502    0  0.76929810670E+02 -0.23909710419E+03  0.42528499903E+03  0.49391594589E+03  0.10100000352E+00 0.  1.
       -3    1    3    3    0  502 -0.76929810670E+02  0.23909710419E+03  0.17185179308E+02  0.25175575781E+03  0.10100000352E+00 0. -1.
</event>
<event>
 5   0  0.2406307E-03  0.5999361E+03  0.7818609E-02  0.9905539E-01
        2   -1    0    0  501    0  0.00000000000E+00  0.00000000000E+00  0.11326207865E+04  0.11326207865E+04  0.25500000920E-02 0. -1.
       -2   -1    0    0    0  501  0.00000000000E+00  0.00000000000E+00 -0.79444795528E+02  0.79444795569E+02  0.25500000920E-02 0.  1.
    10030    2    1    2    0    0  0.00000000000E+00  0.00000000000E+00  0.10531759910E+04  0.12120655821E+04  0.59993608600E+03 0.  0.
        5    1    3    3  502    0  0.12537316050E+03  0.71029715269E+02 -0.48575406560E+01  0.14425441250E+03  0.46999998093E+01 0.  1.
       -5    1    3    3    0  502 -0.12537316050E+03 -0.71029715269E+02  0.10580335316E+04  0.10678111696E+04  0.46999998093E+01 0. -1.
</event>
<event>
 5   0  0.2324616E-03  0.5994555E+03  0.7818609E-02  0.9906536E-01
       -2   -1    0    0    0  501  0.00000000000E+00  0.00000000000E+00  0.87956143928E+02  0.87956143965E+02  0.25500000920E-02 0. -1.
        2   -1    0    0  501    0  0.00000000000E+00  0.00000000000E+00 -0.10213809586E+04  0.10213809586E+04  0.25500000920E-02 0.  1.
    10030    2    1    2    0    0  0.00000000000E+00  0.00000000000E+00 -0.93342481468E+03  0.11093371026E+04  0.59945552170E+03 0.  0.
        4    1    3    3  502    0 -0.31246362246E+02 -0.47009192594E+02 -0.10114510026E+04  0.10130256378E+04  0.12699999809E+01 0.  1.
       -4    1    3    3    0  502  0.31246362246E+02  0.47009192594E+02  0.78026187915E+02  0.96311464751E+02  0.12699999809E+01 0. -1.
</event>
<event>
 5   0  0.2421210E-03  0.5993266E+03  0.7818609E-02  0.9906804E-01
        2   -1    0    0  501    0  0.00000000000E+00  0.00000000000E+00  0.21074592165E+04  0.21074592165E+04  0.25500000920E-02 0.  1.
       -2   -1    0    0    0  501  0.00000000000E+00  0.00000000000E+00 -0.42609640260E+02  0.42609640336E+02  0.25500000920E-02 0. -1.
    10030    2    1    2    0    0  0.00000000000E+00  0.00000000000E+00  0.20648495762E+04  0.21500688568E+04  0.59932655259E+03 0.  0.
        1    1    3    3  502    0 -0.92658555981E+01 -0.19393362398E+03  0.21355295601E+03  0.28861907705E+03  0.50400001928E-02 0. -1.
       -1    1    3    3    0  502  0.92658555981E+01  0.19393362398E+03  0.18512966202E+04  0.18614497798E+04  0.50400001928E-02 0.  1.
</event>
<event>
 5   0  0.1416315E-03  0.5999839E+03  0.7818609E-02  0.9905439E-01
       -1   -1    0    0    0  501  0.00000000000E+00  0.00000000000E+00  0.16370642809E+03  0.16370642817E+03  0.50400001928E-02 0. -1.
        1   -1    0    0  501    0  0.00000000000E+00  0.00000000000E+00 -0.54973507788E+03  0.54973507790E+03  0.50400001928E-02 0.  1.
    10030    2    1    2    0    0  0.00000000000E+00  0.00000000000E+00 -0.38602864979E+03  0.71344150607E+03  0.59998388655E+03 0.  0.
        2    1    3    3  502    0  0.45149581962E+02 -0.21227539238E+02 -0.54476738293E+03  0.54704715947E+03  0.25500000920E-02 0.  1.
       -2    1    3    3    0  502 -0.45149581962E+02  0.21227539238E+02  0.15873873314E+03  0.16639434660E+03  0.25500000920E-02 0. -1.
</event>
<event>
 5   0  0.1479385E-03  0.5999413E+03  0.7818609E-02  0.9905528E-01
       -1   -1    0    0    0  501  0.00000000000E+00  0.00000000000E+00  0.47024490660E+03  0.47024490662E+03  0.50400001928E-02 0.  1.
        1   -1    0    0  501    0  0.00000000000E+00  0.00000000000E+00 -0.19135217531E+03  0.19135217537E+03  0.50400001928E-02 0. -1.
    10030    2    1    2    0    0  0.00000000000E+00  0.00000000000E+00  0.27889273129E+03  0.66159708200E+03  0.59994128325E+03 0.  0.
        3    1    3    3  502    0  0.22716141043E+03  0.13126100814E+03  0.29982494189E+03  0.39840527686E+03  0.10100000352E+00 0.  1.
       -3    1    3    3    0  502 -0.22716141043E+03 -0.13126100814E+03 -0.20932210605E+02  0.26319180514E+03  0.10100000352E+00 0. -1.
</event>
<event>
 5   0  0.9496750E-04  0.5999954E+03  0.7818609E-02  0.9905416E-01
        3   -1    0    0  501    0  0.00000000000E+00  0.00000000000E+00  0.93084513683E+03  0.93084514231E+03  0.10100000352E+00 0. -1.
       -3   -1    0    0    0  501  0.00000000000E+00  0.00000000000E+00 -0.96684804761E+02  0.96684857515E+02  0.10100000352E+00 0.  1.
    10030    2    1    2    0    0  0.00000000000E+00  0.00000000000E+00  0.83416033207E+03  0.10275299998E+04  0.59999536743E+03 0.  0.
        4    1    3    3  502    0 -0.20139635138E+03  0.22191522886E+03  0.44069480377E+03  0.53293562661E+03  0.12699999809E+01 0. -1.
       -4    1    3    3    0  502  0.20139635138E+03 -0.22191522886E+03  0.39346552831E+03  0.49459437321E+03  0.12699999809E+01 0.  1.
</event>
<event>
 5   0  0.2346281E-03  0.5983588E+03  0.7818609E-02  0.9908817E-01
       -2   -1    0    0    0  501  0.00000000000E+00  0.00000000000E+00  0.14085777227E+03  0.14085777229E+03  0.25500000920E-02 0. -1.
        2   -1    0    0  501    0  0.00000000000E+00  0.00000000000E+00 -0.63545164429E+03  0.63545164429E+03  0.25500000920E-02 0.  1.
    10030    2    1    2    0    0  0.00000000000E+00  0.00000000000E+00 -0.49459387202E+03  0.77630941658E+03  0.59835876532E+03 0.  0.
        3    1    3    3  502    0  0.53013811875E+02 -0.27557689831E+03 -0.11274731586E+03  0.30243190732E+03  0.10100000352E+00 0. -1.
       -3    1    3    3    0  502 -0.53013811875E+02  0.27557689831E+03 -0.38184655616E+03  0.47387750926E+03  0.10100000352E+00 0.  1.
</event>
<event>
 5   0  0.2346281E-03  0.5998200E+03  0.7818609E-02  0.9905780E-01
       -2   -1    0    0    0  501  0.00000000000E+00  0.00000000000E+00  0.78319000959E+02  0.78319001001E+02  0.25500000920E-02 0. -1.
        2   -1    0    0  501    0  0.00000000000E+00  0.00000000000E+00 -0.11484571184E+04  0.11484571184E+04  0.25500000920E-02 0.  1.
    10030    2    1    2    0    0  0.00000000000E+00  0.00000000000E+00 -0.10701381175E+04  0.12267761194E+04  0.59982002030E+03 0.  0.
        3    1    3    3  502    0 -0.27504479329E+03 -0.10379785427E+03 -0.65645318929E+03  0.71927354518E+03  0.10100000352E+00 0.  1.
       -3    1    3    3    0  502  0.27504479329E+03  0.10379785427E+03 -0.41368492818E+03  0.50750257425E+03  0.10100000352E+00 0. -1.
</event>
<event>
 5   0  0.1416315E-03  0.6002772E+03  0.7818609E-02  0.9904831E-01
        1   -1    0    0  501    0  0.00000000000E+00  0.00000000000E+00  0.12952919960E+04  0.12952919960E+04  0.50400001928E-02 0.  1.
       -1   -1    0    0    0  501  0.00000000000E+00  0.00000000000E+00 -0.69546621702E+02  0.69546621884E+02  0.50400001928E-02 0. -1.
    10030    2    1    2    0    0  0.00000000000E+00  0.00000000000E+00  0.12257453743E+04  0.13648386179E+04  0.60027721120E+03 0.  0.
        2    1    3    3  502    0  0.29081322354E+03 -0.74212746668E+02  0.60872996351E+03  0.67869877798E+03  0.25500000920E-02 0. -1.
       -2    1    3    3    0  502 -0.29081322354E+03  0.74212746668E+02  0.61701541079E+03  0.68613983991E+03  0.25500000920E-02 0.  1.
</event>
<event>
 5   0  0.1423430E-03  0.6004522E+03  0.7818609E-02  0.9904468E-01
        1   -1    0    0  501    0  0.00000000000E+00  0.00000000000E+00  0.39566639309E+03  0.39566639312E+03  0.50400001928E-02 0.  1.
       -1   -1    0    0    0  501  0.00000000000E+00  0.00000000000E+00 -0.22780737537E+03  0.22780737542E+03  0.50400001928E-02 0. -1.
    10030    2    1    2    0    0  0.00000000000E+00  0.00000000000E+00  0.16785901772E+03  0.62347376854E+03  0.60045223809E+03 0.  0.
        1    1    3    3  502    0  0.37253136382E+02 -0.64127283086E+02 -0.21814654747E+03  0.23040837833E+03  0.50400001928E-02 0. -1.
       -1    1    3    3    0  502 -0.37253136382E+02  0.64127283086E+02  0.38600556518E+03  0.39306539021E+03  0.50400001928E-02 0.  1.
</event>
<event>
 5   0  0.2406307E-03  0.5997849E+03  0.7818609E-02  0.9905852E-01
        2   -1    0    0  501    0  0.00000000000E+00  0.00000000000E+00  0.11286269251E+04  0.11286269251E+04  0.25500000920E-02 0. -1.
       -2   -1    0    0    0  501  0.00000000000E+00  0.00000000000E+00 -0.79685756318E+02  0.79685756359E+02  0.25500000920E-02 0.  1.
    10030    2    1    2    0    0  0.00000000000E+00  0.00000000000E+00  0.10489411688E+04  0.12083126814E+04  0.59978492863E+03 0.  0.
        5    1    3    3  502    0  0.12523765507E+03  0.18138488840E+03  0.11491924076E+03  0.24862314833E+03  0.46999998093E+01 0.  1.
       -5    1    3    3    0  502 -0.12523765507E+03 -0.18138488840E+03  0.93402192800E+03  0.95968953312E+03  0.46999998093E+01 0. -1.
</event>
<event>
 5   0  0.9496750E-04  0.6000480E+03  0.7818609E-02  0.9905307E-01
        3   -1    0    0  501    0  0.00000000000E+00  0.00000000000E+00  0.16826844728E+03  0.16826847759E+03  0.10100000352E+00 0. -1.
       -3   -1    0    0    0  501  0.00000000000E+00  0.00000000000E+00 -0.53494507213E+03  0.53494508167E+03  0.10100000352E+00 0.  1.
    10030    2    1    2    0    0  0.00000000000E+00  0.00000000000E+00 -0.36667662485E+03  0.70321355926E+03  0.60004796701E+03 0.  0.
        5    1    3    3  502    0 -0.20429879241E+03 -0.13813934609E+03 -0.38350097457E+03  0.45597759047E+03  0.46999998093E+01 0.  1.
       -5    1    3    3    0  502  0.20429879241E+03  0.13813934609E+03  0.16824349719E+02  0.24723596879E+03  0.46999998093E+01 0. -1.
</event>
<event>
 5   0  0.1392854E-03  0.6000518E+03  0.7818609E-02  0.9905299E-01
        1   -1    0    0  501    0  0.00000000000E+00  0.00000000000E+00  0.65902518442E+03  0.65902518444E+03  0.50400001928E-02 0. -1.
       -1   -1    0    0    0  501  0.00000000000E+00  0.00000000000E+00 -0.13658893648E+03  0.13658893658E+03  0.50400001928E-02 0.  1.
    10030    2    1    2    0    0  0.00000000000E+00  0.00000000000E+00  0.52243624794E+03  0.79561412102E+03  0.60005182810E+03 0.  0.
        4    1    3    3  502    0  0.67571583909E+02 -0.28627806518E+03  0.18285604211E+03  0.34635097024E+03  0.12699999809E+01 0.  1.
       -4    1    3    3    0  502 -0.67571583909E+02  0.28627806518E+03  0.33958020583E+03  0.44926315077E+03  0.12699999809E+01 0. -1.
</event>
<event>
 5   0  0.1392854E-03  0.6001224E+03  0.7818609E-02  0.9905152E-01
        1   -1    0    0  501    0  0.00000000000E+00  0.00000000000E+00  0.75895678159E+03  0.75895678161E+03  0.50400001928E-02 0. -1.
       -1   -1    0    0    0  501  0.00000000000E+00  0.00000000000E+00 -0.11863221079E+03  0.11863221090E+03  0.50400001928E-02 0.  1.
    10030    2    1    2    0    0  0.00000000000E+00  0.00000000000E+00  0.64032457080E+03  0.87758899251E+03  0.60012239069E+03 0.  0.
        4    1    3    3  502    0 -0.10610842389E+03  0.20921668223E+03  0.59376047277E+03  0.63842284551E+03  0.12699999809E+01 0. -1.
       -4    1    3    3    0  502  0.10610842389E+03 -0.20921668223E+03  0.46564098031E+02  0.23916614700E+03  0.12699999809E+01 0.  1.
</event>
<event>
 5   0  0.2324616E-03  0.6001012E+03  0.7818609E-02  0.9905196E-01
       -2   -1    0    0    0  501  0.00000000000E+00  0.00000000000E+00  0.51812963426E+02  0.51812963489E+02  0.25500000920E-02 0.  1.
        2   -1    0    0  501    0  0.00000000000E+00  0.00000000000E+00 -0.17376027978E+04  0.17376027978E+04  0.25500000920E-02 0. -1.
    10030    2    1    2    0    0  0.00000000000E+00  0.00000000000E+00 -0.16857898344E+04  0.17894157613E+04  0.60010115905E+03 0.  0.
        4    1    3    3  502    0  0.29721413408E+03 -0.41120263430E+02 -0.84668998206E+03  0.89828317149E+03  0.12699999809E+01 0.  1.
       -4    1    3    3    0  502 -0.29721413408E+03  0.41120263430E+02 -0.83909985236E+03  0.89113258985E+03  0.12699999809E+01 0. -1.
</event>
<event>
 5   0  0.1423430E-03  0.6004317E+03  0.7818609E-02  0.9904511E-01
       -1   -1    0    0    0  501  0.00000000000E+00  0.00000000000E+00  0.46140083961E+03  0.46140083964E+03  0.50400001928E-02 0.  1.
        1   -1    0    0  501    0  0.00000000000E+00  0.00000000000E+00 -0.19533897840E+03  0.19533897846E+03  0.50400001928E-02 0. -1.
    10030    2    1    2    0    0  0.00000000000E+00  0.00000000000E+00  0.26606186122E+03  0.65673981810E+03  0.60043174024E+03 0.  0.
        1    1    3    3  502    0 -0.28549306913E+03  0.68193927369E+02  0.20197256537E+03  0.35629990378E+03  0.50400001928E-02 0. -1.
       -1    1    3    3    0  502  0.28549306913E+03 -0.68193927369E+02  0.64089295853E+02  0.30043991432E+03  0.50400001928E-02 0.  1.
</event>
<event>
 5   0  0.1423430E-03  0.5999730E+03  0.7818609E-02  0.9905462E-01
        1   -1    0    0  501    0  0.00000000000E+00  0.00000000000E+00  0.76893785000E+03  0.76893785002E+03  0.50400001928E-02 0. -1.
       -1   -1    0    0    0  501  0.00000000000E+00  0.00000000000E+00 -0.11703404867E+03  0.11703404878E+03  0.50400001928E-02 0.  1.
    10030    2    1    2    0    0  0.00000000000E+00  0.00000000000E+00  0.65190380133E+03  0.88597189880E+03  0.59997303212E+03 0.  0.
        1    1    3    3  502    0 -0.10539198709E+02  0.28831714551E+03  0.20459327987E+03  0.35368949843E+03  0.50400001928E-02 0. -1.
       -1    1    3    3    0  502  0.10539198709E+02 -0.28831714551E+03  0.44731052146E+03  0.53228240036E+03  0.50400001928E-02 0.  1.
</event>
<event>
 5   0  0.1423430E-03  0.6002641E+03  0.7818609E-02  0.9904858E-01
       -1   -1    0    0    0  501  0.00000000000E+00  0.00000000000E+00  0.25491082427E+03  0.25491082432E+03  0.50400001928E-02 0. -1.
        1   -1    0    0  501    0  0.00000000000E+00  0.00000000000E+00 -0.35337554052E+03  0.35337554055E+03  0.50400001928E-02 0.  1.
    10030    2    1    2    0    0  0.00000000000E+00  0.00000000000E+00 -0.98464716242E+02  0.60828636488E+03  0.60026410966E+03 0.  0.
        1    1    3    3  502    0 -0.79755436667E+02  0.22976922441E+03 -0.22743597524E+03  0.33298941278E+03  0.50400001928E-02 0.  1.
       -1    1    3    3    0  502  0.79755436667E+02 -0.22976922441E+03  0.12897125900E+03  0.27529695210E+03  0.50400001928E-02 0. -1.
</event>
<event>
 5   0  0.1418763E-03  0.6001304E+03  0.7818609E-02  0.9905136E-01
       -1   -1    0    0    0  501  0.00000000000E+00  0.00000000000E+00  0.18466675475E+03  0.18466675482E+03  0.50400001928E-02 0. -1.
        1   -1    0    0  501    0  0.00000000000E+00  0.00000000000E+00 -0.48757625907E+03  0.48757625910E+03  0.50400001928E-02 0.  1.
    10030    2    1    2    0    0  0.00000000000E+00  0.00000000000E+00 -0.30290950432E+03  0.67224301392E+03  0.60013040412E+03 0.  0.
        5    1    3    3  502    0  0.17015799651E+03 -0.13150852455E+03  0.82894183917E+02  0.23052499112E+03  0.46999998093E+01 0. -1.
       -5    1    3    3    0  502 -0.17015799651E+03  0.13150852455E+03 -0.38580368824E+03  0.44171802279E+03  0.46999998093E+01 0.  1.
</event>
<event>
 5   0  0.1479385E-03  0.5999792E+03  0.7818609E-02  0.9905449E-01
        1   -1    0    0  501    0  0.00000000000E+00  0.00000000000E+00  0.17807894026E+03  0.17807894033E+03  0.50400001928E-02 0.  1.
       -1   -1    0    0    0  501  0.00000000000E+00  0.00000000000E+00 -0.50535875952E+03  0.50535875954E+03  0.50400001928E-02 0. -1.
    10030    2    1    2    0    0  0.00000000000E+00  0.00000000000E+00 -0.32727981926E+03  0.68343769987E+03  0.59997917423E+03 0.  0.
        3    1    3    3  502    0 -0.91461129223E+02 -0.13918855199E+03 -0.44785713884E+03  0.47782278951E+03  0.10100000352E+00 0. -1.
       -3    1    3    3    0  502  0.91461129223E+02  0.13918855199E+03  0.12057731958E+03  0.20561491036E+03  0.10100000352E+00 0.  1.
</event>
<event>
 5   0  0.1416315E-03  0.6001360E+03  0.7818609E-02  0.9905124E-01
       -1   -1    0    0    0  501  0.00000000000E+00  0.00000000000E+00  0.15649427715E+03  0.15649427723E+03  0.50400001928E-02 0. -1.
        1   -1    0    0  501    0  0.00000000000E+00  0.00000000000E+00 -0.57536155008E+03  0.57536155010E+03  0.50400001928E-02 0.  1.
    10030    2    1    2    0    0  0.00000000000E+00  0.00000000000E+00 -0.41886727293E+03  0.73185582733E+03  0.60013595098E+03 0.  0.
        2    1    3    3  502    0 -0.37475415938E+02  0.29428428972E+03 -0.15444669972E+03  0.33445692255E+03  0.25500000920E-02 0. -1.
       -2    1    3    3    0  502  0.37475415938E+02 -0.29428428972E+03 -0.26442057321E+03  0.39739890478E+03  0.25500000920E-02 0.  1.
</event>
<event>
 5   0  0.1416315E-03  0.5995487E+03  0.7818609E-02  0.9906343E-01
       -1   -1    0    0    0  501  0.00000000000E+00  0.00000000000E+00  0.51021627005E+02  0.51021627254E+02  0.50400001928E-02 0. -1.
        1   -1    0    0  501    0  0.00000000000E+00  0.00000000000E+00 -0.17613053433E+04  0.17613053433E+04  0.50400001928E-02 0.  1.
    10030    2    1    2    0    0  0.00000000000E+00  0.00000000000E+00 -0.17102837163E+04  0.18123269705E+04  0.59954871195E+03 0.  0.
        2    1    3    3  502    0 -0.12953474316E+03 -0.24703737872E+03 -0.11870736026E+04  0.12194057791E+04  0.25500000920E-02 0. -1.
       -2    1    3    3    0  502  0.12953474316E+03  0.24703737872E+03 -0.52321011369E+03  0.59292119143E+03  0.25500000920E-02 0.  1.
</event>
<event>
 5   0  0.1416315E-03  0.6003513E+03  0.7818609E-02  0.9904677E-01
       -1   -1    0    0    0  501  0.00000000000E+00  0.00000000000E+00  0.29211783277E+03  0.29211783281E+03  0.50400001928E-02 0.  1.
        1   -1    0    0  501    0  0.00000000000E+00  0.00000000000E+00 -0.30845574112E+03  0.30845574116E+03  0.50400001928E-02 0. -1.
    10030    2    1    2    0    0  0.00000000000E+00  0.00000000000E+00 -0.16337908345E+02  0.60057357397E+03  0.60035130591E+03 0.  0.
        2    1    3    3  502    0 -0.17887352339E+03  0.64821746074E+01 -0.24923050525E+03  0.30684458722E+03  0.25500000920E-02 0. -1.
       -2    1    3    3    0  502  0.17887352339E+03 -0.64821746074E+01  0.23289259690E+03  0.29372898675E+03  0.25500000920E-02 0.  1.
</event>
<event>
 5   0  0.2406307E-03  0.6000191E+03  0.7818609E-02  0.9905366E-01
        2   -1    0    0  501    0  0.00000000000E+00  0.00000000000E+00  0.10360262876E+04  0.10360262876E+04  0.25500000920E-02 0. -1.
       -2   -1    0    0    0  501  0.00000000000E+00  0.00000000000E+00 -0.86875921920E+02  0.86875921957E+02  0.25500000920E-02 0.  1.
    10030    2    1    2    0    0  0.00000000000E+00  0.00000000000E+00  0.94915036572E+03  0.11229022096E+04  0.60001912934E+03 0.  0.
        5    1    3    3  502    0 -0.18091806583E+03  0.23697061357E+03  0.53656577820E+03  0.61384960908E+03  0.46999998093E+01 0.  1.
       -5    1    3    3    0  502  0.18091806583E+03 -0.23697061357E+03  0.41258458753E+03  0.50905260052E+03  0.46999998093E+01 0. -1.
</event>
<event>
 5   0  0.1423430E-03  0.6002551E+03  0.7818609E-02  0.9904877E-01
        1   -1    0    0  501    0  0.00000000000E+00  0.00000000000E+00  0.20678006947E+04  0.20678006947E+04  0.50400001928E-02 0. -1.
       -1   -1    0    0    0  501  0.00000000000E+00  0.00000000000E+00 -0.43561522813E+02  0.43561523104E+02  0.50400001928E-02 0.  1.
    10030    2    1    2    0    0  0.00000000000E+00  0.00000000000E+00  0.20242391719E+04  0.21113622178E+04  0.60025510393E+03 0.  0.
        1    1    3    3  502    0 -0.26830497459E+03 -0.30118015120E+02  0.14731848366E+04  0.14977210078E+04  0.50400001928E-02 0. -1.
       -1    1    3    3    0  502  0.26830497459E+03  0.30118015120E+02  0.55105433524E+03  0.61364121002E+03  0.50400001928E-02 0.  1.
</event>
<event>
 5   0  0.1418763E-03  0.5998903E+03  0.7818609E-02  0.9905634E-01
       -1   -1    0    0    0  501  0.00000000000E+00  0.00000000000E+00  0.23242476840E+03  0.23242476846E+03  0.50400001928E-02 0. -1.
        1   -1    0    0  501    0  0.00000000000E+00  0.00000000000E+00 -0.38708052260E+03  0.38708052264E+03  0.50400001928E-02 0.  1.
    10030    2    1    2    0    0  0.00000000000E+00  0.00000000000E+00 -0.15465575420E+03  0.61950529109E+03  0.59989032613E+03 0.  0.
        5    1    3    3  502    0 -0.23264352297E+02 -0.96473623925E+02  0.21493944342E+03  0.23678987423E+03  0.46999998093E+01 0. -1.
       -5    1    3    3    0  502  0.23264352297E+02  0.96473623925E+02 -0.36959519762E+03  0.38271541686E+03  0.46999998093E+01 0.  1.
</event>
<event>
 5   0  0.2346281E-03  0.6000056E+03  0.7818609E-02  0.9905394E-01
       -2   -1    0    0    0  501  0.00000000000E+00  0.00000000000E+00  0.20951623223E+03  0.20951623225E+03  0.25500000920E-02 0. -1.
        2   -1    0    0  501    0  0.00000000000E+00  0.00000000000E+00 -0.42956901528E+03  0.42956901528E+03  0.25500000920E-02 0.  1.
    10030    2    1    2    0    0  0.00000000000E+00  0.00000000000E+00 -0.22005278304E+03  0.63908524753E+03  0.60000560521E+03 0.  0.
        3    1    3    3  502    0  0.75771599677E+01  0.82123030412E+02  0.19720481056E+03  0.21375535780E+03  0.10100000352E+00 0. -1.
       -3    1    3    3    0  502 -0.75771599677E+01 -0.82123030412E+02 -0.41725759361E+03  0.42532988973E+03  0.10100000352E+00 0.  1.
</event>
<event>
 5   0  0.1392854E-03  0.5997519E+03  0.7818609E-02  0.9905921E-01
        1   -1    0    0  501    0  0.00000000000E+00  0.00000000000E+00  0.13213016186E+04  0.13213016186E+04  0.50400001928E-02 0.  1.
       -1   -1    0    0    0  501  0.00000000000E+00  0.00000000000E+00 -0.68058330318E+02  0.68058330505E+02  0.50400001928E-02 0. -1.
    10030    2    1    2    0    0  0.00000000000E+00  0.00000000000E+00  0.12532432882E+04  0.13893599491E+04  0.59975188917E+03 0.  0.
        4    1    3    3  502    0 -0.29443382785E+03  0.53632122904E+02  0.58289538560E+03  0.65523761114E+03  0.12699999809E+01 0.  1.
       -4    1    3    3    0  502  0.29443382785E+03 -0.53632122904E+02  0.67034790263E+03  0.73412233793E+03  0.12699999809E+01 0. -1.
</event>
<event>
 5   0  0.2324616E-03  0.5999001E+03  0.7818609E-02  0.9905613E-01
       -2   -1    0    0    0  501  0.00000000000E+00  0.00000000000E+00  0.12076370318E+03  0.12076370321E+03  0.25500000920E-02 0. -1.
        2   -1    0    0  501    0  0.00000000000E+00  0.00000000000E+00 -0.74500892692E+03  0.74500892693E+03  0.25500000920E-02 0.  1.
    10030    2    1    2    0    0  0.00000000000E+00  0.00000000000E+00 -0.62424522375E+03  0.86577263014E+03  0.59990011479E+03 0.  0.
        4    1    3    3  502    0  0.24355942248E+03  0.13729765541E+03 -0.15537422925E+03  0.31986653854E+03  0.12699999809E+01 0. -1.
       -4    1    3    3    0  502 -0.24355942248E+03 -0.13729765541E+03 -0.46887099450E+03  0.54590609160E+03  0.12699999809E+01 0.  1.
</event>
<event>
 5   0  0.2421210E-03  0.6025882E+03  0.7818609E-02  0.9900051E-01
       -2   -1    0    0    0  501  0.00000000000E+00  0.00000000000E+00  0.19654413249E+03  0.19654413251E+03  0.25500000920E-02 0. -1.
        2   -1    0    0  501    0  0.00000000000E+00  0.00000000000E+00 -0.46187157566E+03  0.46187157566E+03  0.25500000920E-02 0.  1.
    10030    2    1    2    0    0  0.00000000000E+00  0.00000000000E+00 -0.26532744317E+03  0.65841570817E+03  0.60258824472E+03 0.  0.
        1    1    3    3  502    0 -0.59538612727E+02 -0.20895665433E+03 -0.36073751882E+03  0.42111671459E+03  0.50400001928E-02 0.  1.
       -1    1    3    3    0  502  0.59538612727E+02  0.20895665433E+03  0.95410075653E+02  0.23729899358E+03  0.50400001928E-02 0. -1.
</event>
<event>
 5   0  0.1479385E-03  0.6003097E+03  0.7818609E-02  0.9904764E-01
       -1   -1    0    0    0  501  0.00000000000E+00  0.00000000000E+00  0.53748141710E+03  0.53748141712E+03  0.50400001928E-02 0.  1.
        1   -1    0    0  501    0  0.00000000000E+00  0.00000000000E+00 -0.16762056493E+03  0.16762056501E+03  0.50400001928E-02 0. -1.
    10030    2    1    2    0    0  0.00000000000E+00  0.00000000000E+00  0.36986085216E+03  0.70510198213E+03  0.60030971610E+03 0.  0.
        3    1    3    3  502    0 -0.15566456755E+03 -0.39195249717E+02 -0.11296727186E+03  0.19628891946E+03  0.10100000352E+00 0. -1.
       -3    1    3    3    0  502  0.15566456755E+03  0.39195249717E+02  0.48282812402E+03  0.50881306267E+03  0.10100000352E+00 0.  1.
</event>
<event>
 5   0  0.2346281E-03  0.5995328E+03  0.7818609E-02  0.9906376E-01
       -2   -1    0    0    0  501  0.00000000000E+00  0.00000000000E+00  0.20028484189E+03  0.20028484191E+03  0.25500000920E-02 0.  1.
        2   -1    0    0  501    0  0.00000000000E+00  0.00000000000E+00 -0.44866045534E+03  0.44866045535E+03  0.25500000920E-02 0. -1.
    10030    2    1    2    0    0  0.00000000000E+00  0.00000000000E+00 -0.24837561345E+03  0.64894529726E+03  0.59953277932E+03 0.  0.
        3    1    3    3  502    0  0.49897725119E+01 -0.22546299522E+03 -0.33795219477E+03  0.40628826736E+03  0.10100000352E+00 0. -1.
       -3    1    3    3    0  502 -0.49897725119E+01  0.22546299522E+03  0.89576581314E+02  0.24265702990E+03  0.10100000352E+00 0.  1.
</event>
<event>
 5   0  0.1392854E-03  0.5998975E+03  0.7818609E-02  0.9905619E-01
       -1   -1    0    0    0  501  0.00000000000E+00  0.00000000000E+00  0.16038188338E+03  0.16038188346E+03  0.50400001928E-02 0. -1.
        1   -1    0    0  501    0  0.00000000000E+00  0.00000000000E+00 -0.56096894713E+03  0.56096894716E+03  0.50400001928E-02 0.  1.
    10030    2    1    2    0    0  0.00000000000E+00  0.00000000000E+00 -0.40058706375E+03  0.72135083062E+03  0.59989751224E+03 0.  0.
        4    1    3    3  502    0  0.11273273955E+03 -0.26508127335E+03 -0.99754256328E+02  0.30484303601E+03  0.12699999809E+01 0. -1.
       -4    1    3    3    0  502 -0.11273273955E+03  0.26508127335E+03 -0.30083280742E+03  0.41650779461E+03  0.12699999809E+01 0.  1.
</event>
<event>
 5   0  0.2313168E-03  0.6000694E+03  0.7818609E-02  0.9905262E-01
        2   -1    0    0  501    0  0.00000000000E+00  0.00000000000E+00  0.58227365423E+03  0.58227365424E+03  0.25500000920E-02 0.  1.
       -2   -1    0    0    0  501  0.00000000000E+00  0.00000000000E+00 -0.15460224436E+03  0.15460224438E+03  0.25500000920E-02 0. -1.
    10030    2    1    2    0    0  0.00000000000E+00  0.00000000000E+00  0.42767140987E+03  0.73687589862E+03  0.60006937527E+03 0.  0.
        2    1    3    3  502    0  0.22195699974E+03  0.36684907442E+02  0.45761497739E+03  0.50992368027E+03  0.25500000920E-02 0.  1.
       -2    1    3    3    0  502 -0.22195699974E+03 -0.36684907442E+02 -0.29943567515E+02  0.22695221834E+03  0.25500000920E-02 0. -1.
</event>
<event>
 5   0  0.1392854E-03  0.6012209E+03  0.7818609E-02  0.9902876E-01
        1   -1    0    0  501    0  0.00000000000E+00  0.00000000000E+00  0.10591995063E+04  0.10591995063E+04  0.50400001928E-02 0. -1.
       -1   -1    0    0    0  501  0.00000000000E+00  0.00000000000E+00 -0.85315989932E+02  0.85315990081E+02  0.50400001928E-02 0.  1.
    10030    2    1    2    0    0  0.00000000000E+00  0.00000000000E+00  0.97388351637E+03  0.11445154964E+04  0.60122093945E+03 0.  0.
        4    1    3    3  502    0 -0.23264589257E+02 -0.23940366221E+03  0.83017866029E+03  0.86432261078E+03  0.12699999809E+01 0. -1.
       -4    1    3    3    0  502  0.23264589257E+02  0.23940366221E+03  0.14370485607E+03  0.28019288562E+03  0.12699999809E+01 0.  1.
</event>
<event>
 5   0  0.1392854E-03  0.5996349E+03  0.7818609E-02  0.9906164E-01
        1   -1    0    0  501    0  0.00000000000E+00  0.00000000000E+00  0.68350484917E+03  0.68350484919E+03  0.50400001928E-02 0.  1.
       -1   -1    0    0    0  501  0.00000000000E+00  0.00000000000E+00 -0.13151408495E+03  0.13151408504E+03  0.50400001928E-02 0. -1.
    10030    2    1    2    0    0  0.00000000000E+00  0.00000000000E+00  0.55199076422E+03  0.81501893423E+03  0.59963493842E+03 0.  0.
        4    1    3    3  502    0  0.14907345598E+02 -0.18831798545E+03 -0.40445413856E+02  0.19319248691E+03  0.12699999809E+01 0. -1.
       -4    1    3    3    0  502 -0.14907345598E+02  0.18831798545E+03  0.59243617807E+03  0.62182644732E+03  0.12699999809E+01 0.  1.
</event>
<event>
 5   0  0.1416315E-03  0.6010545E+03  0.7818609E-02  0.9903221E-01
        1   -1    0    0  501    0  0.00000000000E+00  0.00000000000E+00  0.20373312333E+03  0.20373312339E+03  0.50400001928E-02 0. -1.
       -1   -1    0    0    0  501  0.00000000000E+00  0.00000000000E+00 -0.44330848720E+03  0.44330848723E+03  0.50400001928E-02 0.  1.
    10030    2    1    2    0    0  0.00000000000E+00  0.00000000000E+00 -0.23957536387E+03  0.64704161062E+03  0.60105448247E+03 0.  0.
        2    1    3    3  502    0 -0.23880800784E+03 -0.14827778753E+03 -0.23422769025E+03  0.36589367003E+03  0.25500000920E-02 0.  1.
       -2    1    3    3    0  502  0.23880800784E+03  0.14827778753E+03 -0.53476736251E+01  0.28114794059E+03  0.25500000920E-02 0. -1.
</event>
<event>
 5   0  0.2313168E-03  0.6001077E+03  0.7818609E-02  0.9905183E-01
        2   -1    0    0  501    0  0.00000000000E+00  0.00000000000E+00  0.10890767869E+04  0.10890767869E+04  0.25500000920E-02 0.  1.
       -2   -1    0    0    0  501  0.00000000000E+00  0.00000000000E+00 -0.82668481378E+02  0.82668481417E+02  0.25500000920E-02 0. -1.
    10030    2    1    2    0    0  0.00000000000E+00  0.00000000000E+00  0.10064083055E+04  0.11717452683E+04  0.60010773732E+03 0.  0.
        2    1    3    3  502    0  0.13504973533E+03  0.26083452792E+03  0.38348761961E+03  0.48304848242E+03  0.25500000920E-02 0.  1.
       -2    1    3    3    0  502 -0.13504973533E+03 -0.26083452792E+03  0.62292068586E+03  0.68869678586E+03  0.25500000920E-02 0. -1.
</event>
<event>
 5   0  0.2421210E-03  0.6000877E+03  0.7818609E-02  0.9905224E-01
       -2   -1    0    0    0  501  0.00000000000E+00  0.00000000000E+00  0.11490127669E+03  0.11490127672E+03  0.25500000920E-02 0. -1.
        2   -1    0    0  501    0  0.00000000000E+00  0.00000000000E+00 -0.78351013594E+03  0.78351013594E+03  0.25500000920E-02 0.  1.
    10030    2    1    2    0    0  0.00000000000E+00  0.00000000000E+00 -0.66860885924E+03  0.89841141266E+03  0.60008771005E+03 0.  0.
        1    1    3    3  502    0 -0.37547005760E+02  0.11744431144E+03 -0.74382824525E+03  0.75397838324E+03  0.50400001928E-02 0.  1.
       -1    1    3    3    0  502  0.37547005760E+02 -0.11744431144E+03  0.75219386010E+02  0.14443302942E+03  0.50400001928E-02 0. -1.
</event>
<event>
 5   0  0.9496750E-04  0.5999775E+03  0.7818609E-02  0.9905453E-01
       -4   -1    0    0    0  501  0.00000000000E+00  0.00000000000E+00  0.10513666506E+03  0.10514433528E+03  0.12699999809E+01 0. -1.
        4   -1    0    0  501    0  0.00000000000E+00  0.00000000000E+00 -0.85592514942E+03  0.85592609162E+03  0.12699999809E+01 0.  1.
    10030    2    1    2    0    0  0.00000000000E+00  0.00000000000E+00 -0.75078848436E+03  0.96107042690E+03  0.59997751392E+03 0.  0.
        2    1    3    3  502    0 -0.11090474025E+03 -0.21909524746E+03 -0.99380817818E+02  0.26491344969E+03  0.25500000920E-02 0. -1.
       -2    1    3    3    0  502  0.11090474025E+03  0.21909524746E+03 -0.65140766654E+03  0.69615697720E+03  0.25500000920E-02 0.  1.
</event>
<event>
 5   0  0.2421210E-03  0.6000812E+03  0.7818609E-02  0.9905238E-01
        2   -1    0    0  501    0  0.00000000000E+00  0.00000000000E+00  0.26576618161E+03  0.26576618162E+03  0.25500000920E-02 0.  1.
       -2   -1    0    0    0  501  0.00000000000E+00  0.00000000000E+00 -0.33873525905E+03  0.33873525906E+03  0.25500000920E-02 0. -1.
    10030    2    1    2    0    0  0.00000000000E+00  0.00000000000E+00 -0.72969077442E+02  0.60450144068E+03  0.60008124910E+03 0.  0.
        1    1    3    3  502    0 -0.80338427659E+02 -0.78314413915E+02 -0.31680929169E+03  0.33608858611E+03  0.50400001928E-02 0. -1.
       -1    1    3    3    0  502  0.80338427659E+02  0.78314413915E+02  0.24384021425E+03  0.26841285457E+03  0.50400001928E-02 0.  1.
</event>
<event>
 5   0  0.1423430E-03  0.6002646E+03  0.7818609E-02  0.9904857E-01
        1   -1    0    0  501    0  0.00000000000E+00  0.00000000000E+00  0.52337982053E+03  0.52337982055E+03  0.50400001928E-02 0. -1.
       -1   -1    0    0    0  501  0.00000000000E+00  0.00000000000E+00 -0.17211092009E+03  0.17211092016E+03  0.50400001928E-02 0.  1.
    10030    2    1    2    0    0  0.00000000000E+00  0.00000000000E+00  0.35126890044E+03  0.69549074071E+03  0.60026455001E+03 0.  0.
        1    1    3    3  502    0  0.19757041765E+03  0.18025078670E+03  0.33346052053E+03  0.42745799187E+03  0.50400001928E-02 0. -1.
       -1    1    3    3    0  502 -0.19757041765E+03 -0.18025078670E+03  0.17808379913E+02  0.26803274885E+03  0.50400001928E-02 0.  1.
</event>
<event>
 5   0  0.2406307E-03  0.6001934E+03  0.7818609E-02  0.9905005E-01
       -2   -1    0    0    0  501  0.00000000000E+00  0.00000000000E+00  0.29573561157E+03  0.29573561158E+03  0.25500000920E-02 0.  1.
        2   -1    0    0  501    0  0.00000000000E+00  0.00000000000E+00 -0.30452213470E+03  0.30452213471E+03  0.25500000920E-02 0. -1.
    10030    2    1    2    0    0  0.00000000000E+00  0.00000000000E+00 -0.87865231340E+01  0.60025774629E+03  0.60019343464E+03 0.  0.
        5    1    3    3  502    0 -0.13783319254E+03  0.25769118145E+03  0.63681761385E+02  0.29913239660E+03  0.46999998093E+01 0.  1.
       -5    1    3    3    0  502  0.13783319254E+03 -0.25769118145E+03 -0.72468284519E+02  0.30112534969E+03  0.46999998093E+01 0. -1.
</event>
<event>
 5   0  0.1418763E-03  0.6013352E+03  0.7818609E-02  0.9902640E-01
        1   -1    0    0  501    0  0.00000000000E+00  0.00000000000E+00  0.62159703816E+03  0.62159703818E+03  0.50400001928E-02 0.  1.
       -1   -1    0    0    0  501  0.00000000000E+00  0.00000000000E+00 -0.14543343497E+03  0.14543343505E+03  0.50400001928E-02 0. -1.
    10030    2    1    2    0    0  0.00000000000E+00  0.00000000000E+00  0.47616360319E+03  0.76703047323E+03  0.60133515602E+03 0.  0.
        5    1    3    3  502    0  0.13112238530E+03  0.13599033425E+03  0.53638624245E+03  0.56869916654E+03  0.46999998093E+01 0.  1.
       -5    1    3    3    0  502 -0.13112238530E+03 -0.13599033425E+03 -0.60222639257E+02  0.19833130669E+03  0.46999998093E+01 0. -1.
</event>
<event>
 5   0  0.2324616E-03  0.6006485E+03  0.7818609E-02  0.9904061E-01
        2   -1    0    0  501    0  0.00000000000E+00  0.00000000000E+00  0.46089471743E+03  0.46089471744E+03  0.25500000920E-02 0.  1.
       -2   -1    0    0    0  501  0.00000000000E+00  0.00000000000E+00 -0.19569472948E+03  0.19569472949E+03  0.25500000920E-02 0. -1.
    10030    2    1    2    0    0  0.00000000000E+00  0.00000000000E+00  0.26519998795E+03  0.65658944693E+03  0.60064853967E+03 0.  0.
        4    1    3    3  502    0  0.45794700409E+02 -0.43862351816E+02  0.45349025987E+03  0.45790401744E+03  0.12699999809E+01 0.  1.
       -4    1    3    3    0  502 -0.45794700409E+02  0.43862351816E+02 -0.18829027192E+03  0.19868542949E+03  0.12699999809E+01 0. -1.
</event>
<event>
 5   0  0.2324616E-03  0.5994538E+03  0.7818609E-02  0.9906540E-01
        2   -1    0    0  501    0  0.00000000000E+00  0.00000000000E+00  0.33221432194E+03  0.33221432195E+03  0.25500000920E-02 0. -1.
       -2   -1    0    0    0  501  0.00000000000E+00  0.00000000000E+00 -0.27041640612E+03  0.27041640613E+03  0.25500000920E-02 0.  1.
    10030    2    1    2    0    0  0.00000000000E+00  0.00000000000E+00  0.61797915819E+02  0.60263072808E+03  0.59945376137E+03 0.  0.
        4    1    3    3  502    0  0.12024251574E+03  0.94637136533E+02 -0.22818795479E+03  0.27474680310E+03  0.12699999809E+01 0.  1.
       -4    1    3    3    0  502 -0.12024251574E+03 -0.94637136533E+02  0.28998587061E+03  0.32788392497E+03  0.12699999809E+01 0. -1.
</event>
<event>
 5   0  0.9496750E-04  0.5997605E+03  0.7818609E-02  0.9905903E-01
       -4   -1    0    0    0  501  0.00000000000E+00  0.00000000000E+00  0.16476986429E+03  0.16477475861E+03  0.12699999809E+01 0. -1.
        4   -1    0    0  501    0  0.00000000000E+00  0.00000000000E+00 -0.54576668960E+03  0.54576816724E+03  0.12699999809E+01 0.  1.
    10030    2    1    2    0    0  0.00000000000E+00  0.00000000000E+00 -0.38099682531E+03  0.71054292586E+03  0.59976050936E+03 0.  0.
        3    1    3    3  502    0 -0.17033923322E+03  0.23278704200E+03 -0.28763674392E+03  0.40735754314E+03  0.10100000352E+00 0.  1.
       -3    1    3    3    0  502  0.17033923322E+03 -0.23278704200E+03 -0.93360081392E+02  0.30318538272E+03  0.10100000352E+00 0. -1.
</event>
<event>
 5   0  0.9496750E-04  0.5996699E+03  0.7818609E-02  0.9906091E-01
        3   -1    0    0  501    0  0.00000000000E+00  0.00000000000E+00  0.10133869356E+04  0.10133869407E+04  0.10100000352E+00 0.  1.
       -3   -1    0    0    0  501  0.00000000000E+00  0.00000000000E+00 -0.88713374481E+02  0.88713431975E+02  0.10100000352E+00 0. -1.
    10030    2    1    2    0    0  0.00000000000E+00  0.00000000000E+00  0.92467356116E+03  0.11021003726E+04  0.59966993979E+03 0.  0.
        1    1    3    3  502    0  0.11684494673E+03  0.24876173416E+03  0.24205691964E+03  0.36623311474E+03  0.50400001928E-02 0. -1.
       -1    1    3    3    0  502 -0.11684494673E+03 -0.24876173416E+03  0.68261664152E+03  0.73586725791E+03  0.50400001928E-02 0.  1.
</event>
<event>
 5   0  0.1423430E-03  0.6000231E+03  0.7818609E-02  0.9905358E-01
        1   -1    0    0  501    0  0.00000000000E+00  0.00000000000E+00  0.19170137537E+03  0.19170137543E+03  0.50400001928E-02 0.  1.
       -1   -1    0    0    0  501  0.00000000000E+00  0.00000000000E+00 -0.46951632515E+03  0.46951632518E+03  0.50400001928E-02 0. -1.
    10030    2    1    2    0    0  0.00000000000E+00  0.00000000000E+00 -0.27781494979E+03  0.66121770061E+03  0.60002308395E+03 0.  0.
        1    1    3    3  502    0  0.92702141539E+02  0.26077421291E+03 -0.26651952346E+03  0.38422588874E+03  0.50400001928E-02 0. -1.
       -1    1    3    3    0  502 -0.92702141539E+02 -0.26077421291E+03 -0.11295426323E+02  0.27699181187E+03  0.50400001928E-02 0.  1.
</event>
<event>
 5   0  0.1418763E-03  0.6000299E+03  0.7818609E-02  0.9905344E-01
        1   -1    0    0  501    0  0.00000000000E+00  0.00000000000E+00  0.16012355449E+04  0.16012355449E+04  0.50400001928E-02 0. -1.
       -1   -1    0    0    0  501  0.00000000000E+00  0.00000000000E+00 -0.56212199696E+02  0.56212199922E+02  0.50400001928E-02 0.  1.
    10030    2    1    2    0    0  0.00000000000E+00  0.00000000000E+00  0.15450233452E+04  0.16574477448E+04  0.60002990726E+03 0.  0.
        5    1    3    3  502    0  0.41626612859E+02  0.28713952012E+03  0.98297100588E+03  0.10249077848E+04  0.46999998093E+01 0. -1.
       -5    1    3    3    0  502 -0.41626612859E+02 -0.28713952012E+03  0.56205233931E+03  0.63253996003E+03  0.46999998093E+01 0.  1.
</event>
<event>
 5   0  0.2324616E-03  0.5999518E+03  0.7818609E-02  0.9905506E-01
       -2   -1    0    0    0  501  0.00000000000E+00  0.00000000000E+00  0.48762397554E+02  0.48762397621E+02  0.25500000920E-02 0. -1.
        2   -1    0    0  501    0  0.00000000000E+00  0.00000000000E+00 -0.18453876410E+04  0.18453876410E+04  0.25500000920E-02 0.  1.
    10030    2    1    2    0    0  0.00000000000E+00  0.00000000000E+00 -0.17966252434E+04  0.18941500386E+04  0.59995175091E+03 0.  0.
        4    1    3    3  502    0 -0.23283485984E+03 -0.54152063956E+02 -0.14704438136E+04  0.14897486834E+04  0.12699999809E+01 0.  1.
       -4    1    3    3    0  502  0.23283485984E+03  0.54152063956E+02 -0.32618142985E+03  0.40440135517E+03  0.12699999809E+01 0. -1.
</event>
<event>
 5   0  0.2406307E-03  0.5989409E+03  0.7818609E-02  0.9907606E-01
       -2   -1    0    0    0  501  0.00000000000E+00  0.00000000000E+00  0.44774133663E+02  0.44774133735E+02  0.25500000920E-02 0. -1.
        2   -1    0    0  501    0  0.00000000000E+00  0.00000000000E+00 -0.20029992312E+04  0.20029992312E+04  0.25500000920E-02 0.  1.
    10030    2    1    2    0    0  0.00000000000E+00  0.00000000000E+00 -0.19582250975E+04  0.20477733649E+04  0.59894091655E+03 0.  0.
        5    1    3    3  502    0 -0.12862809434E+03  0.26459463512E+03 -0.78859904799E+03  0.84170425690E+03  0.46999998093E+01 0. -1.
       -5    1    3    3    0  502  0.12862809434E+03 -0.26459463512E+03 -0.11696260495E+04  0.12060691080E+04  0.46999998093E+01 0.  1.
</event>
<event>
 5   0  0.2421210E-03  0.5993709E+03  0.7818609E-02  0.9906712E-01
        2   -1    0    0  501    0  0.00000000000E+00  0.00000000000E+00  0.89163191880E+03  0.89163191881E+03  0.25500000920E-02 0.  1.
       -2   -1    0    0    0  501  0.00000000000E+00  0.00000000000E+00 -0.10072695871E+03  0.10072695874E+03  0.25500000920E-02 0. -1.
    10030    2    1    2    0    0  0.00000000000E+00  0.00000000000E+00  0.79090496010E+03  0.99235887755E+03  0.59937090848E+03 0.  0.
        1    1    3    3  502    0 -0.18515655239E+03 -0.19268638475E+03  0.17086450896E+03  0.31718397218E+03  0.50400001928E-02 0. -1.
       -1    1    3    3    0  502  0.18515655239E+03  0.19268638475E+03  0.62004045114E+03  0.67517490536E+03  0.50400001928E-02 0.  1.
</event>
<event>
 5   0  0.2421210E-03  0.5999961E+03  0.7818609E-02  0.9905414E-01
        2   -1    0    0  501    0  0.00000000000E+00  0.00000000000E+00  0.19482201511E+04  0.19482201511E+04  0.25500000920E-02 0. -1.
       -2   -1    0    0    0  501  0.00000000000E+00  0.00000000000E+00 -0.46195413824E+02  0.46195413894E+02  0.25500000920E-02 0.  1.
    10030    2    1    2    0    0  0.00000000000E+00  0.00000000000E+00  0.19020247372E+04  0.19944155650E+04  0.59999612056E+03 0.  0.
        1    1    3    3  502    0 -0.12294352089E+03 -0.99474975728E+02  0.17984062467E+04  0.18053463402E+04  0.50400001928E-02 0. -1.
       -1    1    3    3    0  502  0.12294352089E+03  0.99474975728E+02  0.10361849057E+03  0.18906922472E+03  0.50400001928E-02 0.  1.
</event>
<event>
 5   0  0.1418763E-03  0.6000014E+03  0.7818609E-02  0.9905403E-01
        1   -1    0    0  501    0  0.00000000000E+00  0.00000000000E+00  0.69080579156E+03  0.69080579157E+03  0.50400001928E-02 0.  1.
       -1   -1    0    0    0  501  0.00000000000E+00  0.00000000000E+00 -0.13028325288E+03  0.13028325297E+03  0.50400001928E-02 0. -1.
    10030    2    1    2    0    0  0.00000000000E+00  0.00000000000E+00  0.56052253868E+03  0.82108904455E+03  0.60000141892E+03 0.  0.
        5    1    3    3  502    0 -0.24392356415E+03 -0.16903813261E+03  0.34000190428E+03  0.45132691071E+03  0.46999998093E+01 0.  1.
       -5    1    3    3    0  502  0.24392356415E+03  0.16903813261E+03  0.22052063440E+03  0.36976213383E+03  0.46999998093E+01 0. -1.
</event>
<event>
 5   0  0.1418763E-03  0.6003393E+03  0.7818609E-02  0.9904702E-01
        1   -1    0    0  501    0  0.00000000000E+00  0.00000000000E+00  0.33873254410E+03  0.33873254414E+03  0.50400001928E-02 0.  1.
       -1   -1    0    0    0  501  0.00000000000E+00  0.00000000000E+00 -0.26599689167E+03  0.26599689172E+03  0.50400001928E-02 0. -1.
    10030    2    1    2    0    0  0.00000000000E+00  0.00000000000E+00  0.72735652429E+02  0.60472943586E+03  0.60033925031E+03 0.  0.
        5    1    3    3  502    0 -0.17689572703E+03  0.15220279728E+03  0.22648574763E+03  0.32523172296E+03  0.46999998093E+01 0.  1.
       -5    1    3    3    0  502  0.17689572703E+03 -0.15220279728E+03 -0.15375009521E+03  0.27949771290E+03  0.46999998093E+01 0. -1.
</event>
<event>
 5   0  0.2324616E-03  0.6000647E+03  0.7818609E-02  0.9905272E-01
        2   -1    0    0  501    0  0.00000000000E+00  0.00000000000E+00  0.65796971186E+03  0.65796971187E+03  0.25500000920E-02 0. -1.
       -2   -1    0    0    0  501  0.00000000000E+00  0.00000000000E+00 -0.13681392544E+03  0.13681392546E+03  0.25500000920E-02 0.  1.
    10030    2    1    2    0    0  0.00000000000E+00  0.00000000000E+00  0.52115578642E+03  0.79478363733E+03  0.60006472688E+03 0.  0.
        4    1    3    3  502    0  0.20490083175E+03 -0.34560245731E+02  0.54722979900E+03  0.58535530001E+03  0.12699999809E+01 0. -1.
       -4    1    3    3    0  502 -0.20490083175E+03  0.34560245731E+02 -0.26074012583E+02  0.20942833731E+03  0.12699999809E+01 0.  1.
</event>
<event>
 5   0  0.1392854E-03  0.5999019E+03  0.7818609E-02  0.9905610E-01
       -1   -1    0    0    0  501  0.00000000000E+00  0.00000000000E+00  0.96081436623E+03  0.96081436625E+03  0.50400001928E-02 0.  1.
        1   -1    0    0  501    0  0.00000000000E+00  0.00000000000E+00 -0.93639917736E+02  0.93639917872E+02  0.50400001928E-02 0. -1.
    10030    2    1    2    0    0  0.00000000000E+00  0.00000000000E+00  0.86717444850E+03  0.10544542841E+04  0.59990191962E+03 0.  0.
        4    1    3    3  502    0 -0.16010625087E+03  0.25309597810E+03  0.46286141080E+03  0.55130199002E+03  0.12699999809E+01 0.  1.
       -4    1    3    3    0  502  0.16010625087E+03 -0.25309597810E+03  0.40431303770E+03  0.50315229409E+03  0.12699999809E+01 0. -1.
</event>
<event>
 5   0  0.2324616E-03  0.6002665E+03  0.7818609E-02  0.9904853E-01
       -2   -1    0    0    0  501  0.00000000000E+00  0.00000000000E+00  0.16151109926E+03  0.16151109928E+03  0.25500000920E-02 0. -1.
        2   -1    0    0  501    0  0.00000000000E+00  0.00000000000E+00 -0.55773236373E+03  0.55773236373E+03  0.25500000920E-02 0.  1.
    10030    2    1    2    0    0  0.00000000000E+00  0.00000000000E+00 -0.39622126446E+03  0.71924346301E+03  0.60026649805E+03 0.  0.
        4    1    3    3  502    0 -0.74884734813E+02 -0.20992287981E+03 -0.43895622695E+03  0.49230023466E+03  0.12699999809E+01 0.  1.
       -4    1    3    3    0  502  0.74884734813E+02  0.20992287981E+03  0.42734962484E+02  0.22694322835E+03  0.12699999809E+01 0. -1.
</event>
<event>
 5   0  0.1479385E-03  0.5999117E+03  0.7818609E-02  0.9905589E-01
        1   -1    0    0  501    0  0.00000000000E+00  0.00000000000E+00  0.30638637168E+03  0.30638637172E+03  0.50400001928E-02 0.  1.
       -1   -1    0    0    0  501  0.00000000000E+00  0.00000000000E+00 -0.29366029871E+03  0.29366029875E+03  0.50400001928E-02 0. -1.
    10030    2    1    2    0    0  0.00000000000E+00  0.00000000000E+00  0.12726072965E+02  0.60004667047E+03  0.59991170501E+03 0.  0.
        3    1    3    3  502    0 -0.15089920345E+03 -0.12368796086E+03  0.23423927257E+03  0.30485624199E+03  0.10100000352E+00 0.  1.
       -3    1    3    3    0  502  0.15089920345E+03  0.12368796086E+03 -0.22151319961E+03  0.29519042848E+03  0.10100000352E+00 0. -1.
</event>
<event>
 5   0  0.1392854E-03  0.6000408E+03  0.7818609E-02  0.9905321E-01
       -1   -1    0    0    0  501  0.00000000000E+00  0.00000000000E+00  0.97175895011E+02  0.97175895141E+02  0.50400001928E-02 0. -1.
        1   -1    0    0  501    0  0.00000000000E+00  0.00000000000E+00 -0.92628148419E+03  0.92628148421E+03  0.50400001928E-02 0.  1.
    10030    2    1    2    0    0  0.00000000000E+00  0.00000000000E+00 -0.82910558918E+03  0.10234573793E+04  0.60004077305E+03 0.  0.
        4    1    3    3  502    0 -0.26482082960E+03  0.92767556574E+02 -0.23344295821E+03  0.36501112172E+03  0.12699999809E+01 0.  1.
       -4    1    3    3    0  502  0.26482082960E+03 -0.92767556574E+02 -0.59566263097E+03  0.65844625762E+03  0.12699999809E+01 0. -1.
</event>
<event>
 5   0  0.1416315E-03  0.5999278E+03  0.7818609E-02  0.9905556E-01
       -1   -1    0    0    0  501  0.00000000000E+00  0.00000000000E+00  0.24975127452E+03  0.24975127457E+03  0.50400001928E-02 0.  1.
        1   -1    0    0  501    0  0.00000000000E+00  0.00000000000E+00 -0.36027180141E+03  0.36027180145E+03  0.50400001928E-02 0. -1.
    10030    2    1    2    0    0  0.00000000000E+00  0.00000000000E+00 -0.11052052690E+03  0.61002307601E+03  0.59992780099E+03 0.  0.
        2    1    3    3  502    0 -0.17022311618E+02 -0.24651000171E+02  0.24822639241E+03  0.25002754407E+03  0.25500000920E-02 0.  1.
       -2    1    3    3    0  502  0.17022311618E+02  0.24651000171E+02 -0.35874691930E+03  0.35999553194E+03  0.25500000920E-02 0. -1.
</event>
<event>
 5   0  0.2421210E-03  0.6000056E+03  0.7818609E-02  0.9905394E-01
        2   -1    0    0  501    0  0.00000000000E+00  0.00000000000E+00  0.65777270017E+03  0.65777270018E+03  0.25500000920E-02 0.  1.
       -2   -1    0    0    0  501  0.00000000000E+00  0.00000000000E+00 -0.13682792721E+03  0.13682792723E+03  0.25500000920E-02 0. -1.
    10030    2    1    2    0    0  0.00000000000E+00  0.00000000000E+00  0.52094477297E+03  0.79460062741E+03  0.60000558380E+03 0.  0.
        1    1    3    3  502    0  0.58506877598E+02 -0.25322579672E+03  0.45892334447E+03  0.52740591102E+03  0.50400001928E-02 0.  1.
       -1    1    3    3    0  502 -0.58506877598E+02  0.25322579672E+03  0.62021428497E+02  0.26719471639E+03  0.50400001928E-02 0. -1.
</event>
<event>
 5   0  0.1423430E-03  0.6000970E+03  0.7818609E-02  0.9905205E-01
       -1   -1    0    0    0  501  0.00000000000E+00  0.00000000000E+00  0.26450695657E+03  0.26450695662E+03  0.50400001928E-02 0.  1.
        1   -1    0    0  501    0  0.00000000000E+00  0.00000000000E+00 -0.34036572109E+03  0.34036572113E+03  0.50400001928E-02 0. -1.
    10030    2    1    2    0    0  0.00000000000E+00  0.00000000000E+00 -0.75858764521E+02  0.60487267775E+03  0.60009699561E+03 0.  0.
        1    1    3    3  502    0  0.27603820118E+03 -0.82081518182E+02 -0.12282936482E+03  0.31308388178E+03  0.50400001928E-02 0. -1.
       -1    1    3    3    0  502 -0.27603820118E+03  0.82081518182E+02  0.46970600304E+02  0.29178879598E+03  0.50400001928E-02 0.  1.
</event>
<event>
 5   0  0.2421210E-03  0.6003115E+03  0.7818609E-02  0.9904760E-01
       -2   -1    0    0    0  501  0.00000000000E+00  0.00000000000E+00  0.22814773436E+03  0.22814773438E+03  0.25500000920E-02 0.  1.
        2   -1    0    0  501    0  0.00000000000E+00  0.00000000000E+00 -0.39489094300E+03  0.39489094301E+03  0.25500000920E-02 0. -1.
    10030    2    1    2    0    0  0.00000000000E+00  0.00000000000E+00 -0.16674320864E+03  0.62303867739E+03  0.60031149905E+03 0.  0.
        1    1    3    3  502    0  0.19557805671E+03 -0.16137359029E+03  0.83337308852E+02  0.26690320152E+03  0.50400001928E-02 0.  1.
       -1    1    3    3    0  502 -0.19557805671E+03  0.16137359029E+03 -0.25008051749E+03  0.35613547586E+03  0.50400001928E-02 0. -1.
</event>
<event>
 5   0  0.2313168E-03  0.6000200E+03  0.7818609E-02  0.9905365E-01
        2   -1    0    0  501    0  0.00000000000E+00  0.00000000000E+00  0.65745816904E+03  0.65745816904E+03  0.25500000920E-02 0.  1.
       -2   -1    0    0    0  501  0.00000000000E+00  0.00000000000E+00 -0.13689995132E+03  0.13689995134E+03  0.25500000920E-02 0. -1.
    10030    2    1    2    0    0  0.00000000000E+00  0.00000000000E+00  0.52055821772E+03  0.79435812039E+03  0.60001997083E+03 0.  0.
        2    1    3    3  502    0 -0.90632072048E+02 -0.61328808497E+02 -0.10953467670E+03  0.15483294430E+03  0.25500000920E-02 0. -1.
       -2    1    3    3    0  502  0.90632072048E+02  0.61328808497E+02  0.63009289442E+03  0.63952517608E+03  0.25500000920E-02 0.  1.
</event>
<event>
 5   0  0.2324616E-03  0.5999355E+03  0.7818609E-02  0.9905540E-01
        2   -1    0    0  501    0  0.00000000000E+00  0.00000000000E+00  0.10559866681E+04  0.10559866681E+04  0.25500000920E-02 0. -1.
       -2   -1    0    0    0  501  0.00000000000E+00  0.00000000000E+00 -0.85210037502E+02  0.85210037540E+02  0.25500000920E-02 0.  1.
    10030    2    1    2    0    0  0.00000000000E+00  0.00000000000E+00  0.97077663060E+03  0.11411967056E+04  0.59993554192E+03 0.  0.
        4    1    3    3  502    0  0.11269759120E+03 -0.74438080181E+02  0.99486974421E+03  0.10039966114E+04  0.12699999809E+01 0. -1.
       -4    1    3    3    0  502 -0.11269759120E+03  0.74438080181E+02 -0.24093113602E+02  0.13720009426E+03  0.12699999809E+01 0.  1.
</event>
<event>
 5   0  0.1416315E-03  0.5998649E+03  0.7818609E-02  0.9905686E-01
       -1   -1    0    0    0  501  0.00000000000E+00  0.00000000000E+00  0.13699801822E+03  0.13699801831E+03  0.50400001928E-02 0.  1.
        1   -1    0    0  501    0  0.00000000000E+00  0.00000000000E+00 -0.65664804086E+03  0.65664804088E+03  0.50400001928E-02 0. -1.
    10030    2    1    2    0    0  0.00000000000E+00  0.00000000000E+00 -0.51965002265E+03  0.79364605919E+03  0.59986491915E+03 0.  0.
        2    1    3    3  502    0 -0.44720030966E+02  0.13343575571E+03  0.90604893663E+02  0.16737451668E+03  0.25500000920E-02 0.  1.
       -2    1    3    3    0  502  0.44720030966E+02 -0.13343575571E+03 -0.61025491631E+03  0.62627154251E+03  0.25500000920E-02 0. -1.
</event>
<event>
 5   0  0.1423430E-03  0.6002396E+03  0.7818609E-02  0.9904909E-01
       -1   -1    0    0    0  501  0.00000000000E+00  0.00000000000E+00  0.14550171086E+03  0.14550171095E+03  0.50400001928E-02 0.  1.
        1   -1    0    0  501    0  0.00000000000E+00  0.00000000000E+00 -0.61904344750E+03  0.61904344752E+03  0.50400001928E-02 0. -1.
    10030    2    1    2    0    0  0.00000000000E+00  0.00000000000E+00 -0.47354173663E+03  0.76454515847E+03  0.60023955468E+03 0.  0.
        1    1    3    3  502    0 -0.66158443713E+02 -0.29007445507E+03 -0.18659560881E+03  0.35119517424E+03  0.50400001928E-02 0.  1.
       -1    1    3    3    0  502  0.66158443713E+02  0.29007445507E+03 -0.28694612783E+03  0.41334998423E+03  0.50400001928E-02 0. -1.
</event>
<event>
 5   0  0.2324616E-03  0.6000073E+03  0.7818609E-02  0.9905391E-01
       -2   -1    0    0    0  501  0.00000000000E+00  0.00000000000E+00  0.71720078924E+02  0.71720078969E+02  0.25500000920E-02 0.  1.
        2   -1    0    0  501    0  0.00000000000E+00  0.00000000000E+00 -0.12549092548E+04  0.12549092548E+04  0.25500000920E-02 0. -1.
    10030    2    1    2    0    0  0.00000000000E+00  0.00000000000E+00 -0.11831891758E+04  0.13266293337E+04  0.60000730271E+03 0.  0.
        4    1    3    3  502    0 -0.25570943063E+03  0.50192245511E+02 -0.92024203950E+03  0.95642751873E+03  0.12699999809E+01 0. -1.
       -4    1    3    3    0  502  0.25570943063E+03 -0.50192245511E+02 -0.26294713634E+03  0.37020181501E+03  0.12699999809E+01 0.  1.
</event>
<event>
 5   0  0.2406307E-03  0.6008970E+03  0.7818609E-02  0.9903547E-01
        2   -1    0    0  501    0  0.00000000000E+00  0.00000000000E+00  0.16712396311E+04  0.16712396311E+04  0.25500000920E-02 0.  1.
       -2   -1    0    0    0  501  0.00000000000E+00  0.00000000000E+00 -0.54013380884E+02  0.54013380944E+02  0.25500000920E-02 0. -1.
    10030    2    1    2    0    0  0.00000000000E+00  0.00000000000E+00  0.16172262502E+04  0.17252530121E+04  0.60089700547E+03 0.  0.
        5    1    3    3  502    0 -0.46234157685E+02  0.28043125305E+03  0.52924283251E+03  0.60074899149E+03  0.46999998093E+01 0. -1.
       -5    1    3    3    0  502  0.46234157685E+02 -0.28043125305E+03  0.10879834177E+04  0.11245040206E+04  0.46999998093E+01 0.  1.
</event>
<event>
 5   0  0.9496750E-04  0.6004145E+03  0.7818609E-02  0.9904546E-01
        4   -1    0    0  501    0  0.00000000000E+00  0.00000000000E+00  0.27894029006E+03  0.27894318117E+03  0.12699999809E+01 0. -1.
       -4   -1    0    0    0  501  0.00000000000E+00  0.00000000000E+00 -0.32308988074E+03  0.32309237678E+03  0.12699999809E+01 0.  1.
    10030    2    1    2    0    0  0.00000000000E+00  0.00000000000E+00 -0.44149590676E+02  0.60203555795E+03  0.60041454569E+03 0.  0.
        3    1    3    3  502    0  0.15473464156E+03  0.23942628655E+03  0.72289009886E+02  0.29409771699E+03  0.10100000352E+00 0. -1.
       -3    1    3    3    0  502 -0.15473464156E+03 -0.23942628655E+03 -0.11643860056E+03  0.30793784095E+03  0.10100000352E+00 0.  1.
</event>
<event>
 5   0  0.9496750E-04  0.6000547E+03  0.7818609E-02  0.9905293E-01
        3   -1    0    0  501    0  0.00000000000E+00  0.00000000000E+00  0.22671778812E+03  0.22671781062E+03  0.10100000352E+00 0. -1.
       -3   -1    0    0    0  501  0.00000000000E+00  0.00000000000E+00 -0.39704161019E+03  0.39704162304E+03  0.10100000352E+00 0.  1.
    10030    2    1    2    0    0  0.00000000000E+00  0.00000000000E+00 -0.17032382207E+03  0.62375943366E+03  0.60005468644E+03 0.  0.
        2    1    3    3  502    0 -0.14042780741E+03 -0.53227131614E+02  0.18483582205E+03  0.23815410505E+03  0.25500000920E-02 0. -1.
       -2    1    3    3    0  502  0.14042780741E+03  0.53227131614E+02 -0.35515964412E+03  0.38560532861E+03  0.25500000920E-02 0.  1.
</event>
<event>
 5   0  0.1479385E-03  0.6000837E+03  0.7818609E-02  0.9905232E-01
       -1   -1    0    0    0  501  0.00000000000E+00  0.00000000000E+00  0.67936787850E+03  0.67936787852E+03  0.50400001928E-02 0.  1.
        1   -1    0    0  501    0  0.00000000000E+00  0.00000000000E+00 -0.13251305105E+03  0.13251305114E+03  0.50400001928E-02 0. -1.
    10030    2    1    2    0    0  0.00000000000E+00  0.00000000000E+00  0.54685482745E+03  0.81188092966E+03  0.60008369553E+03 0.  0.
        3    1    3    3  502    0 -0.94650085847E+02 -0.79255088650E+02 -0.96560920204E+02  0.15672915919E+03  0.10100000352E+00 0. -1.
       -3    1    3    3    0  502  0.94650085847E+02  0.79255088650E+02  0.64341574765E+03  0.65515177047E+03  0.10100000352E+00 0.  1.
</event>
<event>
 5   0  0.2313168E-03  0.5999674E+03  0.7818609E-02  0.9905474E-01
        2   -1    0    0  501    0  0.00000000000E+00  0.00000000000E+00  0.57365325813E+02  0.57365325869E+02  0.25500000920E-02 0. -1.
       -2   -1    0    0    0  501  0.00000000000E+00  0.00000000000E+00 -0.15687217159E+04  0.15687217159E+04  0.25500000920E-02 0.  1.
    10030    2    1    2    0    0  0.00000000000E+00  0.00000000000E+00 -0.15113563900E+04  0.16260870417E+04  0.59996744041E+03 0.  0.
        2    1    3    3  502    0 -0.23255502851E+02 -0.29855652977E+03 -0.70769664629E+03  0.76844737169E+03  0.25500000920E-02 0.  1.
       -2    1    3    3    0  502  0.23255502851E+02  0.29855652977E+03 -0.80365974375E+03  0.85763967004E+03  0.25500000920E-02 0. -1.
</event>
<event>
 5   0  0.2324616E-03  0.6000876E+03  0.7818609E-02  0.9905224E-01
       -2   -1    0    0    0  501  0.00000000000E+00  0.00000000000E+00  0.64709667182E+02  0.64709667232E+02  0.25500000920E-02 0. -1.
        2   -1    0    0  501    0  0.00000000000E+00  0.00000000000E+00 -0.13912338957E+04  0.13912338957E+04  0.25500000920E-02 0.  1.
    10030    2    1    2    0    0  0.00000000000E+00  0.00000000000E+00 -0.13265242285E+04  0.14559435629E+04  0.60008760161E+03 0.  0.
        4    1    3    3  502    0 -0.43329305155E+02  0.11581884565E+03 -0.13265266555E+04  0.13322785048E+04  0.12699999809E+01 0.  1.
       -4    1    3    3    0  502  0.43329305155E+02 -0.11581884565E+03  0.24270028460E-02  0.12366505812E+03  0.12699999809E+01 0. -1.
</event>
<event>
 5   0  0.1423430E-03  0.5997639E+03  0.7818609E-02  0.9905896E-01
        1   -1    0    0  501    0  0.00000000000E+00  0.00000000000E+00  0.53784622246E+03  0.53784622248E+03  0.50400001928E-02 0. -1.
       -1   -1    0    0    0  501  0.00000000000E+00  0.00000000000E+00 -0.16720239555E+03  0.16720239563E+03  0.50400001928E-02 0.  1.
    10030    2    1    2    0    0  0.00000000000E+00  0.00000000000E+00  0.37064382690E+03  0.70504861811E+03  0.59976387644E+03 0.  0.
        1    1    3    3  502    0  0.19497782557E+03  0.93542087350E+02  0.42954857573E+03  0.48091418518E+03  0.50400001928E-02 0. -1.
       -1    1    3    3    0  502 -0.19497782557E+03 -0.93542087350E+02 -0.58904748822E+02  0.22413443294E+03  0.50400001928E-02 0.  1.
</event>
<event>
 5   0  0.1423430E-03  0.5999878E+03  0.7818609E-02  0.9905431E-01
        1   -1    0    0  501    0  0.00000000000E+00  0.00000000000E+00  0.40212851016E+03  0.40212851019E+03  0.50400001928E-02 0. -1.
       -1   -1    0    0    0  501  0.00000000000E+00  0.00000000000E+00 -0.22379991866E+03  0.22379991872E+03  0.50400001928E-02 0.  1.
    10030    2    1    2    0    0  0.00000000000E+00  0.00000000000E+00  0.17832859150E+03  0.62592842891E+03  0.59998775952E+03 0.  0.
        1    1    3    3  502    0 -0.13797783343E+03  0.26489258604E+03  0.11849318702E+03  0.32132008971E+03  0.50400001928E-02 0.  1.
       -1    1    3    3    0  502  0.13797783343E+03 -0.26489258604E+03  0.59835404475E+02  0.30460833920E+03  0.50400001928E-02 0. -1.
</event>
<event>
 5   0  0.2346281E-03  0.5999977E+03  0.7818609E-02  0.9905411E-01
       -2   -1    0    0    0  501  0.00000000000E+00  0.00000000000E+00  0.35410616405E+03  0.35410616406E+03  0.25500000920E-02 0.  1.
        2   -1    0    0  501    0  0.00000000000E+00  0.00000000000E+00 -0.25415909989E+03  0.25415909990E+03  0.25500000920E-02 0. -1.
    10030    2    1    2    0    0  0.00000000000E+00  0.00000000000E+00  0.99947064163E+02  0.60826526397E+03  0.59999767976E+03 0.  0.
        3    1    3    3  502    0 -0.71866873751E+02 -0.11099570197E+02  0.34503600592E+03  0.35261580167E+03  0.10100000352E+00 0.  1.
       -3    1    3    3    0  502  0.71866873751E+02  0.11099570197E+02 -0.24508894176E+03  0.25564946230E+03  0.10100000352E+00 0. -1.
</event>
<event>
 5   0  0.1392854E-03  0.6001688E+03  0.7818609E-02  0.9905056E-01
        1   -1    0    0  501    0  0.00000000000E+00  0.00000000000E+00  0.38901693509E+03  0.38901693513E+03  0.50400001928E-02 0. -1.
       -1   -1    0    0    0  501  0.00000000000E+00  0.00000000000E+00 -0.23148255559E+03  0.23148255564E+03  0.50400001928E-02 0.  1.
    10030    2    1    2    0    0  0.00000000000E+00  0.00000000000E+00  0.15753437951E+03  0.62049949077E+03  0.60016875736E+03 0.  0.
        4    1    3    3  502    0  0.27257197551E+03  0.12405559053E+03  0.59048884780E+02  0.30524359955E+03  0.12699999809E+01 0.  1.
       -4    1    3    3    0  502 -0.27257197551E+03 -0.12405559053E+03  0.98485494726E+02  0.31525589121E+03  0.12699999809E+01 0. -1.
</event>
<event>
 5   0  0.1423430E-03  0.5999423E+03  0.7818609E-02  0.9905526E-01
       -1   -1    0    0    0  501  0.00000000000E+00  0.00000000000E+00  0.15073519020E+03  0.15073519028E+03  0.50400001928E-02 0. -1.
        1   -1    0    0  501    0  0.00000000000E+00  0.00000000000E+00 -0.59695877480E+03  0.59695877482E+03  0.50400001928E-02 0.  1.
    10030    2    1    2    0    0  0.00000000000E+00  0.00000000000E+00 -0.44622358460E+03  0.74769396510E+03  0.59994231222E+03 0.  0.
        1    1    3    3  502    0  0.18569794657E+03 -0.22920299824E+03 -0.29097326314E+03  0.41434669258E+03  0.50400001928E-02 0.  1.
       -1    1    3    3    0  502 -0.18569794657E+03  0.22920299824E+03 -0.15525032146E+03  0.33334727252E+03  0.50400001928E-02 0. -1.
</event>
<event>
 5   0  0.9496750E-04  0.6004831E+03  0.7818609E-02  0.9904404E-01
        3   -1    0    0  501    0  0.00000000000E+00  0.00000000000E+00  0.18493722430E+03  0.18493725188E+03  0.10100000352E+00 0.  1.
       -3   -1    0    0    0  501  0.00000000000E+00  0.00000000000E+00 -0.48743552647E+03  0.48743553693E+03  0.10100000352E+00 0. -1.
    10030    2    1    2    0    0  0.00000000000E+00  0.00000000000E+00 -0.30249830217E+03  0.67237278881E+03  0.60048309245E+03 0.  0.
        2    1    3    3  502    0  0.26291665589E+03  0.13175693692E+03 -0.21898921447E+03  0.36666242571E+03  0.25500000920E-02 0.  1.
       -2    1    3    3    0  502 -0.26291665589E+03 -0.13175693692E+03 -0.83509087709E+02  0.30571036310E+03  0.25500000920E-02 0. -1.
</event>
<event>
 5   0  0.1423430E-03  0.6001695E+03  0.7818609E-02  0.9905054E-01
        1   -1    0    0  501    0  0.00000000000E+00  0.00000000000E+00  0.19712594000E+03  0.19712594006E+03  0.50400001928E-02 0.  1.
       -1   -1    0    0    0  501  0.00000000000E+00  0.00000000000E+00 -0.45681889537E+03  0.45681889540E+03  0.50400001928E-02 0. -1.
    10030    2    1    2    0    0  0.00000000000E+00  0.00000000000E+00 -0.25969295537E+03  0.65394483546E+03  0.60016949003E+03 0.  0.
        1    1    3    3  502    0 -0.68728820969E+02  0.50762910613E+01 -0.44807959120E+03  0.45334836454E+03  0.50400001928E-02 0. -1.
       -1    1    3    3    0  502  0.68728820969E+02 -0.50762910613E+01  0.18838663582E+03  0.20059647092E+03  0.50400001928E-02 0.  1.
</event>
<event>
 5   0  0.1479385E-03  0.5992914E+03  0.7818609E-02  0.9906877E-01
        1   -1    0    0  501    0  0.00000000000E+00  0.00000000000E+00  0.94271492896E+03  0.94271492897E+03  0.50400001928E-02 0.  1.
       -1   -1    0    0    0  501  0.00000000000E+00  0.00000000000E+00 -0.95243581624E+02  0.95243581758E+02  0.50400001928E-02 0. -1.
    10030    2    1    2    0    0  0.00000000000E+00  0.00000000000E+00  0.84747134734E+03  0.10379585107E+04  0.59929140278E+03 0.  0.
        3    1    3    3  502    0 -0.10039275876E+03  0.24618732149E+03  0.66310352726E+03  0.71441808582E+03  0.10100000352E+00 0. -1.
       -3    1    3    3    0  502  0.10039275876E+03 -0.24618732149E+03  0.18436782008E+03  0.32354042492E+03  0.10100000352E+00 0.  1.
</event>
<event>
 5   0  0.2406307E-03  0.5997356E+03  0.7818609E-02  0.9905955E-01
        2   -1    0    0  501    0  0.00000000000E+00  0.00000000000E+00  0.11993267229E+04  0.11993267229E+04  0.25500000920E-02 0. -1.
       -2   -1    0    0    0  501  0.00000000000E+00  0.00000000000E+00 -0.74975987995E+02  0.74975988038E+02  0.25500000920E-02 0.  1.
    10030    2    1    2    0    0  0.00000000000E+00  0.00000000000E+00  0.11243507349E+04  0.12743027109E+04  0.59973562844E+03 0.  0.
        5    1    3    3  502    0 -0.31796655812E+02 -0.17847220243E+03  0.54735626798E+02  0.18942395096E+03  0.46999998093E+01 0.  1.
       -5    1    3    3    0  502  0.31796655812E+02  0.17847220243E+03  0.10696151081E+04  0.10848787600E+04  0.46999998093E+01 0. -1.
</event>
<event>
 5   0  0.1392854E-03  0.6000097E+03  0.7818609E-02  0.9905386E-01
       -1   -1    0    0    0  501  0.00000000000E+00  0.00000000000E+00  0.71513293676E+02  0.71513293854E+02  0.50400001928E-02 0.  1.
        1   -1    0    0  501    0  0.00000000000E+00  0.00000000000E+00 -0.12585481310E+04  0.12585481310E+04  0.50400001928E-02 0. -1.
    10030    2    1    2    0    0  0.00000000000E+00  0.00000000000E+00 -0.11870348373E+04  0.13300614248E+04  0.60000974065E+03 0.  0.
        4    1    3    3  502    0 -0.26355864942E+03  0.12616354344E+03 -0.44282997838E+03  0.53054726842E+03  0.12699999809E+01 0.  1.
       -4    1    3    3    0  502  0.26355864942E+03 -0.12616354344E+03 -0.74420485890E+03  0.79951415640E+03  0.12699999809E+01 0. -1.
</event>
<event>
 5   0  0.1423430E-03  0.5999268E+03  0.7818609E-02  0.9905558E-01
       -1   -1    0    0    0  501  0.00000000000E+00  0.00000000000E+00  0.47589306187E+03  0.47589306190E+03  0.50400001928E-02 0. -1.
        1   -1    0    0  501    0  0.00000000000E+00  0.00000000000E+00 -0.18907194763E+03  0.18907194769E+03  0.50400001928E-02 0.  1.
    10030    2    1    2    0    0  0.00000000000E+00  0.00000000000E+00  0.28682111425E+03  0.66496500959E+03  0.59992675587E+03 0.  0.
        1    1    3    3  502    0  0.25657231786E+03  0.10877943095E+03  0.20403430214E+02  0.27942551580E+03  0.50400001928E-02 0. -1.
       -1    1    3    3    0  502 -0.25657231786E+03 -0.10877943095E+03  0.26641768403E+03  0.38553949380E+03  0.50400001928E-02 0.  1.
</event>
<event>
 5   0  0.1423430E-03  0.6000648E+03  0.7818609E-02  0.9905272E-01
        1   -1    0    0  501    0  0.00000000000E+00  0.00000000000E+00  0.51245703766E+03  0.51245703768E+03  0.50400001928E-02 0. -1.
       -1   -1    0    0    0  501  0.00000000000E+00  0.00000000000E+00 -0.17566243031E+03  0.17566243039E+03  0.50400001928E-02 0.  1.
    10030    2    1    2    0    0  0.00000000000E+00  0.00000000000E+00  0.33679460734E+03  0.68811946807E+03  0.60006482550E+03 0.  0.
        1    1    3    3  502    0  0.45612032791E+02  0.23548449138E+03 -0.38290142281E+02  0.24289820550E+03  0.50400001928E-02 0.  1.
       -1    1    3    3    0  502 -0.45612032791E+02 -0.23548449138E+03  0.37508474963E+03  0.44522126257E+03  0.50400001928E-02 0. -1.
</event>
<event>
 5   0  0.2406307E-03  0.6001092E+03  0.7818609E-02  0.9905180E-01
       -2   -1    0    0    0  501  0.00000000000E+00  0.00000000000E+00  0.35508101588E+03  0.35508101589E+03  0.25500000920E-02 0.  1.
        2   -1    0    0  501    0  0.00000000000E+00  0.00000000000E+00 -0.25355552238E+03  0.25355552239E+03  0.25500000920E-02 0. -1.
    10030    2    1    2    0    0  0.00000000000E+00  0.00000000000E+00  0.10152549350E+03  0.60863653828E+03  0.60010916499E+03 0.  0.
        5    1    3    3  502    0  0.28090033551E+03 -0.10154698682E+03  0.79338876046E+02  0.30908499846E+03  0.46999998093E+01 0. -1.
       -5    1    3    3    0  502 -0.28090033551E+03  0.10154698682E+03  0.22186617455E+02  0.29955153983E+03  0.46999998093E+01 0.  1.
</event>
<event>
 5   0  0.9496750E-04  0.5993902E+03  0.7818609E-02  0.9906672E-01
       -3   -1    0    0    0  501  0.00000000000E+00  0.00000000000E+00  0.12989440709E+03  0.12989444635E+03  0.10100000352E+00 0. -1.
        3   -1    0    0  501    0  0.00000000000E+00  0.00000000000E+00 -0.69146258582E+03  0.69146259319E+03  0.10100000352E+00 0.  1.
    10030    2    1    2    0    0  0.00000000000E+00  0.00000000000E+00 -0.56156817873E+03  0.82135703955E+03  0.59939016262E+03 0.  0.
        3    1    3    3  502    0  0.29704418907E+03  0.16216876084E+02 -0.23101870560E+03  0.37665354089E+03  0.10100000352E+00 0. -1.
       -3    1    3    3    0  502 -0.29704418907E+03 -0.16216876084E+02 -0.33054947313E+03  0.44470349866E+03  0.10100000352E+00 0.  1.
</event>
<event>
 5   0  0.2324616E-03  0.6001060E+03  0.7818609E-02  0.9905186E-01
        2   -1    0    0  501    0  0.00000000000E+00  0.00000000000E+00  0.21807484519E+04  0.21807484519E+04  0.25500000920E-02 0. -1.
       -2   -1    0    0    0  501  0.00000000000E+00  0.00000000000E+00 -0.41284811649E+02  0.41284811728E+02  0.25500000920E-02 0.  1.
    10030    2    1    2    0    0  0.00000000000E+00  0.00000000000E+00  0.21394636403E+04  0.22220332636E+04  0.60010595458E+03 0.  0.
        4    1    3    3  502    0  0.12416755443E+03 -0.34239151225E+01  0.20810657326E+04  0.20847698917E+04  0.12699999809E+01 0. -1.
       -4    1    3    3    0  502 -0.12416755443E+03  0.34239151225E+01  0.58397907621E+02  0.13726337196E+03  0.12699999809E+01 0.  1.
</event>
<event>
 5   0  0.1418763E-03  0.5998014E+03  0.7818609E-02  0.9905818E-01
       -1   -1    0    0    0  501  0.00000000000E+00  0.00000000000E+00  0.12084683611E+03  0.12084683622E+03  0.50400001928E-02 0.  1.
        1   -1    0    0  501    0  0.00000000000E+00  0.00000000000E+00 -0.74425145242E+03  0.74425145244E+03  0.50400001928E-02 0. -1.
    10030    2    1    2    0    0  0.00000000000E+00  0.00000000000E+00 -0.62340461631E+03  0.86509828866E+03  0.59980141164E+03 0.  0.
        5    1    3    3  502    0  0.31830820076E+02  0.82527861671E+02  0.10154920866E+03  0.13475303647E+03  0.46999998093E+01 0.  1.
       -5    1    3    3    0  502 -0.31830820076E+02 -0.82527861671E+02 -0.72495382497E+03  0.73034525219E+03  0.46999998093E+01 0. -1.
</event>
<event>
 5   0  0.2324616E-03  0.5997576E+03  0.7818609E-02  0.9905909E-01
        2   -1    0    0  501    0  0.00000000000E+00  0.00000000000E+00  0.24898137749E+04  0.24898137749E+04  0.25500000920E-02 0.  1.
       -2   -1    0    0    0  501  0.00000000000E+00  0.00000000000E+00 -0.36118076414E+02  0.36118076504E+02  0.25500000920E-02 0. -1.
    10030    2    1    2    0    0  0.00000000000E+00  0.00000000000E+00  0.24536956985E+04  0.25259318514E+04  0.59975756534E+03 0.  0.
        4    1    3    3  502    0 -0.89906658913E+02  0.20896848499E+03  0.20497218654E+04  0.20623075361E+04  0.12699999809E+01 0.  1.
       -4    1    3    3    0  502  0.89906658913E+02 -0.20896848499E+03  0.40397383313E+03  0.46362431536E+03  0.12699999809E+01 0. -1.
</event>
<event>
 5   0  0.1479385E-03  0.5997299E+03  0.7818609E-02  0.9905967E-01
        1   -1    0    0  501    0  0.00000000000E+00  0.00000000000E+00  0.57188942224E+03  0.57188942227E+03  0.50400001928E-02 0.  1.
       -1   -1    0    0    0  501  0.00000000000E+00  0.00000000000E+00 -0.15723141708E+03  0.15723141716E+03  0.50400001928E-02 0. -1.
    10030    2    1    2    0    0  0.00000000000E+00  0.00000000000E+00  0.41465800517E+03  0.72912083942E+03  0.59972988689E+03 0.  0.
        3    1    3    3  502    0  0.12670589384E+03  0.22239465282E+02 -0.12197959484E+03  0.17727946612E+03  0.10100000352E+00 0. -1.
       -3    1    3    3    0  502 -0.12670589384E+03 -0.22239465282E+02  0.53663760000E+03  0.55184137330E+03  0.10100000352E+00 0.  1.
</event>
<event>
 5   0  0.2313168E-03  0.6001121E+03  0.7818609E-02  0.9905173E-01
       -2   -1    0    0    0  501  0.00000000000E+00  0.00000000000E+00  0.79910348783E+02  0.79910348823E+02  0.25500000920E-02 0.  1.
        2   -1    0    0  501    0  0.00000000000E+00  0.00000000000E+00 -0.11266830533E+04  0.11266830533E+04  0.25500000920E-02 0. -1.
    10030    2    1    2    0    0  0.00000000000E+00  0.00000000000E+00 -0.10467727045E+04  0.12065934022E+04  0.60011210881E+03 0.  0.
        2    1    3    3  502    0  0.15261951208E+03  0.73338382943E+02 -0.25328568527E+02  0.17120972598E+03  0.25500000920E-02 0.  1.
       -2    1    3    3    0  502 -0.15261951208E+03 -0.73338382943E+02 -0.10214441360E+04  0.10353836762E+04  0.25500000920E-02 0. -1.
</event>
<event>
 5   0  0.2421210E-03  0.5999619E+03  0.7818609E-02  0.9905485E-01
        2   -1    0    0  501    0  0.00000000000E+00  0.00000000000E+00  0.17724652592E+03  0.17724652594E+03  0.25500000920E-02 0.  1.
       -2   -1    0    0    0  501  0.00000000000E+00  0.00000000000E+00 -0.50770279064E+03  0.50770279065E+03  0.25500000920E-02 0. -1.
    10030    2    1    2    0    0  0.00000000000E+00  0.00000000000E+00 -0.33045626472E+03  0.68494931658E+03  0.59996185162E+03 0.  0.
        1    1    3    3  502    0 -0.39533490857E+02  0.53395828072E+02 -0.49919785653E+03  0.50359955456E+03  0.50400001928E-02 0. -1.
       -1    1    3    3    0  502  0.39533490857E+02 -0.53395828072E+02  0.16874159181E+03  0.18134976203E+03  0.50400001928E-02 0.  1.
</event>
<event>
 5   0  0.9496750E-04  0.6000926E+03  0.7818609E-02  0.9905214E-01
        3   -1    0    0  501    0  0.00000000000E+00  0.00000000000E+00  0.13532912797E+03  0.13532916566E+03  0.10100000352E+00 0. -1.
       -3   -1    0    0    0  501  0.00000000000E+00  0.00000000000E+00 -0.66525047640E+03  0.66525048407E+03  0.10100000352E+00 0.  1.
    10030    2    1    2    0    0  0.00000000000E+00  0.00000000000E+00 -0.52992134843E+03  0.80057964973E+03  0.60009260956E+03 0.  0.
        1    1    3    3  502    0 -0.17706608989E+02  0.17386994701E+03  0.60414590559E+02  0.18491675223E+03  0.50400001928E-02 0. -1.
       -1    1    3    3    0  502  0.17706608989E+02 -0.17386994701E+03 -0.59033593898E+03  0.61566289750E+03  0.50400001928E-02 0.  1.
</event>
<event>
 5   0  0.1392854E-03  0.5998804E+03  0.7818609E-02  0.9905654E-01
        1   -1    0    0  501    0  0.00000000000E+00  0.00000000000E+00  0.66743808629E+03  0.66743808631E+03  0.50400001928E-02 0. -1.
       -1   -1    0    0    0  501  0.00000000000E+00  0.00000000000E+00 -0.13479021664E+03  0.13479021674E+03  0.50400001928E-02 0.  1.
    10030    2    1    2    0    0  0.00000000000E+00  0.00000000000E+00  0.53264786965E+03  0.80222830305E+03  0.59988040239E+03 0.  0.
        4    1    3    3  502    0  0.17419761404E+03  0.23280910841E+03  0.16789163240E+03  0.33575899515E+03  0.12699999809E+01 0. -1.
       -4    1    3    3    0  502 -0.17419761404E+03 -0.23280910841E+03  0.36475623725E+03  0.46646930789E+03  0.12699999809E+01 0.  1.
</event>
<event>
 5   0  0.2421210E-03  0.5998558E+03  0.7818609E-02  0.9905705E-01
        2   -1    0    0  501    0  0.00000000000E+00  0.00000000000E+00  0.34031592778E+03  0.34031592779E+03  0.25500000920E-02 0. -1.
       -2   -1    0    0    0  501  0.00000000000E+00  0.00000000000E+00 -0.26433300528E+03  0.26433300529E+03  0.25500000920E-02 0.  1.
    10030    2    1    2    0    0  0.00000000000E+00  0.00000000000E+00  0.75982922510E+02  0.60464893308E+03  0.59985575580E+03 0.  0.
        1    1    3    3  502    0  0.54475357643E+02 -0.12381553305E+02  0.33502536746E+03  0.33965109203E+03  0.50400001928E-02 0. -1.
       -1    1    3    3    0  502 -0.54475357643E+02  0.12381553305E+02 -0.25904244495E+03  0.26499784105E+03  0.50400001928E-02 0.  1.
</event>
<event>
 5   0  0.9496750E-04  0.6007638E+03  0.7818609E-02  0.9903823E-01
        4   -1    0    0  501    0  0.00000000000E+00  0.00000000000E+00  0.24939939100E+03  0.24940262454E+03  0.12699999809E+01 0. -1.
       -4   -1    0    0    0  501  0.00000000000E+00  0.00000000000E+00 -0.36177966903E+03  0.36178189814E+03  0.12699999809E+01 0.  1.
    10030    2    1    2    0    0  0.00000000000E+00  0.00000000000E+00 -0.11238027804E+03  0.61118452269E+03  0.60076384202E+03 0.  0.
        1    1    3    3  502    0  0.21657247412E+03  0.92607603430E+02 -0.24583575272E+03  0.34046295261E+03  0.50400001928E-02 0.  1.
       -1    1    3    3    0  502 -0.21657247412E+03 -0.92607603430E+02  0.13345547468E+03  0.27072157008E+03  0.50400001928E-02 0. -1.
</event>
<event>
 5   0  0.2324616E-03  0.6000898E+03  0.7818609E-02  0.9905220E-01
        2   -1    0    0  501    0  0.00000000000E+00  0.00000000000E+00  0.39946385462E+03  0.39946385463E+03  0.25500000920E-02 0. -1.
       -2   -1    0    0    0  501  0.00000000000E+00  0.00000000000E+00 -0.22536940056E+03  0.22536940057E+03  0.25500000920E-02 0.  1.
    10030    2    1    2    0    0  0.00000000000E+00  0.00000000000E+00  0.17409445406E+03  0.62483325520E+03  0.60008975817E+03 0.  0.
        4    1    3    3  502    0 -0.37440529628E+01  0.16679076837E+03  0.34671357224E+03  0.38476628286E+03  0.12699999809E+01 0. -1.
       -4    1    3    3    0  502  0.37440529628E+01 -0.16679076837E+03 -0.17261911818E+03  0.24006697234E+03  0.12699999809E+01 0.  1.
</event>
<event>
 5   0  0.2346281E-03  0.6000534E+03  0.7818609E-02  0.9905295E-01
       -2   -1    0    0    0  501  0.00000000000E+00  0.00000000000E+00  0.81888564288E+02  0.81888564327E+02  0.25500000920E-02 0. -1.
        2   -1    0    0  501    0  0.00000000000E+00  0.00000000000E+00 -0.10992502949E+04  0.10992502949E+04  0.25500000920E-02 0.  1.
    10030    2    1    2    0    0  0.00000000000E+00  0.00000000000E+00 -0.10173617306E+04  0.11811388593E+04  0.60005342585E+03 0.  0.
        3    1    3    3  502    0  0.18051226570E+03 -0.23430496747E+03 -0.40962329122E+03  0.50524721351E+03  0.10100000352E+00 0. -1.
       -3    1    3    3    0  502 -0.18051226570E+03  0.23430496747E+03 -0.60773843942E+03  0.67589164575E+03  0.10100000352E+00 0.  1.
</event>
<event>
 5   0  0.1416315E-03  0.6000678E+03  0.7818609E-02  0.9905265E-01
       -1   -1    0    0    0  501  0.00000000000E+00  0.00000000000E+00  0.15165182655E+03  0.15165182663E+03  0.50400001928E-02 0. -1.
        1   -1    0    0  501    0  0.00000000000E+00  0.00000000000E+00 -0.59359888271E+03  0.59359888273E+03  0.50400001928E-02 0.  1.
    10030    2    1    2    0    0  0.00000000000E+00  0.00000000000E+00 -0.44194705616E+03  0.74525070936E+03  0.60006784563E+03 0.  0.
        2    1    3    3  502    0  0.10533462866E+03 -0.15530816538E+03 -0.51171670821E+03  0.54504128256E+03  0.25500000920E-02 0.  1.
       -2    1    3    3    0  502 -0.10533462866E+03  0.15530816538E+03  0.69769652045E+02  0.20020942680E+03  0.25500000920E-02 0. -1.
</event>
<event>
 5   0  0.1392854E-03  0.5998920E+03  0.7818609E-02  0.9905630E-01
       -1   -1    0    0    0  501  0.00000000000E+00  0.00000000000E+00  0.68642502534E+03  0.68642502536E+03  0.50400001928E-02 0. -1.
        1   -1    0    0  501    0  0.00000000000E+00  0.00000000000E+00 -0.13106691993E+03  0.13106692003E+03  0.50400001928E-02 0.  1.
    10030    2    1    2    0    0  0.00000000000E+00  0.00000000000E+00  0.55535810541E+03  0.81749194539E+03  0.59989203656E+03 0.  0.
        4    1    3    3  502    0 -0.12788949188E+03 -0.12422014928E+03  0.60637615505E+03  0.63204431960E+03  0.12699999809E+01 0. -1.
       -4    1    3    3    0  502  0.12788949188E+03  0.12422014928E+03 -0.51018049646E+02  0.18544762579E+03  0.12699999809E+01 0.  1.
</event>
<event>
 5   0  0.1479385E-03  0.6000370E+03  0.7818609E-02  0.9905329E-01
        1   -1    0    0  501    0  0.00000000000E+00  0.00000000000E+00  0.20165347530E+03  0.20165347536E+03  0.50400001928E-02 0.  1.
       -1   -1    0    0    0  501  0.00000000000E+00  0.00000000000E+00 -0.44636519705E+03  0.44636519708E+03  0.50400001928E-02 0. -1.
    10030    2    1    2    0    0  0.00000000000E+00  0.00000000000E+00 -0.24471172175E+03  0.64801867244E+03  0.60003697642E+03 0.  0.
        3    1    3    3  502    0  0.94065819684E+02  0.55530906845E+02 -0.42412629759E+03  0.43796710670E+03  0.10100000352E+00 0. -1.
       -3    1    3    3    0  502 -0.94065819684E+02 -0.55530906845E+02  0.17941457583E+03  0.21005156574E+03  0.10100000352E+00 0.  1.
</event>
<event>
 5   0  0.1479385E-03  0.6003511E+03  0.7818609E-02  0.9904678E-01
        1   -1    0    0  501    0  0.00000000000E+00  0.00000000000E+00  0.25936380550E+03  0.25936380554E+03  0.50400001928E-02 0. -1.
       -1   -1    0    0    0  501  0.00000000000E+00  0.00000000000E+00 -0.34740914343E+03  0.34740914347E+03  0.50400001928E-02 0.  1.
    10030    2    1    2    0    0  0.00000000000E+00  0.00000000000E+00 -0.88045337936E+02  0.60677294901E+03  0.60035108905E+03 0.  0.
        3    1    3    3  502    0  0.96354283965E+02  0.61538715620E+02 -0.32454191079E+03  0.34409101067E+03  0.10100000352E+00 0.  1.
       -3    1    3    3    0  502 -0.96354283965E+02 -0.61538715620E+02  0.23649657286E+03  0.26268193835E+03  0.10100000352E+00 0. -1.
</event>
<event>
 5   0  0.2421210E-03  0.6000088E+03  0.7818609E-02  0.9905388E-01
        2   -1    0    0  501    0  0.00000000000E+00  0.00000000000E+00  0.72947901617E+03  0.72947901617E+03  0.25500000920E-02 0.  1.
       -2   -1    0    0    0  501  0.00000000000E+00  0.00000000000E+00 -0.12337934197E+03  0.12337934200E+03  0.25500000920E-02 0. -1.
    10030    2    1    2    0    0  0.00000000000E+00  0.00000000000E+00  0.60609967419E+03  0.85285835817E+03  0.60000880331E+03 0.  0.
        1    1    3    3  502    0 -0.28265675636E+03 -0.54838272041E+02  0.42282469931E+03  0.51154941537E+03  0.50400001928E-02 0.  1.
       -1    1    3    3    0  502  0.28265675636E+03  0.54838272041E+02  0.18327497489E+03  0.34130894280E+03  0.50400001928E-02 0. -1.
</event>
<event>
 5   0  0.2406307E-03  0.5990862E+03  0.7818609E-02  0.9907304E-01
       -2   -1    0    0    0  501  0.00000000000E+00  0.00000000000E+00  0.11896053282E+03  0.11896053285E+03  0.25500000920E-02 0. -1.
        2   -1    0    0  501    0  0.00000000000E+00  0.00000000000E+00 -0.75425078535E+03  0.75425078536E+03  0.25500000920E-02 0.  1.
    10030    2    1    2    0    0  0.00000000000E+00  0.00000000000E+00 -0.63529025253E+03  0.87321131821E+03  0.59908622191E+03 0.  0.
        5    1    3    3  502    0 -0.71304498743E+02 -0.20283299581E+03 -0.13719759615E+02  0.21548985483E+03  0.46999998093E+01 0. -1.
       -5    1    3    3    0  502  0.71304498743E+02  0.20283299581E+03 -0.62157049292E+03  0.65772146338E+03  0.46999998093E+01 0.  1.
</event>
<event>
 5   0  0.2313168E-03  0.5999716E+03  0.7818609E-02  0.9905465E-01
        2   -1    0    0  501    0  0.00000000000E+00  0.00000000000E+00  0.23134719230E+03  0.23134719231E+03  0.25500000920E-02 0. -1.
       -2   -1    0    0    0  501  0.00000000000E+00  0.00000000000E+00 -0.38898887716E+03  0.38898887717E+03  0.25500000920E-02 0.  1.
    10030    2    1    2    0    0  0.00000000000E+00  0.00000000000E+00 -0.15764168486E+03  0.62033606948E+03  0.59997161457E+03 0.  0.
        2    1    3    3  502    0 -0.81190515866E+02  0.25915715200E+03  0.52929363277E+02  0.27668727257E+03  0.25500000920E-02 0. -1.
       -2    1    3    3    0  502  0.81190515866E+02 -0.25915715200E+03 -0.21057104814E+03  0.34364879691E+03  0.25500000920E-02 0.  1.
</event>
<event>
 5   0  0.1423430E-03  0.6002021E+03  0.7818609E-02  0.9904987E-01
        1   -1    0    0  501    0  0.00000000000E+00  0.00000000000E+00  0.83309538985E+03  0.83309538987E+03  0.50400001928E-02 0.  1.
       -1   -1    0    0    0  501  0.00000000000E+00  0.00000000000E+00 -0.10810362549E+03  0.10810362561E+03  0.50400001928E-02 0. -1.
    10030    2    1    2    0    0  0.00000000000E+00  0.00000000000E+00  0.72499176437E+03  0.94119901548E+03  0.60020207292E+03 0.  0.
        1    1    3    3  502    0 -0.26971269585E+03 -0.31470280006E+02  0.16213415759E+03  0.31626381695E+03  0.50400001928E-02 0. -1.
       -1    1    3    3    0  502  0.26971269585E+03  0.31470280006E+02  0.56285760677E+03  0.62493519852E+03  0.50400001928E-02 0.  1.
</event>
<event>
 5   0  0.2313168E-03  0.6000202E+03  0.7818609E-02  0.9905364E-01
       -2   -1    0    0    0  501  0.00000000000E+00  0.00000000000E+00  0.17041249420E+03  0.17041249422E+03  0.25500000920E-02 0.  1.
        2   -1    0    0  501    0  0.00000000000E+00  0.00000000000E+00 -0.52816586879E+03  0.52816586880E+03  0.25500000920E-02 0. -1.
    10030    2    1    2    0    0  0.00000000000E+00  0.00000000000E+00 -0.35775337459E+03  0.69857836302E+03  0.60002020987E+03 0.  0.
        2    1    3    3  502    0  0.10677422661E+03  0.20234173175E+03 -0.40482420704E+03  0.46500059192E+03  0.25500000920E-02 0. -1.
       -2    1    3    3    0  502 -0.10677422661E+03 -0.20234173175E+03  0.47070832450E+02  0.23357777110E+03  0.25500000920E-02 0.  1.
</event>
<event>
 5   0  0.1423430E-03  0.5995616E+03  0.7818609E-02  0.9906316E-01
        1   -1    0    0  501    0  0.00000000000E+00  0.00000000000E+00  0.75098083584E+03  0.75098083586E+03  0.50400001928E-02 0.  1.
       -1   -1    0    0    0  501  0.00000000000E+00  0.00000000000E+00 -0.11966821706E+03  0.11966821716E+03  0.50400001928E-02 0. -1.
    10030    2    1    2    0    0  0.00000000000E+00  0.00000000000E+00  0.63131261878E+03  0.87064905302E+03  0.59956163227E+03 0.  0.
        1    1    3    3  502    0  0.87151013255E+02 -0.85416891369E+02 -0.81968879184E+02  0.14700422315E+03  0.50400001928E-02 0. -1.
       -1    1    3    3    0  502 -0.87151013255E+02  0.85416891369E+02  0.71328149796E+03  0.72364482987E+03  0.50400001928E-02 0.  1.
</event>
<event>
 5   0  0.1418763E-03  0.6001196E+03  0.7818609E-02  0.9905158E-01
       -1   -1    0    0    0  501  0.00000000000E+00  0.00000000000E+00  0.36007317579E+03  0.36007317582E+03  0.50400001928E-02 0.  1.
        1   -1    0    0  501    0  0.00000000000E+00  0.00000000000E+00 -0.25004886714E+03  0.25004886719E+03  0.50400001928E-02 0. -1.
    10030    2    1    2    0    0  0.00000000000E+00  0.00000000000E+00  0.11002430865E+03  0.61012204301E+03  0.60011962047E+03 0.  0.
        5    1    3    3  502    0 -0.96897332874E+01 -0.99660371465E+02 -0.23252273311E+03  0.25320938368E+03  0.46999998093E+01 0. -1.
       -5    1    3    3    0  502  0.96897332874E+01  0.99660371465E+02  0.34254704176E+03  0.35691265933E+03  0.46999998093E+01 0.  1.
</event>
<event>
 5   0  0.2324616E-03  0.5998994E+03  0.7818609E-02  0.9905615E-01
       -2   -1    0    0    0  501  0.00000000000E+00  0.00000000000E+00  0.10068606373E+03  0.10068606377E+03  0.25500000920E-02 0. -1.
        2   -1    0    0  501    0  0.00000000000E+00  0.00000000000E+00 -0.89356771828E+03  0.89356771828E+03  0.25500000920E-02 0.  1.
    10030    2    1    2    0    0  0.00000000000E+00  0.00000000000E+00 -0.79288165454E+03  0.99425378205E+03  0.59989937906E+03 0.  0.
        4    1    3    3  502    0 -0.13409251185E+02  0.69605540631E+02 -0.87948163641E+03  0.88233457429E+03  0.12699999809E+01 0.  1.
       -4    1    3    3    0  502  0.13409251185E+02 -0.69605540631E+02  0.86599981871E+02  0.11191920775E+03  0.12699999809E+01 0. -1.
</event>
<event>
 5   0  0.1423430E-03  0.6000835E+03  0.7818609E-02  0.9905233E-01
       -1   -1    0    0    0  501  0.00000000000E+00  0.00000000000E+00  0.91643785650E+02  0.91643785789E+02  0.50400001928E-02 0. -1.
        1   -1    0    0  501    0  0.00000000000E+00  0.00000000000E+00 -0.98233676304E+03  0.98233676305E+03  0.50400001928E-02 0.  1.
    10030    2    1    2    0    0  0.00000000000E+00  0.00000000000E+00 -0.89069297739E+03  0.10739805488E+04  0.60008352695E+03 0.  0.
        1    1    3    3  502    0 -0.18638030165E+03 -0.22640048114E+03 -0.33172734342E+03  0.44276158946E+03  0.50400001928E-02 0.  1.
       -1    1    3    3    0  502  0.18638030165E+03  0.22640048114E+03 -0.55896563397E+03  0.63121895938E+03  0.50400001928E-02 0. -1.
</event>
<event>
 5   0  0.1418763E-03  0.5999827E+03  0.7818609E-02  0.9905442E-01
        1   -1    0    0  501    0  0.00000000000E+00  0.00000000000E+00  0.34887918230E+03  0.34887918234E+03  0.50400001928E-02 0.  1.
       -1   -1    0    0    0  501  0.00000000000E+00  0.00000000000E+00 -0.25795408487E+03  0.25795408492E+03  0.50400001928E-02 0. -1.
    10030    2    1    2    0    0  0.00000000000E+00  0.00000000000E+00  0.90925097432E+02  0.60683326726E+03  0.59998270051E+03 0.  0.
        5    1    3    3  502    0 -0.10638886922E+03  0.27161795648E+03 -0.25176247713E+02  0.29283244223E+03  0.46999998093E+01 0. -1.
       -5    1    3    3    0  502  0.10638886922E+03 -0.27161795648E+03  0.11610134515E+03  0.31400082503E+03  0.46999998093E+01 0.  1.
</event>
<event>
 5   0  0.1423430E-03  0.6003298E+03  0.7818609E-02  0.9904722E-01
       -1   -1    0    0    0  501  0.00000000000E+00  0.00000000000E+00  0.71075336479E+02  0.71075336658E+02  0.50400001928E-02 0.  1.
        1   -1    0    0  501    0  0.00000000000E+00  0.00000000000E+00 -0.12676545605E+04  0.12676545606E+04  0.50400001928E-02 0. -1.
    10030    2    1    2    0    0  0.00000000000E+00  0.00000000000E+00 -0.11965792241E+04  0.13387298972E+04  0.60032982454E+03 0.  0.
        1    1    3    3  502    0 -0.11733065155E+03 -0.26383629637E+03 -0.41544531662E+03  0.50593565224E+03  0.50400001928E-02 0.  1.
       -1    1    3    3    0  502  0.11733065155E+03  0.26383629637E+03 -0.78113390745E+03  0.83279424498E+03  0.50400001928E-02 0. -1.
</event>
<event>
 5   0  0.1416315E-03  0.5996825E+03  0.7818609E-02  0.9906065E-01
        1   -1    0    0  501    0  0.00000000000E+00  0.00000000000E+00  0.14609921845E+04  0.14609921845E+04  0.50400001928E-02 0. -1.
       -1   -1    0    0    0  501  0.00000000000E+00  0.00000000000E+00 -0.61536795897E+02  0.61536796103E+02  0.50400001928E-02 0.  1.
    10030    2    1    2    0    0  0.00000000000E+00  0.00000000000E+00  0.13994553886E+04  0.15225289806E+04  0.59968250943E+03 0.  0.
        2    1    3    3  502    0 -0.13448454039E+03 -0.37980227326E+02  0.13732578696E+04  0.13803498707E+04  0.25500000920E-02 0. -1.
       -2    1    3    3    0  502  0.13448454039E+03  0.37980227326E+02  0.26197519005E+02  0.14217910986E+03  0.25500000920E-02 0.  1.
</event>
<event>
 5   0  0.1416315E-03  0.6000649E+03  0.7818609E-02  0.9905271E-01
       -1   -1    0    0    0  501  0.00000000000E+00  0.00000000000E+00  0.21047410088E+03  0.21047410094E+03  0.50400001928E-02 0.  1.
        1   -1    0    0  501    0  0.00000000000E+00  0.00000000000E+00 -0.42769863255E+03  0.42769863258E+03  0.50400001928E-02 0. -1.
    10030    2    1    2    0    0  0.00000000000E+00  0.00000000000E+00 -0.21722453167E+03  0.63817273352E+03  0.60006494703E+03 0.  0.
        2    1    3    3  502    0  0.36134184934E+02  0.61486354971E+02 -0.41855311392E+03  0.42458563370E+03  0.25500000920E-02 0. -1.
       -2    1    3    3    0  502 -0.36134184934E+02 -0.61486354971E+02  0.20132858225E+03  0.21358709982E+03  0.25500000920E-02 0.  1.
</event>
<event>
 5   0  0.9496750E-04  0.5999230E+03  0.7818609E-02  0.9905566E-01
        3   -1    0    0  501    0  0.00000000000E+00  0.00000000000E+00  0.28831146867E+03  0.28831148636E+03  0.10100000352E+00 0.  1.
       -3   -1    0    0    0  501  0.00000000000E+00  0.00000000000E+00 -0.31208222614E+03  0.31208224248E+03  0.10100000352E+00 0. -1.
    10030    2    1    2    0    0  0.00000000000E+00  0.00000000000E+00 -0.23770757468E+02  0.60039372884E+03  0.59992297899E+03 0.  0.
        3    1    3    3  502    0  0.10735442157E+03  0.24544803403E+03  0.12315446984E+03  0.29485037372E+03  0.10100000352E+00 0.  1.
       -3    1    3    3    0  502 -0.10735442157E+03 -0.24544803403E+03 -0.14692522730E+03  0.30554335512E+03  0.10100000352E+00 0. -1.
</event>
<event>
 5   0  0.9496750E-04  0.5999556E+03  0.7818609E-02  0.9905498E-01
       -3   -1    0    0    0  501  0.00000000000E+00  0.00000000000E+00  0.23591383008E+03  0.23591385170E+03  0.10100000352E+00 0.  1.
        3   -1    0    0  501    0  0.00000000000E+00  0.00000000000E+00 -0.38143866901E+03  0.38143868238E+03  0.10100000352E+00 0. -1.
    10030    2    1    2    0    0  0.00000000000E+00  0.00000000000E+00 -0.14552483893E+03  0.61735253408E+03  0.59995555885E+03 0.  0.
        3    1    3    3  502    0 -0.21446230630E+03 -0.20428007351E+03 -0.12170449765E+03  0.32021309187E+03  0.10100000352E+00 0. -1.
       -3    1    3    3    0  502  0.21446230630E+03  0.20428007351E+03 -0.23820341276E+02  0.29713944221E+03  0.10100000352E+00 0.  1.
</event>
<event>
 5   0  0.1418763E-03  0.5999473E+03  0.7818609E-02  0.9905515E-01
       -1   -1    0    0    0  501  0.00000000000E+00  0.00000000000E+00  0.13760409392E+04  0.13760409392E+04  0.50400001928E-02 0. -1.
        1   -1    0    0  501    0  0.00000000000E+00  0.00000000000E+00 -0.65393538828E+02  0.65393539022E+02  0.50400001928E-02 0.  1.
    10030    2    1    2    0    0  0.00000000000E+00  0.00000000000E+00  0.13106474004E+04  0.14414344783E+04  0.59994728680E+03 0.  0.
        5    1    3    3  502    0 -0.88140364423E+02 -0.28342206316E+03  0.55155724677E+03  0.62636592834E+03  0.46999998093E+01 0.  1.
       -5    1    3    3    0  502  0.88140364423E+02  0.28342206316E+03  0.75909015363E+03  0.81506854992E+03  0.46999998093E+01 0. -1.
</event>
<event>
 5   0  0.2421210E-03  0.5992094E+03  0.7818609E-02  0.9907048E-01
       -2   -1    0    0    0  501  0.00000000000E+00  0.00000000000E+00  0.30195506887E+03  0.30195506888E+03  0.25500000920E-02 0.  1.
        2   -1    0    0  501    0  0.00000000000E+00  0.00000000000E+00 -0.29727264023E+03  0.29727264024E+03  0.25500000920E-02 0. -1.
    10030    2    1    2    0    0  0.00000000000E+00  0.00000000000E+00  0.46824286411E+01  0.59922770911E+03  0.59920941434E+03 0.  0.
        1    1    3    3  502    0  0.24035179020E+03  0.13358367248E+03 -0.11661366765E+03  0.29868432854E+03  0.50400001928E-02 0.  1.
       -1    1    3    3    0  502 -0.24035179020E+03 -0.13358367248E+03  0.12129609629E+03  0.30054338058E+03  0.50400001928E-02 0. -1.
</event>
<event>
 5   0  0.1416315E-03  0.6001161E+03  0.7818609E-02  0.9905165E-01
       -1   -1    0    0    0  501  0.00000000000E+00  0.00000000000E+00  0.26212223776E+03  0.26212223781E+03  0.50400001928E-02 0. -1.
        1   -1    0    0  501    0  0.00000000000E+00  0.00000000000E+00 -0.34348418073E+03  0.34348418077E+03  0.50400001928E-02 0.  1.
    10030    2    1    2    0    0  0.00000000000E+00  0.00000000000E+00 -0.81361942971E+02  0.60560641858E+03  0.60011612915E+03 0.  0.
        2    1    3    3  502    0 -0.21857013765E+03  0.71136981228E+02 -0.23532236393E+03  0.32895286918E+03  0.25500000920E-02 0.  1.
       -2    1    3    3    0  502  0.21857013765E+03 -0.71136981228E+02  0.15396042096E+03  0.27665354940E+03  0.25500000920E-02 0. -1.
</event>
<event>
 5   0  0.2346281E-03  0.6000251E+03  0.7818609E-02  0.9905354E-01
        2   -1    0    0  501    0  0.00000000000E+00  0.00000000000E+00  0.36721273923E+03  0.36721273924E+03  0.25500000920E-02 0.  1.
       -2   -1    0    0    0  501  0.00000000000E+00  0.00000000000E+00 -0.24511007252E+03  0.24511007253E+03  0.25500000920E-02 0. -1.
    10030    2    1    2    0    0  0.00000000000E+00  0.00000000000E+00  0.12210266671E+03  0.61232281177E+03  0.60002513664E+03 0.  0.
        3    1    3    3  502    0 -0.42327865162E+02 -0.29675543174E+03  0.48465829070E+02  0.30365174333E+03  0.10100000352E+00 0.  1.
       -3    1    3    3    0  502  0.42327865162E+02  0.29675543174E+03  0.73636837641E+02  0.30867106844E+03  0.10100000352E+00 0. -1.
</event>
<event>
 5   0  0.1392854E-03  0.5974694E+03  0.7818609E-02  0.9910670E-01
        1   -1    0    0  501    0  0.00000000000E+00  0.00000000000E+00  0.50987186930E+03  0.50987186932E+03  0.50400001928E-02 0.  1.
       -1   -1    0    0    0  501  0.00000000000E+00  0.00000000000E+00 -0.17502914160E+03  0.17502914167E+03  0.50400001928E-02 0. -1.
    10030    2    1    2    0    0  0.00000000000E+00  0.00000000000E+00  0.33484272770E+03  0.68490101099E+03  0.59746944906E+03 0.  0.
        4    1    3    3  502    0  0.40067702200E+02 -0.18669434956E+03  0.43078108609E+03  0.47120500628E+03  0.12699999809E+01 0.  1.
       -4    1    3    3    0  502 -0.40067702200E+02  0.18669434956E+03 -0.95938358387E+02  0.21369600470E+03  0.12699999809E+01 0. -1.
</event>
<event>
 5   0  0.2421210E-03  0.6002865E+03  0.7818609E-02  0.9904812E-01
        2   -1    0    0  501    0  0.00000000000E+00  0.00000000000E+00  0.95701305971E+03  0.95701305971E+03  0.25500000920E-02 0.  1.
       -2   -1    0    0    0  501  0.00000000000E+00  0.00000000000E+00 -0.94132443766E+02  0.94132443800E+02  0.25500000920E-02 0. -1.
    10030    2    1    2    0    0  0.00000000000E+00  0.00000000000E+00  0.86288061594E+03  0.10511455035E+04  0.60028652507E+03 0.  0.
        1    1    3    3  502    0 -0.24444750422E+03 -0.13094275775E+03  0.23036870951E+03  0.36051398097E+03  0.50400001928E-02 0. -1.
       -1    1    3    3    0  502  0.24444750422E+03  0.13094275775E+03  0.63251190644E+03  0.69063152255E+03  0.50400001928E-02 0.  1.
</event>
<event>
 5   0  0.1423430E-03  0.6004489E+03  0.7818609E-02  0.9904475E-01
       -1   -1    0    0    0  501  0.00000000000E+00  0.00000000000E+00  0.14861278200E+03  0.14861278209E+03  0.50400001928E-02 0.  1.
        1   -1    0    0  501    0  0.00000000000E+00  0.00000000000E+00 -0.60650723836E+03  0.60650723838E+03  0.50400001928E-02 0. -1.
    10030    2    1    2    0    0  0.00000000000E+00  0.00000000000E+00 -0.45789445636E+03  0.75512002047E+03  0.60044892552E+03 0.  0.
        1    1    3    3  502    0 -0.16371834130E+03 -0.18972309708E+03 -0.21021218534E+02  0.25147652077E+03  0.50400001928E-02 0.  1.
       -1    1    3    3    0  502  0.16371834130E+03  0.18972309708E+03 -0.43687323782E+03  0.50364349970E+03  0.50400001928E-02 0. -1.
</event>
<event>
 5   0  0.2324616E-03  0.5999998E+03  0.7818609E-02  0.9905406E-01
        2   -1    0    0  501    0  0.00000000000E+00  0.00000000000E+00  0.54435506704E+03  0.54435506705E+03  0.25500000920E-02 0.  1.
       -2   -1    0    0    0  501  0.00000000000E+00  0.00000000000E+00 -0.16533314960E+03  0.16533314962E+03  0.25500000920E-02 0. -1.
    10030    2    1    2    0    0  0.00000000000E+00  0.00000000000E+00  0.37902191744E+03  0.70968821667E+03  0.59999979248E+03 0.  0.
        4    1    3    3  502    0  0.16970256644E+03  0.69588559073E+02  0.47030613475E+03  0.50480788613E+03  0.12699999809E+01 0.  1.
       -4    1    3    3    0  502 -0.16970256644E+03 -0.69588559073E+02 -0.91284217313E+02  0.20488033054E+03  0.12699999809E+01 0. -1.
</event>
<event>
 5   0  0.1418763E-03  0.5999853E+03  0.7818609E-02  0.9905437E-01
        1   -1    0    0  501    0  0.00000000000E+00  0.00000000000E+00  0.14947571779E+03  0.14947571787E+03  0.50400001928E-02 0.  1.
       -1   -1    0    0    0  501  0.00000000000E+00  0.00000000000E+00 -0.60207493687E+03  0.60207493689E+03  0.50400001928E-02 0. -1.
    10030    2    1    2    0    0  0.00000000000E+00  0.00000000000E+00 -0.45259921908E+03  0.75155065476E+03  0.59998527779E+03 0.  0.
        5    1    3    3  502    0 -0.41768749431E+01  0.23467951726E+02  0.14824133523E+03  0.15021908837E+03  0.46999998093E+01 0.  1.
       -5    1    3    3    0  502  0.41768749431E+01 -0.23467951726E+02 -0.60084055431E+03  0.60133156639E+03  0.46999998093E+01 0. -1.
</event>
<event>
 5   0  0.2324616E-03  0.5989251E+03  0.7818609E-02  0.9907639E-01
        2   -1    0    0  501    0  0.00000000000E+00  0.00000000000E+00  0.74326529120E+03  0.74326529121E+03  0.25500000920E-02 0. -1.
       -2   -1    0    0    0  501  0.00000000000E+00  0.00000000000E+00 -0.12065384883E+03  0.12065384886E+03  0.25500000920E-02 0.  1.
    10030    2    1    2    0    0  0.00000000000E+00  0.00000000000E+00  0.62261144237E+03  0.86391914007E+03  0.59892509749E+03 0.  0.
        4    1    3    3  502    0  0.24670104732E+03  0.16399323649E+03  0.37452742112E+03  0.47752234548E+03  0.12699999809E+01 0.  1.
       -4    1    3    3    0  502 -0.24670104732E+03 -0.16399323649E+03  0.24808402125E+03  0.38639679458E+03  0.12699999809E+01 0. -1.
</event>
<event>
 5   0  0.2406307E-03  0.6002095E+03  0.7818609E-02  0.9904972E-01
       -2   -1    0    0    0  501  0.00000000000E+00  0.00000000000E+00  0.98081159775E+02  0.98081159808E+02  0.25500000920E-02 0.  1.
        2   -1    0    0  501    0  0.00000000000E+00  0.00000000000E+00 -0.91824825829E+03  0.91824825829E+03  0.25500000920E-02 0. -1.
    10030    2    1    2    0    0  0.00000000000E+00  0.00000000000E+00 -0.82016709851E+03  0.10163294181E+04  0.60020947727E+03 0.  0.
        5    1    3    3  502    0 -0.12089836888E+03  0.23473974558E+03 -0.65146872861E+03  0.70295999752E+03  0.46999998093E+01 0. -1.
       -5    1    3    3    0  502  0.12089836888E+03 -0.23473974558E+03 -0.16869836990E+03  0.31336942058E+03  0.46999998093E+01 0.  1.
</event>
<event>
 5   0  0.2313168E-03  0.6003966E+03  0.7818609E-02  0.9904584E-01
       -2   -1    0    0    0  501  0.00000000000E+00  0.00000000000E+00  0.89982635677E+02  0.89982635713E+02  0.25500000920E-02 0. -1.
        2   -1    0    0  501    0  0.00000000000E+00  0.00000000000E+00 -0.10015156595E+04  0.10015156595E+04  0.25500000920E-02 0.  1.
    10030    2    1    2    0    0  0.00000000000E+00  0.00000000000E+00 -0.91153302380E+03  0.10914982952E+04  0.60039659803E+03 0.  0.
        2    1    3    3  502    0  0.84239758037E+01  0.88613241821E+02  0.65439620484E+02  0.11047902032E+03  0.25500000920E-02 0. -1.
       -2    1    3    3    0  502 -0.84239758037E+01 -0.88613241821E+02 -0.97697264428E+03  0.98101927487E+03  0.25500000920E-02 0.  1.
</event>
<event>
 5   0  0.2346281E-03  0.6007532E+03  0.7818609E-02  0.9903845E-01
       -2   -1    0    0    0  501  0.00000000000E+00  0.00000000000E+00  0.21499661143E+03  0.21499661145E+03  0.25500000920E-02 0.  1.
        2   -1    0    0  501    0  0.00000000000E+00  0.00000000000E+00 -0.41966292639E+03  0.41966292639E+03  0.25500000920E-02 0. -1.
    10030    2    1    2    0    0  0.00000000000E+00  0.00000000000E+00 -0.20466631496E+03  0.63465953784E+03  0.60075321763E+03 0.  0.
        3    1    3    3  502    0  0.20822009855E+03 -0.14602160786E+03  0.66526019495E+02  0.26287571373E+03  0.10100000352E+00 0.  1.
       -3    1    3    3    0  502 -0.20822009855E+03  0.14602160786E+03 -0.27119233445E+03  0.37178382411E+03  0.10100000352E+00 0. -1.
</event>
<event>
 5   0  0.2346281E-03  0.5998613E+03  0.7818609E-02  0.9905694E-01
       -2   -1    0    0    0  501  0.00000000000E+00  0.00000000000E+00  0.24056439339E+03  0.24056439340E+03  0.25500000920E-02 0.  1.
        2   -1    0    0  501    0  0.00000000000E+00  0.00000000000E+00 -0.37394719453E+03  0.37394719454E+03  0.25500000920E-02 0. -1.
    10030    2    1    2    0    0  0.00000000000E+00  0.00000000000E+00 -0.13338280114E+03  0.61451158794E+03  0.59986125068E+03 0.  0.
        3    1    3    3  502    0  0.29698487713E+03 -0.35340421295E+02 -0.43570124197E+02  0.30223720576E+03  0.10100000352E+00 0.  1.
       -3    1    3    3    0  502 -0.29698487713E+03  0.35340421295E+02 -0.89812676946E+02  0.31227438218E+03  0.10100000352E+00 0. -1.
</event>
<event>
 5   0  0.2313168E-03  0.6001692E+03  0.7818609E-02  0.9905055E-01
        2   -1    0    0  501    0  0.00000000000E+00  0.00000000000E+00  0.24369327993E+04  0.24369327993E+04  0.25500000920E-02 0.  1.
       -2   -1    0    0    0  501  0.00000000000E+00  0.00000000000E+00 -0.36952500388E+02  0.36952500476E+02  0.25500000920E-02 0. -1.
    10030    2    1    2    0    0  0.00000000000E+00  0.00000000000E+00  0.23999802989E+04  0.24738852997E+04  0.60016917722E+03 0.  0.
        2    1    3    3  502    0  0.14614551435E+03 -0.18186244154E+03  0.19779236497E+04  0.19916361171E+04  0.25500000920E-02 0.  1.
       -2    1    3    3    0  502 -0.14614551435E+03  0.18186244154E+03  0.42205664918E+03  0.48224918261E+03  0.25500000920E-02 0. -1.
</event>
<event>
 5   0  0.1418763E-03  0.5999538E+03  0.7818609E-02  0.9905502E-01
       -1   -1    0    0    0  501  0.00000000000E+00  0.00000000000E+00  0.23097836436E+03  0.23097836441E+03  0.50400001928E-02 0. -1.
        1   -1    0    0  501    0  0.00000000000E+00  0.00000000000E+00 -0.38958686291E+03  0.38958686294E+03  0.50400001928E-02 0.  1.
    10030    2    1    2    0    0  0.00000000000E+00  0.00000000000E+00 -0.15860849855E+03  0.62056522736E+03  0.59995378621E+03 0.  0.
        5    1    3    3  502    0 -0.22295014726E+03 -0.15465637295E+03  0.52909975285E+02  0.27649035668E+03  0.46999998093E+01 0. -1.
       -5    1    3    3    0  502  0.22295014726E+03  0.15465637295E+03 -0.21151847384E+03  0.34407487067E+03  0.46999998093E+01 0.  1.
</event>
<event>
 5   0  0.9496750E-04  0.5999712E+03  0.7818609E-02  0.9905466E-01
        4   -1    0    0  501    0  0.00000000000E+00  0.00000000000E+00  0.35079829425E+03  0.35080059314E+03  0.12699999809E+01 0.  1.
       -4   -1    0    0    0  501  0.00000000000E+00  0.00000000000E+00 -0.25652832113E+03  0.25653146482E+03  0.12699999809E+01 0. -1.
    10030    2    1    2    0    0  0.00000000000E+00  0.00000000000E+00  0.94269973117E+02  0.60733205796E+03  0.59997116663E+03 0.  0.
        2    1    3    3  502    0  0.89513767028E+02  0.12824764131E+03  0.30626625116E+03  0.34388833740E+03  0.25500000920E-02 0.  1.
       -2    1    3    3    0  502 -0.89513767028E+02 -0.12824764131E+03 -0.21199627805E+03  0.26344372056E+03  0.25500000920E-02 0. -1.
</event>
<event>
 5   0  0.2346281E-03  0.5999117E+03  0.7818609E-02  0.9905589E-01
       -2   -1    0    0    0  501  0.00000000000E+00  0.00000000000E+00  0.24358284860E+03  0.24358284861E+03  0.25500000920E-02 0. -1.
        2   -1    0    0  501    0  0.00000000000E+00  0.00000000000E+00 -0.36937535231E+03  0.36937535232E+03  0.25500000920E-02 0.  1.
    10030    2    1    2    0    0  0.00000000000E+00  0.00000000000E+00 -0.12579250372E+03  0.61295820094E+03  0.59991166192E+03 0.  0.
        3    1    3    3  502    0 -0.14583456343E+03 -0.25972517175E+03 -0.26792179295E+02  0.29906975074E+03  0.10100000352E+00 0.  1.
       -3    1    3    3    0  502  0.14583456343E+03  0.25972517175E+03 -0.99000324421E+02  0.31388845020E+03  0.10100000352E+00 0. -1.
</event>
<event>
 5   0  0.1392854E-03  0.6000802E+03  0.7818609E-02  0.9905240E-01
       -1   -1    0    0    0  501  0.00000000000E+00  0.00000000000E+00  0.58368217875E+03  0.58368217877E+03  0.50400001928E-02 0. -1.
        1   -1    0    0  501    0  0.00000000000E+00  0.00000000000E+00 -0.15423474705E+03  0.15423474714E+03  0.50400001928E-02 0.  1.
    10030    2    1    2    0    0  0.00000000000E+00  0.00000000000E+00  0.42944743169E+03  0.73791692590E+03  0.60008023876E+03 0.  0.
        4    1    3    3  502    0  0.22841864012E+03  0.18407602891E+03  0.13730746395E+03  0.32390432558E+03  0.12699999809E+01 0.  1.
       -4    1    3    3    0  502 -0.22841864012E+03 -0.18407602891E+03  0.29213996774E+03  0.41401260032E+03  0.12699999809E+01 0. -1.
</event>
<event>
 5   0  0.2421210E-03  0.6005379E+03  0.7818609E-02  0.9904291E-01
        2   -1    0    0  501    0  0.00000000000E+00  0.00000000000E+00  0.97351935726E+03  0.97351935727E+03  0.25500000920E-02 0. -1.
       -2   -1    0    0    0  501  0.00000000000E+00  0.00000000000E+00 -0.92613916143E+02  0.92613916178E+02  0.25500000920E-02 0.  1.
    10030    2    1    2    0    0  0.00000000000E+00  0.00000000000E+00  0.88090544112E+03  0.10661332734E+04  0.60053789268E+03 0.  0.
        1    1    3    3  502    0  0.12477634338E+03 -0.15765413133E+03  0.44527682714E+02  0.20592881184E+03  0.50400001928E-02 0.  1.
       -1    1    3    3    0  502 -0.12477634338E+03  0.15765413133E+03  0.83637775840E+03  0.86020446161E+03  0.50400001928E-02 0. -1.
</event>
<event>
 5   0  0.2313168E-03  0.6000862E+03  0.7818609E-02  0.9905227E-01
       -2   -1    0    0    0  501  0.00000000000E+00  0.00000000000E+00  0.16278256542E+03  0.16278256544E+03  0.25500000920E-02 0.  1.
        2   -1    0    0  501    0  0.00000000000E+00  0.00000000000E+00 -0.55304358899E+03  0.55304358900E+03  0.25500000920E-02 0. -1.
    10030    2    1    2    0    0  0.00000000000E+00  0.00000000000E+00 -0.39026102357E+03  0.71582615444E+03  0.60008617453E+03 0.  0.
        2    1    3    3  502    0  0.18006080687E+03  0.16643697685E+03  0.11145673194E+02  0.24545343239E+03  0.25500000920E-02 0.  1.
       -2    1    3    3    0  502 -0.18006080687E+03 -0.16643697685E+03 -0.40140669676E+03  0.47037272205E+03  0.25500000920E-02 0. -1.
</event>
<event>
 5   0  0.1416315E-03  0.6000552E+03  0.7818609E-02  0.9905292E-01
       -1   -1    0    0    0  501  0.00000000000E+00  0.00000000000E+00  0.46796516571E+02  0.46796516843E+02  0.50400001928E-02 0.  1.
        1   -1    0    0  501    0  0.00000000000E+00  0.00000000000E+00 -0.19235739877E+04  0.19235739877E+04  0.50400001928E-02 0. -1.
    10030    2    1    2    0    0  0.00000000000E+00  0.00000000000E+00 -0.18767774711E+04  0.19703705045E+04  0.60005520501E+03 0.  0.
        2    1    3    3  502    0 -0.22141934160E+03  0.22871830178E+02 -0.27783713576E+03  0.35600999911E+03  0.25500000920E-02 0.  1.
       -2    1    3    3    0  502  0.22141934160E+03 -0.22871830178E+02 -0.15989403354E+04  0.16143605054E+04  0.25500000920E-02 0. -1.
</event>
<event>
 5   0  0.2406307E-03  0.6001309E+03  0.7818609E-02  0.9905135E-01
       -2   -1    0    0    0  501  0.00000000000E+00  0.00000000000E+00  0.61501041129E+02  0.61501041182E+02  0.25500000920E-02 0. -1.
        2   -1    0    0  501    0  0.00000000000E+00  0.00000000000E+00 -0.14640284937E+04  0.14640284937E+04  0.25500000920E-02 0.  1.
    10030    2    1    2    0    0  0.00000000000E+00  0.00000000000E+00 -0.14025274526E+04  0.15255295349E+04  0.60013090788E+03 0.  0.
        5    1    3    3  502    0 -0.32102849247E+00 -0.21313061971E+03 -0.12380546440E+04  0.12562747134E+04  0.46999998093E+01 0.  1.
       -5    1    3    3    0  502  0.32102849247E+00  0.21313061971E+03 -0.16447280861E+03  0.26925482148E+03  0.46999998093E+01 0. -1.
</event>
<event>
 5   0  0.1479385E-03  0.6000803E+03  0.7818609E-02  0.9905240E-01
       -1   -1    0    0    0  501  0.00000000000E+00  0.00000000000E+00  0.25682149880E+03  0.25682149885E+03  0.50400001928E-02 0.  1.
        1   -1    0    0  501    0  0.00000000000E+00  0.00000000000E+00 -0.35053173899E+03  0.35053173903E+03  0.50400001928E-02 0. -1.
    10030    2    1    2    0    0  0.00000000000E+00  0.00000000000E+00 -0.93710240193E+02  0.60735323787E+03  0.60008028332E+03 0.  0.
        3    1    3    3  502    0 -0.53057751267E+01 -0.21500562373E+02  0.25599318035E+03  0.25694930243E+03  0.10100000352E+00 0.  1.
       -3    1    3    3    0  502  0.53057751267E+01  0.21500562373E+02 -0.34970342054E+03  0.35040393544E+03  0.10100000352E+00 0. -1.
</event>
<event>
 5   0  0.1479385E-03  0.5998986E+03  0.7818609E-02  0.9905617E-01
        1   -1    0    0  501    0  0.00000000000E+00  0.00000000000E+00  0.30869774823E+03  0.30869774828E+03  0.50400001928E-02 0. -1.
       -1   -1    0    0    0  501  0.00000000000E+00  0.00000000000E+00 -0.29144874109E+03  0.29144874114E+03  0.50400001928E-02 0.  1.
    10030    2    1    2    0    0  0.00000000000E+00  0.00000000000E+00  0.17249007141E+02  0.60014648941E+03  0.59989855851E+03 0.  0.
        3    1    3    3  502    0 -0.54227538534E+02  0.23837686861E+02 -0.28553902202E+03  0.29161859431E+03  0.10100000352E+00 0.  1.
       -3    1    3    3    0  502  0.54227538534E+02 -0.23837686861E+02  0.30278802916E+03  0.30852789510E+03  0.10100000352E+00 0. -1.
</event>
<event>
 5   0  0.1416315E-03  0.5998459E+03  0.7818609E-02  0.9905726E-01
        1   -1    0    0  501    0  0.00000000000E+00  0.00000000000E+00  0.11709046336E+03  0.11709046347E+03  0.50400001928E-02 0.  1.
       -1   -1    0    0    0  501  0.00000000000E+00  0.00000000000E+00 -0.76824172367E+03  0.76824172369E+03  0.50400001928E-02 0. -1.
    10030    2    1    2    0    0  0.00000000000E+00  0.00000000000E+00 -0.65115126031E+03  0.88533218716E+03  0.59984591174E+03 0.  0.
        2    1    3    3  502    0  0.28063485212E+02 -0.27326921663E+03 -0.14791014205E+03  0.31199524690E+03  0.25500000920E-02 0. -1.
       -2    1    3    3    0  502 -0.28063485212E+02  0.27326921663E+03 -0.50324111826E+03  0.57333694026E+03  0.25500000920E-02 0.  1.
</event>
<event>
 5   0  0.2324616E-03  0.5990600E+03  0.7818609E-02  0.9907358E-01
        2   -1    0    0  501    0  0.00000000000E+00  0.00000000000E+00  0.73049385063E+03  0.73049385064E+03  0.25500000920E-02 0.  1.
       -2   -1    0    0    0  501  0.00000000000E+00  0.00000000000E+00 -0.12281858484E+03  0.12281858487E+03  0.25500000920E-02 0. -1.
    10030    2    1    2    0    0  0.00000000000E+00  0.00000000000E+00  0.60767526579E+03  0.85331243551E+03  0.59906000028E+03 0.  0.
        4    1    3    3  502    0 -0.17894437934E+03  0.15587537190E+03  0.56415340961E+03  0.61203668594E+03  0.12699999809E+01 0.  1.
       -4    1    3    3    0  502  0.17894437934E+03 -0.15587537190E+03  0.43521856181E+02  0.24127574957E+03  0.12699999809E+01 0. -1.
</event>
<event>
 5   0  0.2313168E-03  0.5997902E+03  0.7818609E-02  0.9905841E-01
       -2   -1    0    0    0  501  0.00000000000E+00  0.00000000000E+00  0.75322150764E+02  0.75322150807E+02  0.25500000920E-02 0. -1.
        2   -1    0    0  501    0  0.00000000000E+00  0.00000000000E+00 -0.11940322234E+04  0.11940322234E+04  0.25500000920E-02 0.  1.
    10030    2    1    2    0    0  0.00000000000E+00  0.00000000000E+00 -0.11187100726E+04  0.12693543742E+04  0.59979021392E+03 0.  0.
        2    1    3    3  502    0 -0.41221679728E+02 -0.10523408086E+03 -0.11472366149E+04  0.11527902190E+04  0.25500000920E-02 0.  1.
       -2    1    3    3    0  502  0.41221679728E+02  0.10523408086E+03  0.28526542211E+02  0.11656415517E+03  0.25500000920E-02 0. -1.
</event>
<event>
 5   0  0.2324616E-03  0.6001189E+03  0.7818609E-02  0.9905159E-01
        2   -1    0    0  501    0  0.00000000000E+00  0.00000000000E+00  0.22949776042E+03  0.22949776044E+03  0.25500000920E-02 0. -1.
       -2   -1    0    0    0  501  0.00000000000E+00  0.00000000000E+00 -0.39231617761E+03  0.39231617761E+03  0.25500000920E-02 0.  1.
    10030    2    1    2    0    0  0.00000000000E+00  0.00000000000E+00 -0.16281841718E+03  0.62181393805E+03  0.60011893536E+03 0.  0.
        4    1    3    3  502    0 -0.98257160597E+02 -0.27325828356E+03 -0.15970215215E+03  0.33140752774E+03  0.12699999809E+01 0.  1.
       -4    1    3    3    0  502  0.98257160597E+02  0.27325828356E+03 -0.31162650285E+01  0.29040641031E+03  0.12699999809E+01 0. -1.
</event>
<event>
 5   0  0.2421210E-03  0.5998491E+03  0.7818609E-02  0.9905719E-01
       -2   -1    0    0    0  501  0.00000000000E+00  0.00000000000E+00  0.46091329137E+02  0.46091329207E+02  0.25500000920E-02 0.  1.
        2   -1    0    0  501    0  0.00000000000E+00  0.00000000000E+00 -0.19516626376E+04  0.19516626376E+04  0.25500000920E-02 0. -1.
    10030    2    1    2    0    0  0.00000000000E+00  0.00000000000E+00 -0.19055713084E+04  0.19977539668E+04  0.59984906456E+03 0.  0.
        1    1    3    3  502    0 -0.29040524586E+03  0.26355034092E+02 -0.11865079073E+04  0.12218145558E+04  0.50400001928E-02 0. -1.
       -1    1    3    3    0  502  0.29040524586E+03 -0.26355034092E+02 -0.71906340118E+03  0.77593941103E+03  0.50400001928E-02 0.  1.
</event>
<event>
 5   0  0.2346281E-03  0.6001015E+03  0.7818609E-02  0.9905195E-01
        2   -1    0    0  501    0  0.00000000000E+00  0.00000000000E+00  0.10179581375E+04  0.10179581375E+04  0.25500000920E-02 0.  1.
       -2   -1    0    0    0  501  0.00000000000E+00  0.00000000000E+00 -0.88442203401E+02  0.88442203437E+02  0.25500000920E-02 0. -1.
    10030    2    1    2    0    0  0.00000000000E+00  0.00000000000E+00  0.92951593412E+03  0.11064003410E+04  0.60010152699E+03 0.  0.
        3    1    3    3  502    0 -0.27665786314E+03 -0.46104898566E+02  0.66130948756E+03  0.71832825605E+03  0.10100000352E+00 0.  1.
       -3    1    3    3    0  502  0.27665786314E+03  0.46104898566E+02  0.26820644657E+03  0.38807208491E+03  0.10100000352E+00 0. -1.
</event>
<event>
 5   0  0.1423430E-03  0.6005226E+03  0.7818609E-02  0.9904322E-01
       -1   -1    0    0    0  501  0.00000000000E+00  0.00000000000E+00  0.19751925368E+03  0.19751925374E+03  0.50400001928E-02 0.  1.
        1   -1    0    0  501    0  0.00000000000E+00  0.00000000000E+00 -0.45644594415E+03  0.45644594418E+03  0.50400001928E-02 0. -1.
    10030    2    1    2    0    0  0.00000000000E+00  0.00000000000E+00 -0.25892669048E+03  0.65396519792E+03  0.60052264658E+03 0.  0.
        1    1    3    3  502    0  0.39560063420E+02  0.27355626312E+03 -0.17265338323E+01  0.27640732380E+03  0.50400001928E-02 0.  1.
       -1    1    3    3    0  502 -0.39560063420E+02 -0.27355626312E+03 -0.25720015664E+03  0.37755787412E+03  0.50400001928E-02 0. -1.
</event>
<event>
 5   0  0.2313168E-03  0.6034738E+03  0.7818609E-02  0.9898225E-01
        2   -1    0    0  501    0  0.00000000000E+00  0.00000000000E+00  0.97583700105E+03  0.97583700105E+03  0.25500000920E-02 0. -1.
       -2   -1    0    0    0  501  0.00000000000E+00  0.00000000000E+00 -0.93299543433E+02  0.93299543468E+02  0.25500000920E-02 0.  1.
    10030    2    1    2    0    0  0.00000000000E+00  0.00000000000E+00  0.88253745762E+03  0.10691365445E+04  0.60347376640E+03 0.  0.
        2    1    3    3  502    0  0.11533713275E+03 -0.57973568016E+02 -0.41909562961E+02  0.13572030155E+03  0.25500000920E-02 0.  1.
       -2    1    3    3    0  502 -0.11533713275E+03  0.57973568016E+02  0.92444702058E+03  0.93341624297E+03  0.25500000920E-02 0. -1.
</event>
<event>
 5   0  0.1416315E-03  0.5998731E+03  0.7818609E-02  0.9905669E-01
        1   -1    0    0  501    0  0.00000000000E+00  0.00000000000E+00  0.93054571888E+03  0.93054571889E+03  0.50400001928E-02 0. -1.
       -1   -1    0    0    0  501  0.00000000000E+00  0.00000000000E+00 -0.96676548334E+02  0.96676548465E+02  0.50400001928E-02 0.  1.
    10030    2    1    2    0    0  0.00000000000E+00  0.00000000000E+00  0.83386917055E+03  0.10272222674E+04  0.59987314740E+03 0.  0.
        2    1    3    3  502    0 -0.95911773487E+02  0.28354706542E+03  0.44960245952E+03  0.54012996419E+03  0.25500000920E-02 0. -1.
       -2    1    3    3    0  502  0.95911773487E+02 -0.28354706542E+03  0.38426671103E+03  0.48709230317E+03  0.25500000920E-02 0.  1.
</event>
<event>
 5   0  0.2313168E-03  0.6007720E+03  0.7818609E-02  0.9903806E-01
       -2   -1    0    0    0  501  0.00000000000E+00  0.00000000000E+00  0.60960816425E+03  0.60960816426E+03  0.25500000920E-02 0. -1.
        2   -1    0    0  501    0  0.00000000000E+00  0.00000000000E+00 -0.14801595712E+03  0.14801595714E+03  0.25500000920E-02 0.  1.
    10030    2    1    2    0    0  0.00000000000E+00  0.00000000000E+00  0.46159220713E+03  0.75762412140E+03  0.60077195643E+03 0.  0.
        2    1    3    3  502    0 -0.45904192923E+02  0.16943055375E+03  0.53819515932E+03  0.56609887564E+03  0.25500000920E-02 0. -1.
       -2    1    3    3    0  502  0.45904192923E+02 -0.16943055375E+03 -0.76602952188E+02  0.19152524576E+03  0.25500000920E-02 0.  1.
</event>
<event>
 5   0  0.2324616E-03  0.5999593E+03  0.7818609E-02  0.9905491E-01
        2   -1    0    0  501    0  0.00000000000E+00  0.00000000000E+00  0.78588620486E+03  0.78588620486E+03  0.25500000920E-02 0.  1.
       -2   -1    0    0    0  501  0.00000000000E+00  0.00000000000E+00 -0.11450485384E+03  0.11450485386E+03  0.25500000920E-02 0. -1.
    10030    2    1    2    0    0  0.00000000000E+00  0.00000000000E+00  0.67138135102E+03  0.90039105873E+03  0.59995928206E+03 0.  0.
        4    1    3    3  502    0  0.42030701631E+02  0.56368402546E+02 -0.10195901789E+03  0.12385972273E+03  0.12699999809E+01 0. -1.
       -4    1    3    3    0  502 -0.42030701631E+02 -0.56368402546E+02  0.77334036892E+03  0.77653133600E+03  0.12699999809E+01 0.  1.
</event>
<event>
 5   0  0.1392854E-03  0.5996954E+03  0.7818609E-02  0.9906038E-01
       -1   -1    0    0    0  501  0.00000000000E+00  0.00000000000E+00  0.21653947541E+03  0.21653947547E+03  0.50400001928E-02 0. -1.
        1   -1    0    0  501    0  0.00000000000E+00  0.00000000000E+00 -0.41520674701E+03  0.41520674704E+03  0.50400001928E-02 0.  1.
    10030    2    1    2    0    0  0.00000000000E+00  0.00000000000E+00 -0.19866727161E+03  0.63174622251E+03  0.59969542673E+03 0.  0.
        4    1    3    3  502    0  0.81146670406E+02  0.88474840693E+02 -0.38878090381E+03  0.40689652692E+03  0.12699999809E+01 0.  1.
       -4    1    3    3    0  502 -0.81146670406E+02 -0.88474840693E+02  0.19011363221E+03  0.22484969558E+03  0.12699999809E+01 0. -1.
</event>
<event>
 5   0  0.1479385E-03  0.6002156E+03  0.7818609E-02  0.9904959E-01
       -1   -1    0    0    0  501  0.00000000000E+00  0.00000000000E+00  0.12654166271E+03  0.12654166281E+03  0.50400001928E-02 0.  1.
        1   -1    0    0  501    0  0.00000000000E+00  0.00000000000E+00 -0.71173937705E+03  0.71173937707E+03  0.50400001928E-02 0. -1.
    10030    2    1    2    0    0  0.00000000000E+00  0.00000000000E+00 -0.58519771435E+03  0.83828103988E+03  0.60021557539E+03 0.  0.
        3    1    3    3  502    0 -0.47961552576E+02  0.17363138004E+03 -0.62783886851E+03  0.65316906056E+03  0.10100000352E+00 0. -1.
       -3    1    3    3    0  502  0.47961552576E+02 -0.17363138004E+03  0.42641154161E+02  0.18511197932E+03  0.10100000352E+00 0.  1.
</event>
<event>
 5   0  0.2346281E-03  0.6000064E+03  0.7818609E-02  0.9905393E-01
       -2   -1    0    0    0  501  0.00000000000E+00  0.00000000000E+00  0.65530276256E+02  0.65530276305E+02  0.25500000920E-02 0.  1.
        2   -1    0    0  501    0  0.00000000000E+00  0.00000000000E+00 -0.13734400545E+04  0.13734400545E+04  0.25500000920E-02 0. -1.
    10030    2    1    2    0    0  0.00000000000E+00  0.00000000000E+00 -0.13079097782E+04  0.14389703308E+04  0.60000635406E+03 0.  0.
        3    1    3    3  502    0 -0.19419216050E+03 -0.20005863083E+03 -0.91958672947E+03  0.96092341744E+03  0.10100000352E+00 0. -1.
       -3    1    3    3    0  502  0.19419216050E+03  0.20005863083E+03 -0.38832304877E+03  0.47804691336E+03  0.10100000352E+00 0.  1.
</event>
<event>
 5   0  0.1418763E-03  0.6000610E+03  0.7818609E-02  0.9905279E-01
       -1   -1    0    0    0  501  0.00000000000E+00  0.00000000000E+00  0.75365455878E+02  0.75365456047E+02  0.50400001928E-02 0. -1.
        1   -1    0    0  501    0  0.00000000000E+00  0.00000000000E+00 -0.11944240116E+04  0.11944240116E+04  0.50400001928E-02 0.  1.
    10030    2    1    2    0    0  0.00000000000E+00  0.00000000000E+00 -0.11190585557E+04  0.12697894676E+04  0.60006103109E+03 0.  0.
        5    1    3    3  502    0  0.18872917898E+03 -0.60527309986E+01 -0.66242315728E+02  0.20016361543E+03  0.46999998093E+01 0. -1.
       -5    1    3    3    0  502 -0.18872917898E+03  0.60527309986E+01 -0.10528162400E+04  0.10696258522E+04  0.46999998093E+01 0.  1.
</event>
<event>
 5   0  0.1392854E-03  0.5998308E+03  0.7818609E-02  0.9905757E-01
        1   -1    0    0  501    0  0.00000000000E+00  0.00000000000E+00  0.40689702444E+03  0.40689702447E+03  0.50400001928E-02 0.  1.
       -1   -1    0    0    0  501  0.00000000000E+00  0.00000000000E+00 -0.22106145765E+03  0.22106145770E+03  0.50400001928E-02 0. -1.
    10030    2    1    2    0    0  0.00000000000E+00  0.00000000000E+00  0.18583556679E+03  0.62795848217E+03  0.59983080735E+03 0.  0.
        4    1    3    3  502    0  0.15423618645E+03 -0.18695409395E+03 -0.92021081664E+02  0.25924915974E+03  0.12699999809E+01 0. -1.
       -4    1    3    3    0  502 -0.15423618645E+03  0.18695409395E+03  0.27785664846E+03  0.36870932243E+03  0.12699999809E+01 0.  1.
</event>
<event>
 5   0  0.2324616E-03  0.6005254E+03  0.7818609E-02  0.9904317E-01
        2   -1    0    0  501    0  0.00000000000E+00  0.00000000000E+00  0.20361950935E+04  0.20361950935E+04  0.25500000920E-02 0. -1.
       -2   -1    0    0    0  501  0.00000000000E+00  0.00000000000E+00 -0.44277527088E+02  0.44277527161E+02  0.25500000920E-02 0.  1.
    10030    2    1    2    0    0  0.00000000000E+00  0.00000000000E+00  0.19919175664E+04  0.20804726207E+04  0.60052538160E+03 0.  0.
        4    1    3    3  502    0  0.15099879242E+01 -0.10116608640E+03  0.16567492959E+02  0.10253268662E+03  0.12699999809E+01 0.  1.
       -4    1    3    3    0  502 -0.15099879242E+01  0.10116608640E+03  0.19753500735E+04  0.19779399340E+04  0.12699999809E+01 0. -1.
</event>
<event>
 5   0  0.2421210E-03  0.6004466E+03  0.7818609E-02  0.9904480E-01
        2   -1    0    0  501    0  0.00000000000E+00  0.00000000000E+00  0.12393916178E+04  0.12393916178E+04  0.25500000920E-02 0. -1.
       -2   -1    0    0    0  501  0.00000000000E+00  0.00000000000E+00 -0.72724414482E+02  0.72724414527E+02  0.25500000920E-02 0.  1.
    10030    2    1    2    0    0  0.00000000000E+00  0.00000000000E+00  0.11666672033E+04  0.13121160324E+04  0.60044659963E+03 0.  0.
        1    1    3    3  502    0 -0.22173080690E+03  0.45361462478E+02  0.15227272666E+03  0.27278049108E+03  0.50400001928E-02 0.  1.
       -1    1    3    3    0  502  0.22173080690E+03 -0.45361462478E+02  0.10143944767E+04  0.10393355413E+04  0.50400001928E-02 0. -1.
</event>
<event>
 5   0  0.1416315E-03  0.6002267E+03  0.7818609E-02  0.9904936E-01
        1   -1    0    0  501    0  0.00000000000E+00  0.00000000000E+00  0.23260037989E+03  0.23260037994E+03  0.50400001928E-02 0.  1.
       -1   -1    0    0    0  501  0.00000000000E+00  0.00000000000E+00 -0.38722212588E+03  0.38722212591E+03  0.50400001928E-02 0. -1.
    10030    2    1    2    0    0  0.00000000000E+00  0.00000000000E+00 -0.15462174599E+03  0.61982250586E+03  0.60022666921E+03 0.  0.
        2    1    3    3  502    0 -0.83102293987E+02  0.19286974660E+03 -0.29870065619E+03  0.36513944245E+03  0.25500000920E-02 0. -1.
       -2    1    3    3    0  502  0.83102293987E+02 -0.19286974660E+03  0.14407891019E+03  0.25468306341E+03  0.25500000920E-02 0.  1.
</event>
<event>
 5   0  0.2313168E-03  0.5998044E+03  0.7818609E-02  0.9905812E-01
       -2   -1    0    0    0  501  0.00000000000E+00  0.00000000000E+00  0.81152153075E+02  0.81152153115E+02  0.25500000920E-02 0. -1.
        2   -1    0    0  501    0  0.00000000000E+00  0.00000000000E+00 -0.11083050559E+04  0.11083050559E+04  0.25500000920E-02 0.  1.
    10030    2    1    2    0    0  0.00000000000E+00  0.00000000000E+00 -0.10271529028E+04  0.11894572090E+04  0.59980444004E+03 0.  0.
        2    1    3    3  502    0 -0.22260535653E+03  0.17058424581E+03 -0.30287333512E+03  0.41277643683E+03  0.25500000920E-02 0. -1.
       -2    1    3    3    0  502  0.22260535653E+03 -0.17058424581E+03 -0.72427956767E+03  0.77668077214E+03  0.25500000920E-02 0.  1.
</event>
<event>
 5   0  0.9496750E-04  0.5997706E+03  0.7818609E-02  0.9905882E-01
        3   -1    0    0  501    0  0.00000000000E+00  0.00000000000E+00  0.30371665038E+03  0.30371666717E+03  0.10100000352E+00 0.  1.
       -3   -1    0    0    0  501  0.00000000000E+00  0.00000000000E+00 -0.29610225737E+03  0.29610227459E+03  0.10100000352E+00 0. -1.
    10030    2    1    2    0    0  0.00000000000E+00  0.00000000000E+00  0.76143930132E+01  0.59981894177E+03  0.59977060942E+03 0.  0.
        4    1    3    3  502    0 -0.13472886835E+02 -0.29022327837E+03 -0.70485485109E+02  0.29896636349E+03  0.12699999809E+01 0. -1.
       -4    1    3    3    0  502  0.13472886835E+02  0.29022327837E+03  0.78099878123E+02  0.30085257827E+03  0.12699999809E+01 0.  1.
</event>
<event>
 5   0  0.2421210E-03  0.6001332E+03  0.7818609E-02  0.9905130E-01
        2   -1    0    0  501    0  0.00000000000E+00  0.00000000000E+00  0.45372980710E+03  0.45372980711E+03  0.25500000920E-02 0. -1.
       -2   -1    0    0    0  501  0.00000000000E+00  0.00000000000E+00 -0.19844399712E+03  0.19844399714E+03  0.25500000920E-02 0.  1.
    10030    2    1    2    0    0  0.00000000000E+00  0.00000000000E+00  0.25528580998E+03  0.65217380425E+03  0.60013317370E+03 0.  0.
        1    1    3    3  502    0  0.26787586614E+03 -0.10979836098E+03  0.21339565628E+03  0.35965381393E+03  0.50400001928E-02 0. -1.
       -1    1    3    3    0  502 -0.26787586614E+03  0.10979836098E+03  0.41890153697E+02  0.29251999032E+03  0.50400001928E-02 0.  1.
</event>
<event>
 5   0  0.2346281E-03  0.6000765E+03  0.7818609E-02  0.9905247E-01
       -2   -1    0    0    0  501  0.00000000000E+00  0.00000000000E+00  0.15599613754E+03  0.15599613756E+03  0.25500000920E-02 0.  1.
        2   -1    0    0  501    0  0.00000000000E+00  0.00000000000E+00 -0.57708455594E+03  0.57708455595E+03  0.25500000920E-02 0. -1.
    10030    2    1    2    0    0  0.00000000000E+00  0.00000000000E+00 -0.42108841841E+03  0.73308069351E+03  0.60007653435E+03 0.  0.
        3    1    3    3  502    0 -0.15179741879E+03  0.24358963609E+03 -0.10373170973E+03  0.30518624635E+03  0.10100000352E+00 0.  1.
       -3    1    3    3    0  502  0.15179741879E+03 -0.24358963609E+03 -0.31735670868E+03  0.42789444715E+03  0.10100000352E+00 0. -1.
</event>
<event>
 5   0  0.2313168E-03  0.6003414E+03  0.7818609E-02  0.9904698E-01
       -2   -1    0    0    0  501  0.00000000000E+00  0.00000000000E+00  0.54307020290E+02  0.54307020350E+02  0.25500000920E-02 0. -1.
        2   -1    0    0  501    0  0.00000000000E+00  0.00000000000E+00 -0.16591308666E+04  0.16591308666E+04  0.25500000920E-02 0.  1.
    10030    2    1    2    0    0  0.00000000000E+00  0.00000000000E+00 -0.16048238463E+04  0.17134378870E+04  0.60034141516E+03 0.  0.
        2    1    3    3  502    0 -0.83499984025E+02  0.13696356070E+03 -0.15265407354E+04  0.15349455629E+04  0.25500000920E-02 0.  1.
       -2    1    3    3    0  502  0.83499984025E+02 -0.13696356070E+03 -0.78283110976E+02  0.17849232410E+03  0.25500000920E-02 0. -1.
</event>
<event>
 5   0  0.1418763E-03  0.5996537E+03  0.7818609E-02  0.9906125E-01
        1   -1    0    0  501    0  0.00000000000E+00  0.00000000000E+00  0.21145533324E+03  0.21145533330E+03  0.50400001928E-02 0. -1.
       -1   -1    0    0    0  501  0.00000000000E+00  0.00000000000E+00 -0.42513064091E+03  0.42513064094E+03  0.50400001928E-02 0.  1.
    10030    2    1    2    0    0  0.00000000000E+00  0.00000000000E+00 -0.21367530767E+03  0.63658597424E+03  0.59965370464E+03 0.  0.
        5    1    3    3  502    0  0.10042190660E+03  0.21952012152E+03 -0.29555112002E+03  0.38163621110E+03  0.46999998093E+01 0.  1.
       -5    1    3    3    0  502 -0.10042190660E+03 -0.21952012152E+03  0.81875812351E+02  0.25494976314E+03  0.46999998093E+01 0. -1.
</event>
<event>
 5   0  0.2324616E-03  0.5999450E+03  0.7818609E-02  0.9905520E-01
       -2   -1    0    0    0  501  0.00000000000E+00  0.00000000000E+00  0.41273541337E+02  0.41273541415E+02  0.25500000920E-02 0.  1.
        2   -1    0    0  501    0  0.00000000000E+00  0.00000000000E+00 -0.21801740701E+04  0.21801740701E+04  0.25500000920E-02 0. -1.
    10030    2    1    2    0    0  0.00000000000E+00  0.00000000000E+00 -0.21389005288E+04  0.22214476116E+04  0.59994501313E+03 0.  0.
        4    1    3    3  502    0  0.13682886486E+03 -0.14388535098E+03 -0.23689275585E+03  0.30910341823E+03  0.12699999809E+01 0.  1.
       -4    1    3    3    0  502 -0.13682886486E+03  0.14388535098E+03 -0.19020077730E+04  0.19123441933E+04  0.12699999809E+01 0. -1.
</event>
<event>
 5   0  0.1423430E-03  0.5999167E+03  0.7818609E-02  0.9905579E-01
       -1   -1    0    0    0  501  0.00000000000E+00  0.00000000000E+00  0.21231609879E+03  0.21231609885E+03  0.50400001928E-02 0.  1.
        1   -1    0    0  501    0  0.00000000000E+00  0.00000000000E+00 -0.42377853089E+03  0.42377853092E+03  0.50400001928E-02 0. -1.
    10030    2    1    2    0    0  0.00000000000E+00  0.00000000000E+00 -0.21146243210E+03  0.63609462976E+03  0.59991667574E+03 0.  0.
        1    1    3    3  502    0  0.26116923445E+02 -0.11185842854E+03  0.18807200543E+03  0.22037577221E+03  0.50400001928E-02 0.  1.
       -1    1    3    3    0  502 -0.26116923445E+02  0.11185842854E+03 -0.39953443753E+03  0.41571885755E+03  0.50400001928E-02 0. -1.
</event>
<event>
 5   0  0.1423430E-03  0.6000937E+03  0.7818609E-02  0.9905212E-01
        1   -1    0    0  501    0  0.00000000000E+00  0.00000000000E+00  0.35593275134E+03  0.35593275138E+03  0.50400001928E-02 0. -1.
       -1   -1    0    0    0  501  0.00000000000E+00  0.00000000000E+00 -0.25293576546E+03  0.25293576551E+03  0.50400001928E-02 0.  1.
    10030    2    1    2    0    0  0.00000000000E+00  0.00000000000E+00  0.10299698589E+03  0.60886851689E+03  0.60009373580E+03 0.  0.
        1    1    3    3  502    0 -0.29085467905E+02 -0.56561539782E+02  0.34901467855E+03  0.35476248124E+03  0.50400001928E-02 0. -1.
       -1    1    3    3    0  502  0.29085467905E+02  0.56561539782E+02 -0.24601769266E+03  0.25410603565E+03  0.50400001928E-02 0.  1.
</event>
<event>
 5   0  0.2346281E-03  0.5997245E+03  0.7818609E-02  0.9905978E-01
        2   -1    0    0  501    0  0.00000000000E+00  0.00000000000E+00  0.89892988088E+03  0.89892988088E+03  0.25500000920E-02 0.  1.
       -2   -1    0    0    0  501  0.00000000000E+00  0.00000000000E+00 -0.10002713625E+03  0.10002713628E+03  0.25500000920E-02 0. -1.
    10030    2    1    2    0    0  0.00000000000E+00  0.00000000000E+00  0.79890274463E+03  0.99895701716E+03  0.59972454240E+03 0.  0.
        3    1    3    3  502    0 -0.24103444925E+02 -0.10193155937E+03 -0.68564966901E+02  0.12518859269E+03  0.10100000352E+00 0. -1.
       -3    1    3    3    0  502  0.24103444925E+02  0.10193155937E+03  0.86746771153E+03  0.87376842447E+03  0.10100000352E+00 0.  1.
</event>
<event>
 5   0  0.1418763E-03  0.6004588E+03  0.7818609E-02  0.9904455E-01
       -1   -1    0    0    0  501  0.00000000000E+00  0.00000000000E+00  0.11632890133E+04  0.11632890133E+04  0.50400001928E-02 0.  1.
        1   -1    0    0  501    0  0.00000000000E+00  0.00000000000E+00 -0.77485197416E+02  0.77485197580E+02  0.50400001928E-02 0. -1.
    10030    2    1    2    0    0  0.00000000000E+00  0.00000000000E+00  0.10858038159E+04  0.12407742109E+04  0.60045875447E+03 0.  0.
        5    1    3    3  502    0 -0.12753027528E+03  0.23256142058E+03  0.83342308812E+03  0.87462272967E+03  0.46999998093E+01 0.  1.
       -5    1    3    3    0  502  0.12753027528E+03 -0.23256142058E+03  0.25238072776E+03  0.36615148121E+03  0.46999998093E+01 0. -1.
</event>
<event>
 5   0  0.1479385E-03  0.5998484E+03  0.7818609E-02  0.9905721E-01
       -1   -1    0    0    0  501  0.00000000000E+00  0.00000000000E+00  0.49370219913E+02  0.49370220170E+02  0.50400001928E-02 0.  1.
        1   -1    0    0  501    0  0.00000000000E+00  0.00000000000E+00 -0.18220405056E+04  0.18220405056E+04  0.50400001928E-02 0. -1.
    10030    2    1    2    0    0  0.00000000000E+00  0.00000000000E+00 -0.17726702857E+04  0.18714107257E+04  0.59984844985E+03 0.  0.
        3    1    3    3  502    0  0.27491603232E+03 -0.34566838950E+02 -0.52815697860E+03  0.59642559923E+03  0.10100000352E+00 0.  1.
       -3    1    3    3    0  502 -0.27491603232E+03  0.34566838950E+02 -0.12445133071E+04  0.12749851265E+04  0.10100000352E+00 0. -1.
</event>
<event>
 5   0  0.1392854E-03  0.6000500E+03  0.7818609E-02  0.9905302E-01
        1   -1    0    0  501    0  0.00000000000E+00  0.00000000000E+00  0.29882763143E+03  0.29882763147E+03  0.50400001928E-02 0. -1.
       -1   -1    0    0    0  501  0.00000000000E+00  0.00000000000E+00 -0.30122721053E+03  0.30122721057E+03  0.50400001928E-02 0.  1.
    10030    2    1    2    0    0  0.00000000000E+00  0.00000000000E+00 -0.23995791018E+01  0.60005484204E+03  0.60005004414E+03 0.  0.
        4    1    3    3  502    0  0.18077032416E+03 -0.38901378248E+01  0.23821882784E+03  0.29907000201E+03  0.12699999809E+01 0. -1.
       -4    1    3    3    0  502 -0.18077032416E+03  0.38901378248E+01 -0.24061840694E+03  0.30098484003E+03  0.12699999809E+01 0.  1.
</event>
<event>
 5   0  0.1418763E-03  0.6011894E+03  0.7818609E-02  0.9902941E-01
        1   -1    0    0  501    0  0.00000000000E+00  0.00000000000E+00  0.16814725083E+03  0.16814725091E+03  0.50400001928E-02 0.  1.
       -1   -1    0    0    0  501  0.00000000000E+00  0.00000000000E+00 -0.53736935497E+03  0.53736935499E+03  0.50400001928E-02 0. -1.
    10030    2    1    2    0    0  0.00000000000E+00  0.00000000000E+00 -0.36922210413E+03  0.70551660590E+03  0.60118942025E+03 0.  0.
        5    1    3    3  502    0 -0.20188573547E+03  0.20359220604E+02  0.75592941856E+02  0.21658423513E+03  0.46999998093E+01 0.  1.
       -5    1    3    3    0  502  0.20188573547E+03 -0.20359220604E+02 -0.44481504599E+03  0.48893237077E+03  0.46999998093E+01 0. -1.
</event>
<event>
 5   0  0.1392854E-03  0.5998842E+03  0.7818609E-02  0.9905646E-01
        1   -1    0    0  501    0  0.00000000000E+00  0.00000000000E+00  0.10944549352E+03  0.10944549363E+03  0.50400001928E-02 0.  1.
       -1   -1    0    0    0  501  0.00000000000E+00  0.00000000000E+00 -0.82200968308E+03  0.82200968310E+03  0.50400001928E-02 0. -1.
    10030    2    1    2    0    0  0.00000000000E+00  0.00000000000E+00 -0.71256418957E+03  0.93145517673E+03  0.59988417383E+03 0.  0.
        4    1    3    3  502    0  0.88544896218E+02 -0.14951572878E+02  0.88079203701E+02  0.12579072781E+03  0.12699999809E+01 0.  1.
       -4    1    3    3    0  502 -0.88544896218E+02  0.14951572878E+02 -0.80064339327E+03  0.80566444892E+03  0.12699999809E+01 0. -1.
</event>
<event>
 5   0  0.2346281E-03  0.5995742E+03  0.7818609E-02  0.9906290E-01
        2   -1    0    0  501    0  0.00000000000E+00  0.00000000000E+00  0.93843684981E+03  0.93843684981E+03  0.25500000920E-02 0.  1.
       -2   -1    0    0    0  501  0.00000000000E+00  0.00000000000E+00 -0.95768093826E+02  0.95768093860E+02  0.25500000920E-02 0. -1.
    10030    2    1    2    0    0  0.00000000000E+00  0.00000000000E+00  0.84266875598E+03  0.10342049437E+04  0.59957420992E+03 0.  0.
        3    1    3    3  502    0  0.20747104117E+03 -0.21625339447E+03  0.43497467125E+03  0.52821656390E+03  0.10100000352E+00 0. -1.
       -3    1    3    3    0  502 -0.20747104117E+03  0.21625339447E+03  0.40769408473E+03  0.50598837978E+03  0.10100000352E+00 0.  1.
</event>
<event>
 5   0  0.1392854E-03  0.6002561E+03  0.7818609E-02  0.9904875E-01
       -1   -1    0    0    0  501  0.00000000000E+00  0.00000000000E+00  0.90505591827E+02  0.90505591967E+02  0.50400001928E-02 0.  1.
        1   -1    0    0  501    0  0.00000000000E+00  0.00000000000E+00 -0.99526269537E+03  0.99526269539E+03  0.50400001928E-02 0. -1.
    10030    2    1    2    0    0  0.00000000000E+00  0.00000000000E+00 -0.90475710355E+03  0.10857682874E+04  0.60025607652E+03 0.  0.
        4    1    3    3  502    0  0.11033391194E+03 -0.17912043782E+00  0.52484790920E+02  0.12218784877E+03  0.12699999809E+01 0.  1.
       -4    1    3    3    0  502 -0.11033391194E+03  0.17912043782E+00 -0.95724189447E+03  0.96358043859E+03  0.12699999809E+01 0. -1.
</event>
<event>
 5   0  0.2346281E-03  0.6004733E+03  0.7818609E-02  0.9904425E-01
       -2   -1    0    0    0  501  0.00000000000E+00  0.00000000000E+00  0.16816144349E+03  0.16816144351E+03  0.25500000920E-02 0. -1.
        2   -1    0    0  501    0  0.00000000000E+00  0.00000000000E+00 -0.53604463324E+03  0.53604463325E+03  0.25500000920E-02 0.  1.
    10030    2    1    2    0    0  0.00000000000E+00  0.00000000000E+00 -0.36788318976E+03  0.70420607676E+03  0.60047327770E+03 0.  0.
        3    1    3    3  502    0 -0.83561328726E+02 -0.26734644012E+03 -0.31071499618E+03  0.41833053170E+03  0.10100000352E+00 0. -1.
       -3    1    3    3    0  502  0.83561328726E+02  0.26734644012E+03 -0.57168193580E+02  0.28587554506E+03  0.10100000352E+00 0.  1.
</event>
<event>
 5   0  0.2324616E-03  0.5997986E+03  0.7818609E-02  0.9905824E-01
        2   -1    0    0  501    0  0.00000000000E+00  0.00000000000E+00  0.22379280367E+03  0.22379280369E+03  0.25500000920E-02 0. -1.
       -2   -1    0    0    0  501  0.00000000000E+00  0.00000000000E+00 -0.40188774809E+03  0.40188774809E+03  0.25500000920E-02 0.  1.
    10030    2    1    2    0    0  0.00000000000E+00  0.00000000000E+00 -0.17809494441E+03  0.62568055178E+03  0.59979858590E+03 0.  0.
        4    1    3    3  502    0  0.22298779077E+03 -0.16804896362E+03  0.25099972150E+02  0.28034912254E+03  0.12699999809E+01 0. -1.
       -4    1    3    3    0  502 -0.22298779077E+03  0.16804896362E+03 -0.20319491656E+03  0.34533142924E+03  0.12699999809E+01 0.  1.
</event>
<event>
 5   0  0.1392854E-03  0.6000231E+03  0.7818609E-02  0.9905358E-01
       -1   -1    0    0    0  501  0.00000000000E+00  0.00000000000E+00  0.22742837647E+03  0.22742837653E+03  0.50400001928E-02 0. -1.
        1   -1    0    0  501    0  0.00000000000E+00  0.00000000000E+00 -0.39575949152E+03  0.39575949156E+03  0.50400001928E-02 0.  1.
    10030    2    1    2    0    0  0.00000000000E+00  0.00000000000E+00 -0.16833111505E+03  0.62318786808E+03  0.60002312841E+03 0.  0.
        4    1    3    3  502    0  0.12255997148E+03 -0.69290485392E+02 -0.35931434684E+03  0.38591518592E+03  0.12699999809E+01 0.  1.
       -4    1    3    3    0  502 -0.12255997148E+03  0.69290485392E+02  0.19098323179E+03  0.23727268216E+03  0.12699999809E+01 0. -1.
</event>
<event>
 5   0  0.1423430E-03  0.6000138E+03  0.7818609E-02  0.9905377E-01
       -1   -1    0    0    0  501  0.00000000000E+00  0.00000000000E+00  0.29755510621E+03  0.29755510625E+03  0.50400001928E-02 0.  1.
        1   -1    0    0  501    0  0.00000000000E+00  0.00000000000E+00 -0.30247887860E+03  0.30247887864E+03  0.50400001928E-02 0. -1.
    10030    2    1    2    0    0  0.00000000000E+00  0.00000000000E+00 -0.49237723927E+01  0.60003398489E+03  0.60001378275E+03 0.  0.
        1    1    3    3  502    0  0.26650979191E+03  0.11902367507E+03 -0.71818604281E+02  0.30058612137E+03  0.50400001928E-02 0. -1.
       -1    1    3    3    0  502 -0.26650979191E+03 -0.11902367507E+03  0.66894831888E+02  0.29944786353E+03  0.50400001928E-02 0.  1.
</event>
<event>
 5   0  0.2313168E-03  0.6000017E+03  0.7818609E-02  0.9905402E-01
        2   -1    0    0  501    0  0.00000000000E+00  0.00000000000E+00  0.31715527760E+04  0.31715527760E+04  0.25500000920E-02 0. -1.
       -2   -1    0    0    0  501  0.00000000000E+00  0.00000000000E+00 -0.28377429825E+02  0.28377429939E+02  0.25500000920E-02 0.  1.
    10030    2    1    2    0    0  0.00000000000E+00  0.00000000000E+00  0.31431753462E+04  0.31999302060E+04  0.60000172174E+03 0.  0.
        2    1    3    3  502    0 -0.22025031432E+03  0.18558285092E+01  0.26578715966E+04  0.26669823901E+04  0.25500000920E-02 0. -1.
       -2    1    3    3    0  502  0.22025031432E+03 -0.18558285092E+01  0.48530374958E+03  0.53294781585E+03  0.25500000920E-02 0.  1.
</event>
<event>
 5   0  0.2346281E-03  0.5996452E+03  0.7818609E-02  0.9906143E-01
       -2   -1    0    0    0  501  0.00000000000E+00  0.00000000000E+00  0.85859569946E+02  0.85859569983E+02  0.25500000920E-02 0. -1.
        2   -1    0    0  501    0  0.00000000000E+00  0.00000000000E+00 -0.10469838127E+04  0.10469838127E+04  0.25500000920E-02 0.  1.
    10030    2    1    2    0    0  0.00000000000E+00  0.00000000000E+00 -0.96112424279E+03  0.11328433827E+04  0.59964516149E+03 0.  0.
        3    1    3    3  502    0 -0.11065329121E+03  0.11746428460E+03 -0.95793890824E+03  0.97143655024E+03  0.10100000352E+00 0.  1.
       -3    1    3    3    0  502  0.11065329121E+03 -0.11746428460E+03 -0.31853345456E+01  0.16140683248E+03  0.10100000352E+00 0. -1.
</event>
<event>
 5   0  0.1392854E-03  0.5999843E+03  0.7818609E-02  0.9905439E-01
       -1   -1    0    0    0  501  0.00000000000E+00  0.00000000000E+00  0.92417520143E+02  0.92417520281E+02  0.50400001928E-02 0.  1.
        1   -1    0    0  501    0  0.00000000000E+00  0.00000000000E+00 -0.97379030867E+03  0.97379030869E+03  0.50400001928E-02 0. -1.
    10030    2    1    2    0    0  0.00000000000E+00  0.00000000000E+00 -0.88137278853E+03  0.10662078290E+04  0.59998428495E+03 0.  0.
        4    1    3    3  502    0  0.64267624149E+02  0.28369009798E+03 -0.57107066793E+03  0.64088510661E+03  0.12699999809E+01 0. -1.
       -4    1    3    3    0  502 -0.64267624149E+02 -0.28369009798E+03 -0.31030212060E+03  0.42532272235E+03  0.12699999809E+01 0.  1.
</event>
<event>
 5   0  0.1416315E-03  0.5996049E+03  0.7818609E-02  0.9906226E-01
       -1   -1    0    0    0  501  0.00000000000E+00  0.00000000000E+00  0.59983870486E+02  0.59983870697E+02  0.50400001928E-02 0.  1.
        1   -1    0    0  501    0  0.00000000000E+00  0.00000000000E+00 -0.14984281200E+04  0.14984281200E+04  0.50400001928E-02 0. -1.
    10030    2    1    2    0    0  0.00000000000E+00  0.00000000000E+00 -0.14384442495E+04  0.15584119907E+04  0.59960493145E+03 0.  0.
        2    1    3    3  502    0 -0.67822877322E+02  0.41362841963E+02 -0.14705752234E+04  0.14727193605E+04  0.25500000920E-02 0. -1.
       -2    1    3    3    0  502  0.67822877322E+02 -0.41362841963E+02  0.32130973812E+02  0.85692630185E+02  0.25500000920E-02 0.  1.
</event>
<event>
 5   0  0.1423430E-03  0.5983852E+03  0.7818609E-02  0.9908762E-01
       -1   -1    0    0    0  501  0.00000000000E+00  0.00000000000E+00  0.12431885469E+03  0.12431885479E+03  0.50400001928E-02 0.  1.
        1   -1    0    0  501    0  0.00000000000E+00  0.00000000000E+00 -0.72005345699E+03  0.72005345701E+03  0.50400001928E-02 0. -1.
    10030    2    1    2    0    0  0.00000000000E+00  0.00000000000E+00 -0.59573460230E+03  0.84437231180E+03  0.59838523090E+03 0.  0.
        1    1    3    3  502    0 -0.15585345378E+03 -0.29697316678E+02 -0.65580473218E+03  0.67472370378E+03  0.50400001928E-02 0. -1.
       -1    1    3    3    0  502  0.15585345378E+03  0.29697316678E+02  0.60070129879E+02  0.16964860802E+03  0.50400001928E-02 0.  1.
</event>
<event>
 5   0  0.2313168E-03  0.5998689E+03  0.7818609E-02  0.9905678E-01
        2   -1    0    0  501    0  0.00000000000E+00  0.00000000000E+00  0.14181669892E+03  0.14181669894E+03  0.25500000920E-02 0.  1.
       -2   -1    0    0    0  501  0.00000000000E+00  0.00000000000E+00 -0.63434473265E+03  0.63434473265E+03  0.25500000920E-02 0. -1.
    10030    2    1    2    0    0  0.00000000000E+00  0.00000000000E+00 -0.49252803373E+03  0.77616143159E+03  0.59986890558E+03 0.  0.
        2    1    3    3  502    0 -0.59562859298E+01  0.29232729199E+03 -0.15975782684E+03  0.33318656370E+03  0.25500000920E-02 0. -1.
       -2    1    3    3    0  502  0.59562859298E+01 -0.29232729199E+03 -0.33277020689E+03  0.44297486789E+03  0.25500000920E-02 0.  1.
</event>
<event>
 5   0  0.9496750E-04  0.6000173E+03  0.7818609E-02  0.9905370E-01
        3   -1    0    0  501    0  0.00000000000E+00  0.00000000000E+00  0.11840840450E+03  0.11840844757E+03  0.10100000352E+00 0.  1.
       -3   -1    0    0    0  501  0.00000000000E+00  0.00000000000E+00 -0.76012482146E+03  0.76012482817E+03  0.10100000352E+00 0. -1.
    10030    2    1    2    0    0  0.00000000000E+00  0.00000000000E+00 -0.64171641696E+03  0.87853327575E+03  0.60001729708E+03 0.  0.
        1    1    3    3  502    0 -0.37138816799E+02  0.30863727716E+02  0.11268081098E+03  0.12259211471E+03  0.50400001928E-02 0.  1.
       -1    1    3    3    0  502  0.37138816799E+02 -0.30863727716E+02 -0.75439722794E+03  0.75594116104E+03  0.50400001928E-02 0. -1.
</event>
<event>
 5   0  0.1479385E-03  0.5996306E+03  0.7818609E-02  0.9906173E-01
       -1   -1    0    0    0  501  0.00000000000E+00  0.00000000000E+00  0.24413217619E+03  0.24413217624E+03  0.50400001928E-02 0. -1.
        1   -1    0    0  501    0  0.00000000000E+00  0.00000000000E+00 -0.36819890557E+03  0.36819890560E+03  0.50400001928E-02 0.  1.
    10030    2    1    2    0    0  0.00000000000E+00  0.00000000000E+00 -0.12406672938E+03  0.61233108185E+03  0.59963055330E+03 0.  0.
        3    1    3    3  502    0 -0.17474990869E+03 -0.10448736018E+02 -0.31058646138E+03  0.35652582917E+03  0.10100000352E+00 0.  1.
       -3    1    3    3    0  502  0.17474990869E+03  0.10448736018E+02  0.18651973200E+03  0.25580525268E+03  0.10100000352E+00 0. -1.
</event>
<event>
 5   0  0.1423430E-03  0.5982949E+03  0.7818609E-02  0.9908950E-01
        1   -1    0    0  501    0  0.00000000000E+00  0.00000000000E+00  0.20353260991E+03  0.20353260997E+03  0.50400001928E-02 0.  1.
       -1   -1    0    0    0  501  0.00000000000E+00  0.00000000000E+00 -0.43967986161E+03  0.43967986164E+03  0.50400001928E-02 0. -1.
    10030    2    1    2    0    0  0.00000000000E+00  0.00000000000E+00 -0.23614725170E+03  0.64321247161E+03  0.59829487642E+03 0.  0.
        1    1    3    3  502    0 -0.19174408162E+03  0.54978159661E+02 -0.35774758924E+03  0.40959947328E+03  0.50400001928E-02 0. -1.
       -1    1    3    3    0  502  0.19174408162E+03 -0.54978159661E+02  0.12160033754E+03  0.23361299834E+03  0.50400001928E-02 0.  1.
</event>
<event>
 5   0  0.2346281E-03  0.6003120E+03  0.7818609E-02  0.9904759E-01
       -2   -1    0    0    0  501  0.00000000000E+00  0.00000000000E+00  0.13374193296E+03  0.13374193299E+03  0.25500000920E-02 0.  1.
        2   -1    0    0  501    0  0.00000000000E+00  0.00000000000E+00 -0.67363785439E+03  0.67363785440E+03  0.25500000920E-02 0. -1.
    10030    2    1    2    0    0  0.00000000000E+00  0.00000000000E+00 -0.53989592143E+03  0.80737978738E+03  0.60031201479E+03 0.  0.
        3    1    3    3  502    0  0.13418531669E+03  0.28920982219E+02  0.89054835529E+02  0.16362425358E+03  0.10100000352E+00 0. -1.
       -3    1    3    3    0  502 -0.13418531669E+03 -0.28920982219E+02 -0.62895075696E+03  0.64375553381E+03  0.10100000352E+00 0.  1.
</event>
<event>
 5   0  0.2346281E-03  0.6002223E+03  0.7818609E-02  0.9904945E-01
       -2   -1    0    0    0  501  0.00000000000E+00  0.00000000000E+00  0.58023799408E+02  0.58023799464E+02  0.25500000920E-02 0.  1.
        2   -1    0    0  501    0  0.00000000000E+00  0.00000000000E+00 -0.15522371561E+04  0.15522371561E+04  0.25500000920E-02 0. -1.
    10030    2    1    2    0    0  0.00000000000E+00  0.00000000000E+00 -0.14942133567E+04  0.16102609556E+04  0.60022228358E+03 0.  0.
        3    1    3    3  502    0 -0.26721278597E+03  0.23971367052E+02 -0.38628212522E+03  0.47030967446E+03  0.10100000352E+00 0.  1.
       -3    1    3    3    0  502  0.26721278597E+03 -0.23971367052E+02 -0.11079312315E+04  0.11399512811E+04  0.10100000352E+00 0. -1.
</event>
<event>
 5   0  0.1423430E-03  0.6006758E+03  0.7818609E-02  0.9904005E-01
       -1   -1    0    0    0  501  0.00000000000E+00  0.00000000000E+00  0.59728627194E+02  0.59728627407E+02  0.50400001928E-02 0.  1.
        1   -1    0    0  501    0  0.00000000000E+00  0.00000000000E+00 -0.15102114015E+04  0.15102114015E+04  0.50400001928E-02 0. -1.
    10030    2    1    2    0    0  0.00000000000E+00  0.00000000000E+00 -0.14504827743E+04  0.15699400289E+04  0.60067579926E+03 0.  0.
        1    1    3    3  502    0  0.27457215777E+03 -0.23392495469E+02 -0.10374109936E+04  0.10733865326E+04  0.50400001928E-02 0. -1.
       -1    1    3    3    0  502 -0.27457215777E+03  0.23392495469E+02 -0.41307178066E+03  0.49655349629E+03  0.50400001928E-02 0.  1.
</event>
<event>
 5   0  0.9496750E-04  0.5999389E+03  0.7818609E-02  0.9905533E-01
       -3   -1    0    0    0  501  0.00000000000E+00  0.00000000000E+00  0.37828809913E+03  0.37828811261E+03  0.10100000352E+00 0.  1.
        3   -1    0    0  501    0  0.00000000000E+00  0.00000000000E+00 -0.23786546133E+03  0.23786548278E+03  0.10100000352E+00 0. -1.
    10030    2    1    2    0    0  0.00000000000E+00  0.00000000000E+00  0.14042263780E+03  0.61615359539E+03  0.59993894348E+03 0.  0.
        3    1    3    3  502    0  0.34502067353E+02 -0.29571083958E+03  0.10789608600E+03  0.31666523155E+03  0.10100000352E+00 0.  1.
       -3    1    3    3    0  502 -0.34502067353E+02  0.29571083958E+03  0.32526551793E+02  0.29948836383E+03  0.10100000352E+00 0. -1.
</event>
<event>
 5   0  0.2421210E-03  0.5999852E+03  0.7818609E-02  0.9905437E-01
        2   -1    0    0  501    0  0.00000000000E+00  0.00000000000E+00  0.15312243780E+04  0.15312243780E+04  0.25500000920E-02 0. -1.
       -2   -1    0    0    0  501  0.00000000000E+00  0.00000000000E+00 -0.58773591563E+02  0.58773591618E+02  0.25500000920E-02 0.  1.
    10030    2    1    2    0    0  0.00000000000E+00  0.00000000000E+00  0.14724507865E+04  0.15899979697E+04  0.59998518726E+03 0.  0.
        1    1    3    3  502    0 -0.85021529370E+02  0.27878191750E+03  0.92450177761E+03  0.96935625794E+03  0.50400001928E-02 0. -1.
       -1    1    3    3    0  502  0.85021529370E+02 -0.27878191750E+03  0.54794900886E+03  0.62064171171E+03  0.50400001928E-02 0.  1.
</event>
<event>
 5   0  0.1416315E-03  0.6001186E+03  0.7818609E-02  0.9905160E-01
        1   -1    0    0  501    0  0.00000000000E+00  0.00000000000E+00  0.17112014406E+03  0.17112014413E+03  0.50400001928E-02 0. -1.
       -1   -1    0    0    0  501  0.00000000000E+00  0.00000000000E+00 -0.52615427209E+03  0.52615427211E+03  0.50400001928E-02 0.  1.
    10030    2    1    2    0    0  0.00000000000E+00  0.00000000000E+00 -0.35503412803E+03  0.69727441624E+03  0.60011863784E+03 0.  0.
        2    1    3    3  502    0  0.12291543245E+03  0.26159301571E+03 -0.27116664775E+03  0.39632115798E+03  0.25500000920E-02 0.  1.
       -2    1    3    3    0  502 -0.12291543245E+03 -0.26159301571E+03 -0.83867480273E+02  0.30095325826E+03  0.25500000920E-02 0. -1.
</event>
<event>
 5   0  0.1423430E-03  0.6017249E+03  0.7818609E-02  0.9901834E-01
        1   -1    0    0  501    0  0.00000000000E+00  0.00000000000E+00  0.63885686312E+03  0.63885686314E+03  0.50400001928E-02 0.  1.
       -1   -1    0    0    0  501  0.00000000000E+00  0.00000000000E+00 -0.14168779203E+03  0.14168779212E+03  0.50400001928E-02 0. -1.
    10030    2    1    2    0    0  0.00000000000E+00  0.00000000000E+00  0.49716907109E+03  0.78054465526E+03  0.60172491523E+03 0.  0.
        1    1    3    3  502    0 -0.39926874684E+02  0.17599122698E+02 -0.13756164953E+03  0.14431594468E+03  0.50400001928E-02 0. -1.
       -1    1    3    3    0  502  0.39926874684E+02 -0.17599122698E+02  0.63473072062E+03  0.63622871058E+03  0.50400001928E-02 0.  1.
</event>
<event>
 5   0  0.9496750E-04  0.6010131E+03  0.7818609E-02  0.9903306E-01
        4   -1    0    0  501    0  0.00000000000E+00  0.00000000000E+00  0.28780876120E+03  0.28781156322E+03  0.12699999809E+01 0. -1.
       -4   -1    0    0    0  501  0.00000000000E+00  0.00000000000E+00 -0.31375892085E+03  0.31376149112E+03  0.12699999809E+01 0.  1.
    10030    2    1    2    0    0  0.00000000000E+00  0.00000000000E+00 -0.25950159649E+02  0.60157305434E+03  0.60101308548E+03 0.  0.
        2    1    3    3  502    0  0.12670263150E+03  0.27040299446E+03 -0.46664216487E+02  0.30223978121E+03  0.25500000920E-02 0.  1.
       -2    1    3    3    0  502 -0.12670263150E+03 -0.27040299446E+03  0.20714056838E+02  0.29933327312E+03  0.25500000920E-02 0. -1.
</event>
<event>
 5   0  0.2421210E-03  0.6001222E+03  0.7818609E-02  0.9905153E-01
       -2   -1    0    0    0  501  0.00000000000E+00  0.00000000000E+00  0.10692303318E+03  0.10692303321E+03  0.25500000920E-02 0.  1.
        2   -1    0    0  501    0  0.00000000000E+00  0.00000000000E+00 -0.84206985952E+03  0.84206985953E+03  0.25500000920E-02 0. -1.
    10030    2    1    2    0    0  0.00000000000E+00  0.00000000000E+00 -0.73514682634E+03  0.94899289274E+03  0.60012219938E+03 0.  0.
        1    1    3    3  502    0 -0.24188115640E+03  0.11383464717E+03 -0.58307514626E+03  0.64143701712E+03  0.50400001928E-02 0. -1.
       -1    1    3    3    0  502  0.24188115640E+03 -0.11383464717E+03 -0.15207168008E+03  0.30755587562E+03  0.50400001928E-02 0.  1.
</event>
<event>
 5   0  0.1416315E-03  0.5998655E+03  0.7818609E-02  0.9905685E-01
       -1   -1    0    0    0  501  0.00000000000E+00  0.00000000000E+00  0.77620023405E+03  0.77620023406E+03  0.50400001928E-02 0.  1.
        1   -1    0    0  501    0  0.00000000000E+00  0.00000000000E+00 -0.11589750096E+03  0.11589750107E+03  0.50400001928E-02 0. -1.
    10030    2    1    2    0    0  0.00000000000E+00  0.00000000000E+00  0.66030273309E+03  0.89209773513E+03  0.59986554302E+03 0.  0.
        2    1    3    3  502    0 -0.16840276882E+03  0.12248286540E+03  0.65117923128E+03  0.68366361327E+03  0.25500000920E-02 0.  1.
       -2    1    3    3    0  502  0.16840276882E+03 -0.12248286540E+03  0.91235018096E+01  0.20843412186E+03  0.25500000920E-02 0. -1.
</event>
<event>
 5   0  0.1416315E-03  0.5985701E+03  0.7818609E-02  0.9908377E-01
        1   -1    0    0  501    0  0.00000000000E+00  0.00000000000E+00  0.36197095786E+03  0.36197095790E+03  0.50400001928E-02 0. -1.
       -1   -1    0    0    0  501  0.00000000000E+00  0.00000000000E+00 -0.24745507283E+03  0.24745507288E+03  0.50400001928E-02 0.  1.
    10030    2    1    2    0    0  0.00000000000E+00  0.00000000000E+00  0.11451588503E+03  0.60942603078E+03  0.59857012878E+03 0.  0.
        2    1    3    3  502    0 -0.18414592263E+03 -0.16582510242E+03  0.22812253794E+03  0.33681980010E+03  0.25500000920E-02 0. -1.
       -2    1    3    3    0  502  0.18414592263E+03  0.16582510242E+03 -0.11360665291E+03  0.27260623068E+03  0.25500000920E-02 0.  1.
</event>
<event>
 5   0  0.2313168E-03  0.5997018E+03  0.7818609E-02  0.9906025E-01
       -2   -1    0    0    0  501  0.00000000000E+00  0.00000000000E+00  0.23710187998E+03  0.23710188000E+03  0.25500000920E-02 0.  1.
        2   -1    0    0  501    0  0.00000000000E+00  0.00000000000E+00 -0.37920645124E+03  0.37920645124E+03  0.25500000920E-02 0. -1.
    10030    2    1    2    0    0  0.00000000000E+00  0.00000000000E+00 -0.14210457125E+03  0.61630833124E+03  0.59970180089E+03 0.  0.
        2    1    3    3  502    0 -0.56764310952E+02  0.20920555289E+03 -0.28396406355E+03  0.35724604931E+03  0.25500000920E-02 0. -1.
       -2    1    3    3    0  502  0.56764310952E+02 -0.20920555289E+03  0.14185949230E+03  0.25906228193E+03  0.25500000920E-02 0.  1.
</event>
<event>
 5   0  0.9496750E-04  0.5989902E+03  0.7818609E-02  0.9907503E-01
       -3   -1    0    0    0  501  0.00000000000E+00  0.00000000000E+00  0.27653767816E+03  0.27653769661E+03  0.10100000352E+00 0. -1.
        3   -1    0    0  501    0  0.00000000000E+00  0.00000000000E+00 -0.32435829801E+03  0.32435831373E+03  0.10100000352E+00 0.  1.
    10030    2    1    2    0    0  0.00000000000E+00  0.00000000000E+00 -0.47820619840E+02  0.60089601034E+03  0.59899015314E+03 0.  0.
        2    1    3    3  502    0 -0.27835408446E+01  0.15897755819E+03 -0.27852031464E+03  0.32071042668E+03  0.25500000920E-02 0.  1.
       -2    1    3    3    0  502  0.27835408446E+01 -0.15897755819E+03  0.23069969480E+03  0.28018558366E+03  0.25500000920E-02 0. -1.
</event>
<event>
 5   0  0.1423430E-03  0.6000052E+03  0.7818609E-02  0.9905395E-01
        1   -1    0    0  501    0  0.00000000000E+00  0.00000000000E+00  0.13276242201E+03  0.13276242211E+03  0.50400001928E-02 0.  1.
       -1   -1    0    0    0  501  0.00000000000E+00  0.00000000000E+00 -0.67791436265E+03  0.67791436267E+03  0.50400001928E-02 0. -1.
    10030    2    1    2    0    0  0.00000000000E+00  0.00000000000E+00 -0.54515194064E+03  0.81067678478E+03  0.60000517581E+03 0.  0.
        1    1    3    3  502    0 -0.12499654810E+03 -0.11655234565E+03  0.60558373213E+02  0.18131713351E+03  0.50400001928E-02 0.  1.
       -1    1    3    3    0  502  0.12499654810E+03  0.11655234565E+03 -0.60571031385E+03  0.62935965127E+03  0.50400001928E-02 0. -1.
</event>
<event>
 5   0  0.2406307E-03  0.5998909E+03  0.7818609E-02  0.9905632E-01
       -2   -1    0    0    0  501  0.00000000000E+00  0.00000000000E+00  0.83436888876E+02  0.83436888915E+02  0.25500000920E-02 0. -1.
        2   -1    0    0  501    0  0.00000000000E+00  0.00000000000E+00 -0.10782674065E+04  0.10782674065E+04  0.25500000920E-02 0.  1.
    10030    2    1    2    0    0  0.00000000000E+00  0.00000000000E+00 -0.99483051762E+03  0.11617042954E+04  0.59989091608E+03 0.  0.
        5    1    3    3  502    0 -0.13532151282E+03  0.10688753230E+03 -0.22242423107E+02  0.17393582660E+03  0.46999998093E+01 0. -1.
       -5    1    3    3    0  502  0.13532151282E+03 -0.10688753230E+03 -0.97258809452E+03  0.98776846882E+03  0.46999998093E+01 0.  1.
</event>
<event>
 5   0  0.1479385E-03  0.5999537E+03  0.7818609E-02  0.9905502E-01
       -1   -1    0    0    0  501  0.00000000000E+00  0.00000000000E+00  0.73163993934E+02  0.73163994108E+02  0.50400001928E-02 0. -1.
        1   -1    0    0  501    0  0.00000000000E+00  0.00000000000E+00 -0.12299234108E+04  0.12299234108E+04  0.50400001928E-02 0.  1.
    10030    2    1    2    0    0  0.00000000000E+00  0.00000000000E+00 -0.11567594168E+04  0.13030874049E+04  0.59995369516E+03 0.  0.
        3    1    3    3  502    0 -0.17397979176E+03  0.24380310409E+03 -0.61454023171E+03  0.68364364116E+03  0.10100000352E+00 0.  1.
       -3    1    3    3    0  502  0.17397979176E+03 -0.24380310409E+03 -0.54221918512E+03  0.61944376372E+03  0.10100000352E+00 0. -1.
</event>
<event>
 5   0  0.2313168E-03  0.6004554E+03  0.7818609E-02  0.9904462E-01
       -2   -1    0    0    0  501  0.00000000000E+00  0.00000000000E+00  0.20712604336E+03  0.20712604338E+03  0.25500000920E-02 0. -1.
        2   -1    0    0  501    0  0.00000000000E+00  0.00000000000E+00 -0.43517793733E+03  0.43517793734E+03  0.25500000920E-02 0.  1.
    10030    2    1    2    0    0  0.00000000000E+00  0.00000000000E+00 -0.22805189397E+03  0.64230398071E+03  0.60045544156E+03 0.  0.
        2    1    3    3  502    0  0.23006098653E+03 -0.15631994374E+03  0.68670706471E+01  0.27822857330E+03  0.25500000920E-02 0. -1.
       -2    1    3    3    0  502 -0.23006098653E+03  0.15631994374E+03 -0.23491896462E+03  0.36407540741E+03  0.25500000920E-02 0.  1.
</event>
<event>
 5   0  0.2313168E-03  0.6001268E+03  0.7818609E-02  0.9905143E-01
        2   -1    0    0  501    0  0.00000000000E+00  0.00000000000E+00  0.15408001995E+04  0.15408001995E+04  0.25500000920E-02 0. -1.
       -2   -1    0    0    0  501  0.00000000000E+00  0.00000000000E+00 -0.58435900232E+02  0.58435900288E+02  0.25500000920E-02 0.  1.
    10030    2    1    2    0    0  0.00000000000E+00  0.00000000000E+00  0.14823642993E+04  0.15992360998E+04  0.60012680920E+03 0.  0.
        2    1    3    3  502    0 -0.18032818507E+03 -0.10639148456E+03  0.16839459500E+03  0.26868967592E+03  0.25500000920E-02 0.  1.
       -2    1    3    3    0  502  0.18032818507E+03  0.10639148456E+03  0.13139697043E+04  0.13305464239E+04  0.25500000920E-02 0. -1.
</event>
<event>
 5   0  0.1423430E-03  0.5998182E+03  0.7818609E-02  0.9905783E-01
       -1   -1    0    0    0  501  0.00000000000E+00  0.00000000000E+00  0.17399565470E+03  0.17399565477E+03  0.50400001928E-02 0.  1.
        1   -1    0    0  501    0  0.00000000000E+00  0.00000000000E+00 -0.51694088198E+03  0.51694088200E+03  0.50400001928E-02 0. -1.
    10030    2    1    2    0    0  0.00000000000E+00  0.00000000000E+00 -0.34294522728E+03  0.69093653677E+03  0.59981819656E+03 0.  0.
        1    1    3    3  502    0 -0.29800804133E+03 -0.25012650311E+02 -0.19751295954E+03  0.35839335176E+03  0.50400001928E-02 0. -1.
       -1    1    3    3    0  502  0.29800804133E+03  0.25012650311E+02 -0.14543226774E+03  0.33254318501E+03  0.50400001928E-02 0.  1.
</event>
<event>
 5   0  0.2346281E-03  0.6000143E+03  0.7818609E-02  0.9905376E-01
        2   -1    0    0  501    0  0.00000000000E+00  0.00000000000E+00  0.72093348870E+03  0.72093348870E+03  0.25500000920E-02 0. -1.
       -2   -1    0    0    0  501  0.00000000000E+00  0.00000000000E+00 -0.12484408229E+03  0.12484408232E+03  0.25500000920E-02 0.  1.
    10030    2    1    2    0    0  0.00000000000E+00  0.00000000000E+00  0.59608940641E+03  0.84577757102E+03  0.60001426584E+03 0.  0.
        3    1    3    3  502    0 -0.84506399559E+02 -0.32475552404E+01  0.70378403713E+03  0.70884685179E+03  0.10100000352E+00 0. -1.
       -3    1    3    3    0  502  0.84506399559E+02  0.32475552404E+01 -0.10769463072E+03  0.13693071923E+03  0.10100000352E+00 0.  1.
</event>
<event>
 5   0  0.2313168E-03  0.5998121E+03  0.7818609E-02  0.9905796E-01
       -2   -1    0    0    0  501  0.00000000000E+00  0.00000000000E+00  0.86924784510E+02  0.86924784547E+02  0.25500000920E-02 0.  1.
        2   -1    0    0  501    0  0.00000000000E+00  0.00000000000E+00 -0.10347294589E+04  0.10347294589E+04  0.25500000920E-02 0. -1.
    10030    2    1    2    0    0  0.00000000000E+00  0.00000000000E+00 -0.94780467440E+03  0.11216542435E+04  0.59981208812E+03 0.  0.
        2    1    3    3  502    0 -0.22475523085E+03 -0.22628224665E+01 -0.84519976078E+03  0.87457570844E+03  0.25500000920E-02 0. -1.
       -2    1    3    3    0  502  0.22475523085E+03  0.22628224665E+01 -0.10260491362E+03  0.24707853502E+03  0.25500000920E-02 0.  1.
</event>
<event>
 5   0  0.1479385E-03  0.6002103E+03  0.7818609E-02  0.9904970E-01
        1   -1    0    0  501    0  0.00000000000E+00  0.00000000000E+00  0.95948535657E+02  0.95948535789E+02  0.50400001928E-02 0. -1.
       -1   -1    0    0    0  501  0.00000000000E+00  0.00000000000E+00 -0.93866054966E+03  0.93866054967E+03  0.50400001928E-02 0.  1.
    10030    2    1    2    0    0  0.00000000000E+00  0.00000000000E+00 -0.84271201400E+03  0.10346090855E+04  0.60021031412E+03 0.  0.
        3    1    3    3  502    0 -0.23551854370E+02 -0.19900138486E+03 -0.80643775186E+03  0.83096215247E+03  0.10100000352E+00 0.  1.
       -3    1    3    3    0  502  0.23551854370E+02  0.19900138486E+03 -0.36274262139E+02  0.20364693298E+03  0.10100000352E+00 0. -1.
</event>
<event>
 5   0  0.1479385E-03  0.6010730E+03  0.7818609E-02  0.9903182E-01
       -1   -1    0    0    0  501  0.00000000000E+00  0.00000000000E+00  0.47667892415E+03  0.47667892418E+03  0.50400001928E-02 0. -1.
        1   -1    0    0  501    0  0.00000000000E+00  0.00000000000E+00 -0.18948223632E+03  0.18948223638E+03  0.50400001928E-02 0.  1.
    10030    2    1    2    0    0  0.00000000000E+00  0.00000000000E+00  0.28719668784E+03  0.66616116056E+03  0.60107300250E+03 0.  0.
        3    1    3    3  502    0  0.17750544348E+03 -0.91161585716E+02  0.39266356505E+03  0.44045806008E+03  0.10100000352E+00 0. -1.
       -3    1    3    3    0  502 -0.17750544348E+03  0.91161585716E+02 -0.10546687721E+03  0.22570310048E+03  0.10100000352E+00 0.  1.
</event>
<event>
 5   0  0.1392854E-03  0.5998457E+03  0.7818609E-02  0.9905726E-01
       -1   -1    0    0    0  501  0.00000000000E+00  0.00000000000E+00  0.44649368476E+03  0.44649368479E+03  0.50400001928E-02 0. -1.
        1   -1    0    0  501    0  0.00000000000E+00  0.00000000000E+00 -0.20146694500E+03  0.20146694506E+03  0.50400001928E-02 0.  1.
    10030    2    1    2    0    0  0.00000000000E+00  0.00000000000E+00  0.24502673977E+03  0.64796062985E+03  0.59984570903E+03 0.  0.
        4    1    3    3  502    0 -0.31670004343E+02 -0.13046723408E+03  0.41221857348E+03  0.43353252884E+03  0.12699999809E+01 0. -1.
       -4    1    3    3    0  502  0.31670004343E+02  0.13046723408E+03 -0.16719183371E+03  0.21442810101E+03  0.12699999809E+01 0.  1.
</event>
<event>
 5   0  0.2346281E-03  0.5999407E+03  0.7818609E-02  0.9905529E-01
       -2   -1    0    0    0  501  0.00000000000E+00  0.00000000000E+00  0.42806301767E+02  0.42806301843E+02  0.25500000920E-02 0.  1.
        2   -1    0    0  501    0  0.00000000000E+00  0.00000000000E+00 -0.21020787252E+04  0.21020787252E+04  0.25500000920E-02 0. -1.
    10030    2    1    2    0    0  0.00000000000E+00  0.00000000000E+00 -0.20592724234E+04  0.21448850270E+04  0.59994071817E+03 0.  0.
        3    1    3    3  502    0 -0.18827091783E+03  0.23249968796E+03 -0.11079773544E+04  0.11476566871E+04  0.10100000352E+00 0. -1.
       -3    1    3    3    0  502  0.18827091783E+03 -0.23249968796E+03 -0.95129506899E+03  0.99722833990E+03  0.10100000352E+00 0.  1.
</event>
<event>
 5   0  0.2313168E-03  0.6000406E+03  0.7818609E-02  0.9905322E-01
       -2   -1    0    0    0  501  0.00000000000E+00  0.00000000000E+00  0.28502960830E+03  0.28502960831E+03  0.25500000920E-02 0. -1.
        2   -1    0    0  501    0  0.00000000000E+00  0.00000000000E+00 -0.31579940088E+03  0.31579940089E+03  0.25500000920E-02 0.  1.
    10030    2    1    2    0    0  0.00000000000E+00  0.00000000000E+00 -0.30769792582E+02  0.60082900920E+03  0.60004059710E+03 0.  0.
        2    1    3    3  502    0  0.17079369732E+03  0.13324964067E+03  0.19246005751E+03  0.28977030131E+03  0.25500000920E-02 0. -1.
       -2    1    3    3    0  502 -0.17079369732E+03 -0.13324964067E+03 -0.22322985009E+03  0.31105870789E+03  0.25500000920E-02 0.  1.
</event>
<event>
 5   0  0.2324616E-03  0.6012717E+03  0.7818609E-02  0.9902771E-01
       -2   -1    0    0    0  501  0.00000000000E+00  0.00000000000E+00  0.21904628941E+03  0.21904628942E+03  0.25500000920E-02 0.  1.
        2   -1    0    0  501    0  0.00000000000E+00  0.00000000000E+00 -0.41261555651E+03  0.41261555651E+03  0.25500000920E-02 0. -1.
    10030    2    1    2    0    0  0.00000000000E+00  0.00000000000E+00 -0.19356926710E+03  0.63166184594E+03  0.60127167441E+03 0.  0.
        4    1    3    3  502    0 -0.16816171535E+03  0.26378582306E+02 -0.35711190329E+03  0.39560677002E+03  0.12699999809E+01 0. -1.
       -4    1    3    3    0  502  0.16816171535E+03 -0.26378582306E+02  0.16354263619E+03  0.23605507592E+03  0.12699999809E+01 0.  1.
</event>
<event>
 5   0  0.1416315E-03  0.6004389E+03  0.7818609E-02  0.9904496E-01
       -1   -1    0    0    0  501  0.00000000000E+00  0.00000000000E+00  0.94568637710E+02  0.94568637844E+02  0.50400001928E-02 0. -1.
        1   -1    0    0  501    0  0.00000000000E+00  0.00000000000E+00 -0.95308246152E+03  0.95308246153E+03  0.50400001928E-02 0.  1.
    10030    2    1    2    0    0  0.00000000000E+00  0.00000000000E+00 -0.85851382381E+03  0.10476510994E+04  0.60043887312E+03 0.  0.
        2    1    3    3  502    0 -0.98916882237E+02  0.15439740236E+03 -0.84402482916E+03  0.86371350556E+03  0.25500000920E-02 0.  1.
       -2    1    3    3    0  502  0.98916882237E+02 -0.15439740236E+03 -0.14488994648E+02  0.18393759381E+03  0.25500000920E-02 0. -1.
</event>
<event>
 5   0  0.1418763E-03  0.5999588E+03  0.7818609E-02  0.9905491E-01
        1   -1    0    0  501    0  0.00000000000E+00  0.00000000000E+00  0.19984761956E+03  0.19984761963E+03  0.50400001928E-02 0. -1.
       -1   -1    0    0    0  501  0.00000000000E+00  0.00000000000E+00 -0.45028133785E+03  0.45028133787E+03  0.50400001928E-02 0.  1.
    10030    2    1    2    0    0  0.00000000000E+00  0.00000000000E+00 -0.25043371828E+03  0.65012895750E+03  0.59995884369E+03 0.  0.
        5    1    3    3  502    0 -0.11181008354E+03 -0.27040719578E+03 -0.53796205554E+02  0.29755279875E+03  0.46999998093E+01 0. -1.
       -5    1    3    3    0  502  0.11181008354E+03  0.27040719578E+03 -0.19663751273E+03  0.35257615875E+03  0.46999998093E+01 0.  1.
</event>
<event>
 5   0  0.2421210E-03  0.6011473E+03  0.7818609E-02  0.9903029E-01
       -2   -1    0    0    0  501  0.00000000000E+00  0.00000000000E+00  0.71472112788E+02  0.71472112834E+02  0.25500000920E-02 0. -1.
        2   -1    0    0  501    0  0.00000000000E+00  0.00000000000E+00 -0.12640526447E+04  0.12640526447E+04  0.25500000920E-02 0.  1.
    10030    2    1    2    0    0  0.00000000000E+00  0.00000000000E+00 -0.11925805319E+04  0.13355247575E+04  0.60114728053E+03 0.  0.
        1    1    3    3  502    0  0.93738082224E+02 -0.14302328431E+03 -0.47130312869E+02  0.17738025349E+03  0.50400001928E-02 0. -1.
       -1    1    3    3    0  502 -0.93738082224E+02  0.14302328431E+03 -0.11454502190E+04  0.11581445040E+04  0.50400001928E-02 0.  1.
</event>
<event>
 5   0  0.2313168E-03  0.6003239E+03  0.7818609E-02  0.9904734E-01
        2   -1    0    0  501    0  0.00000000000E+00  0.00000000000E+00  0.15961410039E+04  0.15961410039E+04  0.25500000920E-02 0.  1.
       -2   -1    0    0    0  501  0.00000000000E+00  0.00000000000E+00 -0.56446891569E+02  0.56446891626E+02  0.25500000920E-02 0. -1.
    10030    2    1    2    0    0  0.00000000000E+00  0.00000000000E+00  0.15396941123E+04  0.16525878955E+04  0.60032390665E+03 0.  0.
        2    1    3    3  502    0 -0.29655458266E+02 -0.27301565708E+03  0.43630933329E+03  0.51554129761E+03  0.25500000920E-02 0. -1.
       -2    1    3    3    0  502  0.29655458266E+02  0.27301565708E+03  0.11033847790E+04  0.11370465979E+04  0.25500000920E-02 0.  1.
</event>
<event>
 5   0  0.1423430E-03  0.6001770E+03  0.7818609E-02  0.9905039E-01
        1   -1    0    0  501    0  0.00000000000E+00  0.00000000000E+00  0.81002888147E+03  0.81002888148E+03  0.50400001928E-02 0.  1.
       -1   -1    0    0    0  501  0.00000000000E+00  0.00000000000E+00 -0.11117272905E+03  0.11117272916E+03  0.50400001928E-02 0. -1.
    10030    2    1    2    0    0  0.00000000000E+00  0.00000000000E+00  0.69885615242E+03  0.92120161064E+03  0.60017704528E+03 0.  0.
        1    1    3    3  502    0 -0.24198392980E+03  0.16589888047E+03  0.44619220794E+03  0.53400950111E+03  0.50400001928E-02 0. -1.
       -1    1    3    3    0  502  0.24198392980E+03 -0.16589888047E+03  0.25266394447E+03  0.38719210953E+03  0.50400001928E-02 0.  1.
</event>
<event>
 5   0  0.1479385E-03  0.6000644E+03  0.7818609E-02  0.9905272E-01
        1   -1    0    0  501    0  0.00000000000E+00  0.00000000000E+00  0.51586223704E+03  0.51586223707E+03  0.50400001928E-02 0. -1.
       -1   -1    0    0    0  501  0.00000000000E+00  0.00000000000E+00 -0.17450266639E+03  0.17450266646E+03  0.50400001928E-02 0.  1.
    10030    2    1    2    0    0  0.00000000000E+00  0.00000000000E+00  0.34135957065E+03  0.69036490353E+03  0.60006444949E+03 0.  0.
        3    1    3    3  502    0 -0.28214961586E+03 -0.72028240628E+02  0.87535062913E+02  0.30407050271E+03  0.10100000352E+00 0. -1.
       -3    1    3    3    0  502  0.28214961586E+03  0.72028240628E+02  0.25382450774E+03  0.38629440082E+03  0.10100000352E+00 0.  1.
</event>
<event>
 5   0  0.1392854E-03  0.5997902E+03  0.7818609E-02  0.9905841E-01
        1   -1    0    0  501    0  0.00000000000E+00  0.00000000000E+00  0.64461628116E+03  0.64461628118E+03  0.50400001928E-02 0. -1.
       -1   -1    0    0    0  501  0.00000000000E+00  0.00000000000E+00 -0.13952033702E+03  0.13952033711E+03  0.50400001928E-02 0.  1.
    10030    2    1    2    0    0  0.00000000000E+00  0.00000000000E+00  0.50509594414E+03  0.78413661829E+03  0.59979023279E+03 0.  0.
        4    1    3    3  502    0  0.85907697544E+02  0.20959949771E+03  0.50947957027E+03  0.55756894404E+03  0.12699999809E+01 0. -1.
       -4    1    3    3    0  502 -0.85907697544E+02 -0.20959949771E+03 -0.43836261269E+01  0.22656767425E+03  0.12699999809E+01 0.  1.
</event>
<event>
 5   0  0.9496750E-04  0.6000563E+03  0.7818609E-02  0.9905289E-01
        3   -1    0    0  501    0  0.00000000000E+00  0.00000000000E+00  0.48317586093E+03  0.48317587148E+03  0.10100000352E+00 0. -1.
       -3   -1    0    0    0  501  0.00000000000E+00  0.00000000000E+00 -0.18630250517E+03  0.18630253254E+03  0.10100000352E+00 0.  1.
    10030    2    1    2    0    0  0.00000000000E+00  0.00000000000E+00  0.29687335576E+03  0.66947840403E+03  0.60005628411E+03 0.  0.
        2    1    3    3  502    0  0.23811285060E+03 -0.13887185456E+01 -0.55210789472E+02  0.24443381403E+03  0.25500000920E-02 0.  1.
       -2    1    3    3    0  502 -0.23811285060E+03  0.13887185456E+01  0.35208414523E+03  0.42504459000E+03  0.25500000920E-02 0. -1.
</event>
<event>
 5   0  0.1423430E-03  0.6014774E+03  0.7818609E-02  0.9902346E-01
        1   -1    0    0  501    0  0.00000000000E+00  0.00000000000E+00  0.52833632989E+03  0.52833632991E+03  0.50400001928E-02 0.  1.
       -1   -1    0    0    0  501  0.00000000000E+00  0.00000000000E+00 -0.17118595380E+03  0.17118595388E+03  0.50400001928E-02 0. -1.
    10030    2    1    2    0    0  0.00000000000E+00  0.00000000000E+00  0.35715037609E+03  0.69952228379E+03  0.60147737645E+03 0.  0.
        1    1    3    3  502    0 -0.29135130407E+03  0.72281005063E+02  0.19981821639E+03  0.36060705165E+03  0.50400001928E-02 0.  1.
       -1    1    3    3    0  502  0.29135130407E+03 -0.72281005063E+02  0.15733215969E+03  0.33891523213E+03  0.50400001928E-02 0. -1.
</event>
<event>
 5   0  0.2346281E-03  0.6001453E+03  0.7818609E-02  0.9905105E-01
        2   -1    0    0  501    0  0.00000000000E+00  0.00000000000E+00  0.11099648659E+04  0.11099648659E+04  0.25500000920E-02 0.  1.
       -2   -1    0    0    0  501  0.00000000000E+00  0.00000000000E+00 -0.81122928492E+02  0.81122928532E+02  0.25500000920E-02 0. -1.
    10030    2    1    2    0    0  0.00000000000E+00  0.00000000000E+00  0.10288419374E+04  0.11910877944E+04  0.60014531730E+03 0.  0.
        3    1    3    3  502    0  0.19018754007E+03  0.22066571961E+03  0.65724700220E+03  0.71891466275E+03  0.10100000352E+00 0. -1.
       -3    1    3    3    0  502 -0.19018754007E+03 -0.22066571961E+03  0.37159493518E+03  0.47217313166E+03  0.10100000352E+00 0.  1.
</event>
<event>
 5   0  0.1416315E-03  0.5998781E+03  0.7818609E-02  0.9905659E-01
       -1   -1    0    0    0  501  0.00000000000E+00  0.00000000000E+00  0.94614300719E+02  0.94614300854E+02  0.50400001928E-02 0. -1.
        1   -1    0    0  501    0  0.00000000000E+00  0.00000000000E+00 -0.95084404536E+03  0.95084404537E+03  0.50400001928E-02 0.  1.
    10030    2    1    2    0    0  0.00000000000E+00  0.00000000000E+00 -0.85622974464E+03  0.10454583462E+04  0.59987813603E+03 0.  0.
        2    1    3    3  502    0 -0.28530389864E+03  0.71734502366E+02 -0.32620606026E+03  0.43926591851E+03  0.25500000920E-02 0. -1.
       -2    1    3    3    0  502  0.28530389864E+03 -0.71734502366E+02 -0.53002368438E+03  0.60619242771E+03  0.25500000920E-02 0.  1.
</event>
<event>
 5   0  0.9496750E-04  0.5996933E+03  0.7818609E-02  0.9906043E-01
       -3   -1    0    0    0  501  0.00000000000E+00  0.00000000000E+00  0.49247820745E+03  0.49247821780E+03  0.10100000352E+00 0.  1.
        3   -1    0    0  501    0  0.00000000000E+00  0.00000000000E+00 -0.18256240530E+03  0.18256243324E+03  0.10100000352E+00 0. -1.
    10030    2    1    2    0    0  0.00000000000E+00  0.00000000000E+00  0.30991580214E+03  0.67504065105E+03  0.59969331841E+03 0.  0.
        5    1    3    3  502    0 -0.26933567119E+02  0.20582160474E+03 -0.88550677734E+02  0.22572386347E+03  0.46999998093E+01 0. -1.
       -5    1    3    3    0  502  0.26933567119E+02 -0.20582160474E+03  0.39846647988E+03  0.44931678758E+03  0.46999998093E+01 0.  1.
</event>
<event>
 5   0  0.2421210E-03  0.6001095E+03  0.7818609E-02  0.9905179E-01
        2   -1    0    0  501    0  0.00000000000E+00  0.00000000000E+00  0.40986535225E+03  0.40986535226E+03  0.25500000920E-02 0.  1.
       -2   -1    0    0    0  501  0.00000000000E+00  0.00000000000E+00 -0.21966445061E+03  0.21966445063E+03  0.25500000920E-02 0. -1.
    10030    2    1    2    0    0  0.00000000000E+00  0.00000000000E+00  0.19020090164E+03  0.62952980289E+03  0.60010948146E+03 0.  0.
        1    1    3    3  502    0  0.10860484239E+03  0.43349797810E+02 -0.19477729294E+03  0.22718364957E+03  0.50400001928E-02 0. -1.
       -1    1    3    3    0  502 -0.10860484239E+03 -0.43349797810E+02  0.38497819458E+03  0.40234615332E+03  0.50400001928E-02 0.  1.
</event>
<event>
 5   0  0.1416315E-03  0.5996713E+03  0.7818609E-02  0.9906088E-01
       -1   -1    0    0    0  501  0.00000000000E+00  0.00000000000E+00  0.73556843080E+02  0.73556843253E+02  0.50400001928E-02 0.  1.
        1   -1    0    0  501    0  0.00000000000E+00  0.00000000000E+00 -0.12222031579E+04  0.12222031579E+04  0.50400001928E-02 0. -1.
    10030    2    1    2    0    0  0.00000000000E+00  0.00000000000E+00 -0.11486463148E+04  0.12957600011E+04  0.59967126332E+03 0.  0.
        2    1    3    3  502    0 -0.12920226961E+03 -0.15393691309E+03 -0.10551235794E+04  0.10740929045E+04  0.25500000920E-02 0. -1.
       -2    1    3    3    0  502  0.12920226961E+03  0.15393691309E+03 -0.93522735369E+02  0.22166709661E+03  0.25500000920E-02 0.  1.
</event>
<event>
 5   0  0.1479385E-03  0.6004135E+03  0.7818609E-02  0.9904549E-01
        1   -1    0    0  501    0  0.00000000000E+00  0.00000000000E+00  0.64821757209E+03  0.64821757211E+03  0.50400001928E-02 0. -1.
       -1   -1    0    0    0  501  0.00000000000E+00  0.00000000000E+00 -0.13903369990E+03  0.13903370000E+03  0.50400001928E-02 0.  1.
    10030    2    1    2    0    0  0.00000000000E+00  0.00000000000E+00  0.50918387219E+03  0.78725127211E+03  0.60041348231E+03 0.  0.
        3    1    3    3  502    0  0.15911896333E+03  0.51280807710E+02 -0.72351497033E+02  0.18216288056E+03  0.10100000352E+00 0.  1.
       -3    1    3    3    0  502 -0.15911896333E+03 -0.51280807710E+02  0.58153536922E+03  0.60508839155E+03  0.10100000352E+00 0. -1.
</event>
<event>
 5   0  0.2324616E-03  0.5995668E+03  0.7818609E-02  0.9906305E-01
       -2   -1    0    0    0  501  0.00000000000E+00  0.00000000000E+00  0.54394308822E+02  0.54394308882E+02  0.25500000920E-02 0. -1.
        2   -1    0    0  501    0  0.00000000000E+00  0.00000000000E+00 -0.16521965848E+04  0.16521965848E+04  0.25500000920E-02 0.  1.
    10030    2    1    2    0    0  0.00000000000E+00  0.00000000000E+00 -0.15978022760E+04  0.17065908937E+04  0.59956681469E+03 0.  0.
        4    1    3    3  502    0 -0.23223109594E+03  0.13699953481E+03 -0.11718555821E+04  0.12024754770E+04  0.12699999809E+01 0. -1.
       -4    1    3    3    0  502  0.23223109594E+03 -0.13699953481E+03 -0.42594669383E+03  0.50411541670E+03  0.12699999809E+01 0.  1.
</event>
<event>
 5   0  0.1392854E-03  0.6027837E+03  0.7818609E-02  0.9899648E-01
       -1   -1    0    0    0  501  0.00000000000E+00  0.00000000000E+00  0.16644246273E+03  0.16644246281E+03  0.50400001928E-02 0. -1.
        1   -1    0    0  501    0  0.00000000000E+00  0.00000000000E+00 -0.54575643191E+03  0.54575643193E+03  0.50400001928E-02 0.  1.
    10030    2    1    2    0    0  0.00000000000E+00  0.00000000000E+00 -0.37931396918E+03  0.71219889474E+03  0.60278369126E+03 0.  0.
        4    1    3    3  502    0 -0.12829281881E+03 -0.24738503203E+03 -0.32528473979E+03  0.42833418760E+03  0.12699999809E+01 0.  1.
       -4    1    3    3    0  502  0.12829281881E+03  0.24738503203E+03 -0.54029229393E+02  0.28386470714E+03  0.12699999809E+01 0. -1.
</event>
<event>
 5   0  0.2313168E-03  0.6001613E+03  0.7818609E-02  0.9905072E-01
        2   -1    0    0  501    0  0.00000000000E+00  0.00000000000E+00  0.57559560107E+03  0.57559560107E+03  0.25500000920E-02 0. -1.
       -2   -1    0    0    0  501  0.00000000000E+00  0.00000000000E+00 -0.15644384353E+03  0.15644384355E+03  0.25500000920E-02 0.  1.
    10030    2    1    2    0    0  0.00000000000E+00  0.00000000000E+00  0.41915175754E+03  0.73203944462E+03  0.60016127219E+03 0.  0.
        2    1    3    3  502    0 -0.26758866516E+03  0.17886448675E+02  0.37378707323E+03  0.46004390539E+03  0.25500000920E-02 0. -1.
       -2    1    3    3    0  502  0.26758866516E+03 -0.17886448675E+02  0.45364684311E+02  0.27199553923E+03  0.25500000920E-02 0.  1.
</event>
<event>
 5   0  0.1479385E-03  0.5999224E+03  0.7818609E-02  0.9905567E-01
        1   -1    0    0  501    0  0.00000000000E+00  0.00000000000E+00  0.11334044008E+04  0.11334044008E+04  0.50400001928E-02 0.  1.
       -1   -1    0    0    0  501  0.00000000000E+00  0.00000000000E+00 -0.79386252409E+02  0.79386252569E+02  0.50400001928E-02 0. -1.
    10030    2    1    2    0    0  0.00000000000E+00  0.00000000000E+00  0.10540181484E+04  0.12127906534E+04  0.59992242147E+03 0.  0.
        3    1    3    3  502    0  0.11384016222E+03  0.10033467161E+03  0.39312281045E+01  0.15179622398E+03  0.10100000352E+00 0. -1.
       -3    1    3    3    0  502 -0.11384016222E+03 -0.10033467161E+03  0.10500869203E+04  0.10609944294E+04  0.10100000352E+00 0.  1.
</event>
<event>
 5   0  0.2346281E-03  0.5998998E+03  0.7818609E-02  0.9905614E-01
        2   -1    0    0  501    0  0.00000000000E+00  0.00000000000E+00  0.62279918730E+03  0.62279918730E+03  0.25500000920E-02 0.  1.
       -2   -1    0    0    0  501  0.00000000000E+00  0.00000000000E+00 -0.14446061105E+03  0.14446061108E+03  0.25500000920E-02 0. -1.
    10030    2    1    2    0    0  0.00000000000E+00  0.00000000000E+00  0.47833857624E+03  0.76725979838E+03  0.59989982887E+03 0.  0.
        3    1    3    3  502    0  0.26641669557E+03 -0.88258226120E+02  0.10379924907E+03  0.29923513241E+03  0.10100000352E+00 0. -1.
       -3    1    3    3    0  502 -0.26641669557E+03  0.88258226120E+02  0.37453932717E+03  0.46802466597E+03  0.10100000352E+00 0.  1.
</event>
<event>
 5   0  0.1416315E-03  0.6006052E+03  0.7818609E-02  0.9904151E-01
        1   -1    0    0  501    0  0.00000000000E+00  0.00000000000E+00  0.89580409444E+03  0.89580409446E+03  0.50400001928E-02 0.  1.
       -1   -1    0    0    0  501  0.00000000000E+00  0.00000000000E+00 -0.10067119135E+03  0.10067119148E+03  0.50400001928E-02 0. -1.
    10030    2    1    2    0    0  0.00000000000E+00  0.00000000000E+00  0.79513290309E+03  0.99647528594E+03  0.60060524632E+03 0.  0.
        2    1    3    3  502    0 -0.28504772517E+03  0.93731741452E+02  0.37766944278E+03  0.48236091570E+03  0.25500000920E-02 0.  1.
       -2    1    3    3    0  502  0.28504772517E+03 -0.93731741452E+02  0.41746346031E+03  0.51411437023E+03  0.25500000920E-02 0. -1.
</event>
<event>
 5   0  0.2313168E-03  0.5997526E+03  0.7818609E-02  0.9905920E-01
        2   -1    0    0  501    0  0.00000000000E+00  0.00000000000E+00  0.53483791749E+03  0.53483791750E+03  0.25500000920E-02 0. -1.
       -2   -1    0    0    0  501  0.00000000000E+00  0.00000000000E+00 -0.16813651253E+03  0.16813651255E+03  0.25500000920E-02 0.  1.
    10030    2    1    2    0    0  0.00000000000E+00  0.00000000000E+00  0.36670140496E+03  0.70297443005E+03  0.59975255640E+03 0.  0.
        2    1    3    3  502    0  0.82939825401E+02  0.28817810535E+03  0.18380037285E+03  0.35172178224E+03  0.25500000920E-02 0.  1.
       -2    1    3    3    0  502 -0.82939825401E+02 -0.28817810535E+03  0.18290103211E+03  0.35125264781E+03  0.25500000920E-02 0. -1.
</event>
<event>
 5   0  0.2421210E-03  0.5997816E+03  0.7818609E-02  0.9905859E-01
       -2   -1    0    0    0  501  0.00000000000E+00  0.00000000000E+00  0.73476691916E+02  0.73476691961E+02  0.25500000920E-02 0. -1.
        2   -1    0    0  501    0  0.00000000000E+00  0.00000000000E+00 -0.12239867464E+04  0.12239867464E+04  0.25500000920E-02 0.  1.
    10030    2    1    2    0    0  0.00000000000E+00  0.00000000000E+00 -0.11505100545E+04  0.12974634384E+04  0.59978161727E+03 0.  0.
        1    1    3    3  502    0  0.87018921920E+00  0.79582947061E+02 -0.12007241587E+04  0.12033589274E+04  0.50400001928E-02 0.  1.
       -1    1    3    3    0  502 -0.87018921920E+00 -0.79582947061E+02  0.50214104270E+02  0.94104510972E+02  0.50400001928E-02 0. -1.
</event>
<event>
 5   0  0.1423430E-03  0.5989593E+03  0.7818609E-02  0.9907567E-01
        1   -1    0    0  501    0  0.00000000000E+00  0.00000000000E+00  0.20893007442E+03  0.20893007448E+03  0.50400001928E-02 0. -1.
       -1   -1    0    0    0  501  0.00000000000E+00  0.00000000000E+00 -0.42927312157E+03  0.42927312160E+03  0.50400001928E-02 0.  1.
    10030    2    1    2    0    0  0.00000000000E+00  0.00000000000E+00 -0.22034304715E+03  0.63820319608E+03  0.59895931503E+03 0.  0.
        1    1    3    3  502    0 -0.28333914194E+03  0.95411362074E+02 -0.12873935022E+03  0.32551223893E+03  0.50400001928E-02 0.  1.
       -1    1    3    3    0  502  0.28333914194E+03 -0.95411362074E+02 -0.91603696924E+02  0.31269095715E+03  0.50400001928E-02 0. -1.
</event>
<event>
 5   0  0.1416315E-03  0.5999930E+03  0.7818609E-02  0.9905421E-01
        1   -1    0    0  501    0  0.00000000000E+00  0.00000000000E+00  0.75492361575E+02  0.75492361744E+02  0.50400001928E-02 0. -1.
       -1   -1    0    0    0  501  0.00000000000E+00  0.00000000000E+00 -0.11921457235E+04  0.11921457235E+04  0.50400001928E-02 0.  1.
    10030    2    1    2    0    0  0.00000000000E+00  0.00000000000E+00 -0.11166533619E+04  0.12676380852E+04  0.59999298702E+03 0.  0.
        2    1    3    3  502    0  0.60639943770E+02 -0.20676572046E+03 -0.11732925210E+03  0.24534754807E+03  0.25500000920E-02 0. -1.
       -2    1    3    3    0  502 -0.60639943770E+02  0.20676572046E+03 -0.99932410978E+03  0.10222905371E+04  0.25500000920E-02 0.  1.
</event>
<event>
 5   0  0.2313168E-03  0.5999528E+03  0.7818609E-02  0.9905504E-01
       -2   -1    0    0    0  501  0.00000000000E+00  0.00000000000E+00  0.12332804547E+03  0.12332804549E+03  0.25500000920E-02 0. -1.
        2   -1    0    0  501    0  0.00000000000E+00  0.00000000000E+00 -0.72964631411E+03  0.72964631411E+03  0.25500000920E-02 0.  1.
    10030    2    1    2    0    0  0.00000000000E+00  0.00000000000E+00 -0.60631826864E+03  0.85297435960E+03  0.59995284419E+03 0.  0.
        2    1    3    3  502    0 -0.22771112311E+03 -0.71716074924E+02 -0.56139229501E+03  0.61004660469E+03  0.25500000920E-02 0.  1.
       -2    1    3    3    0  502  0.22771112311E+03  0.71716074924E+02 -0.44925973627E+02  0.24292775491E+03  0.25500000920E-02 0. -1.
</event>
<event>
 5   0  0.2324616E-03  0.5999711E+03  0.7818609E-02  0.9905466E-01
       -2   -1    0    0    0  501  0.00000000000E+00  0.00000000000E+00  0.10250196519E+03  0.10250196522E+03  0.25500000920E-02 0.  1.
        2   -1    0    0  501    0  0.00000000000E+00  0.00000000000E+00 -0.87794722835E+03  0.87794722835E+03  0.25500000920E-02 0. -1.
    10030    2    1    2    0    0  0.00000000000E+00  0.00000000000E+00 -0.77544526316E+03  0.98044919357E+03  0.59997105348E+03 0.  0.
        4    1    3    3  502    0  0.22882107680E+03  0.18116325789E+03 -0.50106428698E+03  0.57986743639E+03  0.12699999809E+01 0. -1.
       -4    1    3    3    0  502 -0.22882107680E+03 -0.18116325789E+03 -0.27438097618E+03  0.40058175718E+03  0.12699999809E+01 0.  1.
</event>
<event>
 5   0  0.2346281E-03  0.5999723E+03  0.7818609E-02  0.9905464E-01
       -2   -1    0    0    0  501  0.00000000000E+00  0.00000000000E+00  0.27400695136E+03  0.27400695137E+03  0.25500000920E-02 0.  1.
        2   -1    0    0  501    0  0.00000000000E+00  0.00000000000E+00 -0.32842848581E+03  0.32842848582E+03  0.25500000920E-02 0. -1.
    10030    2    1    2    0    0  0.00000000000E+00  0.00000000000E+00 -0.54421534451E+02  0.60243543720E+03  0.59997229318E+03 0.  0.
        3    1    3    3  502    0  0.29615925546E+03 -0.42152294273E+02 -0.46561935589E+01  0.29918023137E+03  0.10100000352E+00 0.  1.
       -3    1    3    3    0  502 -0.29615925546E+03  0.42152294273E+02 -0.49765340892E+02  0.30325520583E+03  0.10100000352E+00 0. -1.
</event>
<event>
 5   0  0.2406307E-03  0.6000051E+03  0.7818609E-02  0.9905395E-01
        2   -1    0    0  501    0  0.00000000000E+00  0.00000000000E+00  0.85086446824E+03  0.85086446824E+03  0.25500000920E-02 0. -1.
       -2   -1    0    0    0  501  0.00000000000E+00  0.00000000000E+00 -0.10577659235E+03  0.10577659238E+03  0.25500000920E-02 0.  1.
    10030    2    1    2    0    0  0.00000000000E+00  0.00000000000E+00  0.74508787589E+03  0.95664106062E+03  0.60000514671E+03 0.  0.
        5    1    3    3  502    0 -0.25959124600E+02  0.69549651965E+02  0.83592815436E+03  0.83923119549E+03  0.46999998093E+01 0. -1.
       -5    1    3    3    0  502  0.25959124600E+02 -0.69549651965E+02 -0.90840278475E+02  0.11740986513E+03  0.46999998093E+01 0.  1.
</event>
<event>
 5   0  0.1392854E-03  0.6001321E+03  0.7818609E-02  0.9905132E-01
       -1   -1    0    0    0  501  0.00000000000E+00  0.00000000000E+00  0.20580925121E+03  0.20580925128E+03  0.50400001928E-02 0.  1.
        1   -1    0    0  501    0  0.00000000000E+00  0.00000000000E+00 -0.43749067852E+03  0.43749067855E+03  0.50400001928E-02 0. -1.
    10030    2    1    2    0    0  0.00000000000E+00  0.00000000000E+00 -0.23168142731E+03  0.64329992983E+03  0.60013208209E+03 0.  0.
        4    1    3    3  502    0 -0.21188107506E+03 -0.62860621041E+02  0.10171886273E+03  0.24329691240E+03  0.12699999809E+01 0.  1.
       -4    1    3    3    0  502  0.21188107506E+03  0.62860621041E+02 -0.33340029004E+03  0.40000301743E+03  0.12699999809E+01 0. -1.
</event>
<event>
 5   0  0.1479385E-03  0.5995763E+03  0.7818609E-02  0.9906286E-01
        1   -1    0    0  501    0  0.00000000000E+00  0.00000000000E+00  0.62790529183E+03  0.62790529185E+03  0.50400001928E-02 0.  1.
       -1   -1    0    0    0  501  0.00000000000E+00  0.00000000000E+00 -0.14313133871E+03  0.14313133880E+03  0.50400001928E-02 0. -1.
    10030    2    1    2    0    0  0.00000000000E+00  0.00000000000E+00  0.48477395312E+03  0.77103663066E+03  0.59957626720E+03 0.  0.
        3    1    3    3  502    0 -0.37369448303E+02 -0.11126715469E+03 -0.11235424822E+03  0.16248182259E+03  0.10100000352E+00 0. -1.
       -3    1    3    3    0  502  0.37369448303E+02  0.11126715469E+03  0.59712820134E+03  0.60855480806E+03  0.10100000352E+00 0.  1.
</event>
<event>
 5   0  0.1392854E-03  0.6001607E+03  0.7818609E-02  0.9905073E-01
       -1   -1    0    0    0  501  0.00000000000E+00  0.00000000000E+00  0.28233823525E+03  0.28233823529E+03  0.50400001928E-02 0.  1.
        1   -1    0    0  501    0  0.00000000000E+00  0.00000000000E+00 -0.31893739820E+03  0.31893739824E+03  0.50400001928E-02 0. -1.
    10030    2    1    2    0    0  0.00000000000E+00  0.00000000000E+00 -0.36599162955E+02  0.60127563354E+03  0.60016071910E+03 0.  0.
        4    1    3    3  502    0 -0.27576683835E+03  0.11752895249E+03 -0.31970643919E+02  0.30146996332E+03  0.12699999809E+01 0. -1.
       -4    1    3    3    0  502  0.27576683835E+03 -0.11752895249E+03 -0.46285190361E+01  0.29980567022E+03  0.12699999809E+01 0.  1.
</event>
<event>
 5   0  0.2324616E-03  0.5999202E+03  0.7818609E-02  0.9905572E-01
        2   -1    0    0  501    0  0.00000000000E+00  0.00000000000E+00  0.49056166176E+03  0.49056166177E+03  0.25500000920E-02 0.  1.
       -2   -1    0    0    0  501  0.00000000000E+00  0.00000000000E+00 -0.18341436520E+03  0.18341436522E+03  0.25500000920E-02 0. -1.
    10030    2    1    2    0    0  0.00000000000E+00  0.00000000000E+00  0.30714729655E+03  0.67397602699E+03  0.59992018067E+03 0.  0.
        4    1    3    3  502    0 -0.14580512184E+03 -0.20747911808E+02  0.44714461648E+03  0.47077545640E+03  0.12699999809E+01 0.  1.
       -4    1    3    3    0  502  0.14580512184E+03  0.20747911808E+02 -0.13999731993E+03  0.20320057059E+03  0.12699999809E+01 0. -1.
</event>
<event>
 5   0  0.2324616E-03  0.5994659E+03  0.7818609E-02  0.9906515E-01
        2   -1    0    0  501    0  0.00000000000E+00  0.00000000000E+00  0.32430249250E+03  0.32430249251E+03  0.25500000920E-02 0.  1.
       -2   -1    0    0    0  501  0.00000000000E+00  0.00000000000E+00 -0.27702478227E+03  0.27702478228E+03  0.25500000920E-02 0. -1.
    10030    2    1    2    0    0  0.00000000000E+00  0.00000000000E+00  0.47277710235E+02  0.60132727480E+03  0.59946585351E+03 0.  0.
        4    1    3    3  502    0  0.12788880314E+03 -0.72458820608E+02  0.28566325668E+03  0.32126458841E+03  0.12699999809E+01 0.  1.
       -4    1    3    3    0  502 -0.12788880314E+03  0.72458820608E+02 -0.23838554644E+03  0.28006268638E+03  0.12699999809E+01 0. -1.
</event>
<event>
 5   0  0.1418763E-03  0.6001084E+03  0.7818609E-02  0.9905181E-01
       -1   -1    0    0    0  501  0.00000000000E+00  0.00000000000E+00  0.91343390328E+02  0.91343390467E+02  0.50400001928E-02 0.  1.
        1   -1    0    0  501    0  0.00000000000E+00  0.00000000000E+00 -0.98564905753E+03  0.98564905754E+03  0.50400001928E-02 0. -1.
    10030    2    1    2    0    0  0.00000000000E+00  0.00000000000E+00 -0.89430566720E+03  0.10769924480E+04  0.60010841244E+03 0.  0.
        5    1    3    3  502    0  0.59763769855E+01 -0.17114424790E+03 -0.50519807958E+01  0.17138752341E+03  0.46999998093E+01 0.  1.
       -5    1    3    3    0  502 -0.59763769855E+01  0.17114424790E+03 -0.88925368640E+03  0.90560492460E+03  0.46999998093E+01 0. -1.
</event>
<event>
 5   0  0.2313168E-03  0.5993922E+03  0.7818609E-02  0.9906668E-01
        2   -1    0    0  501    0  0.00000000000E+00  0.00000000000E+00  0.92441328324E+03  0.92441328324E+03  0.25500000920E-02 0. -1.
       -2   -1    0    0    0  501  0.00000000000E+00  0.00000000000E+00 -0.97161912779E+02  0.97161912813E+02  0.25500000920E-02 0.  1.
    10030    2    1    2    0    0  0.00000000000E+00  0.00000000000E+00  0.82725137046E+03  0.10215751961E+04  0.59939223491E+03 0.  0.
        2    1    3    3  502    0 -0.10476605849E+03 -0.28078650124E+03  0.41512756456E+03  0.51200379017E+03  0.25500000920E-02 0.  1.
       -2    1    3    3    0  502  0.10476605849E+03  0.28078650124E+03  0.41212380590E+03  0.50957140588E+03  0.25500000920E-02 0. -1.
</event>
<event>
 5   0  0.1416315E-03  0.5998661E+03  0.7818609E-02  0.9905684E-01
        1   -1    0    0  501    0  0.00000000000E+00  0.00000000000E+00  0.98979614991E+03  0.98979614992E+03  0.50400001928E-02 0. -1.
       -1   -1    0    0    0  501  0.00000000000E+00  0.00000000000E+00 -0.90887233983E+02  0.90887234122E+02  0.50400001928E-02 0.  1.
    10030    2    1    2    0    0  0.00000000000E+00  0.00000000000E+00  0.89890891593E+03  0.10806833840E+04  0.59986609957E+03 0.  0.
        2    1    3    3  502    0  0.20343899417E+03  0.22012490911E+03  0.46897724451E+03  0.55658068223E+03  0.25500000920E-02 0. -1.
       -2    1    3    3    0  502 -0.20343899417E+03 -0.22012490911E+03  0.42993167142E+03  0.52410270182E+03  0.25500000920E-02 0.  1.
</event>
<event>
 5   0  0.1479385E-03  0.5999104E+03  0.7818609E-02  0.9905592E-01
        1   -1    0    0  501    0  0.00000000000E+00  0.00000000000E+00  0.91099221677E+03  0.91099221678E+03  0.50400001928E-02 0. -1.
       -1   -1    0    0    0  501  0.00000000000E+00  0.00000000000E+00 -0.98763872959E+02  0.98763873088E+02  0.50400001928E-02 0.  1.
    10030    2    1    2    0    0  0.00000000000E+00  0.00000000000E+00  0.81222834381E+03  0.10097560899E+04  0.59991039209E+03 0.  0.
        3    1    3    3  502    0  0.17772376070E+03 -0.11473920439E+03  0.76405098571E+03  0.79279552162E+03  0.10100000352E+00 0. -1.
       -3    1    3    3    0  502 -0.17772376070E+03  0.11473920439E+03  0.48177358100E+02  0.21696056825E+03  0.10100000352E+00 0.  1.
</event>
<event>
 5   0  0.2406307E-03  0.5999885E+03  0.7818609E-02  0.9905430E-01
        2   -1    0    0  501    0  0.00000000000E+00  0.00000000000E+00  0.23569299246E+03  0.23569299247E+03  0.25500000920E-02 0.  1.
       -2   -1    0    0    0  501  0.00000000000E+00  0.00000000000E+00 -0.38183803043E+03  0.38183803043E+03  0.25500000920E-02 0. -1.
    10030    2    1    2    0    0  0.00000000000E+00  0.00000000000E+00 -0.14614503797E+03  0.61753102291E+03  0.59998849333E+03 0.  0.
        5    1    3    3  502    0 -0.26898258250E+03  0.39296746705E+01  0.63499994207E+02  0.27644422818E+03  0.46999998093E+01 0.  1.
       -5    1    3    3    0  502  0.26898258250E+03 -0.39296746705E+01 -0.20964503217E+03  0.34108679473E+03  0.46999998093E+01 0. -1.
</event>
<event>
 5   0  0.2421210E-03  0.6014830E+03  0.7818609E-02  0.9902334E-01
        2   -1    0    0  501    0  0.00000000000E+00  0.00000000000E+00  0.71363424838E+03  0.71363424838E+03  0.25500000920E-02 0.  1.
       -2   -1    0    0    0  501  0.00000000000E+00  0.00000000000E+00 -0.12673921062E+03  0.12673921065E+03  0.25500000920E-02 0. -1.
    10030    2    1    2    0    0  0.00000000000E+00  0.00000000000E+00  0.58689503775E+03  0.84037345903E+03  0.60148297175E+03 0.  0.
        1    1    3    3  502    0 -0.22008031462E+03  0.19843404854E+03  0.36515408416E+03  0.47026473577E+03  0.50400001928E-02 0.  1.
       -1    1    3    3    0  502  0.22008031462E+03 -0.19843404854E+03  0.22174095359E+03  0.37010872325E+03  0.50400001928E-02 0. -1.
</event>
<event>
 5   0  0.1392854E-03  0.6000062E+03  0.7818609E-02  0.9905393E-01
       -1   -1    0    0    0  501  0.00000000000E+00  0.00000000000E+00  0.88158920134E+02  0.88158920278E+02  0.50400001928E-02 0. -1.
        1   -1    0    0  501    0  0.00000000000E+00  0.00000000000E+00 -0.10209047725E+04  0.10209047725E+04  0.50400001928E-02 0.  1.
    10030    2    1    2    0    0  0.00000000000E+00  0.00000000000E+00 -0.93274585237E+03  0.11090636928E+04  0.60000620794E+03 0.  0.
        4    1    3    3  502    0 -0.11878947161E+03 -0.26530637024E+03 -0.60347838786E+03  0.66984041844E+03  0.12699999809E+01 0. -1.
       -4    1    3    3    0  502  0.11878947161E+03  0.26530637024E+03 -0.32926746451E+03  0.43922327436E+03  0.12699999809E+01 0.  1.
</event>
<event>
 5   0  0.1416315E-03  0.6002502E+03  0.7818609E-02  0.9904887E-01
        1   -1    0    0  501    0  0.00000000000E+00  0.00000000000E+00  0.23861414221E+03  0.23861414227E+03  0.50400001928E-02 0. -1.
       -1   -1    0    0    0  501  0.00000000000E+00  0.00000000000E+00 -0.37749267326E+03  0.37749267330E+03  0.50400001928E-02 0.  1.
    10030    2    1    2    0    0  0.00000000000E+00  0.00000000000E+00 -0.13887853105E+03  0.61610681556E+03  0.60025024931E+03 0.  0.
        2    1    3    3  502    0  0.29467905569E+03  0.21701071686E+02 -0.15433675236E+02  0.29587984168E+03  0.25500000920E-02 0. -1.
       -2    1    3    3    0  502 -0.29467905569E+03 -0.21701071686E+02 -0.12344485581E+03  0.32022697389E+03  0.25500000920E-02 0.  1.
</event>
<event>
 5   0  0.1479385E-03  0.5999135E+03  0.7818609E-02  0.9905586E-01
        1   -1    0    0  501    0  0.00000000000E+00  0.00000000000E+00  0.21137362979E+03  0.21137362985E+03  0.50400001928E-02 0. -1.
       -1   -1    0    0    0  501  0.00000000000E+00  0.00000000000E+00 -0.42566356252E+03  0.42566356255E+03  0.50400001928E-02 0.  1.
    10030    2    1    2    0    0  0.00000000000E+00  0.00000000000E+00 -0.21428993273E+03  0.63703719240E+03  0.59991350146E+03 0.  0.
        3    1    3    3  502    0  0.78352142908E+02  0.13066173488E+03  0.16722870292E+03  0.22622333333E+03  0.10100000352E+00 0. -1.
       -3    1    3    3    0  502 -0.78352142908E+02 -0.13066173488E+03 -0.38151863565E+03  0.41081385908E+03  0.10100000352E+00 0.  1.
</event>
<event>
 5   0  0.2324616E-03  0.5988138E+03  0.7818609E-02  0.9907870E-01
       -2   -1    0    0    0  501  0.00000000000E+00  0.00000000000E+00  0.61676959766E+03  0.61676959766E+03  0.25500000920E-02 0. -1.
        2   -1    0    0  501    0  0.00000000000E+00  0.00000000000E+00 -0.14534520543E+03  0.14534520545E+03  0.25500000920E-02 0.  1.
    10030    2    1    2    0    0  0.00000000000E+00  0.00000000000E+00  0.47142439223E+03  0.76211480311E+03  0.59881384046E+03 0.  0.
        4    1    3    3  502    0  0.23310283187E+03  0.18562561177E+03  0.27279787219E+03  0.40399763606E+03  0.12699999809E+01 0.  1.
       -4    1    3    3    0  502 -0.23310283187E+03 -0.18562561177E+03  0.19862652005E+03  0.35811716705E+03  0.12699999809E+01 0. -1.
</event>
<event>
 5   0  0.1418763E-03  0.6000426E+03  0.7818609E-02  0.9905318E-01
        1   -1    0    0  501    0  0.00000000000E+00  0.00000000000E+00  0.79056758884E+03  0.79056758885E+03  0.50400001928E-02 0.  1.
       -1   -1    0    0    0  501  0.00000000000E+00  0.00000000000E+00 -0.11385841356E+03  0.11385841367E+03  0.50400001928E-02 0. -1.
    10030    2    1    2    0    0  0.00000000000E+00  0.00000000000E+00  0.67670917528E+03  0.90442600253E+03  0.60004257027E+03 0.  0.
        5    1    3    3  502    0 -0.10806218646E+03  0.18887516752E+03  0.64959544550E+03  0.68508948165E+03  0.46999998093E+01 0.  1.
       -5    1    3    3    0  502  0.10806218646E+03 -0.18887516752E+03  0.27113729773E+02  0.21933652088E+03  0.46999998093E+01 0. -1.
</event>
<event>
 5   0  0.2346281E-03  0.5996842E+03  0.7818609E-02  0.9906061E-01
       -2   -1    0    0    0  501  0.00000000000E+00  0.00000000000E+00  0.26522569065E+03  0.26522569066E+03  0.25500000920E-02 0.  1.
        2   -1    0    0  501    0  0.00000000000E+00  0.00000000000E+00 -0.33897651601E+03  0.33897651602E+03  0.25500000920E-02 0. -1.
    10030    2    1    2    0    0  0.00000000000E+00  0.00000000000E+00 -0.73750825368E+02  0.60420220668E+03  0.59968418548E+03 0.  0.
        3    1    3    3  502    0 -0.28841873478E+03 -0.69451140496E+02  0.70008467047E+01  0.29674542885E+03  0.10100000352E+00 0. -1.
       -3    1    3    3    0  502  0.28841873478E+03  0.69451140496E+02 -0.80751672072E+02  0.30745677783E+03  0.10100000352E+00 0.  1.
</event>
<event>
 5   0  0.2346281E-03  0.5999485E+03  0.7818609E-02  0.9905513E-01
       -2   -1    0    0    0  501  0.00000000000E+00  0.00000000000E+00  0.72163691689E+02  0.72163691734E+02  0.25500000920E-02 0. -1.
        2   -1    0    0  501    0  0.00000000000E+00  0.00000000000E+00 -0.12469506531E+04  0.12469506531E+04  0.25500000920E-02 0.  1.
    10030    2    1    2    0    0  0.00000000000E+00  0.00000000000E+00 -0.11747869614E+04  0.13191143448E+04  0.59994853950E+03 0.  0.
        3    1    3    3  502    0 -0.10722122720E+03  0.26710706631E+03 -0.40157982312E+03  0.49407382138E+03  0.10100000352E+00 0. -1.
       -3    1    3    3    0  502  0.10722122720E+03 -0.26710706631E+03 -0.77320713827E+03  0.82504052343E+03  0.10100000352E+00 0.  1.
</event>
<event>
 5   0  0.1418763E-03  0.5999302E+03  0.7818609E-02  0.9905551E-01
       -1   -1    0    0    0  501  0.00000000000E+00  0.00000000000E+00  0.35582908492E+03  0.35582908495E+03  0.50400001928E-02 0.  1.
        1   -1    0    0  501    0  0.00000000000E+00  0.00000000000E+00 -0.25287156274E+03  0.25287156279E+03  0.50400001928E-02 0. -1.
    10030    2    1    2    0    0  0.00000000000E+00  0.00000000000E+00  0.10295752218E+03  0.60870064774E+03  0.59993018526E+03 0.  0.
        5    1    3    3  502    0  0.28854124763E+03  0.48918109207E+02 -0.15115615973E+02  0.29308634366E+03  0.46999998093E+01 0. -1.
       -5    1    3    3    0  502 -0.28854124763E+03 -0.48918109207E+02  0.11807313815E+03  0.31561430409E+03  0.46999998093E+01 0.  1.
</event>
<event>
 5   0  0.9496750E-04  0.6003716E+03  0.7818609E-02  0.9904635E-01
       -3   -1    0    0    0  501  0.00000000000E+00  0.00000000000E+00  0.93448610094E+03  0.93448610640E+03  0.10100000352E+00 0. -1.
        3   -1    0    0  501    0  0.00000000000E+00  0.00000000000E+00 -0.96428912164E+02  0.96428965057E+02  0.10100000352E+00 0.  1.
    10030    2    1    2    0    0  0.00000000000E+00  0.00000000000E+00  0.83805718877E+03  0.10309150715E+04  0.60037157902E+03 0.  0.
        1    1    3    3  502    0  0.56726142784E+02 -0.14343771291E+03  0.86123257758E+03  0.87493644653E+03  0.50400001928E-02 0. -1.
       -1    1    3    3    0  502 -0.56726142784E+02  0.14343771291E+03 -0.23175388805E+02  0.15597862492E+03  0.50400001928E-02 0.  1.
</event>
<event>
 5   0  0.9496750E-04  0.6001958E+03  0.7818609E-02  0.9905000E-01
        3   -1    0    0  501    0  0.00000000000E+00  0.00000000000E+00  0.32717019629E+03  0.32717021188E+03  0.10100000352E+00 0.  1.
       -3   -1    0    0    0  501  0.00000000000E+00  0.00000000000E+00 -0.27526570379E+03  0.27526572232E+03  0.10100000352E+00 0. -1.
    10030    2    1    2    0    0  0.00000000000E+00  0.00000000000E+00  0.51904492501E+02  0.60243593420E+03  0.60019578345E+03 0.  0.
        4    1    3    3  502    0 -0.13300421798E+03  0.23484273005E+03 -0.10574685702E+03  0.28987107570E+03  0.12699999809E+01 0.  1.
       -4    1    3    3    0  502  0.13300421798E+03 -0.23484273005E+03  0.15765134952E+03  0.31256485849E+03  0.12699999809E+01 0. -1.
</event>
<event>
 5   0  0.1418763E-03  0.6001965E+03  0.7818609E-02  0.9904998E-01
        1   -1    0    0  501    0  0.00000000000E+00  0.00000000000E+00  0.12025258344E+03  0.12025258354E+03  0.50400001928E-02 0.  1.
       -1   -1    0    0    0  501  0.00000000000E+00  0.00000000000E+00 -0.74891505598E+03  0.74891505599E+03  0.50400001928E-02 0. -1.
    10030    2    1    2    0    0  0.00000000000E+00  0.00000000000E+00 -0.62866247254E+03  0.86916763954E+03  0.60019653551E+03 0.  0.
        5    1    3    3  502    0 -0.91154675737E+02 -0.17364967695E+03  0.14538073157E+02  0.19671510054E+03  0.46999998093E+01 0.  1.
       -5    1    3    3    0  502  0.91154675737E+02  0.17364967695E+03 -0.64320054570E+03  0.67245253899E+03  0.46999998093E+01 0. -1.
</event>
<event>
 5   0  0.2346281E-03  0.5998534E+03  0.7818609E-02  0.9905710E-01
        2   -1    0    0  501    0  0.00000000000E+00  0.00000000000E+00  0.14172064812E+04  0.14172064812E+04  0.25500000920E-02 0. -1.
       -2   -1    0    0    0  501  0.00000000000E+00  0.00000000000E+00 -0.63474190295E+02  0.63474190346E+02  0.25500000920E-02 0.  1.
    10030    2    1    2    0    0  0.00000000000E+00  0.00000000000E+00  0.13537322909E+04  0.14806806715E+04  0.59985342848E+03 0.  0.
        3    1    3    3  502    0  0.13215941890E+02  0.12943759531E+03  0.98155147657E+01  0.13048029250E+03  0.10100000352E+00 0.  1.
       -3    1    3    3    0  502 -0.13215941890E+02 -0.12943759531E+03  0.13439167761E+04  0.13502003790E+04  0.10100000352E+00 0. -1.
</event>
<event>
 5   0  0.1418763E-03  0.6000271E+03  0.7818609E-02  0.9905350E-01
        1   -1    0    0  501    0  0.00000000000E+00  0.00000000000E+00  0.44479474761E+03  0.44479474764E+03  0.50400001928E-02 0. -1.
       -1   -1    0    0    0  501  0.00000000000E+00  0.00000000000E+00 -0.20235882469E+03  0.20235882475E+03  0.50400001928E-02 0.  1.
    10030    2    1    2    0    0  0.00000000000E+00  0.00000000000E+00  0.24243592292E+03  0.64715357239E+03  0.60002714066E+03 0.  0.
        5    1    3    3  502    0 -0.12843833886E+03 -0.16703923191E+03  0.35149972090E+03  0.40984467262E+03  0.46999998093E+01 0. -1.
       -5    1    3    3    0  502  0.12843833886E+03  0.16703923191E+03 -0.10906379797E+03  0.23730889977E+03  0.46999998093E+01 0.  1.
</event>
<event>
 5   0  0.2313168E-03  0.6001471E+03  0.7818609E-02  0.9905101E-01
       -2   -1    0    0    0  501  0.00000000000E+00  0.00000000000E+00  0.50499125922E+02  0.50499125986E+02  0.25500000920E-02 0. -1.
        2   -1    0    0  501    0  0.00000000000E+00  0.00000000000E+00 -0.17830832412E+04  0.17830832412E+04  0.25500000920E-02 0.  1.
    10030    2    1    2    0    0  0.00000000000E+00  0.00000000000E+00 -0.17325841153E+04  0.18335823672E+04  0.60014713259E+03 0.  0.
        2    1    3    3  502    0 -0.28198266286E+03 -0.58243695325E+02 -0.60817385121E+03  0.67289076639E+03  0.25500000920E-02 0.  1.
       -2    1    3    3    0  502  0.28198266286E+03  0.58243695325E+02 -0.11244102641E+04  0.11606916008E+04  0.25500000920E-02 0. -1.
</event>
<event>
 5   0  0.2421210E-03  0.5998789E+03  0.7818609E-02  0.9905657E-01
       -2   -1    0    0    0  501  0.00000000000E+00  0.00000000000E+00  0.77443704986E+02  0.77443705028E+02  0.25500000920E-02 0. -1.
        2   -1    0    0  501    0  0.00000000000E+00  0.00000000000E+00 -0.11616653957E+04  0.11616653957E+04  0.25500000920E-02 0.  1.
    10030    2    1    2    0    0  0.00000000000E+00  0.00000000000E+00 -0.10842216907E+04  0.12391091008E+04  0.59987889520E+03 0.  0.
        1    1    3    3  502    0  0.28461964914E+03  0.13951773540E+02 -0.34877394047E+03  0.45038456706E+03  0.50400001928E-02 0. -1.
       -1    1    3    3    0  502 -0.28461964914E+03 -0.13951773540E+02 -0.73544775027E+03  0.78872453370E+03  0.50400001928E-02 0.  1.
</event>
<event>
 5   0  0.1423430E-03  0.5995385E+03  0.7818609E-02  0.9906364E-01
        1   -1    0    0  501    0  0.00000000000E+00  0.00000000000E+00  0.60007654023E+03  0.60007654025E+03  0.50400001928E-02 0.  1.
       -1   -1    0    0    0  501  0.00000000000E+00  0.00000000000E+00 -0.14975024410E+03  0.14975024419E+03  0.50400001928E-02 0. -1.
    10030    2    1    2    0    0  0.00000000000E+00  0.00000000000E+00  0.45032629612E+03  0.74982678443E+03  0.59953851726E+03 0.  0.
        1    1    3    3  502    0  0.20608095365E+03 -0.92729465301E+01 -0.46858316060E+02  0.21154443695E+03  0.50400001928E-02 0. -1.
       -1    1    3    3    0  502 -0.20608095365E+03  0.92729465301E+01  0.49718461218E+03  0.53828234748E+03  0.50400001928E-02 0.  1.
</event>
<event>
 5   0  0.2324616E-03  0.5980060E+03  0.7818609E-02  0.9909552E-01
        2   -1    0    0  501    0  0.00000000000E+00  0.00000000000E+00  0.10242127657E+04  0.10242127657E+04  0.25500000920E-02 0.  1.
       -2   -1    0    0    0  501  0.00000000000E+00  0.00000000000E+00 -0.87289289298E+02  0.87289289335E+02  0.25500000920E-02 0. -1.
    10030    2    1    2    0    0  0.00000000000E+00  0.00000000000E+00  0.93692347641E+03  0.11115020550E+04  0.59800603486E+03 0.  0.
        4    1    3    3  502    0 -0.18287051003E+03  0.16878615298E+03  0.16039814421E+03  0.29607358282E+03  0.12699999809E+01 0. -1.
       -4    1    3    3    0  502  0.18287051003E+03 -0.16878615298E+03  0.77652533219E+03  0.81542847223E+03  0.12699999809E+01 0.  1.
</event>
<event>
 5   0  0.2324616E-03  0.5999901E+03  0.7818609E-02  0.9905427E-01
       -2   -1    0    0    0  501  0.00000000000E+00  0.00000000000E+00  0.40352726554E+02  0.40352726634E+02  0.25500000920E-02 0. -1.
        2   -1    0    0  501    0  0.00000000000E+00  0.00000000000E+00 -0.22302589459E+04  0.22302589459E+04  0.25500000920E-02 0.  1.
    10030    2    1    2    0    0  0.00000000000E+00  0.00000000000E+00 -0.21899062194E+04  0.22706116725E+04  0.59999009819E+03 0.  0.
        4    1    3    3  502    0  0.14855163707E+03  0.22903181049E+03 -0.15656871721E+04  0.15893083694E+04  0.12699999809E+01 0.  1.
       -4    1    3    3    0  502 -0.14855163707E+03 -0.22903181049E+03 -0.62421904723E+03  0.68130330318E+03  0.12699999809E+01 0. -1.
</event>
<event>
 5   0  0.2406307E-03  0.6003114E+03  0.7818609E-02  0.9904760E-01
       -2   -1    0    0    0  501  0.00000000000E+00  0.00000000000E+00  0.16720339581E+03  0.16720339583E+03  0.25500000920E-02 0.  1.
        2   -1    0    0  501    0  0.00000000000E+00  0.00000000000E+00 -0.53882540035E+03  0.53882540035E+03  0.25500000920E-02 0. -1.
    10030    2    1    2    0    0  0.00000000000E+00  0.00000000000E+00 -0.37162200454E+03  0.70602879618E+03  0.60031137485E+03 0.  0.
        5    1    3    3  502    0 -0.27290132020E+02 -0.29338230965E+03 -0.25289448883E+03  0.38832414733E+03  0.46999998093E+01 0.  1.
       -5    1    3    3    0  502  0.27290132020E+02  0.29338230965E+03 -0.11872751571E+03  0.31770464885E+03  0.46999998093E+01 0. -1.
</event>
<event>
 5   0  0.9496750E-04  0.5985612E+03  0.7818609E-02  0.9908396E-01
       -3   -1    0    0    0  501  0.00000000000E+00  0.00000000000E+00  0.16157001432E+03  0.16157004589E+03  0.10100000352E+00 0.  1.
        3   -1    0    0  501    0  0.00000000000E+00  0.00000000000E+00 -0.55436571135E+03  0.55436572055E+03  0.10100000352E+00 0. -1.
    10030    2    1    2    0    0  0.00000000000E+00  0.00000000000E+00 -0.39279569703E+03  0.71593576644E+03  0.59856124337E+03 0.  0.
        3    1    3    3  502    0 -0.21777290796E+03 -0.19335367772E+03 -0.11389163838E+03  0.31270113467E+03  0.10100000352E+00 0. -1.
       -3    1    3    3    0  502  0.21777290796E+03  0.19335367772E+03 -0.27890405865E+03  0.40323463177E+03  0.10100000352E+00 0.  1.
</event>
<event>
 5   0  0.1392854E-03  0.6001440E+03  0.7818609E-02  0.9905107E-01
        1   -1    0    0  501    0  0.00000000000E+00  0.00000000000E+00  0.13380615369E+04  0.13380615369E+04  0.50400001928E-02 0.  1.
       -1   -1    0    0    0  501  0.00000000000E+00  0.00000000000E+00 -0.67293768198E+02  0.67293768387E+02  0.50400001928E-02 0. -1.
    10030    2    1    2    0    0  0.00000000000E+00  0.00000000000E+00  0.12707677687E+04  0.14053553053E+04  0.60014399285E+03 0.  0.
        4    1    3    3  502    0  0.58618395800E+02  0.22261558017E+03  0.10861089936E+04  0.11102378897E+04  0.12699999809E+01 0.  1.
       -4    1    3    3    0  502 -0.58618395800E+02 -0.22261558017E+03  0.18465877509E+03  0.29511741558E+03  0.12699999809E+01 0. -1.
</event>
<event>
 5   0  0.1416315E-03  0.5997791E+03  0.7818609E-02  0.9905864E-01
        1   -1    0    0  501    0  0.00000000000E+00  0.00000000000E+00  0.50959812393E+03  0.50959812395E+03  0.50400001928E-02 0.  1.
       -1   -1    0    0    0  501  0.00000000000E+00  0.00000000000E+00 -0.17647973101E+03  0.17647973108E+03  0.50400001928E-02 0. -1.
    10030    2    1    2    0    0  0.00000000000E+00  0.00000000000E+00  0.33311839292E+03  0.68607785504E+03  0.59977909223E+03 0.  0.
        2    1    3    3  502    0  0.58202388329E+02 -0.24947779366E+03  0.34489897662E+03  0.42963006368E+03  0.25500000920E-02 0.  1.
       -2    1    3    3    0  502 -0.58202388329E+02  0.24947779366E+03 -0.11780583703E+02  0.25644779136E+03  0.25500000920E-02 0. -1.
</event>
<event>
 5   0  0.2346281E-03  0.6003503E+03  0.7818609E-02  0.9904680E-01
       -2   -1    0    0    0  501  0.00000000000E+00  0.00000000000E+00  0.14611696790E+04  0.14611696790E+04  0.25500000920E-02 0. -1.
        2   -1    0    0  501    0  0.00000000000E+00  0.00000000000E+00 -0.61666426179E+02  0.61666426232E+02  0.25500000920E-02 0.  1.
    10030    2    1    2    0    0  0.00000000000E+00  0.00000000000E+00  0.13995032528E+04  0.15228361052E+04  0.60035027171E+03 0.  0.
        3    1    3    3  502    0  0.12384920498E+03 -0.42759407733E+02  0.13848070432E+04  0.13909915706E+04  0.10100000352E+00 0. -1.
       -3    1    3    3    0  502 -0.12384920498E+03  0.42759407733E+02  0.14696209632E+02  0.13184453459E+03  0.10100000352E+00 0.  1.
</event>
<event>
 5   0  0.2324616E-03  0.5996924E+03  0.7818609E-02  0.9906045E-01
        2   -1    0    0  501    0  0.00000000000E+00  0.00000000000E+00  0.19584718804E+04  0.19584718804E+04  0.25500000920E-02 0. -1.
       -2   -1    0    0    0  501  0.00000000000E+00  0.00000000000E+00 -0.45907082622E+02  0.45907082692E+02  0.25500000920E-02 0.  1.
    10030    2    1    2    0    0  0.00000000000E+00  0.00000000000E+00  0.19125647978E+04  0.20043789631E+04  0.59969235612E+03 0.  0.
        4    1    3    3  502    0 -0.17293583697E+03 -0.13778163909E+03  0.16331839463E+04  0.16480843422E+04  0.12699999809E+01 0. -1.
       -4    1    3    3    0  502  0.17293583697E+03  0.13778163909E+03  0.27938085149E+03  0.35629462087E+03  0.12699999809E+01 0.  1.
</event>
<event>
 5   0  0.2324616E-03  0.6006924E+03  0.7818609E-02  0.9903971E-01
        2   -1    0    0  501    0  0.00000000000E+00  0.00000000000E+00  0.83982216418E+03  0.83982216418E+03  0.25500000920E-02 0. -1.
       -2   -1    0    0    0  501  0.00000000000E+00  0.00000000000E+00 -0.10741300853E+03  0.10741300856E+03  0.25500000920E-02 0.  1.
    10030    2    1    2    0    0  0.00000000000E+00  0.00000000000E+00  0.73240915565E+03  0.94723517274E+03  0.60069235155E+03 0.  0.
        4    1    3    3  502    0  0.43499356322E+02  0.23583765319E+03  0.65133519818E+03  0.69408266507E+03  0.12699999809E+01 0. -1.
       -4    1    3    3    0  502 -0.43499356322E+02 -0.23583765319E+03  0.81073957470E+02  0.25315250768E+03  0.12699999809E+01 0.  1.
</event>
<event>
 5   0  0.1479385E-03  0.6000284E+03  0.7818609E-02  0.9905347E-01
       -1   -1    0    0    0  501  0.00000000000E+00  0.00000000000E+00  0.16215948576E+03  0.16215948583E+03  0.50400001928E-02 0. -1.
        1   -1    0    0  501    0  0.00000000000E+00  0.00000000000E+00 -0.55506170581E+03  0.55506170583E+03  0.50400001928E-02 0.  1.
    10030    2    1    2    0    0  0.00000000000E+00  0.00000000000E+00 -0.39290222006E+03  0.71722119167E+03  0.60002840204E+03 0.  0.
        3    1    3    3  502    0 -0.32309369913E+02  0.89852302514E+02 -0.53641429377E+03  0.54484643379E+03  0.10100000352E+00 0.  1.
       -3    1    3    3    0  502  0.32309369913E+02 -0.89852302514E+02  0.14351207371E+03  0.17237475788E+03  0.10100000352E+00 0. -1.
</event>
<event>
 5   0  0.1423430E-03  0.6007542E+03  0.7818609E-02  0.9903843E-01
        1   -1    0    0  501    0  0.00000000000E+00  0.00000000000E+00  0.51612895158E+02  0.51612895404E+02  0.50400001928E-02 0.  1.
       -1   -1    0    0    0  501  0.00000000000E+00  0.00000000000E+00 -0.17481366379E+04  0.17481366379E+04  0.50400001928E-02 0. -1.
    10030    2    1    2    0    0  0.00000000000E+00  0.00000000000E+00 -0.16965237428E+04  0.17997495333E+04  0.60075417017E+03 0.  0.
        1    1    3    3  502    0 -0.20918718617E+03 -0.80989060202E+02 -0.14467349782E+04  0.14640220640E+04  0.50400001928E-02 0. -1.
       -1    1    3    3    0  502  0.20918718617E+03  0.80989060202E+02 -0.24978876457E+03  0.33572746933E+03  0.50400001928E-02 0.  1.
</event>
<event>
 5   0  0.1416315E-03  0.6000619E+03  0.7818609E-02  0.9905278E-01
       -1   -1    0    0    0  501  0.00000000000E+00  0.00000000000E+00  0.64488869527E+03  0.64488869529E+03  0.50400001928E-02 0. -1.
        1   -1    0    0  501    0  0.00000000000E+00  0.00000000000E+00 -0.13958778057E+03  0.13958778066E+03  0.50400001928E-02 0.  1.
    10030    2    1    2    0    0  0.00000000000E+00  0.00000000000E+00  0.50530091470E+03  0.78447647596E+03  0.60006193591E+03 0.  0.
        2    1    3    3  502    0  0.24779623161E+03  0.67988234691E+02  0.50149063375E+02  0.26180202639E+03  0.25500000920E-02 0.  1.
       -2    1    3    3    0  502 -0.24779623161E+03 -0.67988234691E+02  0.45515185133E+03  0.52267444957E+03  0.25500000920E-02 0. -1.
</event>
<event>
 5   0  0.2421210E-03  0.5997981E+03  0.7818609E-02  0.9905825E-01
        2   -1    0    0  501    0  0.00000000000E+00  0.00000000000E+00  0.50808287312E+03  0.50808287312E+03  0.25500000920E-02 0.  1.
       -2   -1    0    0    0  501  0.00000000000E+00  0.00000000000E+00 -0.17701727566E+03  0.17701727568E+03  0.25500000920E-02 0. -1.
    10030    2    1    2    0    0  0.00000000000E+00  0.00000000000E+00  0.33106559746E+03  0.68510014880E+03  0.59979811942E+03 0.  0.
        1    1    3    3  502    0 -0.29144376351E+03 -0.37049192181E+02  0.23432557850E+03  0.37579327654E+03  0.50400001928E-02 0.  1.
       -1    1    3    3    0  502  0.29144376351E+03  0.37049192181E+02  0.96740018961E+02  0.30930687226E+03  0.50400001928E-02 0. -1.
</event>
<event>
 5   0  0.2324616E-03  0.6001785E+03  0.7818609E-02  0.9905036E-01
       -2   -1    0    0    0  501  0.00000000000E+00  0.00000000000E+00  0.59852772405E+02  0.59852772459E+02  0.25500000920E-02 0.  1.
        2   -1    0    0  501    0  0.00000000000E+00  0.00000000000E+00 -0.15045843219E+04  0.15045843219E+04  0.25500000920E-02 0. -1.
    10030    2    1    2    0    0  0.00000000000E+00  0.00000000000E+00 -0.14447315495E+04  0.15644370944E+04  0.60017845022E+03 0.  0.
        4    1    3    3  502    0 -0.22163454061E+03  0.20228906721E+03 -0.71446215906E+03  0.77491968999E+03  0.12699999809E+01 0. -1.
       -4    1    3    3    0  502  0.22163454061E+03 -0.20228906721E+03 -0.73026939045E+03  0.78951740439E+03  0.12699999809E+01 0.  1.
</event>
<event>
 5   0  0.1418763E-03  0.6000223E+03  0.7818609E-02  0.9905360E-01
       -1   -1    0    0    0  501  0.00000000000E+00  0.00000000000E+00  0.55867345990E+02  0.55867346217E+02  0.50400001928E-02 0.  1.
        1   -1    0    0  501    0  0.00000000000E+00  0.00000000000E+00 -0.16110789074E+04  0.16110789074E+04  0.50400001928E-02 0. -1.
    10030    2    1    2    0    0  0.00000000000E+00  0.00000000000E+00 -0.15552115614E+04  0.16669462536E+04  0.60002234268E+03 0.  0.
        5    1    3    3  502    0  0.12295040594E+03  0.21826256099E+03 -0.31917672585E+03  0.40577237483E+03  0.46999998093E+01 0.  1.
       -5    1    3    3    0  502 -0.12295040594E+03 -0.21826256099E+03 -0.12360348355E+04  0.12611738788E+04  0.46999998093E+01 0. -1.
</event>
<event>
 5   0  0.2421210E-03  0.6000462E+03  0.7818609E-02  0.9905310E-01
       -2   -1    0    0    0  501  0.00000000000E+00  0.00000000000E+00  0.64979590105E+02  0.64979590155E+02  0.25500000920E-02 0.  1.
        2   -1    0    0  501    0  0.00000000000E+00  0.00000000000E+00 -0.13852635004E+04  0.13852635004E+04  0.25500000920E-02 0. -1.
    10030    2    1    2    0    0  0.00000000000E+00  0.00000000000E+00 -0.13202839103E+04  0.14502430906E+04  0.60004617983E+03 0.  0.
        1    1    3    3  502    0 -0.17454410044E+02  0.28693613359E+03 -0.45255899421E+03  0.53614050813E+03  0.50400001928E-02 0. -1.
       -1    1    3    3    0  502  0.17454410044E+02 -0.28693613359E+03 -0.86772491608E+03  0.91410258242E+03  0.50400001928E-02 0.  1.
</event>
<event>
 5   0  0.1423430E-03  0.6000469E+03  0.7818609E-02  0.9905309E-01
       -1   -1    0    0    0  501  0.00000000000E+00  0.00000000000E+00  0.96020712398E+02  0.96020712530E+02  0.50400001928E-02 0.  1.
        1   -1    0    0  501    0  0.00000000000E+00  0.00000000000E+00 -0.93744435418E+03  0.93744435419E+03  0.50400001928E-02 0. -1.
    10030    2    1    2    0    0  0.00000000000E+00  0.00000000000E+00 -0.84142364178E+03  0.10334650667E+04  0.60004691416E+03 0.  0.
        1    1    3    3  502    0 -0.18152047098E+03 -0.10105465500E+03 -0.79351214768E+03  0.82025804063E+03  0.50400001928E-02 0.  1.
       -1    1    3    3    0  502  0.18152047098E+03  0.10105465500E+03 -0.47911494103E+02  0.21320702609E+03  0.50400001928E-02 0. -1.
</event>
<event>
 5   0  0.1418763E-03  0.6007790E+03  0.7818609E-02  0.9903791E-01
       -1   -1    0    0    0  501  0.00000000000E+00  0.00000000000E+00  0.14893024327E+03  0.14893024336E+03  0.50400001928E-02 0. -1.
        1   -1    0    0  501    0  0.00000000000E+00  0.00000000000E+00 -0.60587993947E+03  0.60587993949E+03  0.50400001928E-02 0.  1.
    10030    2    1    2    0    0  0.00000000000E+00  0.00000000000E+00 -0.45694969620E+03  0.75481018285E+03  0.60077898372E+03 0.  0.
        5    1    3    3  502    0 -0.13803711729E+03  0.26575933647E+03 -0.19956469974E+03  0.35990336210E+03  0.46999998093E+01 0. -1.
       -5    1    3    3    0  502  0.13803711729E+03 -0.26575933647E+03 -0.25738499646E+03  0.39490682075E+03  0.46999998093E+01 0.  1.
</event>
<event>
 5   0  0.1418763E-03  0.6001586E+03  0.7818609E-02  0.9905077E-01
        1   -1    0    0  501    0  0.00000000000E+00  0.00000000000E+00  0.15465041940E+04  0.15465041940E+04  0.50400001928E-02 0. -1.
       -1   -1    0    0    0  501  0.00000000000E+00  0.00000000000E+00 -0.58226547722E+02  0.58226547940E+02  0.50400001928E-02 0.  1.
    10030    2    1    2    0    0  0.00000000000E+00  0.00000000000E+00  0.14882776463E+04  0.16047307420E+04  0.60015864715E+03 0.  0.
        5    1    3    3  502    0  0.26122227887E+03 -0.12533644636E+03  0.95261650002E+03  0.99571411051E+03  0.46999998093E+01 0. -1.
       -5    1    3    3    0  502 -0.26122227887E+03  0.12533644636E+03  0.53566114627E+03  0.60901663145E+03  0.46999998093E+01 0.  1.
</event>
<event>
 5   0  0.2406307E-03  0.5998232E+03  0.7818609E-02  0.9905773E-01
        2   -1    0    0  501    0  0.00000000000E+00  0.00000000000E+00  0.15063292710E+04  0.15063292710E+04  0.25500000920E-02 0. -1.
       -2   -1    0    0    0  501  0.00000000000E+00  0.00000000000E+00 -0.59712689868E+02  0.59712689923E+02  0.25500000920E-02 0.  1.
    10030    2    1    2    0    0  0.00000000000E+00  0.00000000000E+00  0.14466165812E+04  0.15660419610E+04  0.59982321611E+03 0.  0.
        5    1    3    3  502    0 -0.19731082427E+03  0.15378186806E+03  0.11550408334E+04  0.11818298698E+04  0.46999998093E+01 0. -1.
       -5    1    3    3    0  502  0.19731082427E+03 -0.15378186806E+03  0.29157574780E+03  0.38421209120E+03  0.46999998093E+01 0.  1.
</event>
<event>
 5   0  0.2406307E-03  0.6013204E+03  0.7818609E-02  0.9902671E-01
       -2   -1    0    0    0  501  0.00000000000E+00  0.00000000000E+00  0.64897788799E+02  0.64897788850E+02  0.25500000920E-02 0. -1.
        2   -1    0    0  501    0  0.00000000000E+00  0.00000000000E+00 -0.13929063771E+04  0.13929063771E+04  0.25500000920E-02 0.  1.
    10030    2    1    2    0    0  0.00000000000E+00  0.00000000000E+00 -0.13280085883E+04  0.14578041659E+04  0.60132036026E+03 0.  0.
        5    1    3    3  502    0 -0.29084508930E+00 -0.17774584035E+03 -0.12517791057E+04  0.12643443707E+04  0.46999998093E+01 0.  1.
       -5    1    3    3    0  502  0.29084508930E+00  0.17774584035E+03 -0.76229482626E+02  0.19345979524E+03  0.46999998093E+01 0. -1.
</event>
<event>
 5   0  0.2313168E-03  0.6000240E+03  0.7818609E-02  0.9905356E-01
        2   -1    0    0  501    0  0.00000000000E+00  0.00000000000E+00  0.23856313032E+03  0.23856313033E+03  0.25500000920E-02 0. -1.
       -2   -1    0    0    0  501  0.00000000000E+00  0.00000000000E+00 -0.37728876034E+03  0.37728876035E+03  0.25500000920E-02 0.  1.
    10030    2    1    2    0    0  0.00000000000E+00  0.00000000000E+00 -0.13872563003E+03  0.61585189068E+03  0.60002395855E+03 0.  0.
        2    1    3    3  502    0  0.22611464212E+03  0.12959759378E+03 -0.22188913307E+03  0.34228373475E+03  0.25500000920E-02 0.  1.
       -2    1    3    3    0  502 -0.22611464212E+03 -0.12959759378E+03  0.83163503040E+02  0.27356815593E+03  0.25500000920E-02 0. -1.
</event>
<event>
 5   0  0.1423430E-03  0.5998826E+03  0.7818609E-02  0.9905650E-01
        1   -1    0    0  501    0  0.00000000000E+00  0.00000000000E+00  0.13519962733E+03  0.13519962742E+03  0.50400001928E-02 0. -1.
       -1   -1    0    0    0  501  0.00000000000E+00  0.00000000000E+00 -0.66542186795E+03  0.66542186796E+03  0.50400001928E-02 0.  1.
    10030    2    1    2    0    0  0.00000000000E+00  0.00000000000E+00 -0.53022224062E+03  0.80062149539E+03  0.59988261722E+03 0.  0.
        1    1    3    3  502    0 -0.65290215164E+02 -0.53145007428E+02 -0.64933071638E+03  0.65476528868E+03  0.50400001928E-02 0.  1.
       -1    1    3    3    0  502  0.65290215164E+02  0.53145007428E+02  0.11910847576E+03  0.14585620670E+03  0.50400001928E-02 0. -1.
</event>
<event>
 5   0  0.2406307E-03  0.6001125E+03  0.7818609E-02  0.9905173E-01
       -2   -1    0    0    0  501  0.00000000000E+00  0.00000000000E+00  0.29791868810E+03  0.29791868811E+03  0.25500000920E-02 0.  1.
        2   -1    0    0  501    0  0.00000000000E+00  0.00000000000E+00 -0.30220911677E+03  0.30220911678E+03  0.25500000920E-02 0. -1.
    10030    2    1    2    0    0  0.00000000000E+00  0.00000000000E+00 -0.42904286721E+01  0.60012780488E+03  0.60011246814E+03 0.  0.
        5    1    3    3  502    0  0.14010600073E+02 -0.11893107538E+03 -0.27723542463E+03  0.30203057507E+03  0.46999998093E+01 0. -1.
       -5    1    3    3    0  502 -0.14010600073E+02  0.11893107538E+03  0.27294499596E+03  0.29809722982E+03  0.46999998093E+01 0.  1.
</event>
<event>
 5   0  0.1479385E-03  0.6002656E+03  0.7818609E-02  0.9904855E-01
       -1   -1    0    0    0  501  0.00000000000E+00  0.00000000000E+00  0.72633817936E+03  0.72633817937E+03  0.50400001928E-02 0. -1.
        1   -1    0    0  501    0  0.00000000000E+00  0.00000000000E+00 -0.12401896648E+03  0.12401896658E+03  0.50400001928E-02 0.  1.
    10030    2    1    2    0    0  0.00000000000E+00  0.00000000000E+00  0.60231921288E+03  0.85035714596E+03  0.60026564243E+03 0.  0.
        3    1    3    3  502    0  0.25893547266E+03  0.57452361616E+02  0.50015189647E+03  0.56612744378E+03  0.10100000352E+00 0. -1.
       -3    1    3    3    0  502 -0.25893547266E+03 -0.57452361616E+02  0.10216731640E+03  0.28422970217E+03  0.10100000352E+00 0.  1.
</event>
<event>
 5   0  0.2346281E-03  0.5997348E+03  0.7818609E-02  0.9905956E-01
       -2   -1    0    0    0  501  0.00000000000E+00  0.00000000000E+00  0.96290881439E+02  0.96290881473E+02  0.25500000920E-02 0. -1.
        2   -1    0    0  501    0  0.00000000000E+00  0.00000000000E+00 -0.93384187085E+03  0.93384187085E+03  0.25500000920E-02 0.  1.
    10030    2    1    2    0    0  0.00000000000E+00  0.00000000000E+00 -0.83755098941E+03  0.10301327523E+04  0.59973479768E+03 0.  0.
        3    1    3    3  502    0 -0.40571464209E+01 -0.92014452751E+02 -0.90894433715E+03  0.91359889349E+03  0.10100000352E+00 0.  1.
       -3    1    3    3    0  502  0.40571464209E+01  0.92014452751E+02  0.71393347740E+02  0.11653385883E+03  0.10100000352E+00 0. -1.
</event>
<event>
 5   0  0.2406307E-03  0.6002064E+03  0.7818609E-02  0.9904978E-01
        2   -1    0    0  501    0  0.00000000000E+00  0.00000000000E+00  0.47010040455E+03  0.47010040456E+03  0.25500000920E-02 0. -1.
       -2   -1    0    0    0  501  0.00000000000E+00  0.00000000000E+00 -0.19158021633E+03  0.19158021635E+03  0.25500000920E-02 0.  1.
    10030    2    1    2    0    0  0.00000000000E+00  0.00000000000E+00  0.27852018822E+03  0.66168062091E+03  0.60020642185E+03 0.  0.
        5    1    3    3  502    0  0.11085195600E+03 -0.19324319823E+03 -0.82347952404E+02  0.23755918225E+03  0.46999998093E+01 0.  1.
       -5    1    3    3    0  502 -0.11085195600E+03  0.19324319823E+03  0.36086814063E+03  0.42412143865E+03  0.46999998093E+01 0. -1.
</event>
<event>
 5   0  0.1392854E-03  0.6003494E+03  0.7818609E-02  0.9904681E-01
       -1   -1    0    0    0  501  0.00000000000E+00  0.00000000000E+00  0.20562984075E+03  0.20562984082E+03  0.50400001928E-02 0.  1.
        1   -1    0    0  501    0  0.00000000000E+00  0.00000000000E+00 -0.43818962922E+03  0.43818962925E+03  0.50400001928E-02 0. -1.
    10030    2    1    2    0    0  0.00000000000E+00  0.00000000000E+00 -0.23255978846E+03  0.64381947006E+03  0.60034944392E+03 0.  0.
        4    1    3    3  502    0 -0.50758723832E+02  0.95017207669E+02  0.18418294298E+03  0.21337686656E+03  0.12699999809E+01 0.  1.
       -4    1    3    3    0  502  0.50758723832E+02 -0.95017207669E+02 -0.41674273144E+03  0.43044260350E+03  0.12699999809E+01 0. -1.
</event>
<event>
 5   0  0.2346281E-03  0.6001884E+03  0.7818609E-02  0.9905015E-01
        2   -1    0    0  501    0  0.00000000000E+00  0.00000000000E+00  0.14078171261E+04  0.14078171261E+04  0.25500000920E-02 0.  1.
       -2   -1    0    0    0  501  0.00000000000E+00  0.00000000000E+00 -0.63968909277E+02  0.63968909328E+02  0.25500000920E-02 0. -1.
    10030    2    1    2    0    0  0.00000000000E+00  0.00000000000E+00  0.13438482168E+04  0.14717860354E+04  0.60018839061E+03 0.  0.
        3    1    3    3  502    0  0.24389834728E+03 -0.11224060866E+03  0.10006676269E+04  0.10360598765E+04  0.10100000352E+00 0.  1.
       -3    1    3    3    0  502 -0.24389834728E+03  0.11224060866E+03  0.34318058990E+03  0.43572615887E+03  0.10100000352E+00 0. -1.
</event>
<event>
 5   0  0.2313168E-03  0.6000017E+03  0.7818609E-02  0.9905402E-01
        2   -1    0    0  501    0  0.00000000000E+00  0.00000000000E+00  0.83567136158E+03  0.83567136158E+03  0.25500000920E-02 0. -1.
       -2   -1    0    0    0  501  0.00000000000E+00  0.00000000000E+00 -0.10769846427E+03  0.10769846430E+03  0.25500000920E-02 0.  1.
    10030    2    1    2    0    0  0.00000000000E+00  0.00000000000E+00  0.72797289731E+03  0.94336982588E+03  0.60000174097E+03 0.  0.
        2    1    3    3  502    0 -0.13064383310E+03 -0.17128847219E+01  0.78858832971E+03  0.79933866344E+03  0.25500000920E-02 0. -1.
       -2    1    3    3    0  502  0.13064383310E+03  0.17128847219E+01 -0.60615432407E+02  0.14403116244E+03  0.25500000920E-02 0.  1.
</event>
<event>
 5   0  0.2324616E-03  0.5998235E+03  0.7818609E-02  0.9905772E-01
        2   -1    0    0  501    0  0.00000000000E+00  0.00000000000E+00  0.11135477161E+04  0.11135477161E+04  0.25500000920E-02 0.  1.
       -2   -1    0    0    0  501  0.00000000000E+00  0.00000000000E+00 -0.80775210820E+02  0.80775210861E+02  0.25500000920E-02 0. -1.
    10030    2    1    2    0    0  0.00000000000E+00  0.00000000000E+00  0.10327725052E+04  0.11943229269E+04  0.59982347920E+03 0.  0.
        4    1    3    3  502    0  0.24665208973E+03 -0.46334211330E+02  0.18944559431E+03  0.31444452390E+03  0.12699999809E+01 0. -1.
       -4    1    3    3    0  502 -0.24665208973E+03  0.46334211330E+02  0.84332691092E+03  0.87987840302E+03  0.12699999809E+01 0.  1.
</event>
<event>
 5   0  0.2346281E-03  0.6000716E+03  0.7818609E-02  0.9905258E-01
       -2   -1    0    0    0  501  0.00000000000E+00  0.00000000000E+00  0.51078135375E+03  0.51078135376E+03  0.25500000920E-02 0.  1.
        2   -1    0    0  501    0  0.00000000000E+00  0.00000000000E+00 -0.17624266758E+03  0.17624266759E+03  0.25500000920E-02 0. -1.
    10030    2    1    2    0    0  0.00000000000E+00  0.00000000000E+00  0.33453868617E+03  0.68702402135E+03  0.60007155687E+03 0.  0.
        3    1    3    3  502    0  0.63526482724E+02  0.98432634951E+02 -0.14897459840E+03  0.18952054981E+03  0.10100000352E+00 0. -1.
       -3    1    3    3    0  502 -0.63526482724E+02 -0.98432634951E+02  0.48351328458E+03  0.49750347154E+03  0.10100000352E+00 0.  1.
</event>
<event>
 5   0  0.2421210E-03  0.5998689E+03  0.7818609E-02  0.9905678E-01
       -2   -1    0    0    0  501  0.00000000000E+00  0.00000000000E+00  0.21743677599E+03  0.21743677600E+03  0.25500000920E-02 0. -1.
        2   -1    0    0  501    0  0.00000000000E+00  0.00000000000E+00 -0.41373257050E+03  0.41373257051E+03  0.25500000920E-02 0.  1.
    10030    2    1    2    0    0  0.00000000000E+00  0.00000000000E+00 -0.19629579451E+03  0.63116934651E+03  0.59986890654E+03 0.  0.
        1    1    3    3  502    0  0.99148179547E+02  0.27636396964E+03 -0.33687272647E+02  0.29553720170E+03  0.50400001928E-02 0. -1.
       -1    1    3    3    0  502 -0.99148179547E+02 -0.27636396964E+03 -0.16260852186E+03  0.33563214481E+03  0.50400001928E-02 0.  1.
</event>
<event>
 5   0  0.2421210E-03  0.6002626E+03  0.7818609E-02  0.9904861E-01
       -2   -1    0    0    0  501  0.00000000000E+00  0.00000000000E+00  0.10632925258E+03  0.10632925261E+03  0.25500000920E-02 0.  1.
        2   -1    0    0  501    0  0.00000000000E+00  0.00000000000E+00 -0.84716840360E+03  0.84716840361E+03  0.25500000920E-02 0. -1.
    10030    2    1    2    0    0  0.00000000000E+00  0.00000000000E+00 -0.74083915102E+03  0.95349765621E+03  0.60026255315E+03 0.  0.
        1    1    3    3  502    0 -0.13576198388E+03 -0.89566010242E+02 -0.77109585301E+03  0.78806230782E+03  0.50400001928E-02 0. -1.
       -1    1    3    3    0  502  0.13576198388E+03  0.89566010242E+02  0.30256701982E+02  0.16543534839E+03  0.50400001928E-02 0.  1.
</event>
<event>
 5   0  0.1423430E-03  0.6000964E+03  0.7818609E-02  0.9905206E-01
        1   -1    0    0  501    0  0.00000000000E+00  0.00000000000E+00  0.75041909110E+03  0.75041909112E+03  0.50400001928E-02 0.  1.
       -1   -1    0    0    0  501  0.00000000000E+00  0.00000000000E+00 -0.11997153318E+03  0.11997153328E+03  0.50400001928E-02 0. -1.
    10030    2    1    2    0    0  0.00000000000E+00  0.00000000000E+00  0.63044755793E+03  0.87039062440E+03  0.60009642204E+03 0.  0.
        1    1    3    3  502    0  0.13034411716E+03 -0.19213056272E+03  0.59089930899E+03  0.63487458242E+03  0.50400001928E-02 0.  1.
       -1    1    3    3    0  502 -0.13034411716E+03  0.19213056272E+03  0.39548248935E+02  0.23551604198E+03  0.50400001928E-02 0. -1.
</event>
<event>
 5   0  0.1416315E-03  0.6000363E+03  0.7818609E-02  0.9905331E-01
       -1   -1    0    0    0  501  0.00000000000E+00  0.00000000000E+00  0.10217948188E+03  0.10217948201E+03  0.50400001928E-02 0.  1.
        1   -1    0    0  501    0  0.00000000000E+00  0.00000000000E+00 -0.88090956000E+03  0.88090956002E+03  0.50400001928E-02 0. -1.
    10030    2    1    2    0    0  0.00000000000E+00  0.00000000000E+00 -0.77873007812E+03  0.98308904202E+03  0.60003627388E+03 0.  0.
        2    1    3    3  502    0  0.15830864079E+03 -0.17098943521E+03 -0.69897979066E+03  0.73679831736E+03  0.25500000920E-02 0. -1.
       -2    1    3    3    0  502 -0.15830864079E+03  0.17098943521E+03 -0.79750287458E+02  0.24629072467E+03  0.25500000920E-02 0.  1.
</event>
<event>
 5   0  0.2421210E-03  0.5995330E+03  0.7818609E-02  0.9906375E-01
       -2   -1    0    0    0  501  0.00000000000E+00  0.00000000000E+00  0.14078427056E+03  0.14078427058E+03  0.25500000920E-02 0.  1.
        2   -1    0    0  501    0  0.00000000000E+00  0.00000000000E+00 -0.63828129717E+03  0.63828129718E+03  0.25500000920E-02 0. -1.
    10030    2    1    2    0    0  0.00000000000E+00  0.00000000000E+00 -0.49749702661E+03  0.77906556776E+03  0.59953304111E+03 0.  0.
        1    1    3    3  502    0  0.24505106672E+03 -0.12784962182E+03 -0.97964727309E+02  0.29324501517E+03  0.50400001928E-02 0. -1.
       -1    1    3    3    0  502 -0.24505106672E+03  0.12784962182E+03 -0.39953229931E+03  0.48582055259E+03  0.50400001928E-02 0.  1.
</event>
<event>
 5   0  0.1479385E-03  0.5996293E+03  0.7818609E-02  0.9906175E-01
       -1   -1    0    0    0  501  0.00000000000E+00  0.00000000000E+00  0.22826297567E+03  0.22826297572E+03  0.50400001928E-02 0. -1.
        1   -1    0    0  501    0  0.00000000000E+00  0.00000000000E+00 -0.39379498911E+03  0.39379498914E+03  0.50400001928E-02 0.  1.
    10030    2    1    2    0    0  0.00000000000E+00  0.00000000000E+00 -0.16553201344E+03  0.62205796487E+03  0.59962927229E+03 0.  0.
        3    1    3    3  502    0  0.11892683236E+03  0.24435520202E+02  0.20161925726E+03  0.23535297152E+03  0.10100000352E+00 0. -1.
       -3    1    3    3    0  502 -0.11892683236E+03 -0.24435520202E+02 -0.36715127070E+03  0.38670499335E+03  0.10100000352E+00 0.  1.
</event>
<event>
 5   0  0.2406307E-03  0.6005740E+03  0.7818609E-02  0.9904216E-01
        2   -1    0    0  501    0  0.00000000000E+00  0.00000000000E+00  0.78783242398E+03  0.78783242398E+03  0.25500000920E-02 0. -1.
       -2   -1    0    0    0  501  0.00000000000E+00  0.00000000000E+00 -0.11445618611E+03  0.11445618614E+03  0.25500000920E-02 0.  1.
    10030    2    1    2    0    0  0.00000000000E+00  0.00000000000E+00  0.67337623787E+03  0.90228861012E+03  0.60057404058E+03 0.  0.
        5    1    3    3  502    0  0.14323404557E+03  0.22924087210E+03  0.53305077413E+03  0.59768937338E+03  0.46999998093E+01 0. -1.
       -5    1    3    3    0  502 -0.14323404557E+03 -0.22924087210E+03  0.14032546374E+03  0.30459923674E+03  0.46999998093E+01 0.  1.
</event>
<event>
 5   0  0.1479385E-03  0.6006152E+03  0.7818609E-02  0.9904131E-01
       -1   -1    0    0    0  501  0.00000000000E+00  0.00000000000E+00  0.51830378498E+03  0.51830378500E+03  0.50400001928E-02 0. -1.
        1   -1    0    0  501    0  0.00000000000E+00  0.00000000000E+00 -0.17399958019E+03  0.17399958026E+03  0.50400001928E-02 0.  1.
    10030    2    1    2    0    0  0.00000000000E+00  0.00000000000E+00  0.34430420479E+03  0.69230336526E+03  0.60061515475E+03 0.  0.
        3    1    3    3  502    0  0.17595668791E+03 -0.23101081856E+03  0.83931450471E+02  0.30227678193E+03  0.10100000352E+00 0.  1.
       -3    1    3    3    0  502 -0.17595668791E+03  0.23101081856E+03  0.26037275432E+03  0.39002658333E+03  0.10100000352E+00 0. -1.
</event>
<event>
 5   0  0.2313168E-03  0.5998890E+03  0.7818609E-02  0.9905636E-01
       -2   -1    0    0    0  501  0.00000000000E+00  0.00000000000E+00  0.78825236786E+03  0.78825236786E+03  0.25500000920E-02 0. -1.
        2   -1    0    0  501    0  0.00000000000E+00  0.00000000000E+00 -0.11413440042E+03  0.11413440045E+03  0.25500000920E-02 0.  1.
    10030    2    1    2    0    0  0.00000000000E+00  0.00000000000E+00  0.67411796744E+03  0.90238676831E+03  0.59988902774E+03 0.  0.
        2    1    3    3  502    0 -0.18046950373E+02 -0.13965551576E+03 -0.61320069173E+02  0.15358875737E+03  0.25500000920E-02 0.  1.
       -2    1    3    3    0  502  0.18046950373E+02  0.13965551576E+03  0.73543803661E+03  0.74879801095E+03  0.25500000920E-02 0. -1.
</event>
<event>
 5   0  0.1392854E-03  0.6000470E+03  0.7818609E-02  0.9905309E-01
       -1   -1    0    0    0  501  0.00000000000E+00  0.00000000000E+00  0.34381030744E+03  0.34381030748E+03  0.50400001928E-02 0. -1.
        1   -1    0    0  501    0  0.00000000000E+00  0.00000000000E+00 -0.26181326388E+03  0.26181326393E+03  0.50400001928E-02 0.  1.
    10030    2    1    2    0    0  0.00000000000E+00  0.00000000000E+00  0.81997043558E+02  0.60562357141E+03  0.60004699408E+03 0.  0.
        4    1    3    3  502    0  0.57394578422E+02  0.26630713823E+03 -0.85863120979E+02  0.28563563845E+03  0.12699999809E+01 0.  1.
       -4    1    3    3    0  502 -0.57394578422E+02 -0.26630713823E+03  0.16786016454E+03  0.31998793297E+03  0.12699999809E+01 0. -1.
</event>
<event>
 5   0  0.1418763E-03  0.6001526E+03  0.7818609E-02  0.9905090E-01
       -1   -1    0    0    0  501  0.00000000000E+00  0.00000000000E+00  0.18289770766E+03  0.18289770773E+03  0.50400001928E-02 0.  1.
        1   -1    0    0  501    0  0.00000000000E+00  0.00000000000E+00 -0.49232862038E+03  0.49232862040E+03  0.50400001928E-02 0. -1.
    10030    2    1    2    0    0  0.00000000000E+00  0.00000000000E+00 -0.30943091272E+03  0.67522632813E+03  0.60015256765E+03 0.  0.
        5    1    3    3  502    0  0.15783488078E+03  0.18045566824E+03 -0.35769258585E+03  0.43062997313E+03  0.46999998093E+01 0. -1.
       -5    1    3    3    0  502 -0.15783488078E+03 -0.18045566824E+03  0.48261673127E+02  0.24459635500E+03  0.46999998093E+01 0.  1.
</event>
<event>
 5   0  0.1423430E-03  0.6001180E+03  0.7818609E-02  0.9905161E-01
        1   -1    0    0  501    0  0.00000000000E+00  0.00000000000E+00  0.31028804592E+03  0.31028804596E+03  0.50400001928E-02 0. -1.
       -1   -1    0    0    0  501  0.00000000000E+00  0.00000000000E+00 -0.29016715277E+03  0.29016715281E+03  0.50400001928E-02 0.  1.
    10030    2    1    2    0    0  0.00000000000E+00  0.00000000000E+00  0.20120893146E+02  0.60045519877E+03  0.60011798456E+03 0.  0.
        1    1    3    3  502    0  0.24286508907E+03 -0.49394368922E+02 -0.15918584665E+03  0.29455625773E+03  0.50400001928E-02 0.  1.
       -1    1    3    3    0  502 -0.24286508907E+03  0.49394368922E+02  0.17930673980E+03  0.30589894104E+03  0.50400001928E-02 0. -1.
</event>
<event>
 5   0  0.1416315E-03  0.5999962E+03  0.7818609E-02  0.9905414E-01
       -1   -1    0    0    0  501  0.00000000000E+00  0.00000000000E+00  0.15287478126E+03  0.15287478135E+03  0.50400001928E-02 0. -1.
        1   -1    0    0  501    0  0.00000000000E+00  0.00000000000E+00 -0.58870965057E+03  0.58870965059E+03  0.50400001928E-02 0.  1.
    10030    2    1    2    0    0  0.00000000000E+00  0.00000000000E+00 -0.43583486931E+03  0.74158443194E+03  0.59999619698E+03 0.  0.
        2    1    3    3  502    0 -0.22812812757E+03  0.11669009960E+03 -0.41074580931E+03  0.48411893353E+03  0.25500000920E-02 0. -1.
       -2    1    3    3    0  502  0.22812812757E+03 -0.11669009960E+03 -0.25089060001E+02  0.25746549841E+03  0.25500000920E-02 0.  1.
</event>
<event>
 5   0  0.2346281E-03  0.6012966E+03  0.7818609E-02  0.9902720E-01
       -2   -1    0    0    0  501  0.00000000000E+00  0.00000000000E+00  0.44759653539E+03  0.44759653540E+03  0.25500000920E-02 0. -1.
        2   -1    0    0  501    0  0.00000000000E+00  0.00000000000E+00 -0.20194392691E+03  0.20194392692E+03  0.25500000920E-02 0.  1.
    10030    2    1    2    0    0  0.00000000000E+00  0.00000000000E+00  0.24565260849E+03  0.64954046233E+03  0.60129660580E+03 0.  0.
        3    1    3    3  502    0 -0.21363008827E+03 -0.20892470010E+03  0.15868689984E+03  0.33833250997E+03  0.10100000352E+00 0. -1.
       -3    1    3    3    0  502  0.21363008827E+03  0.20892470010E+03  0.86965708649E+02  0.31120795235E+03  0.10100000352E+00 0.  1.
</event>
<event>
 5   0  0.2421210E-03  0.5996518E+03  0.7818609E-02  0.9906129E-01
       -2   -1    0    0    0  501  0.00000000000E+00  0.00000000000E+00  0.10834464963E+03  0.10834464966E+03  0.25500000920E-02 0. -1.
        2   -1    0    0  501    0  0.00000000000E+00  0.00000000000E+00 -0.82971845955E+03  0.82971845956E+03  0.25500000920E-02 0.  1.
    10030    2    1    2    0    0  0.00000000000E+00  0.00000000000E+00 -0.72137380993E+03  0.93806310922E+03  0.59965175163E+03 0.  0.
        1    1    3    3  502    0  0.13274060063E+03 -0.17924856624E+03 -0.47249327006E+02  0.22799696156E+03  0.50400001928E-02 0. -1.
       -1    1    3    3    0  502 -0.13274060063E+03  0.17924856624E+03 -0.67412448292E+03  0.71006614766E+03  0.50400001928E-02 0.  1.
</event>
<event>
 5   0  0.9496750E-04  0.5997766E+03  0.7818609E-02  0.9905870E-01
       -4   -1    0    0    0  501  0.00000000000E+00  0.00000000000E+00  0.29640368897E+03  0.29640640974E+03  0.12699999809E+01 0.  1.
        4   -1    0    0  501    0  0.00000000000E+00  0.00000000000E+00 -0.30340839803E+03  0.30341105599E+03  0.12699999809E+01 0. -1.
    10030    2    1    2    0    0  0.00000000000E+00  0.00000000000E+00 -0.70047090536E+01  0.59981746573E+03  0.59977656360E+03 0.  0.
        5    1    3    3  502    0  0.20211210557E+03  0.10189690589E+03 -0.20018454619E+03  0.30220560084E+03  0.46999998093E+01 0. -1.
       -5    1    3    3    0  502 -0.20211210557E+03 -0.10189690589E+03  0.19317983714E+03  0.29761186489E+03  0.46999998093E+01 0.  1.
</event>
<event>
 5   0  0.1416315E-03  0.5999344E+03  0.7818609E-02  0.9905542E-01
        1   -1    0    0  501    0  0.00000000000E+00  0.00000000000E+00  0.68579640628E+03  0.68579640630E+03  0.50400001928E-02 0.  1.
       -1   -1    0    0    0  501  0.00000000000E+00  0.00000000000E+00 -0.13120557512E+03  0.13120557522E+03  0.50400001928E-02 0. -1.
    10030    2    1    2    0    0  0.00000000000E+00  0.00000000000E+00  0.55459083116E+03  0.81700198152E+03  0.59993436957E+03 0.  0.
        2    1    3    3  502    0 -0.57931647436E+02  0.64910014462E+02  0.66823690614E+03  0.67387680513E+03  0.25500000920E-02 0.  1.
       -2    1    3    3    0  502  0.57931647436E+02 -0.64910014462E+02 -0.11364607498E+03  0.14312517639E+03  0.25500000920E-02 0. -1.
</event>
<event>
 5   0  0.1479385E-03  0.5998376E+03  0.7818609E-02  0.9905743E-01
        1   -1    0    0  501    0  0.00000000000E+00  0.00000000000E+00  0.12726298347E+04  0.12726298347E+04  0.50400001928E-02 0.  1.
       -1   -1    0    0    0  501  0.00000000000E+00  0.00000000000E+00 -0.70681429482E+02  0.70681429662E+02  0.50400001928E-02 0. -1.
    10030    2    1    2    0    0  0.00000000000E+00  0.00000000000E+00  0.12019484052E+04  0.13433112644E+04  0.59983763151E+03 0.  0.
        3    1    3    3  502    0 -0.10767356667E+03 -0.27967147337E+03  0.57432974505E+03  0.64781509416E+03  0.10100000352E+00 0.  1.
       -3    1    3    3    0  502  0.10767356667E+03  0.27967147337E+03  0.62761866015E+03  0.69549617019E+03  0.10100000352E+00 0. -1.
</event>
<event>
 5   0  0.1392854E-03  0.6005520E+03  0.7818609E-02  0.9904262E-01
       -1   -1    0    0    0  501  0.00000000000E+00  0.00000000000E+00  0.72559608874E+02  0.72559609049E+02  0.50400001928E-02 0.  1.
        1   -1    0    0  501    0  0.00000000000E+00  0.00000000000E+00 -0.12426427854E+04  0.12426427854E+04  0.50400001928E-02 0. -1.
    10030    2    1    2    0    0  0.00000000000E+00  0.00000000000E+00 -0.11700831765E+04  0.13152023945E+04  0.60055199476E+03 0.  0.
        4    1    3    3  502    0  0.11550576102E+03  0.21105108122E+03 -0.97850849880E+03  0.10076530330E+04  0.12699999809E+01 0. -1.
       -4    1    3    3    0  502 -0.11550576102E+03 -0.21105108122E+03 -0.19157467772E+03  0.30754936150E+03  0.12699999809E+01 0.  1.
</event>
<event>
 5   0  0.2313168E-03  0.6000412E+03  0.7818609E-02  0.9905321E-01
       -2   -1    0    0    0  501  0.00000000000E+00  0.00000000000E+00  0.58794995314E+03  0.58794995314E+03  0.25500000920E-02 0. -1.
        2   -1    0    0  501    0  0.00000000000E+00  0.00000000000E+00 -0.15309525748E+03  0.15309525750E+03  0.25500000920E-02 0.  1.
    10030    2    1    2    0    0  0.00000000000E+00  0.00000000000E+00  0.43485469566E+03  0.74104521065E+03  0.60004116350E+03 0.  0.
        2    1    3    3  502    0 -0.10785362306E+03 -0.25200263745E+03  0.36804870079E+03  0.45890911894E+03  0.25500000920E-02 0. -1.
       -2    1    3    3    0  502  0.10785362306E+03  0.25200263745E+03  0.66805994872E+02  0.28213609171E+03  0.25500000920E-02 0.  1.
</event>
<event>
 5   0  0.2421210E-03  0.5998534E+03  0.7818609E-02  0.9905710E-01
        2   -1    0    0  501    0  0.00000000000E+00  0.00000000000E+00  0.12074445584E+04  0.12074445584E+04  0.25500000920E-02 0. -1.
       -2   -1    0    0    0  501  0.00000000000E+00  0.00000000000E+00 -0.74501172325E+02  0.74501172368E+02  0.25500000920E-02 0.  1.
    10030    2    1    2    0    0  0.00000000000E+00  0.00000000000E+00  0.11329433861E+04  0.12819457308E+04  0.59985343259E+03 0.  0.
        1    1    3    3  502    0 -0.26132937187E+03 -0.24045253889E+02  0.25615192367E+03  0.36672199670E+03  0.50400001928E-02 0.  1.
       -1    1    3    3    0  502  0.26132937187E+03  0.24045253889E+02  0.87679146241E+03  0.91522373408E+03  0.50400001928E-02 0. -1.
</event>
<event>
 5   0  0.9496750E-04  0.5995242E+03  0.7818609E-02  0.9906394E-01
        3   -1    0    0  501    0  0.00000000000E+00  0.00000000000E+00  0.90565691783E+02  0.90565748102E+02  0.10100000352E+00 0. -1.
       -3   -1    0    0    0  501  0.00000000000E+00  0.00000000000E+00 -0.99217792205E+03  0.99217792719E+03  0.10100000352E+00 0.  1.
    10030    2    1    2    0    0  0.00000000000E+00  0.00000000000E+00 -0.90161223027E+03  0.10827436753E+04  0.59952418852E+03 0.  0.
        2    1    3    3  502    0  0.27492073273E+03 -0.32054958942E+02 -0.65868021931E+03  0.71447082586E+03  0.25500000920E-02 0.  1.
       -2    1    3    3    0  502 -0.27492073273E+03  0.32054958942E+02 -0.24293201096E+03  0.36827284944E+03  0.25500000920E-02 0. -1.
</event>
<event>
 5   0  0.1423430E-03  0.6008524E+03  0.7818609E-02  0.9903639E-01
       -1   -1    0    0    0  501  0.00000000000E+00  0.00000000000E+00  0.45550243115E+03  0.45550243117E+03  0.50400001928E-02 0. -1.
        1   -1    0    0  501    0  0.00000000000E+00  0.00000000000E+00 -0.19814581324E+03  0.19814581330E+03  0.50400001928E-02 0.  1.
    10030    2    1    2    0    0  0.00000000000E+00  0.00000000000E+00  0.25735661791E+03  0.65364824447E+03  0.60085239346E+03 0.  0.
        1    1    3    3  502    0 -0.25349490044E+02 -0.31122618225E+02 -0.19521550667E+03  0.19929954360E+03  0.50400001928E-02 0.  1.
       -1    1    3    3    0  502  0.25349490044E+02  0.31122618225E+02  0.45257212458E+03  0.45434870087E+03  0.50400001928E-02 0. -1.
</event>
<event>
 5   0  0.2313168E-03  0.6002522E+03  0.7818609E-02  0.9904883E-01
       -2   -1    0    0    0  501  0.00000000000E+00  0.00000000000E+00  0.19951770297E+03  0.19951770298E+03  0.25500000920E-02 0. -1.
        2   -1    0    0  501    0  0.00000000000E+00  0.00000000000E+00 -0.45146702953E+03  0.45146702953E+03  0.25500000920E-02 0.  1.
    10030    2    1    2    0    0  0.00000000000E+00  0.00000000000E+00 -0.25194932656E+03  0.65098473251E+03  0.60025216269E+03 0.  0.
        2    1    3    3  502    0  0.23083487882E+03 -0.71223532115E+02  0.67173627832E+02  0.25073856722E+03  0.25500000920E-02 0.  1.
       -2    1    3    3    0  502 -0.23083487882E+03  0.71223532115E+02 -0.31912295439E+03  0.40024616530E+03  0.25500000920E-02 0. -1.
</event>
<event>
 5   0  0.1423430E-03  0.6000331E+03  0.7818609E-02  0.9905337E-01
        1   -1    0    0  501    0  0.00000000000E+00  0.00000000000E+00  0.21599904100E+03  0.21599904106E+03  0.50400001928E-02 0.  1.
       -1   -1    0    0    0  501  0.00000000000E+00  0.00000000000E+00 -0.41671451215E+03  0.41671451218E+03  0.50400001928E-02 0. -1.
    10030    2    1    2    0    0  0.00000000000E+00  0.00000000000E+00 -0.20071547116E+03  0.63271355324E+03  0.60003311583E+03 0.  0.
        1    1    3    3  502    0  0.26765785428E+03 -0.12977030858E+03 -0.14158817039E+03  0.32943629121E+03  0.50400001928E-02 0. -1.
       -1    1    3    3    0  502 -0.26765785428E+03  0.12977030858E+03 -0.59127300769E+02  0.30327726203E+03  0.50400001928E-02 0.  1.
</event>
<event>
 5   0  0.2421210E-03  0.5999288E+03  0.7818609E-02  0.9905554E-01
       -2   -1    0    0    0  501  0.00000000000E+00  0.00000000000E+00  0.59477197426E+02  0.59477197481E+02  0.25500000920E-02 0. -1.
        2   -1    0    0  501    0  0.00000000000E+00  0.00000000000E+00 -0.15128257203E+04  0.15128257203E+04  0.25500000920E-02 0.  1.
    10030    2    1    2    0    0  0.00000000000E+00  0.00000000000E+00 -0.14533485229E+04  0.15723029178E+04  0.59992877605E+03 0.  0.
        1    1    3    3  502    0  0.84128063908E+02  0.13649309372E+03 -0.62253536031E+02  0.17199825157E+03  0.50400001928E-02 0. -1.
       -1    1    3    3    0  502 -0.84128063908E+02 -0.13649309372E+03 -0.13910949869E+04  0.14003046662E+04  0.50400001928E-02 0.  1.
</event>
<event>
 5   0  0.1479385E-03  0.6001404E+03  0.7818609E-02  0.9905115E-01
       -1   -1    0    0    0  501  0.00000000000E+00  0.00000000000E+00  0.28798748082E+03  0.28798748087E+03  0.50400001928E-02 0. -1.
        1   -1    0    0  501    0  0.00000000000E+00  0.00000000000E+00 -0.31265987021E+03  0.31265987025E+03  0.50400001928E-02 0.  1.
    10030    2    1    2    0    0  0.00000000000E+00  0.00000000000E+00 -0.24672389381E+02  0.60064735111E+03  0.60014041157E+03 0.  0.
        3    1    3    3  502    0 -0.23613013115E+03 -0.24438766597E+02  0.17136018994E+03  0.29277810207E+03  0.10100000352E+00 0. -1.
       -3    1    3    3    0  502  0.23613013115E+03  0.24438766597E+02 -0.19603257932E+03  0.30786924905E+03  0.10100000352E+00 0.  1.
</event>
<event>
 5   0  0.2406307E-03  0.6001248E+03  0.7818609E-02  0.9905147E-01
       -2   -1    0    0    0  501  0.00000000000E+00  0.00000000000E+00  0.22359945510E+03  0.22359945511E+03  0.25500000920E-02 0. -1.
        2   -1    0    0  501    0  0.00000000000E+00  0.00000000000E+00 -0.40267293832E+03  0.40267293833E+03  0.25500000920E-02 0.  1.
    10030    2    1    2    0    0  0.00000000000E+00  0.00000000000E+00 -0.17907348323E+03  0.62627239344E+03  0.60012481901E+03 0.  0.
        5    1    3    3  502    0 -0.21594465242E+02 -0.25843162319E+03  0.67908005484E+02  0.26811716096E+03  0.46999998093E+01 0. -1.
       -5    1    3    3    0  502  0.21594465242E+02  0.25843162319E+03 -0.24698148871E+03  0.35815523248E+03  0.46999998093E+01 0.  1.
</event>
<event>
 5   0  0.2421210E-03  0.5999746E+03  0.7818609E-02  0.9905459E-01
        2   -1    0    0  501    0  0.00000000000E+00  0.00000000000E+00  0.74367484001E+03  0.74367484002E+03  0.25500000920E-02 0.  1.
       -2   -1    0    0    0  501  0.00000000000E+00  0.00000000000E+00 -0.12101039275E+03  0.12101039277E+03  0.25500000920E-02 0. -1.
    10030    2    1    2    0    0  0.00000000000E+00  0.00000000000E+00  0.62266444727E+03  0.86468523279E+03  0.59997461439E+03 0.  0.
        1    1    3    3  502    0 -0.12453886500E+03  0.27254168106E+03  0.33189085439E+03  0.44714699603E+03  0.50400001928E-02 0. -1.
       -1    1    3    3    0  502  0.12453886500E+03 -0.27254168106E+03  0.29077359288E+03  0.41753823676E+03  0.50400001928E-02 0.  1.
</event>
<event>
 5   0  0.1416315E-03  0.5997501E+03  0.7818609E-02  0.9905925E-01
        1   -1    0    0  501    0  0.00000000000E+00  0.00000000000E+00  0.68214400284E+03  0.68214400286E+03  0.50400001928E-02 0.  1.
       -1   -1    0    0    0  501  0.00000000000E+00  0.00000000000E+00 -0.13182705329E+03  0.13182705338E+03  0.50400001928E-02 0. -1.
    10030    2    1    2    0    0  0.00000000000E+00  0.00000000000E+00  0.55031694955E+03  0.81397105624E+03  0.59975006081E+03 0.  0.
        2    1    3    3  502    0  0.16079171754E+03 -0.10895703018E+02  0.61837396867E+03  0.63902977858E+03  0.25500000920E-02 0.  1.
       -2    1    3    3    0  502 -0.16079171754E+03  0.10895703018E+02 -0.68057019121E+02  0.17494127766E+03  0.25500000920E-02 0. -1.
</event>
<event>
 5   0  0.2313168E-03  0.5999976E+03  0.7818609E-02  0.9905411E-01
       -2   -1    0    0    0  501  0.00000000000E+00  0.00000000000E+00  0.32821426930E+02  0.32821427029E+02  0.25500000920E-02 0.  1.
        2   -1    0    0  501    0  0.00000000000E+00  0.00000000000E+00 -0.27420894141E+04  0.27420894141E+04  0.25500000920E-02 0. -1.
    10030    2    1    2    0    0  0.00000000000E+00  0.00000000000E+00 -0.27092679872E+04  0.27749108412E+04  0.59999762493E+03 0.  0.
        2    1    3    3  502    0  0.53606339903E+01  0.28165969710E+03 -0.18316544113E+04  0.18531915184E+04  0.25500000920E-02 0. -1.
       -2    1    3    3    0  502 -0.53606339903E+01 -0.28165969710E+03 -0.87761357592E+03  0.92171932279E+03  0.25500000920E-02 0.  1.
</event>
<event>
 5   0  0.2421210E-03  0.6015864E+03  0.7818609E-02  0.9902120E-01
       -2   -1    0    0    0  501  0.00000000000E+00  0.00000000000E+00  0.38183410174E+02  0.38183410260E+02  0.25500000920E-02 0. -1.
        2   -1    0    0  501    0  0.00000000000E+00  0.00000000000E+00 -0.23695254016E+04  0.23695254016E+04  0.25500000920E-02 0.  1.
    10030    2    1    2    0    0  0.00000000000E+00  0.00000000000E+00 -0.23313419914E+04  0.24077088119E+04  0.60158643745E+03 0.  0.
        1    1    3    3  502    0  0.36973868223E+02 -0.22772447471E+03 -0.39321237151E+03  0.45589633958E+03  0.50400001928E-02 0. -1.
       -1    1    3    3    0  502 -0.36973868223E+02  0.22772447471E+03 -0.19381296199E+04  0.19518124723E+04  0.50400001928E-02 0.  1.
</event>
<event>
 5   0  0.1416315E-03  0.6000922E+03  0.7818609E-02  0.9905215E-01
       -1   -1    0    0    0  501  0.00000000000E+00  0.00000000000E+00  0.56543370754E+03  0.56543370756E+03  0.50400001928E-02 0. -1.
        1   -1    0    0  501    0  0.00000000000E+00  0.00000000000E+00 -0.15921875433E+03  0.15921875441E+03  0.50400001928E-02 0.  1.
    10030    2    1    2    0    0  0.00000000000E+00  0.00000000000E+00  0.40621495320E+03  0.72465246197E+03  0.60009216162E+03 0.  0.
        2    1    3    3  502    0  0.20093018188E+03  0.61773144329E+02  0.46164786473E+03  0.50725497570E+03  0.25500000920E-02 0. -1.
       -2    1    3    3    0  502 -0.20093018188E+03 -0.61773144329E+02 -0.55432911527E+02  0.21739748628E+03  0.25500000920E-02 0.  1.
</event>
<event>
 5   0  0.1392854E-03  0.5998433E+03  0.7818609E-02  0.9905731E-01
       -1   -1    0    0    0  501  0.00000000000E+00  0.00000000000E+00  0.52504003121E+02  0.52504003363E+02  0.50400001928E-02 0. -1.
        1   -1    0    0  501    0  0.00000000000E+00  0.00000000000E+00 -0.17132596061E+04  0.17132596061E+04  0.50400001928E-02 0.  1.
    10030    2    1    2    0    0  0.00000000000E+00  0.00000000000E+00 -0.16607556029E+04  0.17657636094E+04  0.59984327261E+03 0.  0.
        4    1    3    3  502    0 -0.15818307489E+03 -0.23899764683E+03 -0.57023634208E+03  0.63821066984E+03  0.12699999809E+01 0. -1.
       -4    1    3    3    0  502  0.15818307489E+03  0.23899764683E+03 -0.10905192609E+04  0.11275529396E+04  0.12699999809E+01 0.  1.
</event>
<event>
 5   0  0.2406307E-03  0.5991830E+03  0.7818609E-02  0.9907103E-01
        2   -1    0    0  501    0  0.00000000000E+00  0.00000000000E+00  0.75912508550E+03  0.75912508550E+03  0.25500000920E-02 0.  1.
       -2   -1    0    0    0  501  0.00000000000E+00  0.00000000000E+00 -0.11823488203E+03  0.11823488205E+03  0.25500000920E-02 0. -1.
    10030    2    1    2    0    0  0.00000000000E+00  0.00000000000E+00  0.64089020347E+03  0.87735996756E+03  0.59918299355E+03 0.  0.
        5    1    3    3  502    0 -0.13471352741E+03  0.20944465452E+03  0.76663644267E+02  0.26060353436E+03  0.46999998093E+01 0. -1.
       -5    1    3    3    0  502  0.13471352741E+03 -0.20944465452E+03  0.56422655920E+03  0.61675643319E+03  0.46999998093E+01 0.  1.
</event>
<event>
 5   0  0.1479385E-03  0.5998349E+03  0.7818609E-02  0.9905749E-01
       -1   -1    0    0    0  501  0.00000000000E+00  0.00000000000E+00  0.27068481996E+03  0.27068482001E+03  0.50400001928E-02 0.  1.
        1   -1    0    0  501    0  0.00000000000E+00  0.00000000000E+00 -0.33230701468E+03  0.33230701471E+03  0.50400001928E-02 0. -1.
    10030    2    1    2    0    0  0.00000000000E+00  0.00000000000E+00 -0.61622194716E+02  0.60299183472E+03  0.59983485882E+03 0.  0.
        3    1    3    3  502    0 -0.66517693312E+02 -0.22348450248E+03  0.15880968065E+03  0.28211779674E+03  0.10100000352E+00 0.  1.
       -3    1    3    3    0  502  0.66517693312E+02  0.22348450248E+03 -0.22043187536E+03  0.32087403798E+03  0.10100000352E+00 0. -1.
</event>
<event>
 5   0  0.1423430E-03  0.6002216E+03  0.7818609E-02  0.9904946E-01
       -1   -1    0    0    0  501  0.00000000000E+00  0.00000000000E+00  0.26259828968E+03  0.26259828973E+03  0.50400001928E-02 0.  1.
        1   -1    0    0  501    0  0.00000000000E+00  0.00000000000E+00 -0.34298205865E+03  0.34298205868E+03  0.50400001928E-02 0. -1.
    10030    2    1    2    0    0  0.00000000000E+00  0.00000000000E+00 -0.80383768966E+02  0.60558034841E+03  0.60022163246E+03 0.  0.
        1    1    3    3  502    0  0.30682468777E+02  0.16937345295E+03  0.20784380283E+03  0.26986631293E+03  0.50400001928E-02 0.  1.
       -1    1    3    3    0  502 -0.30682468777E+02 -0.16937345295E+03 -0.28822757179E+03  0.33571403548E+03  0.50400001928E-02 0. -1.
</event>
<event>
 5   0  0.2346281E-03  0.5996640E+03  0.7818609E-02  0.9906103E-01
        2   -1    0    0  501    0  0.00000000000E+00  0.00000000000E+00  0.36580149574E+03  0.36580149574E+03  0.25500000920E-02 0.  1.
       -2   -1    0    0    0  501  0.00000000000E+00  0.00000000000E+00 -0.24575956058E+03  0.24575956059E+03  0.25500000920E-02 0. -1.
    10030    2    1    2    0    0  0.00000000000E+00  0.00000000000E+00  0.12004193515E+03  0.61156105634E+03  0.59966395542E+03 0.  0.
        3    1    3    3  502    0 -0.82526070320E+02  0.87992178453E+02 -0.21991716490E+03  0.25083210594E+03  0.10100000352E+00 0. -1.
       -3    1    3    3    0  502  0.82526070320E+02 -0.87992178453E+02  0.33995910005E+03  0.36072895040E+03  0.10100000352E+00 0.  1.
</event>
<event>
 5   0  0.2406307E-03  0.6004634E+03  0.7818609E-02  0.9904445E-01
       -2   -1    0    0    0  501  0.00000000000E+00  0.00000000000E+00  0.11598717795E+03  0.11598717798E+03  0.25500000920E-02 0.  1.
        2   -1    0    0  501    0  0.00000000000E+00  0.00000000000E+00 -0.77714690219E+03  0.77714690219E+03  0.25500000920E-02 0. -1.
    10030    2    1    2    0    0  0.00000000000E+00  0.00000000000E+00 -0.66115972424E+03  0.89313408017E+03  0.60046340789E+03 0.  0.
        5    1    3    3  502    0 -0.11484537057E+03 -0.39616961236E+00 -0.74312412997E+03  0.75196088903E+03  0.46999998093E+01 0. -1.
       -5    1    3    3    0  502  0.11484537057E+03  0.39616961236E+00  0.81964405731E+02  0.14117319114E+03  0.46999998093E+01 0.  1.
</event>
<event>
 5   0  0.1418763E-03  0.6004215E+03  0.7818609E-02  0.9904532E-01
       -1   -1    0    0    0  501  0.00000000000E+00  0.00000000000E+00  0.40506091566E+03  0.40506091569E+03  0.50400001928E-02 0.  1.
        1   -1    0    0  501    0  0.00000000000E+00  0.00000000000E+00 -0.22250106885E+03  0.22250106891E+03  0.50400001928E-02 0. -1.
    10030    2    1    2    0    0  0.00000000000E+00  0.00000000000E+00  0.18255984680E+03  0.62756198460E+03  0.60042147434E+03 0.  0.
        5    1    3    3  502    0  0.17695725346E+03  0.64773894876E+02 -0.15293732183E+03  0.24273739187E+03  0.46999998093E+01 0. -1.
       -5    1    3    3    0  502 -0.17695725346E+03 -0.64773894876E+02  0.33549716863E+03  0.38482459272E+03  0.46999998093E+01 0.  1.
</event>
<event>
 5   0  0.1416315E-03  0.6000953E+03  0.7818609E-02  0.9905208E-01
        1   -1    0    0  501    0  0.00000000000E+00  0.00000000000E+00  0.40338923687E+03  0.40338923691E+03  0.50400001928E-02 0. -1.
       -1   -1    0    0    0  501  0.00000000000E+00  0.00000000000E+00 -0.22318047358E+03  0.22318047364E+03  0.50400001928E-02 0.  1.
    10030    2    1    2    0    0  0.00000000000E+00  0.00000000000E+00  0.18020876329E+03  0.62656971055E+03  0.60009532893E+03 0.  0.
        2    1    3    3  502    0  0.20202027558E+02 -0.17859788908E+03 -0.16075169434E+03  0.24113571934E+03  0.25500000920E-02 0.  1.
       -2    1    3    3    0  502 -0.20202027558E+02  0.17859788908E+03  0.34096045764E+03  0.38543399121E+03  0.25500000920E-02 0. -1.
</event>
<event>
 5   0  0.2324616E-03  0.6014338E+03  0.7818609E-02  0.9902436E-01
       -2   -1    0    0    0  501  0.00000000000E+00  0.00000000000E+00  0.10425936235E+03  0.10425936238E+03  0.25500000920E-02 0.  1.
        2   -1    0    0  501    0  0.00000000000E+00  0.00000000000E+00 -0.86736229809E+03  0.86736229809E+03  0.25500000920E-02 0. -1.
    10030    2    1    2    0    0  0.00000000000E+00  0.00000000000E+00 -0.76310293574E+03  0.97162166047E+03  0.60143375409E+03 0.  0.
        4    1    3    3  502    0 -0.12468845078E+03 -0.26696110453E+03 -0.47866474193E+03  0.56208272448E+03  0.12699999809E+01 0.  1.
       -4    1    3    3    0  502  0.12468845078E+03  0.26696110453E+03 -0.28443819381E+03  0.40953893598E+03  0.12699999809E+01 0. -1.
</event>
<event>
 5   0  0.2406307E-03  0.5998381E+03  0.7818609E-02  0.9905742E-01
        2   -1    0    0  501    0  0.00000000000E+00  0.00000000000E+00  0.25212910473E+03  0.25212910474E+03  0.25500000920E-02 0.  1.
       -2   -1    0    0    0  501  0.00000000000E+00  0.00000000000E+00 -0.35676732675E+03  0.35676732676E+03  0.25500000920E-02 0. -1.
    10030    2    1    2    0    0  0.00000000000E+00  0.00000000000E+00 -0.10463822202E+03  0.60889643150E+03  0.59983806714E+03 0.  0.
        5    1    3    3  502    0  0.13814738347E+03  0.27315275824E+02  0.21644037843E+03  0.25826217545E+03  0.46999998093E+01 0.  1.
       -5    1    3    3    0  502 -0.13814738347E+03 -0.27315275824E+02 -0.32107860045E+03  0.35063425606E+03  0.46999998093E+01 0. -1.
</event>
<event>
 5   0  0.1392854E-03  0.5997898E+03  0.7818609E-02  0.9905842E-01
       -1   -1    0    0    0  501  0.00000000000E+00  0.00000000000E+00  0.91692132850E+02  0.91692132989E+02  0.50400001928E-02 0.  1.
        1   -1    0    0  501    0  0.00000000000E+00  0.00000000000E+00 -0.98085781549E+03  0.98085781550E+03  0.50400001928E-02 0. -1.
    10030    2    1    2    0    0  0.00000000000E+00  0.00000000000E+00 -0.88916568264E+03  0.10725499485E+04  0.59978978053E+03 0.  0.
        4    1    3    3  502    0 -0.18998553960E+03 -0.12995610505E+02 -0.85886107501E+03  0.87972004082E+03  0.12699999809E+01 0. -1.
       -4    1    3    3    0  502  0.18998553960E+03  0.12995610505E+02 -0.30304607629E+02  0.19282990767E+03  0.12699999809E+01 0.  1.
</event>
<event>
 5   0  0.2313168E-03  0.5999658E+03  0.7818609E-02  0.9905477E-01
        2   -1    0    0  501    0  0.00000000000E+00  0.00000000000E+00  0.12427682330E+04  0.12427682330E+04  0.25500000920E-02 0. -1.
       -2   -1    0    0    0  501  0.00000000000E+00  0.00000000000E+00 -0.72410721406E+02  0.72410721451E+02  0.25500000920E-02 0.  1.
    10030    2    1    2    0    0  0.00000000000E+00  0.00000000000E+00  0.11703575116E+04  0.13151789545E+04  0.59996581344E+03 0.  0.
        2    1    3    3  502    0 -0.18806948218E+03 -0.62771886464E+02  0.91694082388E+02  0.21844506085E+03  0.25500000920E-02 0.  1.
       -2    1    3    3    0  502  0.18806948218E+03  0.62771886464E+02  0.10786634292E+04  0.10967338936E+04  0.25500000920E-02 0. -1.
</event>
<event>
 5   0  0.9496750E-04  0.5996768E+03  0.7818609E-02  0.9906077E-01
       -3   -1    0    0    0  501  0.00000000000E+00  0.00000000000E+00  0.22754869303E+03  0.22754871544E+03  0.10100000352E+00 0. -1.
        3   -1    0    0  501    0  0.00000000000E+00  0.00000000000E+00 -0.39509373590E+03  0.39509374881E+03  0.10100000352E+00 0.  1.
    10030    2    1    2    0    0  0.00000000000E+00  0.00000000000E+00 -0.16754504288E+03  0.62264246426E+03  0.59967682705E+03 0.  0.
        1    1    3    3  502    0 -0.18291766136E+03 -0.53682405570E+02  0.15652621902E+03  0.24665994562E+03  0.50400001928E-02 0. -1.
       -1    1    3    3    0  502  0.18291766136E+03  0.53682405570E+02 -0.32407126190E+03  0.37598251864E+03  0.50400001928E-02 0.  1.
</event>
<event>
 5   0  0.1416315E-03  0.6003696E+03  0.7818609E-02  0.9904640E-01
        1   -1    0    0  501    0  0.00000000000E+00  0.00000000000E+00  0.78170135947E+03  0.78170135949E+03  0.50400001928E-02 0. -1.
       -1   -1    0    0    0  501  0.00000000000E+00  0.00000000000E+00 -0.11527536971E+03  0.11527536982E+03  0.50400001928E-02 0.  1.
    10030    2    1    2    0    0  0.00000000000E+00  0.00000000000E+00  0.66642598976E+03  0.89697672931E+03  0.60036959707E+03 0.  0.
        2    1    3    3  502    0 -0.17643376858E+03 -0.23260729560E+03  0.43753818726E+03  0.52599875853E+03  0.25500000920E-02 0. -1.
       -2    1    3    3    0  502  0.17643376858E+03  0.23260729560E+03  0.22888780250E+03  0.37097797078E+03  0.25500000920E-02 0.  1.
</event>
<event>
 5   0  0.2421210E-03  0.6000439E+03  0.7818609E-02  0.9905315E-01
       -2   -1    0    0    0  501  0.00000000000E+00  0.00000000000E+00  0.40298589141E+03  0.40298589142E+03  0.25500000920E-02 0.  1.
        2   -1    0    0  501    0  0.00000000000E+00  0.00000000000E+00 -0.22336558542E+03  0.22336558544E+03  0.25500000920E-02 0. -1.
    10030    2    1    2    0    0  0.00000000000E+00  0.00000000000E+00  0.17962030598E+03  0.62635147685E+03  0.60004393025E+03 0.  0.
        1    1    3    3  502    0 -0.14368822470E+02 -0.21263918067E+03  0.31023477406E+03  0.37638743241E+03  0.50400001928E-02 0.  1.
       -1    1    3    3    0  502  0.14368822470E+02  0.21263918067E+03 -0.13061446808E+03  0.24996404444E+03  0.50400001928E-02 0. -1.
</event>
<event>
 5   0  0.1423430E-03  0.5997444E+03  0.7818609E-02  0.9905936E-01
       -1   -1    0    0    0  501  0.00000000000E+00  0.00000000000E+00  0.34625385051E+03  0.34625385055E+03  0.50400001928E-02 0.  1.
        1   -1    0    0  501    0  0.00000000000E+00  0.00000000000E+00 -0.25970350528E+03  0.25970350533E+03  0.50400001928E-02 0. -1.
    10030    2    1    2    0    0  0.00000000000E+00  0.00000000000E+00  0.86550345231E+02  0.60595735588E+03  0.59974440797E+03 0.  0.
        1    1    3    3  502    0  0.18853951412E+03  0.17801852231E+03 -0.10890250486E+03  0.28124277459E+03  0.50400001928E-02 0. -1.
       -1    1    3    3    0  502 -0.18853951412E+03 -0.17801852231E+03  0.19545285009E+03  0.32471458129E+03  0.50400001928E-02 0.  1.
</event>
<event>
 5   0  0.1479385E-03  0.5999655E+03  0.7818609E-02  0.9905478E-01
        1   -1    0    0  501    0  0.00000000000E+00  0.00000000000E+00  0.36087163396E+03  0.36087163400E+03  0.50400001928E-02 0.  1.
       -1   -1    0    0    0  501  0.00000000000E+00  0.00000000000E+00 -0.24936747066E+03  0.24936747072E+03  0.50400001928E-02 0. -1.
    10030    2    1    2    0    0  0.00000000000E+00  0.00000000000E+00  0.11150416330E+03  0.61023910471E+03  0.59996548775E+03 0.  0.
        3    1    3    3  502    0  0.67396414543E+02 -0.25699212523E+03 -0.85925643142E+02  0.27923190268E+03  0.10100000352E+00 0.  1.
       -3    1    3    3    0  502 -0.67396414543E+02  0.25699212523E+03  0.19742980644E+03  0.33100720203E+03  0.10100000352E+00 0. -1.
</event>
<event>
 5   0  0.2324616E-03  0.6000468E+03  0.7818609E-02  0.9905309E-01
        2   -1    0    0  501    0  0.00000000000E+00  0.00000000000E+00  0.96869037945E+03  0.96869037945E+03  0.25500000920E-02 0. -1.
       -2   -1    0    0    0  501  0.00000000000E+00  0.00000000000E+00 -0.92923439094E+02  0.92923439129E+02  0.25500000920E-02 0.  1.
    10030    2    1    2    0    0  0.00000000000E+00  0.00000000000E+00  0.87576694036E+03  0.10616138186E+04  0.60004680316E+03 0.  0.
        4    1    3    3  502    0 -0.26160563152E+03 -0.10390109307E+03  0.25419561504E+03  0.37927558212E+03  0.12699999809E+01 0.  1.
       -4    1    3    3    0  502  0.26160563152E+03  0.10390109307E+03  0.62157132531E+03  0.68233823646E+03  0.12699999809E+01 0. -1.
</event>
<event>
 5   0  0.2421210E-03  0.5999548E+03  0.7818609E-02  0.9905500E-01
        2   -1    0    0  501    0  0.00000000000E+00  0.00000000000E+00  0.99071709484E+03  0.99071709484E+03  0.25500000920E-02 0.  1.
       -2   -1    0    0    0  501  0.00000000000E+00  0.00000000000E+00 -0.90829597672E+02  0.90829597708E+02  0.25500000920E-02 0. -1.
    10030    2    1    2    0    0  0.00000000000E+00  0.00000000000E+00  0.89988749717E+03  0.10815466926E+04  0.59995478214E+03 0.  0.
        1    1    3    3  502    0  0.17887422798E+03 -0.10259527690E+03  0.57197615497E+02  0.21399380253E+03  0.50400001928E-02 0. -1.
       -1    1    3    3    0  502 -0.17887422798E+03  0.10259527690E+03  0.84268988167E+03  0.86755289002E+03  0.50400001928E-02 0.  1.
</event>
<event>
 5   0  0.9496750E-04  0.6001110E+03  0.7818609E-02  0.9905176E-01
        4   -1    0    0  501    0  0.00000000000E+00  0.00000000000E+00  0.25165430590E+03  0.25165751048E+03  0.12699999809E+01 0.  1.
       -4   -1    0    0    0  501  0.00000000000E+00  0.00000000000E+00 -0.35775916106E+03  0.35776141522E+03  0.12699999809E+01 0. -1.
    10030    2    1    2    0    0  0.00000000000E+00  0.00000000000E+00 -0.10610485516E+03  0.60941892570E+03  0.60011097867E+03 0.  0.
        2    1    3    3  502    0 -0.99002616164E+02  0.18255011698E+03  0.16688759989E+03  0.26641609227E+03  0.25500000920E-02 0.  1.
       -2    1    3    3    0  502  0.99002616164E+02 -0.18255011698E+03 -0.27299245505E+03  0.34300283343E+03  0.25500000920E-02 0. -1.
</event>
<event>
 5   0  0.1392854E-03  0.6001753E+03  0.7818609E-02  0.9905042E-01
       -1   -1    0    0    0  501  0.00000000000E+00  0.00000000000E+00  0.24374745000E+03  0.24374745006E+03  0.50400001928E-02 0. -1.
        1   -1    0    0  501    0  0.00000000000E+00  0.00000000000E+00 -0.36945039915E+03  0.36945039918E+03  0.50400001928E-02 0.  1.
    10030    2    1    2    0    0  0.00000000000E+00  0.00000000000E+00 -0.12570294914E+03  0.61319784924E+03  0.60017528347E+03 0.  0.
        4    1    3    3  502    0  0.70658569752E+02  0.22461408009E+03  0.12721417020E+03  0.26763627642E+03  0.12699999809E+01 0. -1.
       -4    1    3    3    0  502 -0.70658569752E+02 -0.22461408009E+03 -0.25291711934E+03  0.34556157282E+03  0.12699999809E+01 0.  1.
</event>
<event>
 5   0  0.1418763E-03  0.5998922E+03  0.7818609E-02  0.9905630E-01
        1   -1    0    0  501    0  0.00000000000E+00  0.00000000000E+00  0.75315642092E+03  0.75315642093E+03  0.50400001928E-02 0.  1.
       -1   -1    0    0    0  501  0.00000000000E+00  0.00000000000E+00 -0.11945417259E+03  0.11945417269E+03  0.50400001928E-02 0. -1.
    10030    2    1    2    0    0  0.00000000000E+00  0.00000000000E+00  0.63370224833E+03  0.87261059363E+03  0.59989224747E+03 0.  0.
        5    1    3    3  502    0 -0.28179687069E+03 -0.72783716789E+02  0.42213371562E+03  0.51276301507E+03  0.46999998093E+01 0. -1.
       -5    1    3    3    0  502  0.28179687069E+03  0.72783716789E+02  0.21156853270E+03  0.35984757855E+03  0.46999998093E+01 0.  1.
</event>
<event>
 5   0  0.2313168E-03  0.6001063E+03  0.7818609E-02  0.9905185E-01
       -2   -1    0    0    0  501  0.00000000000E+00  0.00000000000E+00  0.82358790337E+02  0.82358790377E+02  0.25500000920E-02 0. -1.
        2   -1    0    0  501    0  0.00000000000E+00  0.00000000000E+00 -0.10931668770E+04  0.10931668770E+04  0.25500000920E-02 0.  1.
    10030    2    1    2    0    0  0.00000000000E+00  0.00000000000E+00 -0.10108080867E+04  0.11755256674E+04  0.60010632942E+03 0.  0.
        2    1    3    3  502    0 -0.10538502802E+03 -0.27482162702E+03 -0.39120101294E+03  0.48956221601E+03  0.25500000920E-02 0. -1.
       -2    1    3    3    0  502  0.10538502802E+03  0.27482162702E+03 -0.61960707373E+03  0.68596345138E+03  0.25500000920E-02 0.  1.
</event>
<event>
 5   0  0.1392854E-03  0.6000946E+03  0.7818609E-02  0.9905210E-01
       -1   -1    0    0    0  501  0.00000000000E+00  0.00000000000E+00  0.31161573410E+03  0.31161573414E+03  0.50400001928E-02 0. -1.
        1   -1    0    0  501    0  0.00000000000E+00  0.00000000000E+00 -0.28890829841E+03  0.28890829845E+03  0.50400001928E-02 0.  1.
    10030    2    1    2    0    0  0.00000000000E+00  0.00000000000E+00  0.22707435688E+02  0.60052403259E+03  0.60009456429E+03 0.  0.
        4    1    3    3  502    0  0.18758299271E+03  0.81553648851E+02  0.23102934290E+03  0.30856854502E+03  0.12699999809E+01 0. -1.
       -4    1    3    3    0  502 -0.18758299271E+03 -0.81553648851E+02 -0.20832190722E+03  0.29195548757E+03  0.12699999809E+01 0.  1.
</event>
<event>
 5   0  0.2406307E-03  0.5999818E+03  0.7818609E-02  0.9905444E-01
       -2   -1    0    0    0  501  0.00000000000E+00  0.00000000000E+00  0.11614683162E+03  0.11614683165E+03  0.25500000920E-02 0.  1.
        2   -1    0    0  501    0  0.00000000000E+00  0.00000000000E+00 -0.77483429651E+03  0.77483429652E+03  0.25500000920E-02 0. -1.
    10030    2    1    2    0    0  0.00000000000E+00  0.00000000000E+00 -0.65868746489E+03  0.89098112817E+03  0.59998182835E+03 0.  0.
        5    1    3    3  502    0  0.14791971291E+03 -0.18296216129E+03 -0.53047140597E+02  0.24122910906E+03  0.46999998093E+01 0.  1.
       -5    1    3    3    0  502 -0.14791971291E+03  0.18296216129E+03 -0.60564032429E+03  0.64975201911E+03  0.46999998093E+01 0. -1.
</event>
<event>
 5   0  0.1418763E-03  0.5999616E+03  0.7818609E-02  0.9905486E-01
       -1   -1    0    0    0  501  0.00000000000E+00  0.00000000000E+00  0.15133115375E+03  0.15133115383E+03  0.50400001928E-02 0.  1.
        1   -1    0    0  501    0  0.00000000000E+00  0.00000000000E+00 -0.59464618143E+03  0.59464618145E+03  0.50400001928E-02 0. -1.
    10030    2    1    2    0    0  0.00000000000E+00  0.00000000000E+00 -0.44331502768E+03  0.74597733528E+03  0.59996164126E+03 0.  0.
        5    1    3    3  502    0  0.20546921907E+03 -0.10528252698E+03 -0.45973832502E+03  0.51447393322E+03  0.46999998093E+01 0. -1.
       -5    1    3    3    0  502 -0.20546921907E+03  0.10528252698E+03  0.16423297338E+02  0.23150340206E+03  0.46999998093E+01 0.  1.
</event>
<event>
 5   0  0.1392854E-03  0.5998369E+03  0.7818609E-02  0.9905745E-01
       -1   -1    0    0    0  501  0.00000000000E+00  0.00000000000E+00  0.49205676134E+03  0.49205676137E+03  0.50400001928E-02 0.  1.
        1   -1    0    0  501    0  0.00000000000E+00  0.00000000000E+00 -0.18280627325E+03  0.18280627332E+03  0.50400001928E-02 0. -1.
    10030    2    1    2    0    0  0.00000000000E+00  0.00000000000E+00  0.30925048809E+03  0.67486303469E+03  0.59983685382E+03 0.  0.
        4    1    3    3  502    0  0.54187290561E+02  0.21776660128E+03 -0.69236639778E+02  0.23484863270E+03  0.12699999809E+01 0. -1.
       -4    1    3    3    0  502 -0.54187290561E+02 -0.21776660128E+03  0.37848712787E+03  0.44001440199E+03  0.12699999809E+01 0.  1.
</event>
<event>
 5   0  0.2313168E-03  0.6019344E+03  0.7818609E-02  0.9901401E-01
        2   -1    0    0  501    0  0.00000000000E+00  0.00000000000E+00  0.36487426996E+03  0.36487426996E+03  0.25500000920E-02 0. -1.
       -2   -1    0    0    0  501  0.00000000000E+00  0.00000000000E+00 -0.24825330365E+03  0.24825330366E+03  0.25500000920E-02 0.  1.
    10030    2    1    2    0    0  0.00000000000E+00  0.00000000000E+00  0.11662096631E+03  0.61312757362E+03  0.60193435834E+03 0.  0.
        2    1    3    3  502    0  0.20899074067E+03 -0.11402807717E+03 -0.12923755345E+03  0.27089089556E+03  0.25500000920E-02 0.  1.
       -2    1    3    3    0  502 -0.20899074067E+03  0.11402807717E+03  0.24585851976E+03  0.34223667806E+03  0.25500000920E-02 0. -1.
</event>
<event>
 5   0  0.1418763E-03  0.6000903E+03  0.7818609E-02  0.9905219E-01
        1   -1    0    0  501    0  0.00000000000E+00  0.00000000000E+00  0.50914404140E+03  0.50914404143E+03  0.50400001928E-02 0. -1.
       -1   -1    0    0    0  501  0.00000000000E+00  0.00000000000E+00 -0.17682048825E+03  0.17682048833E+03  0.50400001928E-02 0.  1.
    10030    2    1    2    0    0  0.00000000000E+00  0.00000000000E+00  0.33232355315E+03  0.68596452975E+03  0.60009031995E+03 0.  0.
        5    1    3    3  502    0  0.21534636943E+03 -0.50988594850E+02 -0.65386569894E+02  0.23080595563E+03  0.46999998093E+01 0.  1.
       -5    1    3    3    0  502 -0.21534636943E+03  0.50988594850E+02  0.39771012304E+03  0.45515857412E+03  0.46999998093E+01 0. -1.
</event>
<event>
 5   0  0.2421210E-03  0.6000352E+03  0.7818609E-02  0.9905333E-01
       -2   -1    0    0    0  501  0.00000000000E+00  0.00000000000E+00  0.10482893953E+03  0.10482893956E+03  0.25500000920E-02 0.  1.
        2   -1    0    0  501    0  0.00000000000E+00  0.00000000000E+00 -0.85864223196E+03  0.85864223196E+03  0.25500000920E-02 0. -1.
    10030    2    1    2    0    0  0.00000000000E+00  0.00000000000E+00 -0.75381329243E+03  0.96347117152E+03  0.60003518105E+03 0.  0.
        1    1    3    3  502    0  0.25640232609E+03  0.76824032049E+02 -0.59451464515E+03  0.65199060426E+03  0.50400001928E-02 0. -1.
       -1    1    3    3    0  502 -0.25640232609E+03 -0.76824032049E+02 -0.15929864728E+03  0.31148056726E+03  0.50400001928E-02 0.  1.
</event>
<event>
 5   0  0.1392854E-03  0.6004922E+03  0.7818609E-02  0.9904385E-01
        1   -1    0    0  501    0  0.00000000000E+00  0.00000000000E+00  0.87116462966E+03  0.87116462968E+03  0.50400001928E-02 0.  1.
       -1   -1    0    0    0  501  0.00000000000E+00  0.00000000000E+00 -0.10347953864E+03  0.10347953877E+03  0.50400001928E-02 0. -1.
    10030    2    1    2    0    0  0.00000000000E+00  0.00000000000E+00  0.76768509102E+03  0.97464416845E+03  0.60049217823E+03 0.  0.
        4    1    3    3  502    0 -0.61919838941E+02 -0.11467789666E+02  0.86032103599E+03  0.86262359956E+03  0.12699999809E+01 0.  1.
       -4    1    3    3    0  502  0.61919838941E+02  0.11467789666E+02 -0.92635944966E+02  0.11202056889E+03  0.12699999809E+01 0. -1.
</event>
<event>
 5   0  0.1416315E-03  0.5979854E+03  0.7818609E-02  0.9909594E-01
       -1   -1    0    0    0  501  0.00000000000E+00  0.00000000000E+00  0.97579822153E+02  0.97579822283E+02  0.50400001928E-02 0.  1.
        1   -1    0    0  501    0  0.00000000000E+00  0.00000000000E+00 -0.91613862192E+03  0.91613862193E+03  0.50400001928E-02 0. -1.
    10030    2    1    2    0    0  0.00000000000E+00  0.00000000000E+00 -0.81855879976E+03  0.10137184442E+04  0.59798543082E+03 0.  0.
        2    1    3    3  502    0  0.18541818581E+03 -0.18725250938E+03 -0.16981914727E+03  0.31349951943E+03  0.25500000920E-02 0. -1.
       -2    1    3    3    0  502 -0.18541818581E+03  0.18725250938E+03 -0.64873965249E+03  0.70021892478E+03  0.25500000920E-02 0.  1.
</event>
<event>
 5   0  0.2324616E-03  0.6000005E+03  0.7818609E-02  0.9905405E-01
        2   -1    0    0  501    0  0.00000000000E+00  0.00000000000E+00  0.51365750404E+03  0.51365750405E+03  0.25500000920E-02 0. -1.
       -2   -1    0    0    0  501  0.00000000000E+00  0.00000000000E+00 -0.17521429902E+03  0.17521429904E+03  0.25500000920E-02 0.  1.
    10030    2    1    2    0    0  0.00000000000E+00  0.00000000000E+00  0.33844320502E+03  0.68887180309E+03  0.60000046505E+03 0.  0.
        4    1    3    3  502    0  0.22851197465E+03  0.99906405739E+02  0.36064958600E+03  0.43848460549E+03  0.12699999809E+01 0. -1.
       -4    1    3    3    0  502 -0.22851197465E+03 -0.99906405739E+02 -0.22206380980E+02  0.25038719760E+03  0.12699999809E+01 0.  1.
</event>
<event>
 5   0  0.2313168E-03  0.5993633E+03  0.7818609E-02  0.9906728E-01
       -2   -1    0    0    0  501  0.00000000000E+00  0.00000000000E+00  0.72223771680E+02  0.72223771725E+02  0.25500000920E-02 0.  1.
        2   -1    0    0  501    0  0.00000000000E+00  0.00000000000E+00 -0.12434839321E+04  0.12434839321E+04  0.25500000920E-02 0. -1.
    10030    2    1    2    0    0  0.00000000000E+00  0.00000000000E+00 -0.11712601604E+04  0.13157077038E+04  0.59936332764E+03 0.  0.
        2    1    3    3  502    0  0.25742994073E+02  0.23589717512E+03 -0.98740669731E+03  0.10155206373E+04  0.25500000920E-02 0. -1.
       -2    1    3    3    0  502 -0.25742994073E+02 -0.23589717512E+03 -0.18385346308E+03  0.30018706645E+03  0.25500000920E-02 0.  1.
</event>
<event>
 5   0  0.2324616E-03  0.6001351E+03  0.7818609E-02  0.9905126E-01
        2   -1    0    0  501    0  0.00000000000E+00  0.00000000000E+00  0.11562562715E+04  0.11562562715E+04  0.25500000920E-02 0. -1.
       -2   -1    0    0    0  501  0.00000000000E+00  0.00000000000E+00 -0.77872478208E+02  0.77872478249E+02  0.25500000920E-02 0.  1.
    10030    2    1    2    0    0  0.00000000000E+00  0.00000000000E+00  0.10783837933E+04  0.12341287497E+04  0.60013512256E+03 0.  0.
        4    1    3    3  502    0 -0.84050170418E+02 -0.12240347322E+03  0.29756448708E+01  0.14851770523E+03  0.12699999809E+01 0.  1.
       -4    1    3    3    0  502  0.84050170418E+02  0.12240347322E+03  0.10754081484E+04  0.10856110445E+04  0.12699999809E+01 0. -1.
</event>
<event>
 5   0  0.9496750E-04  0.5995758E+03  0.7818609E-02  0.9906286E-01
       -4   -1    0    0    0  501  0.00000000000E+00  0.00000000000E+00  0.15886893814E+03  0.15887401425E+03  0.12699999809E+01 0. -1.
        4   -1    0    0  501    0  0.00000000000E+00  0.00000000000E+00 -0.56568917026E+03  0.56569059586E+03  0.12699999809E+01 0.  1.
    10030    2    1    2    0    0  0.00000000000E+00  0.00000000000E+00 -0.40682023212E+03  0.72456461012E+03  0.59957582754E+03 0.  0.
        5    1    3    3  502    0 -0.11926995179E+03  0.11653955372E+03  0.97601043659E+02  0.19327400938E+03  0.46999998093E+01 0. -1.
       -5    1    3    3    0  502  0.11926995179E+03 -0.11653955372E+03 -0.50442127578E+03  0.53129060074E+03  0.46999998093E+01 0.  1.
</event>
<event>
 5   0  0.2421210E-03  0.5999216E+03  0.7818609E-02  0.9905569E-01
        2   -1    0    0  501    0  0.00000000000E+00  0.00000000000E+00  0.10275785694E+04  0.10275785694E+04  0.25500000920E-02 0. -1.
       -2   -1    0    0    0  501  0.00000000000E+00  0.00000000000E+00 -0.87561669235E+02  0.87561669272E+02  0.25500000920E-02 0.  1.
    10030    2    1    2    0    0  0.00000000000E+00  0.00000000000E+00  0.94001690013E+03  0.11151402386E+04  0.59992164430E+03 0.  0.
        1    1    3    3  502    0  0.15213252730E+03  0.25202208669E+03  0.36295235268E+03  0.46732627615E+03  0.50400001928E-02 0. -1.
       -1    1    3    3    0  502 -0.15213252730E+03 -0.25202208669E+03  0.57706454745E+03  0.64781396249E+03  0.50400001928E-02 0.  1.
</event>
<event>
 5   0  0.1392854E-03  0.5999225E+03  0.7818609E-02  0.9905567E-01
       -1   -1    0    0    0  501  0.00000000000E+00  0.00000000000E+00  0.20062513629E+03  0.20062513636E+03  0.50400001928E-02 0. -1.
        1   -1    0    0  501    0  0.00000000000E+00  0.00000000000E+00 -0.44848201277E+03  0.44848201280E+03  0.50400001928E-02 0.  1.
    10030    2    1    2    0    0  0.00000000000E+00  0.00000000000E+00 -0.24785687648E+03  0.64910714916E+03  0.59992254489E+03 0.  0.
        4    1    3    3  502    0  0.11625862235E+03 -0.10226405368E+03  0.15404093940E+03  0.21841297547E+03  0.12699999809E+01 0. -1.
       -4    1    3    3    0  502 -0.11625862235E+03  0.10226405368E+03 -0.40189781587E+03  0.43069417369E+03  0.12699999809E+01 0.  1.
</event>
<event>
 5   0  0.1416315E-03  0.6044002E+03  0.7818609E-02  0.9896319E-01
       -1   -1    0    0    0  501  0.00000000000E+00  0.00000000000E+00  0.31927709385E+03  0.31927709389E+03  0.50400001928E-02 0.  1.
        1   -1    0    0  501    0  0.00000000000E+00  0.00000000000E+00 -0.28603652060E+03  0.28603652065E+03  0.50400001928E-02 0. -1.
    10030    2    1    2    0    0  0.00000000000E+00  0.00000000000E+00  0.33240573248E+02  0.60531361453E+03  0.60440022852E+03 0.  0.
        2    1    3    3  502    0  0.12818066593E+02  0.10745657518E+03  0.29920567413E+03  0.31817487930E+03  0.25500000920E-02 0.  1.
       -2    1    3    3    0  502 -0.12818066593E+02 -0.10745657518E+03 -0.26596510088E+03  0.28713873524E+03  0.25500000920E-02 0. -1.
</event>
<event>
 5   0  0.1392854E-03  0.5998352E+03  0.7818609E-02  0.9905748E-01
       -1   -1    0    0    0  501  0.00000000000E+00  0.00000000000E+00  0.53185223849E+03  0.53185223852E+03  0.50400001928E-02 0.  1.
        1   -1    0    0  501    0  0.00000000000E+00  0.00000000000E+00 -0.16912698623E+03  0.16912698630E+03  0.50400001928E-02 0. -1.
    10030    2    1    2    0    0  0.00000000000E+00  0.00000000000E+00  0.36272525227E+03  0.70097922482E+03  0.59983519820E+03 0.  0.
        4    1    3    3  502    0 -0.75311329232E+02  0.68276767428E+02 -0.14837753841E+03  0.17986389323E+03  0.12699999809E+01 0. -1.
       -4    1    3    3    0  502  0.75311329232E+02 -0.68276767428E+02  0.51110279068E+03  0.52111533159E+03  0.12699999809E+01 0.  1.
</event>
<event>
 5   0  0.2421210E-03  0.5999047E+03  0.7818609E-02  0.9905604E-01
        2   -1    0    0  501    0  0.00000000000E+00  0.00000000000E+00  0.51151583255E+03  0.51151583256E+03  0.25500000920E-02 0.  1.
       -2   -1    0    0    0  501  0.00000000000E+00  0.00000000000E+00 -0.17589173832E+03  0.17589173834E+03  0.25500000920E-02 0. -1.
    10030    2    1    2    0    0  0.00000000000E+00  0.00000000000E+00  0.33562409423E+03  0.68740757090E+03  0.59990468902E+03 0.  0.
        1    1    3    3  502    0 -0.11692910135E+03 -0.24179855186E+03  0.14795775021E+02  0.26899418099E+03  0.50400001928E-02 0. -1.
       -1    1    3    3    0  502  0.11692910135E+03  0.24179855186E+03  0.32082831921E+03  0.41841338991E+03  0.50400001928E-02 0.  1.
</event>
<event>
 5   0  0.1423430E-03  0.5996632E+03  0.7818609E-02  0.9906105E-01
       -1   -1    0    0    0  501  0.00000000000E+00  0.00000000000E+00  0.12684192948E+03  0.12684192958E+03  0.50400001928E-02 0.  1.
        1   -1    0    0  501    0  0.00000000000E+00  0.00000000000E+00 -0.70874816027E+03  0.70874816029E+03  0.50400001928E-02 0. -1.
    10030    2    1    2    0    0  0.00000000000E+00  0.00000000000E+00 -0.58190623079E+03  0.83559008987E+03  0.59966318617E+03 0.  0.
        1    1    3    3  502    0 -0.26415912090E+02  0.13892729716E+03  0.77452033786E+02  0.16123712932E+03  0.50400001928E-02 0.  1.
       -1    1    3    3    0  502  0.26415912090E+02 -0.13892729716E+03 -0.65935826458E+03  0.67435296055E+03  0.50400001928E-02 0. -1.
</event>
<event>
 5   0  0.1418763E-03  0.6004036E+03  0.7818609E-02  0.9904569E-01
       -1   -1    0    0    0  501  0.00000000000E+00  0.00000000000E+00  0.13320911978E+03  0.13320911988E+03  0.50400001928E-02 0.  1.
        1   -1    0    0  501    0  0.00000000000E+00  0.00000000000E+00 -0.67653874863E+03  0.67653874865E+03  0.50400001928E-02 0. -1.
    10030    2    1    2    0    0  0.00000000000E+00  0.00000000000E+00 -0.54332962885E+03  0.80974786853E+03  0.60040363507E+03 0.  0.
        5    1    3    3  502    0  0.11695631778E+03 -0.27290412958E+03 -0.21220690768E+03  0.36497850057E+03  0.46999998093E+01 0.  1.
       -5    1    3    3    0  502 -0.11695631778E+03  0.27290412958E+03 -0.33112272117E+03  0.44476936796E+03  0.46999998093E+01 0. -1.
</event>
<event>
 5   0  0.1479385E-03  0.6000363E+03  0.7818609E-02  0.9905331E-01
       -1   -1    0    0    0  501  0.00000000000E+00  0.00000000000E+00  0.81422530914E+02  0.81422531070E+02  0.50400001928E-02 0. -1.
        1   -1    0    0  501    0  0.00000000000E+00  0.00000000000E+00 -0.11054787355E+04  0.11054787355E+04  0.50400001928E-02 0.  1.
    10030    2    1    2    0    0  0.00000000000E+00  0.00000000000E+00 -0.10240562046E+04  0.11869012666E+04  0.60003625430E+03 0.  0.
        3    1    3    3  502    0  0.15778885727E+03  0.22641922559E+03 -0.74479901214E+03  0.79428494125E+03  0.10100000352E+00 0. -1.
       -3    1    3    3    0  502 -0.15778885727E+03 -0.22641922559E+03 -0.27925719247E+03  0.39261632536E+03  0.10100000352E+00 0.  1.
</event>
<event>
 5   0  0.2313168E-03  0.6001568E+03  0.7818609E-02  0.9905081E-01
        2   -1    0    0  501    0  0.00000000000E+00  0.00000000000E+00  0.76377500958E+02  0.76377501000E+02  0.25500000920E-02 0.  1.
       -2   -1    0    0    0  501  0.00000000000E+00  0.00000000000E+00 -0.11789733167E+04  0.11789733167E+04  0.25500000920E-02 0. -1.
    10030    2    1    2    0    0  0.00000000000E+00  0.00000000000E+00 -0.11025958157E+04  0.12553508177E+04  0.60015676503E+03 0.  0.
        2    1    3    3  502    0  0.68334388594E+02 -0.87130081925E+02 -0.11346765880E+04  0.11400667520E+04  0.25500000920E-02 0. -1.
       -2    1    3    3    0  502 -0.68334388594E+02  0.87130081925E+02  0.32080772224E+02  0.11528406565E+03  0.25500000920E-02 0.  1.
</event>
<event>
 5   0  0.2313168E-03  0.5986428E+03  0.7818609E-02  0.9908226E-01
        2   -1    0    0  501    0  0.00000000000E+00  0.00000000000E+00  0.11582229536E+04  0.11582229536E+04  0.25500000920E-02 0.  1.
       -2   -1    0    0    0  501  0.00000000000E+00  0.00000000000E+00 -0.77354109494E+02  0.77354109536E+02  0.25500000920E-02 0. -1.
    10030    2    1    2    0    0  0.00000000000E+00  0.00000000000E+00  0.10808688441E+04  0.12355770631E+04  0.59864281569E+03 0.  0.
        2    1    3    3  502    0  0.21501397556E+03  0.49383385405E+02  0.95796554624E+03  0.98304003796E+03  0.25500000920E-02 0.  1.
       -2    1    3    3    0  502 -0.21501397556E+03 -0.49383385405E+02  0.12290329782E+03  0.25253702513E+03  0.25500000920E-02 0. -1.
</event>
<event>
 5   0  0.9496750E-04  0.5999010E+03  0.7818609E-02  0.9905611E-01
        3   -1    0    0  501    0  0.00000000000E+00  0.00000000000E+00  0.89865316806E+02  0.89865373563E+02  0.10100000352E+00 0.  1.
       -3   -1    0    0    0  501  0.00000000000E+00  0.00000000000E+00 -0.10011680291E+04  0.10011680342E+04  0.10100000352E+00 0. -1.
    10030    2    1    2    0    0  0.00000000000E+00  0.00000000000E+00 -0.91130271234E+03  0.10910334078E+04  0.59990104469E+03 0.  0.
        1    1    3    3  502    0 -0.24497359736E+03 -0.16670562597E+03 -0.54032273874E+03  0.61623980004E+03  0.50400001928E-02 0.  1.
       -1    1    3    3    0  502  0.24497359736E+03  0.16670562597E+03 -0.37097997360E+03  0.47479360776E+03  0.50400001928E-02 0. -1.
</event>
<event>
 5   0  0.2324616E-03  0.6002080E+03  0.7818609E-02  0.9904975E-01
        2   -1    0    0  501    0  0.00000000000E+00  0.00000000000E+00  0.88242374013E+03  0.88242374013E+03  0.25500000920E-02 0. -1.
       -2   -1    0    0    0  501  0.00000000000E+00  0.00000000000E+00 -0.10206253843E+03  0.10206253847E+03  0.25500000920E-02 0.  1.
    10030    2    1    2    0    0  0.00000000000E+00  0.00000000000E+00  0.78036120170E+03  0.98448627860E+03  0.60020798699E+03 0.  0.
        4    1    3    3  502    0  0.10151047359E+03 -0.11995464831E+03 -0.29180526352E+02  0.15983306891E+03  0.12699999809E+01 0.  1.
       -4    1    3    3    0  502 -0.10151047359E+03  0.11995464831E+03  0.80954172805E+03  0.82465320969E+03  0.12699999809E+01 0. -1.
</event>
<event>
 5   0  0.9496750E-04  0.5998623E+03  0.7818609E-02  0.9905692E-01
        3   -1    0    0  501    0  0.00000000000E+00  0.00000000000E+00  0.59777417473E+03  0.59777418326E+03  0.10100000352E+00 0. -1.
       -3   -1    0    0    0  501  0.00000000000E+00  0.00000000000E+00 -0.15048938862E+03  0.15048942251E+03  0.10100000352E+00 0.  1.
    10030    2    1    2    0    0  0.00000000000E+00  0.00000000000E+00  0.44728478611E+03  0.74826360577E+03  0.59986227072E+03 0.  0.
        1    1    3    3  502    0 -0.26738466612E+03  0.11416835675E+03  0.31555847327E+03  0.42907589473E+03  0.50400001928E-02 0. -1.
       -1    1    3    3    0  502  0.26738466612E+03 -0.11416835675E+03  0.13172631284E+03  0.31918771104E+03  0.50400001928E-02 0.  1.
</event>
<event>
 5   0  0.1418763E-03  0.6000925E+03  0.7818609E-02  0.9905214E-01
       -1   -1    0    0    0  501  0.00000000000E+00  0.00000000000E+00  0.39512977474E+03  0.39512977477E+03  0.50400001928E-02 0. -1.
        1   -1    0    0  501    0  0.00000000000E+00  0.00000000000E+00 -0.22784351567E+03  0.22784351572E+03  0.50400001928E-02 0.  1.
    10030    2    1    2    0    0  0.00000000000E+00  0.00000000000E+00  0.16728625907E+03  0.62297329049E+03  0.60009251636E+03 0.  0.
        5    1    3    3  502    0  0.27141183288E+03  0.66942766548E+01 -0.48881926349E+02  0.27589985337E+03  0.46999998093E+01 0.  1.
       -5    1    3    3    0  502 -0.27141183288E+03 -0.66942766548E+01  0.21616818542E+03  0.34707343712E+03  0.46999998093E+01 0. -1.
</event>
<event>
 5   0  0.1423430E-03  0.6000398E+03  0.7818609E-02  0.9905323E-01
       -1   -1    0    0    0  501  0.00000000000E+00  0.00000000000E+00  0.12778908264E+03  0.12778908274E+03  0.50400001928E-02 0. -1.
        1   -1    0    0  501    0  0.00000000000E+00  0.00000000000E+00 -0.70437901280E+03  0.70437901282E+03  0.50400001928E-02 0.  1.
    10030    2    1    2    0    0  0.00000000000E+00  0.00000000000E+00 -0.57658993016E+03  0.83216809556E+03  0.60003982511E+03 0.  0.
        1    1    3    3  502    0 -0.93058676033E+02 -0.28520619549E+03 -0.28403012786E+03  0.41312904120E+03  0.50400001928E-02 0.  1.
       -1    1    3    3    0  502  0.93058676033E+02  0.28520619549E+03 -0.29255980230E+03  0.41903905436E+03  0.50400001928E-02 0. -1.
</event>
<event>
 5   0  0.1416315E-03  0.6000445E+03  0.7818609E-02  0.9905314E-01
        1   -1    0    0  501    0  0.00000000000E+00  0.00000000000E+00  0.44129428158E+03  0.44129428161E+03  0.50400001928E-02 0. -1.
       -1   -1    0    0    0  501  0.00000000000E+00  0.00000000000E+00 -0.20397581862E+03  0.20397581869E+03  0.50400001928E-02 0.  1.
    10030    2    1    2    0    0  0.00000000000E+00  0.00000000000E+00  0.23731846296E+03  0.64527010029E+03  0.60004453957E+03 0.  0.
        2    1    3    3  502    0 -0.15571678045E+03  0.10706114056E+03 -0.13193565225E+03  0.23047086556E+03  0.25500000920E-02 0.  1.
       -2    1    3    3    0  502  0.15571678045E+03 -0.10706114056E+03  0.36925411521E+03  0.41479923473E+03  0.25500000920E-02 0. -1.
</event>
<event>
 5   0  0.2406307E-03  0.5999035E+03  0.7818609E-02  0.9905606E-01
        2   -1    0    0  501    0  0.00000000000E+00  0.00000000000E+00  0.14884724841E+03  0.14884724843E+03  0.25500000920E-02 0.  1.
       -2   -1    0    0    0  501  0.00000000000E+00  0.00000000000E+00 -0.60445218448E+03  0.60445218448E+03  0.25500000920E-02 0. -1.
    10030    2    1    2    0    0  0.00000000000E+00  0.00000000000E+00 -0.45560493607E+03  0.75329943291E+03  0.59990347378E+03 0.  0.
        5    1    3    3  502    0  0.24095653265E+03 -0.84074605239E+02 -0.29973292047E+02  0.25700015196E+03  0.46999998093E+01 0.  1.
       -5    1    3    3    0  502 -0.24095653265E+03  0.84074605239E+02 -0.42563164402E+03  0.49629928095E+03  0.46999998093E+01 0. -1.
</event>
<event>
 5   0  0.1479385E-03  0.6007011E+03  0.7818609E-02  0.9903952E-01
       -1   -1    0    0    0  501  0.00000000000E+00  0.00000000000E+00  0.32434526364E+03  0.32434526368E+03  0.50400001928E-02 0.  1.
        1   -1    0    0  501    0  0.00000000000E+00  0.00000000000E+00 -0.27813096906E+03  0.27813096911E+03  0.50400001928E-02 0. -1.
    10030    2    1    2    0    0  0.00000000000E+00  0.00000000000E+00  0.46214294580E+02  0.60247623279E+03  0.60070113206E+03 0.  0.
        3    1    3    3  502    0 -0.24636989334E+03 -0.15678271057E+03 -0.47325078244E+02  0.29583545411E+03  0.10100000352E+00 0. -1.
       -3    1    3    3    0  502  0.24636989334E+03  0.15678271057E+03  0.93539372824E+02  0.30664077868E+03  0.10100000352E+00 0.  1.
</event>
<event>
 5   0  0.1416315E-03  0.5995745E+03  0.7818609E-02  0.9906289E-01
       -1   -1    0    0    0  501  0.00000000000E+00  0.00000000000E+00  0.20364342857E+03  0.20364342863E+03  0.50400001928E-02 0.  1.
        1   -1    0    0  501    0  0.00000000000E+00  0.00000000000E+00 -0.44132234059E+03  0.44132234062E+03  0.50400001928E-02 0. -1.
    10030    2    1    2    0    0  0.00000000000E+00  0.00000000000E+00 -0.23767891202E+03  0.64496576925E+03  0.59957449770E+03 0.  0.
        2    1    3    3  502    0 -0.26961538150E+02  0.25386166202E+03  0.50220046332E+02  0.26018209209E+03  0.25500000920E-02 0.  1.
       -2    1    3    3    0  502  0.26961538150E+02 -0.25386166202E+03 -0.28789895835E+03  0.38478367716E+03  0.25500000920E-02 0. -1.
</event>
<event>
 5   0  0.2346281E-03  0.6002886E+03  0.7818609E-02  0.9904807E-01
        2   -1    0    0  501    0  0.00000000000E+00  0.00000000000E+00  0.27236381114E+03  0.27236381115E+03  0.25500000920E-02 0.  1.
       -2   -1    0    0    0  501  0.00000000000E+00  0.00000000000E+00 -0.33075836628E+03  0.33075836629E+03  0.25500000920E-02 0. -1.
    10030    2    1    2    0    0  0.00000000000E+00  0.00000000000E+00 -0.58394555147E+02  0.60312217744E+03  0.60028862795E+03 0.  0.
        3    1    3    3  502    0  0.32555067318E+01  0.11817973354E+03 -0.30637911088E+03  0.32839795604E+03  0.10100000352E+00 0. -1.
       -3    1    3    3    0  502 -0.32555067318E+01 -0.11817973354E+03  0.24798455573E+03  0.27472422140E+03  0.10100000352E+00 0.  1.
</event>
<event>
 5   0  0.1479385E-03  0.6001464E+03  0.7818609E-02  0.9905102E-01
       -1   -1    0    0    0  501  0.00000000000E+00  0.00000000000E+00  0.51143589390E+03  0.51143589392E+03  0.50400001928E-02 0.  1.
        1   -1    0    0  501    0  0.00000000000E+00  0.00000000000E+00 -0.17606100984E+03  0.17606100991E+03  0.50400001928E-02 0. -1.
    10030    2    1    2    0    0  0.00000000000E+00  0.00000000000E+00  0.33537488406E+03  0.68749690383E+03  0.60014638208E+03 0.  0.
        3    1    3    3  502    0  0.18932378107E+03  0.23122601638E+03  0.19874311817E+03  0.35889803838E+03  0.10100000352E+00 0. -1.
       -3    1    3    3    0  502 -0.18932378107E+03 -0.23122601638E+03  0.13663176589E+03  0.32859886546E+03  0.10100000352E+00 0.  1.
</event>
<event>
 5   0  0.1479385E-03  0.6001198E+03  0.7818609E-02  0.9905158E-01
        1   -1    0    0  501    0  0.00000000000E+00  0.00000000000E+00  0.12084634328E+03  0.12084634338E+03  0.50400001928E-02 0. -1.
       -1   -1    0    0    0  501  0.00000000000E+00  0.00000000000E+00 -0.74504472935E+03  0.74504472936E+03  0.50400001928E-02 0.  1.
    10030    2    1    2    0    0  0.00000000000E+00  0.00000000000E+00 -0.62419838607E+03  0.86589107275E+03  0.60011975863E+03 0.  0.
        3    1    3    3  502    0  0.16645131681E+03 -0.13932755427E+03 -0.13187007178E+02  0.21746750471E+03  0.10100000352E+00 0. -1.
       -3    1    3    3    0  502 -0.16645131681E+03  0.13932755427E+03 -0.61101137889E+03  0.64842356803E+03  0.10100000352E+00 0.  1.
</event>
<event>
 5   0  0.1423430E-03  0.6021046E+03  0.7818609E-02  0.9901049E-01
       -1   -1    0    0    0  501  0.00000000000E+00  0.00000000000E+00  0.79179930782E+02  0.79179930942E+02  0.50400001928E-02 0.  1.
        1   -1    0    0  501    0  0.00000000000E+00  0.00000000000E+00 -0.11446396353E+04  0.11446396353E+04  0.50400001928E-02 0. -1.
    10030    2    1    2    0    0  0.00000000000E+00  0.00000000000E+00 -0.10654597045E+04  0.12238195663E+04  0.60210459955E+03 0.  0.
        1    1    3    3  502    0  0.17916457714E+03 -0.58803179858E+02 -0.55726285947E+02  0.19662954670E+03  0.50400001928E-02 0.  1.
       -1    1    3    3    0  502 -0.17916457714E+03  0.58803179858E+02 -0.10097334186E+04  0.10271900196E+04  0.50400001928E-02 0. -1.
</event>
<event>
 5   0  0.9496750E-04  0.6000134E+03  0.7818609E-02  0.9905378E-01
       -4   -1    0    0    0  501  0.00000000000E+00  0.00000000000E+00  0.23035464419E+03  0.23035814507E+03  0.12699999809E+01 0.  1.
        4   -1    0    0  501    0  0.00000000000E+00  0.00000000000E+00 -0.39071188074E+03  0.39071394478E+03  0.12699999809E+01 0. -1.
    10030    2    1    2    0    0  0.00000000000E+00  0.00000000000E+00 -0.16035723655E+03  0.62107208985E+03  0.60001341441E+03 0.  0.
        2    1    3    3  502    0  0.24706176153E+02  0.29086246434E+03 -0.15183736112E+03  0.32903791961E+03  0.25500000920E-02 0.  1.
       -2    1    3    3    0  502 -0.24706176153E+02 -0.29086246434E+03 -0.85198754320E+01  0.29203417024E+03  0.25500000920E-02 0. -1.
</event>
<event>
 5   0  0.1392854E-03  0.6045801E+03  0.7818609E-02  0.9895949E-01
        1   -1    0    0  501    0  0.00000000000E+00  0.00000000000E+00  0.12482227495E+03  0.12482227505E+03  0.50400001928E-02 0. -1.
       -1   -1    0    0    0  501  0.00000000000E+00  0.00000000000E+00 -0.73207507652E+03  0.73207507654E+03  0.50400001928E-02 0.  1.
    10030    2    1    2    0    0  0.00000000000E+00  0.00000000000E+00 -0.60725280158E+03  0.85689735159E+03  0.60458010730E+03 0.  0.
        4    1    3    3  502    0  0.22482761127E+03 -0.25152039649E+02 -0.58779423778E+03  0.62982835658E+03  0.12699999809E+01 0.  1.
       -4    1    3    3    0  502 -0.22482761127E+03  0.25152039649E+02 -0.19458563794E+02  0.22706899501E+03  0.12699999809E+01 0. -1.
</event>
<event>
 5   0  0.1416315E-03  0.6000592E+03  0.7818609E-02  0.9905283E-01
        1   -1    0    0  501    0  0.00000000000E+00  0.00000000000E+00  0.85439197410E+03  0.85439197411E+03  0.50400001928E-02 0. -1.
       -1   -1    0    0    0  501  0.00000000000E+00  0.00000000000E+00 -0.10535887194E+03  0.10535887206E+03  0.50400001928E-02 0.  1.
    10030    2    1    2    0    0  0.00000000000E+00  0.00000000000E+00  0.74903310216E+03  0.95975084618E+03  0.60005924591E+03 0.  0.
        2    1    3    3  502    0  0.22468131715E+03  0.13645684494E+03  0.14320376598E+03  0.29934843144E+03  0.25500000920E-02 0.  1.
       -2    1    3    3    0  502 -0.22468131715E+03 -0.13645684494E+03  0.60582933618E+03  0.66040241474E+03  0.25500000920E-02 0. -1.
</event>
<event>
 5   0  0.2346281E-03  0.6000023E+03  0.7818609E-02  0.9905401E-01
       -2   -1    0    0    0  501  0.00000000000E+00  0.00000000000E+00  0.13814208828E+03  0.13814208831E+03  0.25500000920E-02 0.  1.
        2   -1    0    0  501    0  0.00000000000E+00  0.00000000000E+00 -0.65150802062E+03  0.65150802063E+03  0.25500000920E-02 0. -1.
    10030    2    1    2    0    0  0.00000000000E+00  0.00000000000E+00 -0.51336593234E+03  0.78965010893E+03  0.60000226170E+03 0.  0.
        3    1    3    3  502    0  0.38725929661E+02  0.21571531229E+03 -0.52629563823E+03  0.57010516802E+03  0.10100000352E+00 0. -1.
       -3    1    3    3    0  502 -0.38725929661E+02 -0.21571531229E+03  0.12929705893E+02  0.21954494091E+03  0.10100000352E+00 0.  1.
</event>
<event>
 5   0  0.2324616E-03  0.5999406E+03  0.7818609E-02  0.9905529E-01
       -2   -1    0    0    0  501  0.00000000000E+00  0.00000000000E+00  0.15382819491E+03  0.15382819493E+03  0.25500000920E-02 0.  1.
        2   -1    0    0  501    0  0.00000000000E+00  0.00000000000E+00 -0.58495254563E+03  0.58495254563E+03  0.25500000920E-02 0. -1.
    10030    2    1    2    0    0  0.00000000000E+00  0.00000000000E+00 -0.43112435072E+03  0.73878074057E+03  0.59994064444E+03 0.  0.
        4    1    3    3  502    0 -0.24307505516E+03 -0.61511535586E+02 -0.41832273974E+03  0.48771372642E+03  0.12699999809E+01 0. -1.
       -4    1    3    3    0  502  0.24307505516E+03  0.61511535586E+02 -0.12801610976E+02  0.25106701415E+03  0.12699999809E+01 0.  1.
</event>
<event>
 5   0  0.2324616E-03  0.5999689E+03  0.7818609E-02  0.9905471E-01
        2   -1    0    0  501    0  0.00000000000E+00  0.00000000000E+00  0.24954658365E+03  0.24954658367E+03  0.25500000920E-02 0.  1.
       -2   -1    0    0    0  501  0.00000000000E+00  0.00000000000E+00 -0.36061670602E+03  0.36061670603E+03  0.25500000920E-02 0. -1.
    10030    2    1    2    0    0  0.00000000000E+00  0.00000000000E+00 -0.11107012237E+03  0.61016328970E+03  0.59996888920E+03 0.  0.
        4    1    3    3  502    0 -0.80059619007E+02 -0.20538819604E+03  0.15138011194E+03  0.26741616417E+03  0.12699999809E+01 0.  1.
       -4    1    3    3    0  502  0.80059619007E+02  0.20538819604E+03 -0.26245023430E+03  0.34274712553E+03  0.12699999809E+01 0. -1.
</event>
<event>
 5   0  0.1418763E-03  0.5998897E+03  0.7818609E-02  0.9905635E-01
       -1   -1    0    0    0  501  0.00000000000E+00  0.00000000000E+00  0.16718415247E+03  0.16718415254E+03  0.50400001928E-02 0. -1.
        1   -1    0    0  501    0  0.00000000000E+00  0.00000000000E+00 -0.53813054548E+03  0.53813054550E+03  0.50400001928E-02 0.  1.
    10030    2    1    2    0    0  0.00000000000E+00  0.00000000000E+00 -0.37094639301E+03  0.70531469804E+03  0.59988965384E+03 0.  0.
        5    1    3    3  502    0 -0.70270107263E+02  0.29106236153E+03 -0.16546407458E+03  0.34213394489E+03  0.46999998093E+01 0. -1.
       -5    1    3    3    0  502  0.70270107263E+02 -0.29106236153E+03 -0.20548231843E+03  0.36318075315E+03  0.46999998093E+01 0.  1.
</event>
<event>
 5   0  0.1479385E-03  0.6001003E+03  0.7818609E-02  0.9905198E-01
        1   -1    0    0  501    0  0.00000000000E+00  0.00000000000E+00  0.13250933273E+03  0.13250933282E+03  0.50400001928E-02 0.  1.
       -1   -1    0    0    0  501  0.00000000000E+00  0.00000000000E+00 -0.67942451502E+03  0.67942451504E+03  0.50400001928E-02 0. -1.
    10030    2    1    2    0    0  0.00000000000E+00  0.00000000000E+00 -0.54691518229E+03  0.81193384786E+03  0.60010028885E+03 0.  0.
        3    1    3    3  502    0  0.99338775188E+02  0.65570975157E+02  0.99199947101E+02  0.15494639313E+03  0.10100000352E+00 0.  1.
       -3    1    3    3    0  502 -0.99338775188E+02 -0.65570975157E+02 -0.64611512939E+03  0.65698745473E+03  0.10100000352E+00 0. -1.
</event>
<event>
 5   0  0.2324616E-03  0.5999688E+03  0.7818609E-02  0.9905471E-01
       -2   -1    0    0    0  501  0.00000000000E+00  0.00000000000E+00  0.10530339780E+03  0.10530339783E+03  0.25500000920E-02 0. -1.
        2   -1    0    0  501    0  0.00000000000E+00  0.00000000000E+00 -0.85458445525E+03  0.85458445526E+03  0.25500000920E-02 0.  1.
    10030    2    1    2    0    0  0.00000000000E+00  0.00000000000E+00 -0.74928105746E+03  0.95988785308E+03  0.59996882205E+03 0.  0.
        4    1    3    3  502    0  0.90703672951E+02  0.47250707254E+02 -0.82582615166E+03  0.83213594519E+03  0.12699999809E+01 0.  1.
       -4    1    3    3    0  502 -0.90703672951E+02 -0.47250707254E+02  0.76545094202E+02  0.12775190789E+03  0.12699999809E+01 0. -1.
</event>
<event>
 5   0  0.9496750E-04  0.6001147E+03  0.7818609E-02  0.9905168E-01
        3   -1    0    0  501    0  0.00000000000E+00  0.00000000000E+00  0.10226112596E+04  0.10226112646E+04  0.10100000352E+00 0. -1.
       -3   -1    0    0    0  501  0.00000000000E+00  0.00000000000E+00 -0.88043613748E+02  0.88043671679E+02  0.10100000352E+00 0.  1.
    10030    2    1    2    0    0  0.00000000000E+00  0.00000000000E+00  0.93456764588E+03  0.11106549363E+04  0.60011474135E+03 0.  0.
        1    1    3    3  502    0 -0.18925328162E+03  0.45227240634E+01  0.89814081493E+03  0.91787481886E+03  0.50400001928E-02 0. -1.
       -1    1    3    3    0  502  0.18925328162E+03 -0.45227240634E+01  0.36426830950E+02  0.19278011743E+03  0.50400001928E-02 0.  1.
</event>
<event>
 5   0  0.2406307E-03  0.6002318E+03  0.7818609E-02  0.9904925E-01
        2   -1    0    0  501    0  0.00000000000E+00  0.00000000000E+00  0.19107422637E+03  0.19107422639E+03  0.25500000920E-02 0. -1.
       -2   -1    0    0    0  501  0.00000000000E+00  0.00000000000E+00 -0.47138519880E+03  0.47138519880E+03  0.25500000920E-02 0.  1.
    10030    2    1    2    0    0  0.00000000000E+00  0.00000000000E+00 -0.28031097242E+03  0.66245942519E+03  0.60023182919E+03 0.  0.
        5    1    3    3  502    0 -0.13482195985E+03 -0.21708955637E+03  0.33449919318E+02  0.25777087393E+03  0.46999998093E+01 0. -1.
       -5    1    3    3    0  502  0.13482195985E+03  0.21708955637E+03 -0.31376089174E+03  0.40468855127E+03  0.46999998093E+01 0.  1.
</event>
<event>
 5   0  0.1418763E-03  0.5999563E+03  0.7818609E-02  0.9905497E-01
       -1   -1    0    0    0  501  0.00000000000E+00  0.00000000000E+00  0.12596144717E+03  0.12596144727E+03  0.50400001928E-02 0.  1.
        1   -1    0    0  501    0  0.00000000000E+00  0.00000000000E+00 -0.71440016341E+03  0.71440016343E+03  0.50400001928E-02 0. -1.
    10030    2    1    2    0    0  0.00000000000E+00  0.00000000000E+00 -0.58843871624E+03  0.84036161070E+03  0.59995626005E+03 0.  0.
        5    1    3    3  502    0 -0.28102702751E+03  0.33043085636E+02 -0.43356486728E+03  0.51775343537E+03  0.46999998093E+01 0. -1.
       -5    1    3    3    0  502  0.28102702751E+03 -0.33043085636E+02 -0.15487384896E+03  0.32260817533E+03  0.46999998093E+01 0.  1.
</event>
<event>
 5   0  0.1423430E-03  0.6001202E+03  0.7818609E-02  0.9905157E-01
        1   -1    0    0  501    0  0.00000000000E+00  0.00000000000E+00  0.96347685572E+02  0.96347685704E+02  0.50400001928E-02 0. -1.
       -1   -1    0    0    0  501  0.00000000000E+00  0.00000000000E+00 -0.93449119270E+03  0.93449119271E+03  0.50400001928E-02 0.  1.
    10030    2    1    2    0    0  0.00000000000E+00  0.00000000000E+00 -0.83814350713E+03  0.10308388784E+04  0.60012020022E+03 0.  0.
        1    1    3    3  502    0 -0.23333640999E+03 -0.18773410537E+03 -0.45102731918E+03  0.54140153049E+03  0.50400001928E-02 0.  1.
       -1    1    3    3    0  502  0.23333640999E+03  0.18773410537E+03 -0.38711618795E+03  0.48943734793E+03  0.50400001928E-02 0. -1.
</event>
<event>
 5   0  0.2313168E-03  0.5998893E+03  0.7818609E-02  0.9905636E-01
        2   -1    0    0  501    0  0.00000000000E+00  0.00000000000E+00  0.59493261459E+03  0.59493261460E+03  0.25500000920E-02 0.  1.
       -2   -1    0    0    0  501  0.00000000000E+00  0.00000000000E+00 -0.15122182391E+03  0.15122182393E+03  0.25500000920E-02 0. -1.
    10030    2    1    2    0    0  0.00000000000E+00  0.00000000000E+00  0.44371079069E+03  0.74615443853E+03  0.59988930676E+03 0.  0.
        2    1    3    3  502    0  0.26175824863E+01 -0.29742031273E+03  0.17366477112E+03  0.34442001524E+03  0.25500000920E-02 0.  1.
       -2    1    3    3    0  502 -0.26175824863E+01  0.29742031273E+03  0.27004601957E+03  0.40173442329E+03  0.25500000920E-02 0. -1.
</event>
<event>
 5   0  0.2406307E-03  0.5997646E+03  0.7818609E-02  0.9905894E-01
        2   -1    0    0  501    0  0.00000000000E+00  0.00000000000E+00  0.49415595644E+03  0.49415595645E+03  0.25500000920E-02 0. -1.
       -2   -1    0    0    0  501  0.00000000000E+00  0.00000000000E+00 -0.18198587665E+03  0.18198587666E+03  0.25500000920E-02 0.  1.
    10030    2    1    2    0    0  0.00000000000E+00  0.00000000000E+00  0.31217007979E+03  0.67614183311E+03  0.59976463697E+03 0.  0.
        5    1    3    3  502    0 -0.23985198767E+03 -0.17803833733E+03  0.18549750623E+03  0.35165045196E+03  0.46999998093E+01 0.  1.
       -5    1    3    3    0  502  0.23985198767E+03  0.17803833733E+03  0.12667257357E+03  0.32449138115E+03  0.46999998093E+01 0. -1.
</event>
<event>
 5   0  0.2421210E-03  0.6000175E+03  0.7818609E-02  0.9905370E-01
       -2   -1    0    0    0  501  0.00000000000E+00  0.00000000000E+00  0.26257778891E+03  0.26257778892E+03  0.25500000920E-02 0. -1.
        2   -1    0    0  501    0  0.00000000000E+00  0.00000000000E+00 -0.34277558394E+03  0.34277558395E+03  0.25500000920E-02 0.  1.
    10030    2    1    2    0    0  0.00000000000E+00  0.00000000000E+00 -0.80197795027E+02  0.60535337287E+03  0.60001751617E+03 0.  0.
        1    1    3    3  502    0 -0.44395456916E+02 -0.29385754797E+03 -0.81476295116E+02  0.30815840373E+03  0.50400001928E-02 0. -1.
       -1    1    3    3    0  502  0.44395456916E+02  0.29385754797E+03  0.12785000889E+01  0.29719496914E+03  0.50400001928E-02 0.  1.
</event>
<event>
 5   0  0.2324616E-03  0.6004311E+03  0.7818609E-02  0.9904512E-01
        2   -1    0    0  501    0  0.00000000000E+00  0.00000000000E+00  0.14662258158E+04  0.14662258158E+04  0.25500000920E-02 0. -1.
       -2   -1    0    0    0  501  0.00000000000E+00  0.00000000000E+00 -0.61470316417E+02  0.61470316470E+02  0.25500000920E-02 0.  1.
    10030    2    1    2    0    0  0.00000000000E+00  0.00000000000E+00  0.14047554994E+04  0.15276961323E+04  0.60043106141E+03 0.  0.
        4    1    3    3  502    0  0.27821099558E+03 -0.65328039931E+02  0.46837329362E+03  0.54867500940E+03  0.12699999809E+01 0.  1.
       -4    1    3    3    0  502 -0.27821099558E+03  0.65328039931E+02  0.93638220575E+03  0.97902112286E+03  0.12699999809E+01 0. -1.
</event>
<event>
 5   0  0.2406307E-03  0.5997921E+03  0.7818609E-02  0.9905838E-01
        2   -1    0    0  501    0  0.00000000000E+00  0.00000000000E+00  0.65641891222E+03  0.65641891222E+03  0.25500000920E-02 0. -1.
       -2   -1    0    0    0  501  0.00000000000E+00  0.00000000000E+00 -0.13701256221E+03  0.13701256223E+03  0.25500000920E-02 0.  1.
    10030    2    1    2    0    0  0.00000000000E+00  0.00000000000E+00  0.51940635001E+03  0.79343147445E+03  0.59979208750E+03 0.  0.
        5    1    3    3  502    0 -0.17594981598E+03 -0.21922076219E+03  0.12159756597E+03  0.30630726137E+03  0.46999998093E+01 0.  1.
       -5    1    3    3    0  502  0.17594981598E+03  0.21922076219E+03  0.39780878404E+03  0.48712421309E+03  0.46999998093E+01 0. -1.
</event>
<event>
 5   0  0.2346281E-03  0.6000060E+03  0.7818609E-02  0.9905394E-01
        2   -1    0    0  501    0  0.00000000000E+00  0.00000000000E+00  0.35906938409E+03  0.35906938410E+03  0.25500000920E-02 0. -1.
       -2   -1    0    0    0  501  0.00000000000E+00  0.00000000000E+00 -0.25065294344E+03  0.25065294346E+03  0.25500000920E-02 0.  1.
    10030    2    1    2    0    0  0.00000000000E+00  0.00000000000E+00  0.10841644064E+03  0.60972232755E+03  0.60000599340E+03 0.  0.
        3    1    3    3  502    0  0.11647756980E+03 -0.29678040809E+02  0.33353024181E+03  0.35452819743E+03  0.10100000352E+00 0. -1.
       -3    1    3    3    0  502 -0.11647756980E+03  0.29678040809E+02 -0.22511380117E+03  0.25519413012E+03  0.10100000352E+00 0.  1.
</event>
<event>
 5   0  0.1416315E-03  0.6007589E+03  0.7818609E-02  0.9903833E-01
        1   -1    0    0  501    0  0.00000000000E+00  0.00000000000E+00  0.49379282434E+03  0.49379282437E+03  0.50400001928E-02 0. -1.
       -1   -1    0    0    0  501  0.00000000000E+00  0.00000000000E+00 -0.18272402930E+03  0.18272402937E+03  0.50400001928E-02 0.  1.
    10030    2    1    2    0    0  0.00000000000E+00  0.00000000000E+00  0.31106879505E+03  0.67651685373E+03  0.60075890183E+03 0.  0.
        2    1    3    3  502    0 -0.25997893764E+03 -0.14466588285E+03  0.10896011787E+03  0.31684313622E+03  0.25500000920E-02 0. -1.
       -2    1    3    3    0  502  0.25997893764E+03  0.14466588285E+03  0.20210867718E+03  0.35967371752E+03  0.25500000920E-02 0.  1.
</event>
<event>
 5   0  0.2406307E-03  0.5996975E+03  0.7818609E-02  0.9906034E-01
       -2   -1    0    0    0  501  0.00000000000E+00  0.00000000000E+00  0.11990671692E+03  0.11990671695E+03  0.25500000920E-02 0. -1.
        2   -1    0    0  501    0  0.00000000000E+00  0.00000000000E+00 -0.74982674327E+03  0.74982674327E+03  0.25500000920E-02 0.  1.
    10030    2    1    2    0    0  0.00000000000E+00  0.00000000000E+00 -0.62992002634E+03  0.86973346022E+03  0.59969746726E+03 0.  0.
        5    1    3    3  502    0 -0.18820288210E+03  0.18633069686E+03 -0.11115613672E+03  0.28725812461E+03  0.46999998093E+01 0. -1.
       -5    1    3    3    0  502  0.18820288210E+03 -0.18633069686E+03 -0.51876388962E+03  0.58247533561E+03  0.46999998093E+01 0.  1.
</event>
<event>
 5   0  0.1418763E-03  0.6001427E+03  0.7818609E-02  0.9905110E-01
        1   -1    0    0  501    0  0.00000000000E+00  0.00000000000E+00  0.79104025908E+03  0.79104025910E+03  0.50400001928E-02 0.  1.
       -1   -1    0    0    0  501  0.00000000000E+00  0.00000000000E+00 -0.11382836274E+03  0.11382836285E+03  0.50400001928E-02 0. -1.
    10030    2    1    2    0    0  0.00000000000E+00  0.00000000000E+00  0.67721189634E+03  0.90486862194E+03  0.60014270838E+03 0.  0.
        5    1    3    3  502    0 -0.12786212869E+03 -0.14875985731E+03 -0.36994675081E+01  0.19624982843E+03  0.46999998093E+01 0. -1.
       -5    1    3    3    0  502  0.12786212869E+03  0.14875985731E+03  0.68091136385E+03  0.70861879351E+03  0.46999998093E+01 0.  1.
</event>
<event>
 5   0  0.1479385E-03  0.6004041E+03  0.7818609E-02  0.9904568E-01
       -1   -1    0    0    0  501  0.00000000000E+00  0.00000000000E+00  0.48722957550E+03  0.48722957553E+03  0.50400001928E-02 0. -1.
        1   -1    0    0  501    0  0.00000000000E+00  0.00000000000E+00 -0.18496672388E+03  0.18496672395E+03  0.50400001928E-02 0.  1.
    10030    2    1    2    0    0  0.00000000000E+00  0.00000000000E+00  0.30226285162E+03  0.67219629948E+03  0.60040405858E+03 0.  0.
        3    1    3    3  502    0 -0.24352938531E+02 -0.14749190176E+03 -0.14033268587E+03  0.20503706891E+03  0.10100000352E+00 0.  1.
       -3    1    3    3    0  502  0.24352938531E+02  0.14749190176E+03  0.44259553749E+03  0.46715923057E+03  0.10100000352E+00 0. -1.
</event>
<event>
 5   0  0.1418763E-03  0.5997950E+03  0.7818609E-02  0.9905831E-01
       -1   -1    0    0    0  501  0.00000000000E+00  0.00000000000E+00  0.10275939348E+04  0.10275939348E+04  0.50400001928E-02 0.  1.
        1   -1    0    0  501    0  0.00000000000E+00  0.00000000000E+00 -0.87523402235E+02  0.87523402380E+02  0.50400001928E-02 0. -1.
    10030    2    1    2    0    0  0.00000000000E+00  0.00000000000E+00  0.94007053252E+03  0.11151173371E+04  0.59979502290E+03 0.  0.
        5    1    3    3  502    0 -0.81501085015E+01  0.32802196563E+02 -0.83902086578E+02  0.90576257917E+02  0.46999998093E+01 0. -1.
       -5    1    3    3    0  502  0.81501085015E+01 -0.32802196563E+02  0.10239726191E+04  0.10245410792E+04  0.46999998093E+01 0.  1.
</event>
<event>
 5   0  0.1392854E-03  0.6004729E+03  0.7818609E-02  0.9904425E-01
       -1   -1    0    0    0  501  0.00000000000E+00  0.00000000000E+00  0.26102313062E+03  0.26102313067E+03  0.50400001928E-02 0.  1.
        1   -1    0    0  501    0  0.00000000000E+00  0.00000000000E+00 -0.34534073452E+03  0.34534073456E+03  0.50400001928E-02 0. -1.
    10030    2    1    2    0    0  0.00000000000E+00  0.00000000000E+00 -0.84317603905E+02  0.60636386523E+03  0.60047287926E+03 0.  0.
        4    1    3    3  502    0  0.10132866193E+03  0.13644986144E+03 -0.29208282842E+03  0.33793498483E+03  0.12699999809E+01 0. -1.
       -4    1    3    3    0  502 -0.10132866193E+03 -0.13644986144E+03  0.20776522451E+03  0.26842888040E+03  0.12699999809E+01 0.  1.
</event>
<event>
 5   0  0.2346281E-03  0.6002783E+03  0.7818609E-02  0.9904829E-01
        2   -1    0    0  501    0  0.00000000000E+00  0.00000000000E+00  0.49871737204E+03  0.49871737205E+03  0.25500000920E-02 0.  1.
       -2   -1    0    0    0  501  0.00000000000E+00  0.00000000000E+00 -0.18063035841E+03  0.18063035842E+03  0.25500000920E-02 0. -1.
    10030    2    1    2    0    0  0.00000000000E+00  0.00000000000E+00  0.31808701364E+03  0.67934773047E+03  0.60027826102E+03 0.  0.
        3    1    3    3  502    0 -0.12650961177E+03  0.23511250233E+03  0.31422110563E+03  0.41233176453E+03  0.10100000352E+00 0. -1.
       -3    1    3    3    0  502  0.12650961177E+03 -0.23511250233E+03  0.38659080137E+01  0.26701596594E+03  0.10100000352E+00 0.  1.
</event>
<event>
 5   0  0.9496750E-04  0.6001037E+03  0.7818609E-02  0.9905191E-01
       -4   -1    0    0    0  501  0.00000000000E+00  0.00000000000E+00  0.26054328186E+03  0.26054637711E+03  0.12699999809E+01 0.  1.
        4   -1    0    0  501    0  0.00000000000E+00  0.00000000000E+00 -0.34554511265E+03  0.34554744649E+03  0.12699999809E+01 0. -1.
    10030    2    1    2    0    0  0.00000000000E+00  0.00000000000E+00 -0.85001830790E+02  0.60609382360E+03  0.60010366752E+03 0.  0.
        2    1    3    3  502    0 -0.57859311109E+02  0.21502047038E+03 -0.24562933755E+03  0.33153472523E+03  0.25500000920E-02 0. -1.
       -2    1    3    3    0  502  0.57859311109E+02 -0.21502047038E+03  0.16062750676E+03  0.27455909837E+03  0.25500000920E-02 0.  1.
</event>
<event>
 5   0  0.1392854E-03  0.5999364E+03  0.7818609E-02  0.9905538E-01
       -1   -1    0    0    0  501  0.00000000000E+00  0.00000000000E+00  0.13288127698E+04  0.13288127698E+04  0.50400001928E-02 0.  1.
        1   -1    0    0  501    0  0.00000000000E+00  0.00000000000E+00 -0.67715271939E+02  0.67715272127E+02  0.50400001928E-02 0. -1.
    10030    2    1    2    0    0  0.00000000000E+00  0.00000000000E+00  0.12610974979E+04  0.13965280420E+04  0.59993639064E+03 0.  0.
        4    1    3    3  502    0  0.18139449800E+02  0.17457145917E+03  0.11968060957E+04  0.12096076544E+04  0.12699999809E+01 0.  1.
       -4    1    3    3    0  502 -0.18139449800E+02 -0.17457145917E+03  0.64291402222E+02  0.18692038759E+03  0.12699999809E+01 0. -1.
</event>
<event>
 5   0  0.2313168E-03  0.6008079E+03  0.7818609E-02  0.9903731E-01
        2   -1    0    0  501    0  0.00000000000E+00  0.00000000000E+00  0.11226551521E+04  0.11226551521E+04  0.25500000920E-02 0.  1.
       -2   -1    0    0    0  501  0.00000000000E+00  0.00000000000E+00 -0.80383125680E+02  0.80383125720E+02  0.25500000920E-02 0. -1.
    10030    2    1    2    0    0  0.00000000000E+00  0.00000000000E+00  0.10422720264E+04  0.12030382778E+04  0.60080789013E+03 0.  0.
        2    1    3    3  502    0 -0.58683059213E+02 -0.87848372843E+01  0.11108040646E+04  0.11123877672E+04  0.25500000920E-02 0.  1.
       -2    1    3    3    0  502  0.58683059213E+02  0.87848372843E+01 -0.68532038172E+02  0.90650510574E+02  0.25500000920E-02 0. -1.
</event>
<event>
 5   0  0.2313168E-03  0.5996775E+03  0.7818609E-02  0.9906075E-01
       -2   -1    0    0    0  501  0.00000000000E+00  0.00000000000E+00  0.52602554214E+02  0.52602554275E+02  0.25500000920E-02 0. -1.
        2   -1    0    0  501    0  0.00000000000E+00  0.00000000000E+00 -0.17091044939E+04  0.17091044939E+04  0.25500000920E-02 0.  1.
    10030    2    1    2    0    0  0.00000000000E+00  0.00000000000E+00 -0.16565019397E+04  0.17617070481E+04  0.59967745281E+03 0.  0.
        2    1    3    3  502    0  0.85544905602E+01 -0.20472135180E+03 -0.18516211841E+03  0.27616846541E+03  0.25500000920E-02 0. -1.
       -2    1    3    3    0  502 -0.85544905602E+01  0.20472135180E+03 -0.14713398212E+04  0.14855385827E+04  0.25500000920E-02 0.  1.
</event>
<event>
 5   0  0.1392854E-03  0.5999826E+03  0.7818609E-02  0.9905442E-01
       -1   -1    0    0    0  501  0.00000000000E+00  0.00000000000E+00  0.22463756756E+03  0.22463756761E+03  0.50400001928E-02 0.  1.
        1   -1    0    0  501    0  0.00000000000E+00  0.00000000000E+00 -0.40062208751E+03  0.40062208754E+03  0.50400001928E-02 0. -1.
    10030    2    1    2    0    0  0.00000000000E+00  0.00000000000E+00 -0.17598451995E+03  0.62525965515E+03  0.59998257066E+03 0.  0.
        4    1    3    3  502    0  0.65739163464E+02 -0.29243091242E+03 -0.10099519177E+03  0.31628961066E+03  0.12699999809E+01 0. -1.
       -4    1    3    3    0  502 -0.65739163464E+02  0.29243091242E+03 -0.74989328179E+02  0.30897004449E+03  0.12699999809E+01 0.  1.
</event>
<event>
 5   0  0.2406307E-03  0.5998036E+03  0.7818609E-02  0.9905814E-01
        2   -1    0    0  501    0  0.00000000000E+00  0.00000000000E+00  0.15017047522E+04  0.15017047522E+04  0.25500000920E-02 0. -1.
       -2   -1    0    0    0  501  0.00000000000E+00  0.00000000000E+00 -0.59892654409E+02  0.59892654464E+02  0.25500000920E-02 0.  1.
    10030    2    1    2    0    0  0.00000000000E+00  0.00000000000E+00  0.14418120978E+04  0.15615974067E+04  0.59980358050E+03 0.  0.
        5    1    3    3  502    0  0.15897155983E+03 -0.19257992920E+03  0.11531209081E+04  0.11798596970E+04  0.46999998093E+01 0. -1.
       -5    1    3    3    0  502 -0.15897155983E+03  0.19257992920E+03  0.28869118973E+03  0.38173770968E+03  0.46999998093E+01 0.  1.
</event>
<event>
 5   0  0.9496750E-04  0.5999697E+03  0.7818609E-02  0.9905469E-01
        3   -1    0    0  501    0  0.00000000000E+00  0.00000000000E+00  0.14849993050E+03  0.14849996485E+03  0.10100000352E+00 0. -1.
       -3   -1    0    0    0  501  0.00000000000E+00  0.00000000000E+00 -0.60599951144E+03  0.60599951986E+03  0.10100000352E+00 0.  1.
    10030    2    1    2    0    0  0.00000000000E+00  0.00000000000E+00 -0.45749958094E+03  0.75449948471E+03  0.59996967079E+03 0.  0.
        3    1    3    3  502    0 -0.17785750632E+03 -0.18324402638E+03 -0.30791582030E+02  0.25721546899E+03  0.10100000352E+00 0.  1.
       -3    1    3    3    0  502  0.17785750632E+03  0.18324402638E+03 -0.42670799891E+03  0.49728401572E+03  0.10100000352E+00 0. -1.
</event>
<event>
 5   0  0.1479385E-03  0.5995501E+03  0.7818609E-02  0.9906340E-01
       -1   -1    0    0    0  501  0.00000000000E+00  0.00000000000E+00  0.51889938939E+03  0.51889938942E+03  0.50400001928E-02 0.  1.
        1   -1    0    0  501    0  0.00000000000E+00  0.00000000000E+00 -0.17318400851E+03  0.17318400858E+03  0.50400001928E-02 0. -1.
    10030    2    1    2    0    0  0.00000000000E+00  0.00000000000E+00  0.34571538088E+03  0.69208339800E+03  0.59955008566E+03 0.  0.
        3    1    3    3  502    0  0.13655423550E+03 -0.68157745634E+02  0.47069595203E+03  0.49482039871E+03  0.10100000352E+00 0.  1.
       -3    1    3    3    0  502 -0.13655423550E+03  0.68157745634E+02 -0.12498057115E+03  0.19726299929E+03  0.10100000352E+00 0. -1.
</event>
<event>
 5   0  0.2324616E-03  0.5998487E+03  0.7818609E-02  0.9905720E-01
        2   -1    0    0  501    0  0.00000000000E+00  0.00000000000E+00  0.10804671490E+04  0.10804671490E+04  0.25500000920E-02 0.  1.
       -2   -1    0    0    0  501  0.00000000000E+00  0.00000000000E+00 -0.83255308877E+02  0.83255308916E+02  0.25500000920E-02 0. -1.
    10030    2    1    2    0    0  0.00000000000E+00  0.00000000000E+00  0.99721184014E+03  0.11637224579E+04  0.59984873509E+03 0.  0.
        4    1    3    3  502    0  0.11065809975E+03 -0.17855581261E+03  0.83306003996E+02  0.22598428366E+03  0.12699999809E+01 0. -1.
       -4    1    3    3    0  502 -0.11065809975E+03  0.17855581261E+03  0.91390583615E+03  0.93773817428E+03  0.12699999809E+01 0.  1.
</event>
<event>
 5   0  0.1418763E-03  0.6026026E+03  0.7818609E-02  0.9900021E-01
        1   -1    0    0  501    0  0.00000000000E+00  0.00000000000E+00  0.41464887913E+03  0.41464887916E+03  0.50400001928E-02 0.  1.
       -1   -1    0    0    0  501  0.00000000000E+00  0.00000000000E+00 -0.21893821242E+03  0.21893821247E+03  0.50400001928E-02 0. -1.
    10030    2    1    2    0    0  0.00000000000E+00  0.00000000000E+00  0.19571066671E+03  0.63358709164E+03  0.60260263659E+03 0.  0.
        5    1    3    3  502    0 -0.38716806829E+02 -0.92128944692E+02  0.39667568762E+03  0.40909708472E+03  0.46999998093E+01 0.  1.
       -5    1    3    3    0  502  0.38716806829E+02  0.92128944692E+02 -0.20096502090E+03  0.22449000692E+03  0.46999998093E+01 0. -1.
</event>
<event>
 5   0  0.9496750E-04  0.6001755E+03  0.7818609E-02  0.9905042E-01
        4   -1    0    0  501    0  0.00000000000E+00  0.00000000000E+00  0.73656618615E+03  0.73656728103E+03  0.12699999809E+01 0.  1.
       -4   -1    0    0    0  501  0.00000000000E+00  0.00000000000E+00 -0.12225562005E+03  0.12226221630E+03  0.12699999809E+01 0. -1.
    10030    2    1    2    0    0  0.00000000000E+00  0.00000000000E+00  0.61431056610E+03  0.85882949733E+03  0.60017550255E+03 0.  0.
        2    1    3    3  502    0 -0.34416175666E+02  0.29164611313E+03  0.39549027570E+03  0.49259972253E+03  0.25500000920E-02 0.  1.
       -2    1    3    3    0  502  0.34416175666E+02 -0.29164611313E+03  0.21882029040E+03  0.36622977480E+03  0.25500000920E-02 0. -1.
</event>
<event>
 5   0  0.9496750E-04  0.5999570E+03  0.7818609E-02  0.9905495E-01
       -3   -1    0    0    0  501  0.00000000000E+00  0.00000000000E+00  0.16650825061E+03  0.16650828124E+03  0.10100000352E+00 0.  1.
        3   -1    0    0  501    0  0.00000000000E+00  0.00000000000E+00 -0.54043618381E+03  0.54043619325E+03  0.10100000352E+00 0. -1.
    10030    2    1    2    0    0  0.00000000000E+00  0.00000000000E+00 -0.37392793320E+03  0.70694447449E+03  0.59995699078E+03 0.  0.
        5    1    3    3  502    0 -0.68359322238E+02 -0.18331581780E+03 -0.45485439738E+03  0.49516895986E+03  0.46999998093E+01 0. -1.
       -5    1    3    3    0  502  0.68359322238E+02  0.18331581780E+03  0.80926464182E+02  0.21177551463E+03  0.46999998093E+01 0.  1.
</event>
<event>
 5   0  0.1423430E-03  0.6003107E+03  0.7818609E-02  0.9904762E-01
        1   -1    0    0  501    0  0.00000000000E+00  0.00000000000E+00  0.20070507253E+03  0.20070507259E+03  0.50400001928E-02 0. -1.
       -1   -1    0    0    0  501  0.00000000000E+00  0.00000000000E+00 -0.44888370104E+03  0.44888370107E+03  0.50400001928E-02 0.  1.
    10030    2    1    2    0    0  0.00000000000E+00  0.00000000000E+00 -0.24817862851E+03  0.64958877366E+03  0.60031070556E+03 0.  0.
        1    1    3    3  502    0  0.14372339451E+03 -0.16185738277E+02 -0.40869037543E+03  0.43352764070E+03  0.50400001928E-02 0.  1.
       -1    1    3    3    0  502 -0.14372339451E+03  0.16185738277E+02  0.16051174692E+03  0.21606113296E+03  0.50400001928E-02 0. -1.
</event>
<event>
 5   0  0.1423430E-03  0.6002243E+03  0.7818609E-02  0.9904941E-01
        1   -1    0    0  501    0  0.00000000000E+00  0.00000000000E+00  0.19069095709E+03  0.19069095715E+03  0.50400001928E-02 0. -1.
       -1   -1    0    0    0  501  0.00000000000E+00  0.00000000000E+00 -0.47232078119E+03  0.47232078122E+03  0.50400001928E-02 0.  1.
    10030    2    1    2    0    0  0.00000000000E+00  0.00000000000E+00 -0.28162982410E+03  0.66301173837E+03  0.60022429757E+03 0.  0.
        1    1    3    3  502    0  0.73685992447E+02  0.28119066985E+03 -0.22325056979E+03  0.36652235298E+03  0.50400001928E-02 0.  1.
       -1    1    3    3    0  502 -0.73685992447E+02 -0.28119066985E+03 -0.58379254313E+02  0.29648938540E+03  0.50400001928E-02 0. -1.
</event>
<event>
 5   0  0.1479385E-03  0.5988290E+03  0.7818609E-02  0.9907839E-01
       -1   -1    0    0    0  501  0.00000000000E+00  0.00000000000E+00  0.47594010853E+03  0.47594010855E+03  0.50400001928E-02 0.  1.
        1   -1    0    0  501    0  0.00000000000E+00  0.00000000000E+00 -0.18836200868E+03  0.18836200875E+03  0.50400001928E-02 0. -1.
    10030    2    1    2    0    0  0.00000000000E+00  0.00000000000E+00  0.28757809984E+03  0.66430211731E+03  0.59882897354E+03 0.  0.
        3    1    3    3  502    0 -0.16683293266E+03  0.22317979874E+03  0.26534392893E+03  0.38477247927E+03  0.10100000352E+00 0.  1.
       -3    1    3    3    0  502  0.16683293266E+03 -0.22317979874E+03  0.22234170909E+02  0.27952963803E+03  0.10100000352E+00 0. -1.
</event>
<event>
 5   0  0.2324616E-03  0.6000215E+03  0.7818609E-02  0.9905362E-01
        2   -1    0    0  501    0  0.00000000000E+00  0.00000000000E+00  0.12231708604E+04  0.12231708604E+04  0.25500000920E-02 0.  1.
       -2   -1    0    0    0  501  0.00000000000E+00  0.00000000000E+00 -0.73584521540E+02  0.73584521584E+02  0.25500000920E-02 0. -1.
    10030    2    1    2    0    0  0.00000000000E+00  0.00000000000E+00  0.11495863389E+04  0.12967553820E+04  0.60002147480E+03 0.  0.
        4    1    3    3  502    0 -0.28802973915E+03  0.27090312756E+02  0.74646519954E+03  0.80056662602E+03  0.12699999809E+01 0.  1.
       -4    1    3    3    0  502  0.28802973915E+03 -0.27090312756E+02  0.40312113932E+03  0.49618875597E+03  0.12699999809E+01 0. -1.
</event>
<event>
 5   0  0.2421210E-03  0.5997209E+03  0.7818609E-02  0.9905985E-01
       -2   -1    0    0    0  501  0.00000000000E+00  0.00000000000E+00  0.71309296795E+02  0.71309296841E+02  0.25500000920E-02 0. -1.
        2   -1    0    0  501    0  0.00000000000E+00  0.00000000000E+00 -0.12609334807E+04  0.12609334807E+04  0.25500000920E-02 0.  1.
    10030    2    1    2    0    0  0.00000000000E+00  0.00000000000E+00 -0.11896241839E+04  0.13322427776E+04  0.59972086790E+03 0.  0.
        1    1    3    3  502    0  0.11939909725E+03 -0.61565045676E+02 -0.11903476197E+04  0.11979039423E+04  0.50400001928E-02 0.  1.
       -1    1    3    3    0  502 -0.11939909725E+03  0.61565045676E+02  0.72343576198E+00  0.13433883526E+03  0.50400001928E-02 0. -1.
</event>
<event>
 5   0  0.9496750E-04  0.5997140E+03  0.7818609E-02  0.9906000E-01
        4   -1    0    0  501    0  0.00000000000E+00  0.00000000000E+00  0.11293427550E+04  0.11293434691E+04  0.12699999809E+01 0. -1.
       -4   -1    0    0    0  501  0.00000000000E+00  0.00000000000E+00 -0.79610618178E+02  0.79620747464E+02  0.12699999809E+01 0.  1.
    10030    2    1    2    0    0  0.00000000000E+00  0.00000000000E+00  0.10497321368E+04  0.12089642165E+04  0.59971403004E+03 0.  0.
        2    1    3    3  502    0 -0.89421032564E+01  0.20760002766E+03  0.89055943853E+02  0.22607231993E+03  0.25500000920E-02 0.  1.
       -2    1    3    3    0  502  0.89421032564E+01 -0.20760002766E+03  0.96067619297E+03  0.98289189662E+03  0.25500000920E-02 0. -1.
</event>
<event>
 5   0  0.9496750E-04  0.5999774E+03  0.7818609E-02  0.9905453E-01
       -4   -1    0    0    0  501  0.00000000000E+00  0.00000000000E+00  0.82451669930E+03  0.82451767739E+03  0.12699999809E+01 0.  1.
        4   -1    0    0  501    0  0.00000000000E+00  0.00000000000E+00 -0.10914189578E+03  0.10914928453E+03  0.12699999809E+01 0. -1.
    10030    2    1    2    0    0  0.00000000000E+00  0.00000000000E+00  0.71537480352E+03  0.93366696192E+03  0.59997740480E+03 0.  0.
        5    1    3    3  502    0  0.47935365822E+02 -0.15692796237E+03 -0.33053726766E+02  0.16744797258E+03  0.46999998093E+01 0. -1.
       -5    1    3    3    0  502 -0.47935365822E+02  0.15692796237E+03  0.74842853029E+03  0.76621898934E+03  0.46999998093E+01 0.  1.
</event>
<event>
 5   0  0.9496750E-04  0.6000131E+03  0.7818609E-02  0.9905379E-01
       -3   -1    0    0    0  501  0.00000000000E+00  0.00000000000E+00  0.46972522899E+03  0.46972523985E+03  0.10100000352E+00 0.  1.
        3   -1    0    0  501    0  0.00000000000E+00  0.00000000000E+00 -0.19160973338E+03  0.19160976000E+03  0.10100000352E+00 0. -1.
    10030    2    1    2    0    0  0.00000000000E+00  0.00000000000E+00  0.27811549561E+03  0.66133499985E+03  0.60001312746E+03 0.  0.
        1    1    3    3  502    0  0.22894971432E+03 -0.19282624128E+03  0.16121190990E+03  0.33998413336E+03  0.50400001928E-02 0.  1.
       -1    1    3    3    0  502 -0.22894971432E+03  0.19282624128E+03  0.11690358571E+03  0.32135086649E+03  0.50400001928E-02 0. -1.
</event>
<event>
 5   0  0.1418763E-03  0.5998125E+03  0.7818609E-02  0.9905795E-01
        1   -1    0    0  501    0  0.00000000000E+00  0.00000000000E+00  0.32315739412E+03  0.32315739416E+03  0.50400001928E-02 0.  1.
       -1   -1    0    0    0  501  0.00000000000E+00  0.00000000000E+00 -0.27832803895E+03  0.27832803899E+03  0.50400001928E-02 0. -1.
    10030    2    1    2    0    0  0.00000000000E+00  0.00000000000E+00  0.44829355169E+02  0.60148543315E+03  0.59981251671E+03 0.  0.
        5    1    3    3  502    0 -0.23607297970E+03  0.11489528297E+03 -0.12286968466E+03  0.28991451706E+03  0.46999998093E+01 0. -1.
       -5    1    3    3    0  502  0.23607297970E+03 -0.11489528297E+03  0.16769903983E+03  0.31157091609E+03  0.46999998093E+01 0.  1.
</event>
<event>
 5   0  0.2324616E-03  0.6003387E+03  0.7818609E-02  0.9904704E-01
       -2   -1    0    0    0  501  0.00000000000E+00  0.00000000000E+00  0.33814752839E+03  0.33814752840E+03  0.25500000920E-02 0. -1.
        2   -1    0    0  501    0  0.00000000000E+00  0.00000000000E+00 -0.26645662820E+03  0.26645662822E+03  0.25500000920E-02 0.  1.
    10030    2    1    2    0    0  0.00000000000E+00  0.00000000000E+00  0.71690900186E+02  0.60460415661E+03  0.60033873857E+03 0.  0.
        4    1    3    3  502    0 -0.34889714604E+02  0.29806252586E+03  0.42331382262E+02  0.30307114731E+03  0.12699999809E+01 0. -1.
       -4    1    3    3    0  502  0.34889714604E+02 -0.29806252586E+03  0.29359517924E+02  0.30153300930E+03  0.12699999809E+01 0.  1.
</event>
<event>
 5   0  0.1479385E-03  0.6003912E+03  0.7818609E-02  0.9904595E-01
        1   -1    0    0  501    0  0.00000000000E+00  0.00000000000E+00  0.89327866251E+03  0.89327866252E+03  0.50400001928E-02 0.  1.
       -1   -1    0    0    0  501  0.00000000000E+00  0.00000000000E+00 -0.10088384413E+03  0.10088384425E+03  0.50400001928E-02 0. -1.
    10030    2    1    2    0    0  0.00000000000E+00  0.00000000000E+00  0.79239481838E+03  0.99416250678E+03  0.60039115723E+03 0.  0.
        3    1    3    3  502    0 -0.10389551218E+03  0.19073913685E+03  0.73933050299E+03  0.77057465481E+03  0.10100000352E+00 0.  1.
       -3    1    3    3    0  502  0.10389551218E+03 -0.19073913685E+03  0.53064315387E+02  0.22358785197E+03  0.10100000352E+00 0. -1.
</event>
<event>
 5   0  0.2324616E-03  0.5999944E+03  0.7818609E-02  0.9905418E-01
        2   -1    0    0  501    0  0.00000000000E+00  0.00000000000E+00  0.16911718020E+04  0.16911718020E+04  0.25500000920E-02 0. -1.
       -2   -1    0    0    0  501  0.00000000000E+00  0.00000000000E+00 -0.53216541164E+02  0.53216541225E+02  0.25500000920E-02 0.  1.
    10030    2    1    2    0    0  0.00000000000E+00  0.00000000000E+00  0.16379552608E+04  0.17443883432E+04  0.59999437954E+03 0.  0.
        4    1    3    3  502    0  0.87374239104E+02  0.11100409024E+02 -0.14771696250E+02  0.89315690948E+02  0.12699999809E+01 0.  1.
       -4    1    3    3    0  502 -0.87374239104E+02 -0.11100409024E+02  0.16527269571E+04  0.16550726523E+04  0.12699999809E+01 0. -1.
</event>
<event>
 5   0  0.1423430E-03  0.6007597E+03  0.7818609E-02  0.9903831E-01
       -1   -1    0    0    0  501  0.00000000000E+00  0.00000000000E+00  0.34862353391E+03  0.34862353394E+03  0.50400001928E-02 0.  1.
        1   -1    0    0  501    0  0.00000000000E+00  0.00000000000E+00 -0.25881226448E+03  0.25881226453E+03  0.50400001928E-02 0. -1.
    10030    2    1    2    0    0  0.00000000000E+00  0.00000000000E+00  0.89811269425E+02  0.60743579847E+03  0.60075967337E+03 0.  0.
        1    1    3    3  502    0 -0.29998542454E+02 -0.23642431374E+03  0.22978085112E+03  0.33105227418E+03  0.50400001928E-02 0.  1.
       -1    1    3    3    0  502  0.29998542454E+02  0.23642431374E+03 -0.13996958169E+03  0.27638352429E+03  0.50400001928E-02 0. -1.
</event>
<event>
 5   0  0.1423430E-03  0.6000573E+03  0.7818609E-02  0.9905287E-01
        1   -1    0    0  501    0  0.00000000000E+00  0.00000000000E+00  0.14864044091E+04  0.14864044091E+04  0.50400001928E-02 0. -1.
       -1   -1    0    0    0  501  0.00000000000E+00  0.00000000000E+00 -0.60560358884E+02  0.60560359094E+02  0.50400001928E-02 0.  1.
    10030    2    1    2    0    0  0.00000000000E+00  0.00000000000E+00  0.14258440502E+04  0.15469647682E+04  0.60005727937E+03 0.  0.
        1    1    3    3  502    0 -0.60861214587E+02 -0.25246391433E+03  0.11002708642E+04  0.11305034675E+04  0.50400001928E-02 0. -1.
       -1    1    3    3    0  502  0.60861214587E+02  0.25246391433E+03  0.32557318605E+03  0.41646130070E+03  0.50400001928E-02 0.  1.
</event>
<event>
 5   0  0.2324616E-03  0.5998583E+03  0.7818609E-02  0.9905700E-01
       -2   -1    0    0    0  501  0.00000000000E+00  0.00000000000E+00  0.41549243668E+02  0.41549243746E+02  0.25500000920E-02 0. -1.
        2   -1    0    0  501    0  0.00000000000E+00  0.00000000000E+00 -0.21650811425E+04  0.21650811425E+04  0.25500000920E-02 0.  1.
    10030    2    1    2    0    0  0.00000000000E+00  0.00000000000E+00 -0.21235318988E+04  0.22066303863E+04  0.59985826339E+03 0.  0.
        4    1    3    3  502    0  0.29199112225E+03  0.12391915310E+02 -0.81380914645E+03  0.86469608232E+03  0.12699999809E+01 0.  1.
       -4    1    3    3    0  502 -0.29199112225E+03 -0.12391915310E+02 -0.13097227524E+04  0.13419343039E+04  0.12699999809E+01 0. -1.
</event>
<event>
 5   0  0.2421210E-03  0.5999994E+03  0.7818609E-02  0.9905407E-01
        2   -1    0    0  501    0  0.00000000000E+00  0.00000000000E+00  0.11101652303E+03  0.11101652306E+03  0.25500000920E-02 0. -1.
       -2   -1    0    0    0  501  0.00000000000E+00  0.00000000000E+00 -0.81068852435E+03  0.81068852435E+03  0.25500000920E-02 0.  1.
    10030    2    1    2    0    0  0.00000000000E+00  0.00000000000E+00 -0.69967200131E+03  0.92170504741E+03  0.59999940416E+03 0.  0.
        1    1    3    3  502    0  0.37324848370E+02  0.20665282891E+03 -0.67895546655E+03  0.71068914554E+03  0.50400001928E-02 0.  1.
       -1    1    3    3    0  502 -0.37324848370E+02 -0.20665282891E+03 -0.20716534766E+02  0.21101590187E+03  0.50400001928E-02 0. -1.
</event>
<event>
 5   0  0.2313168E-03  0.6001849E+03  0.7818609E-02  0.9905023E-01
       -2   -1    0    0    0  501  0.00000000000E+00  0.00000000000E+00  0.18333036435E+03  0.18333036437E+03  0.25500000920E-02 0. -1.
        2   -1    0    0  501    0  0.00000000000E+00  0.00000000000E+00 -0.49121963054E+03  0.49121963054E+03  0.25500000920E-02 0.  1.
    10030    2    1    2    0    0  0.00000000000E+00  0.00000000000E+00 -0.30788926618E+03  0.67454999491E+03  0.60018488435E+03 0.  0.
        2    1    3    3  502    0  0.15079360175E+03 -0.16030528233E+03 -0.38322919070E+03  0.44192884776E+03  0.25500000920E-02 0.  1.
       -2    1    3    3    0  502 -0.15079360175E+03  0.16030528233E+03  0.75339924514E+02  0.23262114715E+03  0.25500000920E-02 0. -1.
</event>
<event>
 5   0  0.2324616E-03  0.5997622E+03  0.7818609E-02  0.9905900E-01
       -2   -1    0    0    0  501  0.00000000000E+00  0.00000000000E+00  0.92185369545E+02  0.92185369580E+02  0.25500000920E-02 0. -1.
        2   -1    0    0  501    0  0.00000000000E+00  0.00000000000E+00 -0.97551989963E+03  0.97551989963E+03  0.25500000920E-02 0.  1.
    10030    2    1    2    0    0  0.00000000000E+00  0.00000000000E+00 -0.88333453009E+03  0.10677052692E+04  0.59976216108E+03 0.  0.
        4    1    3    3  502    0  0.14093785832E+03 -0.26467073624E+03 -0.44807876614E+03  0.53915700134E+03  0.12699999809E+01 0. -1.
       -4    1    3    3    0  502 -0.14093785832E+03  0.26467073624E+03 -0.43525576394E+03  0.52854826787E+03  0.12699999809E+01 0.  1.
</event>
<event>
 5   0  0.1423430E-03  0.5994192E+03  0.7818609E-02  0.9906612E-01
       -1   -1    0    0    0  501  0.00000000000E+00  0.00000000000E+00  0.49520004215E+02  0.49520004471E+02  0.50400001928E-02 0. -1.
        1   -1    0    0  501    0  0.00000000000E+00  0.00000000000E+00 -0.18139303061E+04  0.18139303061E+04  0.50400001928E-02 0.  1.
    10030    2    1    2    0    0  0.00000000000E+00  0.00000000000E+00 -0.17644103019E+04  0.18634503106E+04  0.59941917436E+03 0.  0.
        1    1    3    3  502    0  0.21462120638E+03 -0.16123302610E+03 -0.12965864739E+04  0.13240826392E+04  0.50400001928E-02 0.  1.
       -1    1    3    3    0  502 -0.21462120638E+03  0.16123302610E+03 -0.46782382791E+03  0.53936767137E+03  0.50400001928E-02 0. -1.
</event>
<event>
 5   0  0.1479385E-03  0.6004074E+03  0.7818609E-02  0.9904561E-01
        1   -1    0    0  501    0  0.00000000000E+00  0.00000000000E+00  0.59085437251E+03  0.59085437253E+03  0.50400001928E-02 0.  1.
       -1   -1    0    0    0  501  0.00000000000E+00  0.00000000000E+00 -0.15252872590E+03  0.15252872598E+03  0.50400001928E-02 0. -1.
    10030    2    1    2    0    0  0.00000000000E+00  0.00000000000E+00  0.43832564661E+03  0.74338309852E+03  0.60040741058E+03 0.  0.
        3    1    3    3  502    0 -0.20574007241E+03 -0.13922122958E+03  0.10469859371E+02  0.24863860584E+03  0.10100000352E+00 0. -1.
       -3    1    3    3    0  502  0.20574007241E+03  0.13922122958E+03  0.42785578724E+03  0.49474449268E+03  0.10100000352E+00 0.  1.
</event>
<event>
 5   0  0.2313168E-03  0.5989191E+03  0.7818609E-02  0.9907651E-01
        2   -1    0    0  501    0  0.00000000000E+00  0.00000000000E+00  0.23855250152E+04  0.23855250152E+04  0.25500000920E-02 0.  1.
       -2   -1    0    0    0  501  0.00000000000E+00  0.00000000000E+00 -0.37591731972E+02  0.37591732059E+02  0.25500000920E-02 0. -1.
    10030    2    1    2    0    0  0.00000000000E+00  0.00000000000E+00  0.23479332832E+04  0.24231167472E+04  0.59891908332E+03 0.  0.
        2    1    3    3  502    0 -0.24220415250E+02 -0.10158294544E+03  0.38465904230E+02  0.11128948339E+03  0.25500000920E-02 0. -1.
       -2    1    3    3    0  502  0.24220415250E+02  0.10158294544E+03  0.23094673790E+04  0.23118272638E+04  0.25500000920E-02 0.  1.
</event>
<event>
 5   0  0.9496750E-04  0.6001340E+03  0.7818609E-02  0.9905128E-01
       -3   -1    0    0    0  501  0.00000000000E+00  0.00000000000E+00  0.51296032129E+03  0.51296033123E+03  0.10100000352E+00 0. -1.
        3   -1    0    0  501    0  0.00000000000E+00  0.00000000000E+00 -0.17553049583E+03  0.17553052489E+03  0.10100000352E+00 0.  1.
    10030    2    1    2    0    0  0.00000000000E+00  0.00000000000E+00  0.33742982545E+03  0.68849085612E+03  0.60013396159E+03 0.  0.
        4    1    3    3  502    0  0.12883395707E+03 -0.23793966705E+03  0.31752380452E+03  0.41717676467E+03  0.12699999809E+01 0. -1.
       -4    1    3    3    0  502 -0.12883395707E+03  0.23793966705E+03  0.19906020934E+02  0.27131409145E+03  0.12699999809E+01 0.  1.
</event>
<event>
 5   0  0.1416315E-03  0.5999493E+03  0.7818609E-02  0.9905511E-01
       -1   -1    0    0    0  501  0.00000000000E+00  0.00000000000E+00  0.19212341586E+03  0.19212341593E+03  0.50400001928E-02 0.  1.
        1   -1    0    0  501    0  0.00000000000E+00  0.00000000000E+00 -0.46836971264E+03  0.46836971266E+03  0.50400001928E-02 0. -1.
    10030    2    1    2    0    0  0.00000000000E+00  0.00000000000E+00 -0.27624629677E+03  0.66049312859E+03  0.59994929489E+03 0.  0.
        2    1    3    3  502    0 -0.19613012666E+02  0.18046108283E+03  0.12479487221E+03  0.22028307429E+03  0.25500000920E-02 0.  1.
       -2    1    3    3    0  502  0.19613012666E+02 -0.18046108283E+03 -0.40104116898E+03  0.44021005430E+03  0.25500000920E-02 0. -1.
</event>
<event>
 5   0  0.1416315E-03  0.6000567E+03  0.7818609E-02  0.9905288E-01
       -1   -1    0    0    0  501  0.00000000000E+00  0.00000000000E+00  0.39137776796E+03  0.39137776799E+03  0.50400001928E-02 0. -1.
        1   -1    0    0  501    0  0.00000000000E+00  0.00000000000E+00 -0.23000029996E+03  0.23000030002E+03  0.50400001928E-02 0.  1.
    10030    2    1    2    0    0  0.00000000000E+00  0.00000000000E+00  0.16137746799E+03  0.62137806801E+03  0.60005667751E+03 0.  0.
        2    1    3    3  502    0  0.29602835471E+03 -0.19553499448E+02  0.12702088272E+03  0.32272190937E+03  0.25500000920E-02 0. -1.
       -2    1    3    3    0  502 -0.29602835471E+03  0.19553499448E+02  0.34356585279E+02  0.29865615864E+03  0.25500000920E-02 0.  1.
</event>
<event>
 5   0  0.1392854E-03  0.6000503E+03  0.7818609E-02  0.9905302E-01
       -1   -1    0    0    0  501  0.00000000000E+00  0.00000000000E+00  0.95080722590E+03  0.95080722591E+03  0.50400001928E-02 0. -1.
        1   -1    0    0  501    0  0.00000000000E+00  0.00000000000E+00 -0.94672289091E+02  0.94672289225E+02  0.50400001928E-02 0.  1.
    10030    2    1    2    0    0  0.00000000000E+00  0.00000000000E+00  0.85613493680E+03  0.10454795151E+04  0.60005032001E+03 0.  0.
        4    1    3    3  502    0  0.26516035636E+03  0.50417306534E+02  0.19981983003E+03  0.33582956504E+03  0.12699999809E+01 0.  1.
       -4    1    3    3    0  502 -0.26516035636E+03 -0.50417306534E+02  0.65631510678E+03  0.70964995010E+03  0.12699999809E+01 0. -1.
</event>
<event>
 5   0  0.2313168E-03  0.5995284E+03  0.7818609E-02  0.9906385E-01
       -2   -1    0    0    0  501  0.00000000000E+00  0.00000000000E+00  0.14653734195E+03  0.14653734197E+03  0.25500000920E-02 0. -1.
        2   -1    0    0  501    0  0.00000000000E+00  0.00000000000E+00 -0.61321286561E+03  0.61321286561E+03  0.25500000920E-02 0.  1.
    10030    2    1    2    0    0  0.00000000000E+00  0.00000000000E+00 -0.46667552366E+03  0.75975020759E+03  0.59952842597E+03 0.  0.
        2    1    3    3  502    0  0.19397378543E+03  0.76139923825E+02  0.39739759235E+02  0.21213761077E+03  0.25500000920E-02 0. -1.
       -2    1    3    3    0  502 -0.19397378543E+03 -0.76139923825E+02 -0.50641528289E+03  0.54761259681E+03  0.25500000920E-02 0.  1.
</event>
<event>
 5   0  0.1423430E-03  0.6001320E+03  0.7818609E-02  0.9905132E-01
       -1   -1    0    0    0  501  0.00000000000E+00  0.00000000000E+00  0.10379901305E+03  0.10379901318E+03  0.50400001928E-02 0.  1.
        1   -1    0    0  501    0  0.00000000000E+00  0.00000000000E+00 -0.86744191985E+03  0.86744191987E+03  0.50400001928E-02 0. -1.
    10030    2    1    2    0    0  0.00000000000E+00  0.00000000000E+00 -0.76364290680E+03  0.97124093304E+03  0.60013203623E+03 0.  0.
        1    1    3    3  502    0 -0.10523136717E+03  0.23224335597E+03 -0.12578494270E+03  0.28431051486E+03  0.50400001928E-02 0. -1.
       -1    1    3    3    0  502  0.10523136717E+03 -0.23224335597E+03 -0.63785796410E+03  0.68693041818E+03  0.50400001928E-02 0.  1.
</event>
<event>
 5   0  0.2313168E-03  0.6000951E+03  0.7818609E-02  0.9905209E-01
        2   -1    0    0  501    0  0.00000000000E+00  0.00000000000E+00  0.81338600373E+03  0.81338600374E+03  0.25500000920E-02 0.  1.
       -2   -1    0    0    0  501  0.00000000000E+00  0.00000000000E+00 -0.11068364875E+03  0.11068364878E+03  0.25500000920E-02 0. -1.
    10030    2    1    2    0    0  0.00000000000E+00  0.00000000000E+00  0.70270235498E+03  0.92406965252E+03  0.60009509497E+03 0.  0.
        2    1    3    3  502    0  0.16616883888E+03  0.17865001842E+02  0.73507693541E+03  0.75383641613E+03  0.25500000920E-02 0.  1.
       -2    1    3    3    0  502 -0.16616883888E+03 -0.17865001842E+02 -0.32374580430E+02  0.17023323639E+03  0.25500000920E-02 0. -1.
</event>
<event>
 5   0  0.2313168E-03  0.6009275E+03  0.7818609E-02  0.9903484E-01
        2   -1    0    0  501    0  0.00000000000E+00  0.00000000000E+00  0.54586932047E+03  0.54586932048E+03  0.25500000920E-02 0. -1.
       -2   -1    0    0    0  501  0.00000000000E+00  0.00000000000E+00 -0.16538477238E+03  0.16538477240E+03  0.25500000920E-02 0.  1.
    10030    2    1    2    0    0  0.00000000000E+00  0.00000000000E+00  0.38048454809E+03  0.71125409288E+03  0.60092752749E+03 0.  0.
        2    1    3    3  502    0 -0.49120816208E+02 -0.95127190305E+02  0.52252753445E+03  0.53338265925E+03  0.25500000920E-02 0. -1.
       -2    1    3    3    0  502  0.49120816208E+02  0.95127190305E+02 -0.14204298636E+03  0.17787143363E+03  0.25500000920E-02 0.  1.
</event>
<event>
 5   0  0.2313168E-03  0.6016518E+03  0.7818609E-02  0.9901985E-01
       -2   -1    0    0    0  501  0.00000000000E+00  0.00000000000E+00  0.96297057040E+03  0.96297057041E+03  0.25500000920E-02 0. -1.
        2   -1    0    0  501    0  0.00000000000E+00  0.00000000000E+00 -0.93976088461E+02  0.93976088496E+02  0.25500000920E-02 0.  1.
    10030    2    1    2    0    0  0.00000000000E+00  0.00000000000E+00  0.86899448194E+03  0.10569466589E+04  0.60165175153E+03 0.  0.
        2    1    3    3  502    0 -0.16488286113E+03  0.18810571593E+03  0.14092638047E+03  0.28710688424E+03  0.25500000920E-02 0.  1.
       -2    1    3    3    0  502  0.16488286113E+03 -0.18810571593E+03  0.72806810147E+03  0.76983977466E+03  0.25500000920E-02 0. -1.
</event>
<event>
 5   0  0.2421210E-03  0.6001738E+03  0.7818609E-02  0.9905046E-01
        2   -1    0    0  501    0  0.00000000000E+00  0.00000000000E+00  0.93416791932E+03  0.93416791933E+03  0.25500000920E-02 0.  1.
       -2   -1    0    0    0  501  0.00000000000E+00  0.00000000000E+00 -0.96398229149E+02  0.96398229183E+02  0.25500000920E-02 0. -1.
    10030    2    1    2    0    0  0.00000000000E+00  0.00000000000E+00  0.83776969018E+03  0.10305661485E+04  0.60017375208E+03 0.  0.
        1    1    3    3  502    0  0.25630042375E+03 -0.12601753940E+03  0.26074437174E+03  0.38672723574E+03  0.50400001928E-02 0. -1.
       -1    1    3    3    0  502 -0.25630042375E+03  0.12601753940E+03  0.57702531844E+03  0.64383891277E+03  0.50400001928E-02 0.  1.
</event>
<event>
 5   0  0.1416315E-03  0.6000047E+03  0.7818609E-02  0.9905396E-01
        1   -1    0    0  501    0  0.00000000000E+00  0.00000000000E+00  0.32361591227E+03  0.32361591231E+03  0.50400001928E-02 0.  1.
       -1   -1    0    0    0  501  0.00000000000E+00  0.00000000000E+00 -0.27811184002E+03  0.27811184006E+03  0.50400001928E-02 0. -1.
    10030    2    1    2    0    0  0.00000000000E+00  0.00000000000E+00  0.45504072254E+02  0.60172775237E+03  0.60000472280E+03 0.  0.
        2    1    3    3  502    0  0.49868311293E+02  0.25196243989E+03 -0.13270762460E+03  0.28910764988E+03  0.25500000920E-02 0. -1.
       -2    1    3    3    0  502 -0.49868311293E+02 -0.25196243989E+03  0.17821169685E+03  0.31262010250E+03  0.25500000920E-02 0.  1.
</event>
<event>
 5   0  0.2324616E-03  0.6003056E+03  0.7818609E-02  0.9904772E-01
        2   -1    0    0  501    0  0.00000000000E+00  0.00000000000E+00  0.51398668999E+03  0.51398669000E+03  0.25500000920E-02 0.  1.
       -2   -1    0    0    0  501  0.00000000000E+00  0.00000000000E+00 -0.17528024403E+03  0.17528024405E+03  0.25500000920E-02 0. -1.
    10030    2    1    2    0    0  0.00000000000E+00  0.00000000000E+00  0.33870644596E+03  0.68926693405E+03  0.60030563035E+03 0.  0.
        4    1    3    3  502    0  0.23172477229E+03  0.18550114416E+03  0.22048400154E+03  0.36975918165E+03  0.12699999809E+01 0. -1.
       -4    1    3    3    0  502 -0.23172477229E+03 -0.18550114416E+03  0.11822244442E+03  0.31950775240E+03  0.12699999809E+01 0.  1.
</event>
<event>
 5   0  0.2406307E-03  0.5994174E+03  0.7818609E-02  0.9906616E-01
       -2   -1    0    0    0  501  0.00000000000E+00  0.00000000000E+00  0.38090406819E+02  0.38090406905E+02  0.25500000920E-02 0.  1.
        2   -1    0    0  501    0  0.00000000000E+00  0.00000000000E+00 -0.23582129873E+04  0.23582129873E+04  0.25500000920E-02 0. -1.
    10030    2    1    2    0    0  0.00000000000E+00  0.00000000000E+00 -0.23201225805E+04  0.23963033942E+04  0.59941735762E+03 0.  0.
        5    1    3    3  502    0  0.27396281027E+03  0.10285426206E+03 -0.14181723640E+04  0.14480571690E+04  0.46999998093E+01 0.  1.
       -5    1    3    3    0  502 -0.27396281027E+03 -0.10285426206E+03 -0.90195021642E+03  0.94824622516E+03  0.46999998093E+01 0. -1.
</event>
<event>
 5   0  0.1479385E-03  0.5999450E+03  0.7818609E-02  0.9905520E-01
       -1   -1    0    0    0  501  0.00000000000E+00  0.00000000000E+00  0.29494137092E+03  0.29494137096E+03  0.50400001928E-02 0.  1.
        1   -1    0    0  501    0  0.00000000000E+00  0.00000000000E+00 -0.30508940800E+03  0.30508940804E+03  0.50400001928E-02 0. -1.
    10030    2    1    2    0    0  0.00000000000E+00  0.00000000000E+00 -0.10148037080E+02  0.60003077900E+03  0.59994495838E+03 0.  0.
        3    1    3    3  502    0 -0.25576643194E+03  0.94936355982E+02  0.11965989403E+03  0.29790582377E+03  0.10100000352E+00 0. -1.
       -3    1    3    3    0  502  0.25576643194E+03 -0.94936355982E+02 -0.12980793111E+03  0.30212495523E+03  0.10100000352E+00 0.  1.
</event>
<event>
 5   0  0.2406307E-03  0.5999721E+03  0.7818609E-02  0.9905464E-01
        2   -1    0    0  501    0  0.00000000000E+00  0.00000000000E+00  0.10069627277E+03  0.10069627280E+03  0.25500000920E-02 0.  1.
       -2   -1    0    0    0  501  0.00000000000E+00  0.00000000000E+00 -0.89369372264E+03  0.89369372264E+03  0.25500000920E-02 0. -1.
    10030    2    1    2    0    0  0.00000000000E+00  0.00000000000E+00 -0.79299744987E+03  0.99438999544E+03  0.59997208896E+03 0.  0.
        5    1    3    3  502    0  0.10249502491E+03 -0.13021608386E+03 -0.81087394137E+03  0.82764732671E+03  0.46999998093E+01 0. -1.
       -5    1    3    3    0  502 -0.10249502491E+03  0.13021608386E+03  0.17876491496E+02  0.16674266873E+03  0.46999998093E+01 0.  1.
</event>
<event>
 5   0  0.1479385E-03  0.5999172E+03  0.7818609E-02  0.9905578E-01
       -1   -1    0    0    0  501  0.00000000000E+00  0.00000000000E+00  0.11242406479E+03  0.11242406490E+03  0.50400001928E-02 0. -1.
        1   -1    0    0  501    0  0.00000000000E+00  0.00000000000E+00 -0.80031936666E+03  0.80031936668E+03  0.50400001928E-02 0.  1.
    10030    2    1    2    0    0  0.00000000000E+00  0.00000000000E+00 -0.68789530187E+03  0.91274343158E+03  0.59991718225E+03 0.  0.
        3    1    3    3  502    0  0.27569909746E+03  0.10786094091E+03 -0.27048873635E+03  0.40100890465E+03  0.10100000352E+00 0. -1.
       -3    1    3    3    0  502 -0.27569909746E+03 -0.10786094091E+03 -0.41740656552E+03  0.51173452693E+03  0.10100000352E+00 0.  1.
</event>
<event>
 5   0  0.2406307E-03  0.5999939E+03  0.7818609E-02  0.9905419E-01
        2   -1    0    0  501    0  0.00000000000E+00  0.00000000000E+00  0.20778977382E+03  0.20778977383E+03  0.25500000920E-02 0. -1.
       -2   -1    0    0    0  501  0.00000000000E+00  0.00000000000E+00 -0.43312119671E+03  0.43312119672E+03  0.25500000920E-02 0.  1.
    10030    2    1    2    0    0  0.00000000000E+00  0.00000000000E+00 -0.22533142289E+03  0.64091097055E+03  0.59999385166E+03 0.  0.
        5    1    3    3  502    0  0.27382105027E+03  0.42264783776E+02  0.10115431153E+02  0.27728810192E+03  0.46999998093E+01 0. -1.
       -5    1    3    3    0  502 -0.27382105027E+03 -0.42264783776E+02 -0.23544685404E+03  0.36362286864E+03  0.46999998093E+01 0.  1.
</event>
<event>
 5   0  0.2313168E-03  0.5998460E+03  0.7818609E-02  0.9905726E-01
       -2   -1    0    0    0  501  0.00000000000E+00  0.00000000000E+00  0.17042135091E+03  0.17042135093E+03  0.25500000920E-02 0.  1.
        2   -1    0    0  501    0  0.00000000000E+00  0.00000000000E+00 -0.52783174213E+03  0.52783174214E+03  0.25500000920E-02 0. -1.
    10030    2    1    2    0    0  0.00000000000E+00  0.00000000000E+00 -0.35741039122E+03  0.69825309306E+03  0.59984597541E+03 0.  0.
        2    1    3    3  502    0 -0.60034369799E+02  0.29047566148E+03 -0.12699232760E+03  0.32265660809E+03  0.25500000920E-02 0.  1.
       -2    1    3    3    0  502  0.60034369799E+02 -0.29047566148E+03 -0.23041806362E+03  0.37559648497E+03  0.25500000920E-02 0. -1.
</event>
<event>
 5   0  0.1392854E-03  0.6004565E+03  0.7818609E-02  0.9904459E-01
       -1   -1    0    0    0  501  0.00000000000E+00  0.00000000000E+00  0.81916742094E+02  0.81916742249E+02  0.50400001928E-02 0.  1.
        1   -1    0    0  501    0  0.00000000000E+00  0.00000000000E+00 -0.11003488979E+04  0.11003488979E+04  0.50400001928E-02 0. -1.
    10030    2    1    2    0    0  0.00000000000E+00  0.00000000000E+00 -0.10184321558E+04  0.11822656402E+04  0.60045648296E+03 0.  0.
        4    1    3    3  502    0 -0.59524959751E+02 -0.10783422556E+02  0.69787206908E+02  0.92365416598E+02  0.12699999809E+01 0.  1.
       -4    1    3    3    0  502  0.59524959751E+02  0.10783422556E+02 -0.10882193627E+04  0.10899002236E+04  0.12699999809E+01 0. -1.
</event>
<event>
 5   0  0.1423430E-03  0.5998523E+03  0.7818609E-02  0.9905712E-01
       -1   -1    0    0    0  501  0.00000000000E+00  0.00000000000E+00  0.41078856905E+03  0.41078856908E+03  0.50400001928E-02 0.  1.
        1   -1    0    0  501    0  0.00000000000E+00  0.00000000000E+00 -0.21898297657E+03  0.21898297663E+03  0.50400001928E-02 0. -1.
    10030    2    1    2    0    0  0.00000000000E+00  0.00000000000E+00  0.19180559247E+03  0.62977154571E+03  0.59985232723E+03 0.  0.
        1    1    3    3  502    0  0.23574666831E+03 -0.90608979211E+02 -0.73934910013E+02  0.26315936175E+03  0.50400001928E-02 0.  1.
       -1    1    3    3    0  502 -0.23574666831E+03  0.90608979211E+02  0.26574050249E+03  0.36661218395E+03  0.50400001928E-02 0. -1.
</event>
<event>
 5   0  0.2324616E-03  0.5999105E+03  0.7818609E-02  0.9905592E-01
        2   -1    0    0  501    0  0.00000000000E+00  0.00000000000E+00  0.84083257114E+03  0.84083257114E+03  0.25500000920E-02 0. -1.
       -2   -1    0    0    0  501  0.00000000000E+00  0.00000000000E+00 -0.10700482880E+03  0.10700482883E+03  0.25500000920E-02 0.  1.
    10030    2    1    2    0    0  0.00000000000E+00  0.00000000000E+00  0.73382774233E+03  0.94783739998E+03  0.59991047780E+03 0.  0.
        4    1    3    3  502    0 -0.19892683611E+03  0.16122880582E+03  0.12009061649E+03  0.28282500423E+03  0.12699999809E+01 0.  1.
       -4    1    3    3    0  502  0.19892683611E+03 -0.16122880582E+03  0.61373712584E+03  0.66501239574E+03  0.12699999809E+01 0. -1.
</event>
<event>
 5   0  0.2324616E-03  0.5997228E+03  0.7818609E-02  0.9905981E-01
       -2   -1    0    0    0  501  0.00000000000E+00  0.00000000000E+00  0.14220379865E+03  0.14220379867E+03  0.25500000920E-02 0.  1.
        2   -1    0    0  501    0  0.00000000000E+00  0.00000000000E+00 -0.63230976431E+03  0.63230976431E+03  0.25500000920E-02 0. -1.
    10030    2    1    2    0    0  0.00000000000E+00  0.00000000000E+00 -0.49010596565E+03  0.77451356299E+03  0.59972277069E+03 0.  0.
        4    1    3    3  502    0  0.26256496430E+03 -0.72954245186E+02 -0.40662684639E+03  0.48949942541E+03  0.12699999809E+01 0.  1.
       -4    1    3    3    0  502 -0.26256496430E+03  0.72954245186E+02 -0.83479119264E+02  0.28501413758E+03  0.12699999809E+01 0. -1.
</event>
<event>
 5   0  0.2421210E-03  0.6000114E+03  0.7818609E-02  0.9905382E-01
        2   -1    0    0  501    0  0.00000000000E+00  0.00000000000E+00  0.41268793973E+03  0.41268793974E+03  0.25500000920E-02 0.  1.
       -2   -1    0    0    0  501  0.00000000000E+00  0.00000000000E+00 -0.21809076763E+03  0.21809076765E+03  0.25500000920E-02 0. -1.
    10030    2    1    2    0    0  0.00000000000E+00  0.00000000000E+00  0.19459717210E+03  0.63077870739E+03  0.60001143181E+03 0.  0.
        1    1    3    3  502    0  0.17299592413E+03 -0.89699579462E+01 -0.16020092149E+03  0.23594996330E+03  0.50400001928E-02 0. -1.
       -1    1    3    3    0  502 -0.17299592413E+03  0.89699579462E+01  0.35479809360E+03  0.39482874408E+03  0.50400001928E-02 0.  1.
</event>
<event>
 5   0  0.2406307E-03  0.5999168E+03  0.7818609E-02  0.9905579E-01
        2   -1    0    0  501    0  0.00000000000E+00  0.00000000000E+00  0.15493851784E+04  0.15493851784E+04  0.25500000920E-02 0.  1.
       -2   -1    0    0    0  501  0.00000000000E+00  0.00000000000E+00 -0.58071457518E+02  0.58071457574E+02  0.25500000920E-02 0. -1.
    10030    2    1    2    0    0  0.00000000000E+00  0.00000000000E+00  0.14913137209E+04  0.16074566360E+04  0.59991684628E+03 0.  0.
        5    1    3    3  502    0  0.73182371009E+02 -0.14916110089E+03  0.14147097021E+04  0.14244403549E+04  0.46999998093E+01 0.  1.
       -5    1    3    3    0  502 -0.73182371009E+02  0.14916110089E+03  0.76604018777E+02  0.18301628107E+03  0.46999998093E+01 0. -1.
</event>
<event>
 5   0  0.1479385E-03  0.6001160E+03  0.7818609E-02  0.9905165E-01
       -1   -1    0    0    0  501  0.00000000000E+00  0.00000000000E+00  0.11845625367E+03  0.11845625377E+03  0.50400001928E-02 0.  1.
        1   -1    0    0  501    0  0.00000000000E+00  0.00000000000E+00 -0.76006806847E+03  0.76006806848E+03  0.50400001928E-02 0. -1.
    10030    2    1    2    0    0  0.00000000000E+00  0.00000000000E+00 -0.64161181480E+03  0.87852432225E+03  0.60011604203E+03 0.  0.
        3    1    3    3  502    0 -0.42090355048E+02  0.15369527708E+03  0.51390763553E+02  0.16743612801E+03  0.10100000352E+00 0.  1.
       -3    1    3    3    0  502  0.42090355048E+02 -0.15369527708E+03 -0.69300257835E+03  0.71108819424E+03  0.10100000352E+00 0. -1.
</event>
<event>
 5   0  0.1423430E-03  0.5997829E+03  0.7818609E-02  0.9905857E-01
       -1   -1    0    0    0  501  0.00000000000E+00  0.00000000000E+00  0.58042381250E+03  0.58042381252E+03  0.50400001928E-02 0.  1.
        1   -1    0    0  501    0  0.00000000000E+00  0.00000000000E+00 -0.15494690013E+03  0.15494690021E+03  0.50400001928E-02 0. -1.
    10030    2    1    2    0    0  0.00000000000E+00  0.00000000000E+00  0.42547691236E+03  0.73537071273E+03  0.59978286254E+03 0.  0.
        1    1    3    3  502    0  0.21023373413E+03 -0.96697218276E+02  0.44661205476E+03  0.50300189112E+03  0.50400001928E-02 0.  1.
       -1    1    3    3    0  502 -0.21023373413E+03  0.96697218276E+02 -0.21135142398E+02  0.23236882161E+03  0.50400001928E-02 0. -1.
</event>
<event>
 5   0  0.2313168E-03  0.6005811E+03  0.7818609E-02  0.9904201E-01
       -2   -1    0    0    0  501  0.00000000000E+00  0.00000000000E+00  0.73291626396E+02  0.73291626440E+02  0.25500000920E-02 0.  1.
        2   -1    0    0  501    0  0.00000000000E+00  0.00000000000E+00 -0.12303508281E+04  0.12303508281E+04  0.25500000920E-02 0. -1.
    10030    2    1    2    0    0  0.00000000000E+00  0.00000000000E+00 -0.11570592017E+04  0.13036424545E+04  0.60058109614E+03 0.  0.
        2    1    3    3  502    0  0.66854715838E+00 -0.29520706967E+03 -0.69794910914E+03  0.75781305076E+03  0.25500000920E-02 0. -1.
       -2    1    3    3    0  502 -0.66854715838E+00  0.29520706967E+03 -0.45911009257E+03  0.54582940379E+03  0.25500000920E-02 0.  1.
</event>
<event>
 5   0  0.1418763E-03  0.5990087E+03  0.7818609E-02  0.9907465E-01
       -1   -1    0    0    0  501  0.00000000000E+00  0.00000000000E+00  0.28355042825E+03  0.28355042829E+03  0.50400001928E-02 0. -1.
        1   -1    0    0  501    0  0.00000000000E+00  0.00000000000E+00 -0.31635596560E+03  0.31635596564E+03  0.50400001928E-02 0.  1.
    10030    2    1    2    0    0  0.00000000000E+00  0.00000000000E+00 -0.32805537351E+02  0.59990639393E+03  0.59900874635E+03 0.  0.
        5    1    3    3  502    0 -0.48417323684E+02 -0.38975694064E+02  0.27698236152E+03  0.28390959926E+03  0.46999998093E+01 0. -1.
       -5    1    3    3    0  502  0.48417323684E+02  0.38975694064E+02 -0.30978789887E+03  0.31599679467E+03  0.46999998093E+01 0.  1.
</event>
<event>
 5   0  0.1423430E-03  0.5999554E+03  0.7818609E-02  0.9905499E-01
        1   -1    0    0  501    0  0.00000000000E+00  0.00000000000E+00  0.89740171682E+03  0.89740171684E+03  0.50400001928E-02 0.  1.
       -1   -1    0    0    0  501  0.00000000000E+00  0.00000000000E+00 -0.10027461045E+03  0.10027461058E+03  0.50400001928E-02 0. -1.
    10030    2    1    2    0    0  0.00000000000E+00  0.00000000000E+00  0.79712710637E+03  0.99767632742E+03  0.59995535715E+03 0.  0.
        1    1    3    3  502    0 -0.65670619292E+02 -0.14280430153E+03  0.82344114606E+03  0.83830842762E+03  0.50400001928E-02 0.  1.
       -1    1    3    3    0  502  0.65670619292E+02  0.14280430153E+03 -0.26314039692E+02  0.15936789979E+03  0.50400001928E-02 0. -1.
</event>
<event>
 5   0  0.1416315E-03  0.6000742E+03  0.7818609E-02  0.9905252E-01
        1   -1    0    0  501    0  0.00000000000E+00  0.00000000000E+00  0.53246847910E+03  0.53246847912E+03  0.50400001928E-02 0.  1.
       -1   -1    0    0    0  501  0.00000000000E+00  0.00000000000E+00 -0.16906592546E+03  0.16906592553E+03  0.50400001928E-02 0. -1.
    10030    2    1    2    0    0  0.00000000000E+00  0.00000000000E+00  0.36340255364E+03  0.70153440466E+03  0.60007424951E+03 0.  0.
        2    1    3    3  502    0 -0.19031005139E+02 -0.29815081443E+03  0.21406153051E+03  0.36753017040E+03  0.25500000920E-02 0. -1.
       -2    1    3    3    0  502  0.19031005139E+02  0.29815081443E+03  0.14934102313E+03  0.33400423425E+03  0.25500000920E-02 0.  1.
</event>
<event>
 5   0  0.2313168E-03  0.5997170E+03  0.7818609E-02  0.9905993E-01
       -2   -1    0    0    0  501  0.00000000000E+00  0.00000000000E+00  0.82625391824E+02  0.82625391863E+02  0.25500000920E-02 0.  1.
        2   -1    0    0  501    0  0.00000000000E+00  0.00000000000E+00 -0.10882262101E+04  0.10882262101E+04  0.25500000920E-02 0. -1.
    10030    2    1    2    0    0  0.00000000000E+00  0.00000000000E+00 -0.10056008183E+04  0.11708516020E+04  0.59971699001E+03 0.  0.
        2    1    3    3  502    0 -0.23898448274E+03 -0.13130828118E+03 -0.74633221175E+03  0.79458619293E+03  0.25500000920E-02 0. -1.
       -2    1    3    3    0  502  0.23898448274E+03  0.13130828118E+03 -0.25926860652E+03  0.37626540903E+03  0.25500000920E-02 0.  1.
</event>
<event>
 5   0  0.2346281E-03  0.6002270E+03  0.7818609E-02  0.9904935E-01
        2   -1    0    0  501    0  0.00000000000E+00  0.00000000000E+00  0.74765857942E+03  0.74765857943E+03  0.25500000920E-02 0. -1.
       -2   -1    0    0    0  501  0.00000000000E+00  0.00000000000E+00 -0.12046691972E+03  0.12046691974E+03  0.25500000920E-02 0.  1.
    10030    2    1    2    0    0  0.00000000000E+00  0.00000000000E+00  0.62719165971E+03  0.86812549917E+03  0.60022704396E+03 0.  0.
        3    1    3    3  502    0 -0.10346113638E+03  0.18358098273E+03  0.45349087027E+01  0.21077656312E+03  0.10100000352E+00 0.  1.
       -3    1    3    3    0  502  0.10346113638E+03 -0.18358098273E+03  0.62265675100E+03  0.65734893605E+03  0.10100000352E+00 0. -1.
</event>
<event>
 5   0  0.1418763E-03  0.6007456E+03  0.7818609E-02  0.9903860E-01
       -1   -1    0    0    0  501  0.00000000000E+00  0.00000000000E+00  0.14060415664E+03  0.14060415673E+03  0.50400001928E-02 0.  1.
        1   -1    0    0  501    0  0.00000000000E+00  0.00000000000E+00 -0.64168670745E+03  0.64168670747E+03  0.50400001928E-02 0. -1.
    10030    2    1    2    0    0  0.00000000000E+00  0.00000000000E+00 -0.50108255082E+03  0.78229086420E+03  0.60074559797E+03 0.  0.
        5    1    3    3  502    0 -0.21677009372E+03  0.18642899282E+03 -0.13079066096E+03  0.31444129800E+03  0.46999998093E+01 0.  1.
       -5    1    3    3    0  502  0.21677009372E+03 -0.18642899282E+03 -0.37029188986E+03  0.46784956620E+03  0.46999998093E+01 0. -1.
</event>
<event>
 5   0  0.1423430E-03  0.6000595E+03  0.7818609E-02  0.9905283E-01
        1   -1    0    0  501    0  0.00000000000E+00  0.00000000000E+00  0.12667291715E+04  0.12667291715E+04  0.50400001928E-02 0. -1.
       -1   -1    0    0    0  501  0.00000000000E+00  0.00000000000E+00 -0.71063224300E+02  0.71063224479E+02  0.50400001928E-02 0.  1.
    10030    2    1    2    0    0  0.00000000000E+00  0.00000000000E+00  0.11956659472E+04  0.13377923960E+04  0.60005952826E+03 0.  0.
        1    1    3    3  502    0 -0.81324234252E+02  0.47364753035E+02 -0.37304254042E+02  0.10123565726E+03  0.50400001928E-02 0.  1.
       -1    1    3    3    0  502  0.81324234252E+02 -0.47364753035E+02  0.12329702012E+04  0.12365567387E+04  0.50400001928E-02 0. -1.
</event>
<event>
 5   0  0.1479385E-03  0.5989706E+03  0.7818609E-02  0.9907544E-01
        1   -1    0    0  501    0  0.00000000000E+00  0.00000000000E+00  0.21850364764E+03  0.21850364769E+03  0.50400001928E-02 0.  1.
       -1   -1    0    0    0  501  0.00000000000E+00  0.00000000000E+00 -0.41048027354E+03  0.41048027357E+03  0.50400001928E-02 0. -1.
    10030    2    1    2    0    0  0.00000000000E+00  0.00000000000E+00 -0.19197662591E+03  0.62898392127E+03  0.59897057383E+03 0.  0.
        3    1    3    3  502    0  0.10070791244E+03  0.24044038573E+03 -0.25081345712E+03  0.36174723661E+03  0.10100000352E+00 0. -1.
       -3    1    3    3    0  502 -0.10070791244E+03 -0.24044038573E+03  0.58836831213E+02  0.26723668466E+03  0.10100000352E+00 0.  1.
</event>
<event>
 5   0  0.2406307E-03  0.5973991E+03  0.7818609E-02  0.9910817E-01
        2   -1    0    0  501    0  0.00000000000E+00  0.00000000000E+00  0.65299770367E+03  0.65299770368E+03  0.25500000920E-02 0.  1.
       -2   -1    0    0    0  501  0.00000000000E+00  0.00000000000E+00 -0.13663359886E+03  0.13663359888E+03  0.25500000920E-02 0. -1.
    10030    2    1    2    0    0  0.00000000000E+00  0.00000000000E+00  0.51636410482E+03  0.78963130256E+03  0.59739911721E+03 0.  0.
        5    1    3    3  502    0 -0.38915279705E+02  0.56433695572E+02  0.64240967607E+03  0.64607386799E+03  0.46999998093E+01 0.  1.
       -5    1    3    3    0  502  0.38915279705E+02 -0.56433695572E+02 -0.12604557125E+03  0.14355743457E+03  0.46999998093E+01 0. -1.
</event>
<event>
 5   0  0.1418763E-03  0.6001515E+03  0.7818609E-02  0.9905092E-01
        1   -1    0    0  501    0  0.00000000000E+00  0.00000000000E+00  0.40505331222E+03  0.40505331225E+03  0.50400001928E-02 0.  1.
       -1   -1    0    0    0  501  0.00000000000E+00  0.00000000000E+00 -0.22230518312E+03  0.22230518318E+03  0.50400001928E-02 0. -1.
    10030    2    1    2    0    0  0.00000000000E+00  0.00000000000E+00  0.18274812910E+03  0.62735849543E+03  0.60015148346E+03 0.  0.
        5    1    3    3  502    0  0.26408125922E+03 -0.90710847134E+02  0.20615146025E+03  0.34711364683E+03  0.46999998093E+01 0.  1.
       -5    1    3    3    0  502 -0.26408125922E+03  0.90710847134E+02 -0.23403331152E+02  0.28024484860E+03  0.46999998093E+01 0. -1.
</event>
<event>
 5   0  0.2313168E-03  0.6001136E+03  0.7818609E-02  0.9905170E-01
        2   -1    0    0  501    0  0.00000000000E+00  0.00000000000E+00  0.72874330888E+03  0.72874330888E+03  0.25500000920E-02 0.  1.
       -2   -1    0    0    0  501  0.00000000000E+00  0.00000000000E+00 -0.12354706103E+03  0.12354706105E+03  0.25500000920E-02 0. -1.
    10030    2    1    2    0    0  0.00000000000E+00  0.00000000000E+00  0.60519624785E+03  0.85229036994E+03  0.60011363614E+03 0.  0.
        2    1    3    3  502    0 -0.39341164044E+02  0.18255029339E+03  0.63615748447E+03  0.66299976007E+03  0.25500000920E-02 0.  1.
       -2    1    3    3    0  502  0.39341164044E+02 -0.18255029339E+03 -0.30961236618E+02  0.18929060987E+03  0.25500000920E-02 0. -1.
</event>
<event>
 5   0  0.2313168E-03  0.6001401E+03  0.7818609E-02  0.9905115E-01
        2   -1    0    0  501    0  0.00000000000E+00  0.00000000000E+00  0.55122031159E+03  0.55122031160E+03  0.25500000920E-02 0.  1.
       -2   -1    0    0    0  501  0.00000000000E+00  0.00000000000E+00 -0.16335035898E+03  0.16335035900E+03  0.25500000920E-02 0. -1.
    10030    2    1    2    0    0  0.00000000000E+00  0.00000000000E+00  0.38786995261E+03  0.71457067060E+03  0.60014010292E+03 0.  0.
        2    1    3    3  502    0  0.21687357086E+03  0.19744082704E+03  0.11839514469E+03  0.31628220976E+03  0.25500000920E-02 0. -1.
       -2    1    3    3    0  502 -0.21687357086E+03 -0.19744082704E+03  0.26947480792E+03  0.39828846083E+03  0.25500000920E-02 0.  1.
</event>
<event>
 5   0  0.2406307E-03  0.5954068E+03  0.7818609E-02  0.9914982E-01
        2   -1    0    0  501    0  0.00000000000E+00  0.00000000000E+00  0.78694981633E+03  0.78694981633E+03  0.25500000920E-02 0. -1.
       -2   -1    0    0    0  501  0.00000000000E+00  0.00000000000E+00 -0.11262131327E+03  0.11262131330E+03  0.25500000920E-02 0.  1.
    10030    2    1    2    0    0  0.00000000000E+00  0.00000000000E+00  0.67432850306E+03  0.89957112963E+03  0.59540682498E+03 0.  0.
        5    1    3    3  502    0 -0.75883307097E+02 -0.22816792079E+03  0.72069676686E+02  0.25106772924E+03  0.46999998093E+01 0.  1.
       -5    1    3    3    0  502  0.75883307097E+02  0.22816792079E+03  0.60225882638E+03  0.64850340039E+03  0.46999998093E+01 0. -1.
</event>
<event>
 5   0  0.2421210E-03  0.6002966E+03  0.7818609E-02  0.9904791E-01
        2   -1    0    0  501    0  0.00000000000E+00  0.00000000000E+00  0.46907059787E+03  0.46907059788E+03  0.25500000920E-02 0.  1.
       -2   -1    0    0    0  501  0.00000000000E+00  0.00000000000E+00 -0.19205854481E+03  0.19205854483E+03  0.25500000920E-02 0. -1.
    10030    2    1    2    0    0  0.00000000000E+00  0.00000000000E+00  0.27701205306E+03  0.66112914271E+03  0.60029664817E+03 0.  0.
        1    1    3    3  502    0 -0.85423007375E+02  0.16845528927E+03 -0.11840258924E+03  0.22292027237E+03  0.50400001928E-02 0. -1.
       -1    1    3    3    0  502  0.85423007375E+02 -0.16845528927E+03  0.39541464230E+03  0.43820887034E+03  0.50400001928E-02 0.  1.
</event>
<event>
 5   0  0.2313168E-03  0.5998274E+03  0.7818609E-02  0.9905764E-01
        2   -1    0    0  501    0  0.00000000000E+00  0.00000000000E+00  0.26049296113E+04  0.26049296113E+04  0.25500000920E-02 0. -1.
       -2   -1    0    0    0  501  0.00000000000E+00  0.00000000000E+00 -0.34530002837E+02  0.34530002931E+02  0.25500000920E-02 0.  1.
    10030    2    1    2    0    0  0.00000000000E+00  0.00000000000E+00  0.25703996085E+04  0.26394596143E+04  0.59982739849E+03 0.  0.
        2    1    3    3  502    0  0.24725162180E+03 -0.11160977414E+02  0.53985671401E+03  0.59388820797E+03  0.25500000920E-02 0.  1.
       -2    1    3    3    0  502 -0.24725162180E+03  0.11160977414E+02  0.20305428945E+04  0.20455714063E+04  0.25500000920E-02 0. -1.
</event>
<event>
 5   0  0.2421210E-03  0.6002087E+03  0.7818609E-02  0.9904973E-01
        2   -1    0    0  501    0  0.00000000000E+00  0.00000000000E+00  0.14634327889E+04  0.14634327889E+04  0.25500000920E-02 0.  1.
       -2   -1    0    0    0  501  0.00000000000E+00  0.00000000000E+00 -0.61542034381E+02  0.61542034434E+02  0.25500000920E-02 0. -1.
    10030    2    1    2    0    0  0.00000000000E+00  0.00000000000E+00  0.14018907545E+04  0.15249748233E+04  0.60020873385E+03 0.  0.
        1    1    3    3  502    0  0.25381906280E+03  0.13681570145E+03  0.91230047478E+03  0.95678357486E+03  0.50400001928E-02 0. -1.
       -1    1    3    3    0  502 -0.25381906280E+03 -0.13681570145E+03  0.48959027969E+03  0.56819124844E+03  0.50400001928E-02 0.  1.
</event>
<event>
 5   0  0.1416315E-03  0.5997727E+03  0.7818609E-02  0.9905878E-01
        1   -1    0    0  501    0  0.00000000000E+00  0.00000000000E+00  0.72436985315E+03  0.72436985317E+03  0.50400001928E-02 0. -1.
       -1   -1    0    0    0  501  0.00000000000E+00  0.00000000000E+00 -0.12415179832E+03  0.12415179842E+03  0.50400001928E-02 0.  1.
    10030    2    1    2    0    0  0.00000000000E+00  0.00000000000E+00  0.60021805483E+03  0.84852165159E+03  0.59977269016E+03 0.  0.
        2    1    3    3  502    0 -0.81637357727E+02 -0.26155493341E+03  0.47254576498E+03  0.54623725740E+03  0.25500000920E-02 0. -1.
       -2    1    3    3    0  502  0.81637357727E+02  0.26155493341E+03  0.12767228985E+03  0.30228439419E+03  0.25500000920E-02 0.  1.
</event>
<event>
 5   0  0.1392854E-03  0.6000223E+03  0.7818609E-02  0.9905360E-01
       -1   -1    0    0    0  501  0.00000000000E+00  0.00000000000E+00  0.76951205110E+02  0.76951205275E+02  0.50400001928E-02 0.  1.
        1   -1    0    0  501    0  0.00000000000E+00  0.00000000000E+00 -0.11696593651E+04  0.11696593652E+04  0.50400001928E-02 0. -1.
    10030    2    1    2    0    0  0.00000000000E+00  0.00000000000E+00 -0.10927081600E+04  0.12466105704E+04  0.60002232567E+03 0.  0.
        4    1    3    3  502    0 -0.27948984265E+03  0.10868493794E+03 -0.52799374119E+03  0.60721165299E+03  0.12699999809E+01 0. -1.
       -4    1    3    3    0  502  0.27948984265E+03 -0.10868493794E+03 -0.56471441884E+03  0.63939891744E+03  0.12699999809E+01 0.  1.
</event>
<event>
 5   0  0.1392854E-03  0.6008159E+03  0.7818609E-02  0.9903715E-01
       -1   -1    0    0    0  501  0.00000000000E+00  0.00000000000E+00  0.22944513634E+03  0.22944513640E+03  0.50400001928E-02 0. -1.
        1   -1    0    0  501    0  0.00000000000E+00  0.00000000000E+00 -0.39331812530E+03  0.39331812534E+03  0.50400001928E-02 0.  1.
    10030    2    1    2    0    0  0.00000000000E+00  0.00000000000E+00 -0.16387298896E+03  0.62276326173E+03  0.60081588166E+03 0.  0.
        4    1    3    3  502    0  0.14405627057E+03 -0.89898017081E+00 -0.35517611670E+03  0.38328149450E+03  0.12699999809E+01 0.  1.
       -4    1    3    3    0  502 -0.14405627057E+03  0.89898017081E+00  0.19130312774E+03  0.23948176723E+03  0.12699999809E+01 0. -1.
</event>
<event>
 5   0  0.2324616E-03  0.6001409E+03  0.7818609E-02  0.9905114E-01
        2   -1    0    0  501    0  0.00000000000E+00  0.00000000000E+00  0.60788519879E+03  0.60788519880E+03  0.25500000920E-02 0.  1.
       -2   -1    0    0    0  501  0.00000000000E+00  0.00000000000E+00 -0.14812383887E+03  0.14812383890E+03  0.25500000920E-02 0. -1.
    10030    2    1    2    0    0  0.00000000000E+00  0.00000000000E+00  0.45976135992E+03  0.75600903769E+03  0.60014094761E+03 0.  0.
        4    1    3    3  502    0 -0.46451228945E+02  0.14215978709E+03  0.55758579637E+03  0.57729598556E+03  0.12699999809E+01 0.  1.
       -4    1    3    3    0  502  0.46451228945E+02 -0.14215978709E+03 -0.97824436446E+02  0.17871305213E+03  0.12699999809E+01 0. -1.
</event>
<event>
 5   0  0.1418763E-03  0.6005277E+03  0.7818609E-02  0.9904312E-01
       -1   -1    0    0    0  501  0.00000000000E+00  0.00000000000E+00  0.17979625281E+03  0.17979625288E+03  0.50400001928E-02 0.  1.
        1   -1    0    0  501    0  0.00000000000E+00  0.00000000000E+00 -0.50144749531E+03  0.50144749534E+03  0.50400001928E-02 0. -1.
    10030    2    1    2    0    0  0.00000000000E+00  0.00000000000E+00 -0.32165124250E+03  0.68124374822E+03  0.60052770351E+03 0.  0.
        5    1    3    3  502    0  0.23071751298E+03  0.76947118309E+02  0.38858834008E+02  0.24634027034E+03  0.46999998093E+01 0.  1.
       -5    1    3    3    0  502 -0.23071751298E+03 -0.76947118309E+02 -0.36051007651E+03  0.43490347788E+03  0.46999998093E+01 0. -1.
</event>
<event>
 5   0  0.1416315E-03  0.5994546E+03  0.7818609E-02  0.9906538E-01
       -1   -1    0    0    0  501  0.00000000000E+00  0.00000000000E+00  0.12246560760E+03  0.12246560771E+03  0.50400001928E-02 0.  1.
        1   -1    0    0  501    0  0.00000000000E+00  0.00000000000E+00 -0.73356481263E+03  0.73356481265E+03  0.50400001928E-02 0. -1.
    10030    2    1    2    0    0  0.00000000000E+00  0.00000000000E+00 -0.61109920503E+03  0.85603042035E+03  0.59945462062E+03 0.  0.
        2    1    3    3  502    0 -0.17548837578E+03  0.24292258436E+03 -0.29787164426E+03  0.42253410335E+03  0.25500000920E-02 0. -1.
       -2    1    3    3    0  502  0.17548837578E+03 -0.24292258436E+03 -0.31322756076E+03  0.43349631701E+03  0.25500000920E-02 0.  1.
</event>
<event>
 5   0  0.1392854E-03  0.6000215E+03  0.7818609E-02  0.9905362E-01
       -1   -1    0    0    0  501  0.00000000000E+00  0.00000000000E+00  0.20929953959E+03  0.20929953965E+03  0.50400001928E-02 0.  1.
        1   -1    0    0  501    0  0.00000000000E+00  0.00000000000E+00 -0.43003649245E+03  0.43003649248E+03  0.50400001928E-02 0. -1.
    10030    2    1    2    0    0  0.00000000000E+00  0.00000000000E+00 -0.22073695286E+03  0.63933603214E+03  0.60002146598E+03 0.  0.
        4    1    3    3  502    0  0.14530771616E+03  0.22121448504E+03 -0.26088508012E+03  0.37163533026E+03  0.12699999809E+01 0. -1.
       -4    1    3    3    0  502 -0.14530771616E+03 -0.22121448504E+03  0.40148127261E+02  0.26770070188E+03  0.12699999809E+01 0.  1.
</event>
<event>
 5   0  0.1392854E-03  0.5998160E+03  0.7818609E-02  0.9905788E-01
        1   -1    0    0  501    0  0.00000000000E+00  0.00000000000E+00  0.52089742310E+03  0.52089742313E+03  0.50400001928E-02 0. -1.
       -1   -1    0    0    0  501  0.00000000000E+00  0.00000000000E+00 -0.17267281073E+03  0.17267281081E+03  0.50400001928E-02 0.  1.
    10030    2    1    2    0    0  0.00000000000E+00  0.00000000000E+00  0.34822461237E+03  0.69357023393E+03  0.59981604575E+03 0.  0.
        4    1    3    3  502    0 -0.20941441311E+03  0.50694097791E+02  0.41533125903E+03  0.46789523998E+03  0.12699999809E+01 0. -1.
       -4    1    3    3    0  502  0.20941441311E+03 -0.50694097791E+02 -0.67106646657E+02  0.22567499395E+03  0.12699999809E+01 0.  1.
</event>
<event>
 5   0  0.2346281E-03  0.5997334E+03  0.7818609E-02  0.9905959E-01
        2   -1    0    0  501    0  0.00000000000E+00  0.00000000000E+00  0.47450193692E+03  0.47450193692E+03  0.25500000920E-02 0.  1.
       -2   -1    0    0    0  501  0.00000000000E+00  0.00000000000E+00 -0.18950404104E+03  0.18950404105E+03  0.25500000920E-02 0. -1.
    10030    2    1    2    0    0  0.00000000000E+00  0.00000000000E+00  0.28499789588E+03  0.66400597798E+03  0.59973338921E+03 0.  0.
        3    1    3    3  502    0 -0.40247968404E+02  0.26280973187E+03 -0.11039312900E+02  0.26610285747E+03  0.10100000352E+00 0. -1.
       -3    1    3    3    0  502  0.40247968404E+02 -0.26280973187E+03  0.29603720878E+03  0.39790312051E+03  0.10100000352E+00 0.  1.
</event>
<event>
 5   0  0.1416315E-03  0.5999617E+03  0.7818609E-02  0.9905485E-01
        1   -1    0    0  501    0  0.00000000000E+00  0.00000000000E+00  0.22593655977E+03  0.22593655982E+03  0.50400001928E-02 0. -1.
       -1   -1    0    0    0  501  0.00000000000E+00  0.00000000000E+00 -0.39829110004E+03  0.39829110007E+03  0.50400001928E-02 0.  1.
    10030    2    1    2    0    0  0.00000000000E+00  0.00000000000E+00 -0.17235454027E+03  0.62422765990E+03  0.59996173530E+03 0.  0.
        2    1    3    3  502    0  0.11239006542E+03 -0.26056706366E+03  0.15028745140E+02  0.28416999254E+03  0.25500000920E-02 0.  1.
       -2    1    3    3    0  502 -0.11239006542E+03  0.26056706366E+03 -0.18738328541E+03  0.34005766736E+03  0.25500000920E-02 0. -1.
</event>
<event>
 5   0  0.2346281E-03  0.6005413E+03  0.7818609E-02  0.9904284E-01
        2   -1    0    0  501    0  0.00000000000E+00  0.00000000000E+00  0.13506199042E+03  0.13506199044E+03  0.25500000920E-02 0.  1.
       -2   -1    0    0    0  501  0.00000000000E+00  0.00000000000E+00 -0.66756353674E+03  0.66756353675E+03  0.25500000920E-02 0. -1.
    10030    2    1    2    0    0  0.00000000000E+00  0.00000000000E+00 -0.53250154633E+03  0.80262552719E+03  0.60054128921E+03 0.  0.
        3    1    3    3  502    0  0.62421538564E+01 -0.67824887467E+02 -0.65710268899E+03  0.66062329199E+03  0.10100000352E+00 0. -1.
       -3    1    3    3    0  502 -0.62421538564E+01  0.67824887467E+02  0.12460114267E+03  0.14200223519E+03  0.10100000352E+00 0.  1.
</event>
<event>
 5   0  0.1418763E-03  0.5995459E+03  0.7818609E-02  0.9906349E-01
       -1   -1    0    0    0  501  0.00000000000E+00  0.00000000000E+00  0.10364220730E+03  0.10364220742E+03  0.50400001928E-02 0. -1.
        1   -1    0    0  501    0  0.00000000000E+00  0.00000000000E+00 -0.86705820527E+03  0.86705820529E+03  0.50400001928E-02 0.  1.
    10030    2    1    2    0    0  0.00000000000E+00  0.00000000000E+00 -0.76341599798E+03  0.97070041271E+03  0.59954591590E+03 0.  0.
        5    1    3    3  502    0  0.17165472500E+03  0.23106804576E+03 -0.51701283647E+03  0.59176190268E+03  0.46999998093E+01 0.  1.
       -5    1    3    3    0  502 -0.17165472500E+03 -0.23106804576E+03 -0.24640316151E+03  0.37893851003E+03  0.46999998093E+01 0. -1.
</event>
<event>
 5   0  0.2346281E-03  0.5981427E+03  0.7818609E-02  0.9909267E-01
       -2   -1    0    0    0  501  0.00000000000E+00  0.00000000000E+00  0.73237345495E+02  0.73237345540E+02  0.25500000920E-02 0. -1.
        2   -1    0    0  501    0  0.00000000000E+00  0.00000000000E+00 -0.12212851662E+04  0.12212851662E+04  0.25500000920E-02 0.  1.
    10030    2    1    2    0    0  0.00000000000E+00  0.00000000000E+00 -0.11480478207E+04  0.12945225117E+04  0.59814273780E+03 0.  0.
        3    1    3    3  502    0  0.26849454736E+03 -0.83362871521E+02 -0.79478649209E+03  0.84304464206E+03  0.10100000352E+00 0.  1.
       -3    1    3    3    0  502 -0.26849454736E+03  0.83362871521E+02 -0.35326132862E+03  0.45147786968E+03  0.10100000352E+00 0. -1.
</event>
<event>
 5   0  0.1423430E-03  0.5999861E+03  0.7818609E-02  0.9905435E-01
        1   -1    0    0  501    0  0.00000000000E+00  0.00000000000E+00  0.34922164687E+03  0.34922164691E+03  0.50400001928E-02 0.  1.
       -1   -1    0    0    0  501  0.00000000000E+00  0.00000000000E+00 -0.25770404512E+03  0.25770404517E+03  0.50400001928E-02 0. -1.
    10030    2    1    2    0    0  0.00000000000E+00  0.00000000000E+00  0.91517601757E+02  0.60692569207E+03  0.59998610340E+03 0.  0.
        1    1    3    3  502    0  0.27955752171E+03  0.65396339247E+02  0.13375193592E+03  0.31673122600E+03  0.50400001928E-02 0.  1.
       -1    1    3    3    0  502 -0.27955752171E+03 -0.65396339247E+02 -0.42234334164E+02  0.29019446608E+03  0.50400001928E-02 0. -1.
</event>
<event>
 5   0  0.1418763E-03  0.6002362E+03  0.7818609E-02  0.9904916E-01
        1   -1    0    0  501    0  0.00000000000E+00  0.00000000000E+00  0.59470322236E+03  0.59470322238E+03  0.50400001928E-02 0. -1.
       -1   -1    0    0    0  501  0.00000000000E+00  0.00000000000E+00 -0.15145515589E+03  0.15145515597E+03  0.50400001928E-02 0.  1.
    10030    2    1    2    0    0  0.00000000000E+00  0.00000000000E+00  0.44324806647E+03  0.74615837835E+03  0.60023618447E+03 0.  0.
        5    1    3    3  502    0 -0.27745451842E+03  0.90805860585E+02  0.30794680671E+03  0.42435838612E+03  0.46999998093E+01 0. -1.
       -5    1    3    3    0  502  0.27745451842E+03 -0.90805860585E+02  0.13530125976E+03  0.32179999223E+03  0.46999998093E+01 0.  1.
</event>
<event>
 5   0  0.2406307E-03  0.5997845E+03  0.7818609E-02  0.9905853E-01
        2   -1    0    0  501    0  0.00000000000E+00  0.00000000000E+00  0.69042371470E+03  0.69042371471E+03  0.25500000920E-02 0. -1.
       -2   -1    0    0    0  501  0.00000000000E+00  0.00000000000E+00 -0.13026111987E+03  0.13026111989E+03  0.25500000920E-02 0.  1.
    10030    2    1    2    0    0  0.00000000000E+00  0.00000000000E+00  0.56016259483E+03  0.82068483460E+03  0.59978451555E+03 0.  0.
        5    1    3    3  502    0  0.72221949383E+02 -0.10703771248E+03  0.65038316542E+03  0.66309383479E+03  0.46999998093E+01 0. -1.
       -5    1    3    3    0  502 -0.72221949383E+02  0.10703771248E+03 -0.90220570593E+02  0.15759099981E+03  0.46999998093E+01 0.  1.
</event>
<event>
 5   0  0.1423430E-03  0.5999228E+03  0.7818609E-02  0.9905566E-01
        1   -1    0    0  501    0  0.00000000000E+00  0.00000000000E+00  0.69879381490E+03  0.69879381492E+03  0.50400001928E-02 0. -1.
       -1   -1    0    0    0  501  0.00000000000E+00  0.00000000000E+00 -0.12876020345E+03  0.12876020355E+03  0.50400001928E-02 0.  1.
    10030    2    1    2    0    0  0.00000000000E+00  0.00000000000E+00  0.57003361145E+03  0.82755401846E+03  0.59992277444E+03 0.  0.
        1    1    3    3  502    0 -0.20805554194E+03 -0.17156612125E+03  0.10381777997E+03  0.28896396653E+03  0.50400001928E-02 0.  1.
       -1    1    3    3    0  502  0.20805554194E+03  0.17156612125E+03  0.46621583148E+03  0.53859005193E+03  0.50400001928E-02 0. -1.
</event>
<event>
 5   0  0.1416315E-03  0.6001404E+03  0.7818609E-02  0.9905115E-01
        1   -1    0    0  501    0  0.00000000000E+00  0.00000000000E+00  0.14659114435E+04  0.14659114435E+04  0.50400001928E-02 0. -1.
       -1   -1    0    0    0  501  0.00000000000E+00  0.00000000000E+00 -0.61423992537E+02  0.61423992744E+02  0.50400001928E-02 0.  1.
    10030    2    1    2    0    0  0.00000000000E+00  0.00000000000E+00  0.14044874510E+04  0.15273354363E+04  0.60014042934E+03 0.  0.
        2    1    3    3  502    0 -0.41507481732E+02 -0.16655513894E+03  0.75858748695E+02  0.18766468796E+03  0.25500000920E-02 0.  1.
       -2    1    3    3    0  502  0.41507481732E+02  0.16655513894E+03  0.13286287023E+04  0.13396707483E+04  0.25500000920E-02 0. -1.
</event>
<event>
 5   0  0.2313168E-03  0.5970611E+03  0.7818609E-02  0.9911522E-01
        2   -1    0    0  501    0  0.00000000000E+00  0.00000000000E+00  0.19832491675E+04  0.19832491675E+04  0.25500000920E-02 0.  1.
       -2   -1    0    0    0  501  0.00000000000E+00  0.00000000000E+00 -0.44936605038E+02  0.44936605110E+02  0.25500000920E-02 0. -1.
    10030    2    1    2    0    0  0.00000000000E+00  0.00000000000E+00  0.19383125625E+04  0.20281857726E+04  0.59706108433E+03 0.  0.
        2    1    3    3  502    0  0.14545133417E+03 -0.43365816066E+02  0.95910551505E+02  0.17954252563E+03  0.25500000920E-02 0. -1.
       -2    1    3    3    0  502 -0.14545133417E+03  0.43365816066E+02  0.18424020110E+04  0.18486432470E+04  0.25500000920E-02 0.  1.
</event>
<event>
 5   0  0.2313168E-03  0.6003993E+03  0.7818609E-02  0.9904578E-01
       -2   -1    0    0    0  501  0.00000000000E+00  0.00000000000E+00  0.83180312513E+02  0.83180312552E+02  0.25500000920E-02 0. -1.
        2   -1    0    0  501    0  0.00000000000E+00  0.00000000000E+00 -0.10834272227E+04  0.10834272227E+04  0.25500000920E-02 0.  1.
    10030    2    1    2    0    0  0.00000000000E+00  0.00000000000E+00 -0.10002469102E+04  0.11666075353E+04  0.60039925048E+03 0.  0.
        2    1    3    3  502    0 -0.26703575501E+03  0.13509619844E+03 -0.45411215413E+03  0.54385377246E+03  0.25500000920E-02 0. -1.
       -2    1    3    3    0  502  0.26703575501E+03 -0.13509619844E+03 -0.54613475606E+03  0.62275376279E+03  0.25500000920E-02 0.  1.
</event>
<event>
 5   0  0.2324616E-03  0.6010202E+03  0.7818609E-02  0.9903292E-01
       -2   -1    0    0    0  501  0.00000000000E+00  0.00000000000E+00  0.15606000596E+03  0.15606000598E+03  0.25500000920E-02 0. -1.
        2   -1    0    0  501    0  0.00000000000E+00  0.00000000000E+00 -0.57866412377E+03  0.57866412378E+03  0.25500000920E-02 0.  1.
    10030    2    1    2    0    0  0.00000000000E+00  0.00000000000E+00 -0.42260411781E+03  0.73472412976E+03  0.60102022134E+03 0.  0.
        4    1    3    3  502    0 -0.29454392564E+03 -0.38559973671E+02 -0.26680932685E+03  0.39928915023E+03  0.12699999809E+01 0.  1.
       -4    1    3    3    0  502  0.29454392564E+03  0.38559973671E+02 -0.15579479096E+03  0.33543497953E+03  0.12699999809E+01 0. -1.
</event>
<event>
 5   0  0.2421210E-03  0.5998585E+03  0.7818609E-02  0.9905700E-01
       -2   -1    0    0    0  501  0.00000000000E+00  0.00000000000E+00  0.70253499716E+02  0.70253499762E+02  0.25500000920E-02 0. -1.
        2   -1    0    0  501    0  0.00000000000E+00  0.00000000000E+00 -0.12804708818E+04  0.12804708818E+04  0.25500000920E-02 0.  1.
    10030    2    1    2    0    0  0.00000000000E+00  0.00000000000E+00 -0.12102173820E+04  0.13507243815E+04  0.59985851919E+03 0.  0.
        1    1    3    3  502    0  0.30338785307E+02  0.16714549632E+03 -0.11617004132E+04  0.11740553262E+04  0.50400001928E-02 0.  1.
       -1    1    3    3    0  502 -0.30338785307E+02 -0.16714549632E+03 -0.48516968851E+02  0.17666905537E+03  0.50400001928E-02 0. -1.
</event>
<event>
 5   0  0.9496750E-04  0.6017351E+03  0.7818609E-02  0.9901813E-01
       -4   -1    0    0    0  501  0.00000000000E+00  0.00000000000E+00  0.11799920468E+03  0.11800603885E+03  0.12699999809E+01 0. -1.
        4   -1    0    0  501    0  0.00000000000E+00  0.00000000000E+00 -0.76710500432E+03  0.76710605561E+03  0.12699999809E+01 0.  1.
    10030    2    1    2    0    0  0.00000000000E+00  0.00000000000E+00 -0.64910579964E+03  0.88511209446E+03  0.60173505850E+03 0.  0.
        2    1    3    3  502    0 -0.70006367059E+01  0.29447639549E+03 -0.41469979315E+03  0.50866617232E+03  0.25500000920E-02 0.  1.
       -2    1    3    3    0  502  0.70006367059E+01 -0.29447639549E+03 -0.23440600649E+03  0.37644592214E+03  0.25500000920E-02 0. -1.
</event>
<event>
 5   0  0.2313168E-03  0.6002429E+03  0.7818609E-02  0.9904902E-01
        2   -1    0    0  501    0  0.00000000000E+00  0.00000000000E+00  0.20466810073E+04  0.20466810073E+04  0.25500000920E-02 0.  1.
       -2   -1    0    0    0  501  0.00000000000E+00  0.00000000000E+00 -0.44009243653E+02  0.44009243727E+02  0.25500000920E-02 0. -1.
    10030    2    1    2    0    0  0.00000000000E+00  0.00000000000E+00  0.20026717637E+04  0.20906902510E+04  0.60024289487E+03 0.  0.
        2    1    3    3  502    0  0.95026028000E+02 -0.12588328991E+03  0.18906890487E+04  0.18972563421E+04  0.25500000920E-02 0.  1.
       -2    1    3    3    0  502 -0.95026028000E+02  0.12588328991E+03  0.11198271494E+03  0.19343390894E+03  0.25500000920E-02 0. -1.
</event>
<event>
 5   0  0.2346281E-03  0.6005806E+03  0.7818609E-02  0.9904202E-01
        2   -1    0    0  501    0  0.00000000000E+00  0.00000000000E+00  0.19166347798E+03  0.19166347799E+03  0.25500000920E-02 0. -1.
       -2   -1    0    0    0  501  0.00000000000E+00  0.00000000000E+00 -0.47048217181E+03  0.47048217182E+03  0.25500000920E-02 0.  1.
    10030    2    1    2    0    0  0.00000000000E+00  0.00000000000E+00 -0.27881869383E+03  0.66214564981E+03  0.60058055041E+03 0.  0.
        3    1    3    3  502    0  0.27139150718E+03  0.12710881581E+03 -0.11836793548E+03  0.32221263100E+03  0.10100000352E+00 0.  1.
       -3    1    3    3    0  502 -0.27139150718E+03 -0.12710881581E+03 -0.16045075835E+03  0.33993301881E+03  0.10100000352E+00 0. -1.
</event>
<event>
 5   0  0.1418763E-03  0.6001769E+03  0.7818609E-02  0.9905039E-01
       -1   -1    0    0    0  501  0.00000000000E+00  0.00000000000E+00  0.30479803688E+03  0.30479803692E+03  0.50400001928E-02 0.  1.
        1   -1    0    0  501    0  0.00000000000E+00  0.00000000000E+00 -0.29545168051E+03  0.29545168055E+03  0.50400001928E-02 0. -1.
    10030    2    1    2    0    0  0.00000000000E+00  0.00000000000E+00  0.93463563652E+01  0.60024971747E+03  0.60017694803E+03 0.  0.
        5    1    3    3  502    0 -0.73055836022E+02 -0.25737387933E+03  0.14052975031E+03  0.30224025155E+03  0.46999998093E+01 0.  1.
       -5    1    3    3    0  502  0.73055836022E+02  0.25737387933E+03 -0.13118339394E+03  0.29800946592E+03  0.46999998093E+01 0. -1.
</event>
<event>
 5   0  0.1418763E-03  0.6000611E+03  0.7818609E-02  0.9905279E-01
        1   -1    0    0  501    0  0.00000000000E+00  0.00000000000E+00  0.11287612971E+03  0.11287612982E+03  0.50400001928E-02 0. -1.
       -1   -1    0    0    0  501  0.00000000000E+00  0.00000000000E+00 -0.79749669887E+03  0.79749669888E+03  0.50400001928E-02 0.  1.
    10030    2    1    2    0    0  0.00000000000E+00  0.00000000000E+00 -0.68462056915E+03  0.91037282870E+03  0.60006113316E+03 0.  0.
        5    1    3    3  502    0  0.28315611736E+03  0.44503228955E+02 -0.47662867217E+03  0.55619682247E+03  0.46999998093E+01 0.  1.
       -5    1    3    3    0  502 -0.28315611736E+03 -0.44503228955E+02 -0.20799189698E+03  0.35417600624E+03  0.46999998093E+01 0. -1.
</event>
<event>
 5   0  0.1423430E-03  0.6004198E+03  0.7818609E-02  0.9904535E-01
        1   -1    0    0  501    0  0.00000000000E+00  0.00000000000E+00  0.93279073132E+03  0.93279073133E+03  0.50400001928E-02 0. -1.
       -1   -1    0    0    0  501  0.00000000000E+00  0.00000000000E+00 -0.96619727663E+02  0.96619727794E+02  0.50400001928E-02 0.  1.
    10030    2    1    2    0    0  0.00000000000E+00  0.00000000000E+00  0.83617100365E+03  0.10294104591E+04  0.60041980814E+03 0.  0.
        1    1    3    3  502    0 -0.18298367211E+03  0.23747310516E+03  0.44516602978E+03  0.53670223963E+03  0.50400001928E-02 0. -1.
       -1    1    3    3    0  502  0.18298367211E+03 -0.23747310516E+03  0.39100497387E+03  0.49270821949E+03  0.50400001928E-02 0.  1.
</event>
<event>
 5   0  0.9496750E-04  0.6002765E+03  0.7818609E-02  0.9904833E-01
       -3   -1    0    0    0  501  0.00000000000E+00  0.00000000000E+00  0.14945159732E+03  0.14945163145E+03  0.10100000352E+00 0.  1.
        3   -1    0    0  501    0  0.00000000000E+00  0.00000000000E+00 -0.60275664807E+03  0.60275665653E+03  0.10100000352E+00 0. -1.
    10030    2    1    2    0    0  0.00000000000E+00  0.00000000000E+00 -0.45330505075E+03  0.75220828798E+03  0.60027646920E+03 0.  0.
        3    1    3    3  502    0  0.97694932879E+02  0.10172744103E+03 -0.55864249699E+03  0.57617204186E+03  0.10100000352E+00 0. -1.
       -3    1    3    3    0  502 -0.97694932879E+02 -0.10172744103E+03  0.10533744624E+03  0.17603624613E+03  0.10100000352E+00 0.  1.
</event>
<event>
 5   0  0.2406307E-03  0.6040412E+03  0.7818609E-02  0.9897057E-01
       -2   -1    0    0    0  501  0.00000000000E+00  0.00000000000E+00  0.10169152781E+03  0.10169152784E+03  0.25500000920E-02 0. -1.
        2   -1    0    0  501    0  0.00000000000E+00  0.00000000000E+00 -0.89699169782E+03  0.89699169782E+03  0.25500000920E-02 0.  1.
    10030    2    1    2    0    0  0.00000000000E+00  0.00000000000E+00 -0.79530017001E+03  0.99868322566E+03  0.60404124429E+03 0.  0.
        5    1    3    3  502    0 -0.42940872012E+01 -0.31454336155E+02 -0.89416471869E+03  0.89474043644E+03  0.46999998093E+01 0.  1.
       -5    1    3    3    0  502  0.42940872012E+01  0.31454336155E+02  0.98864548681E+02  0.10394278923E+03  0.46999998093E+01 0. -1.
</event>
<event>
 5   0  0.1392854E-03  0.6007381E+03  0.7818609E-02  0.9903876E-01
        1   -1    0    0  501    0  0.00000000000E+00  0.00000000000E+00  0.61420184635E+03  0.61420184637E+03  0.50400001928E-02 0. -1.
       -1   -1    0    0    0  501  0.00000000000E+00  0.00000000000E+00 -0.14689238661E+03  0.14689238670E+03  0.50400001928E-02 0.  1.
    10030    2    1    2    0    0  0.00000000000E+00  0.00000000000E+00  0.46730945974E+03  0.76109423307E+03  0.60073812968E+03 0.  0.
        4    1    3    3  502    0  0.84615600453E+02 -0.17143200399E+02  0.59813995881E+03  0.60433989806E+03  0.12699999809E+01 0. -1.
       -4    1    3    3    0  502 -0.84615600453E+02  0.17143200399E+02 -0.13083049907E+03  0.15675433502E+03  0.12699999809E+01 0.  1.
</event>
<event>
 5   0  0.2421210E-03  0.5995793E+03  0.7818609E-02  0.9906279E-01
       -2   -1    0    0    0  501  0.00000000000E+00  0.00000000000E+00  0.93665567823E+03  0.93665567823E+03  0.25500000920E-02 0.  1.
        2   -1    0    0  501    0  0.00000000000E+00  0.00000000000E+00 -0.95951839656E+02  0.95951839690E+02  0.25500000920E-02 0. -1.
    10030    2    1    2    0    0  0.00000000000E+00  0.00000000000E+00  0.84070383857E+03  0.10326075179E+04  0.59957930408E+03 0.  0.
        1    1    3    3  502    0 -0.23280611926E+03 -0.13277317489E+03  0.18899403545E+03  0.32794229766E+03  0.50400001928E-02 0.  1.
       -1    1    3    3    0  502  0.23280611926E+03  0.13277317489E+03  0.65170980313E+03  0.70466522027E+03  0.50400001928E-02 0. -1.
</event>
<event>
 5   0  0.9496750E-04  0.6001635E+03  0.7818609E-02  0.9905067E-01
       -3   -1    0    0    0  501  0.00000000000E+00  0.00000000000E+00  0.27560041731E+03  0.27560043582E+03  0.10100000352E+00 0.  1.
        3   -1    0    0  501    0  0.00000000000E+00  0.00000000000E+00 -0.32673767509E+03  0.32673769070E+03  0.10100000352E+00 0. -1.
    10030    2    1    2    0    0  0.00000000000E+00  0.00000000000E+00 -0.51137257773E+02  0.60233812651E+03  0.60016347733E+03 0.  0.
        2    1    3    3  502    0  0.86246641554E+02 -0.15275677809E+03 -0.26991730568E+03  0.32191375917E+03  0.25500000920E-02 0. -1.
       -2    1    3    3    0  502 -0.86246641554E+02  0.15275677809E+03  0.21878004791E+03  0.28042436734E+03  0.25500000920E-02 0.  1.
</event>
<event>
 5   0  0.2313168E-03  0.5999500E+03  0.7818609E-02  0.9905510E-01
       -2   -1    0    0    0  501  0.00000000000E+00  0.00000000000E+00  0.70537554311E+03  0.70537554312E+03  0.25500000920E-02 0.  1.
        2   -1    0    0  501    0  0.00000000000E+00  0.00000000000E+00 -0.12757034111E+03  0.12757034113E+03  0.25500000920E-02 0. -1.
    10030    2    1    2    0    0  0.00000000000E+00  0.00000000000E+00  0.57780520200E+03  0.83294588425E+03  0.59994999344E+03 0.  0.
        2    1    3    3  502    0  0.32378468763E+02 -0.94362256249E+02 -0.10386408885E+03  0.14401510199E+03  0.25500000920E-02 0. -1.
       -2    1    3    3    0  502 -0.32378468763E+02  0.94362256249E+02  0.68166929085E+03  0.68893078226E+03  0.25500000920E-02 0.  1.
</event>
<event>
 5   0  0.1418763E-03  0.6014071E+03  0.7818609E-02  0.9902491E-01
       -1   -1    0    0    0  501  0.00000000000E+00  0.00000000000E+00  0.80170663360E+03  0.80170663361E+03  0.50400001928E-02 0. -1.
        1   -1    0    0  501    0  0.00000000000E+00  0.00000000000E+00 -0.11278768897E+03  0.11278768908E+03  0.50400001928E-02 0.  1.
    10030    2    1    2    0    0  0.00000000000E+00  0.00000000000E+00  0.68891894463E+03  0.91449432270E+03  0.60140714493E+03 0.  0.
        5    1    3    3  502    0  0.34801626725E+01 -0.12866585272E+03  0.75763944464E+03  0.76850935666E+03  0.46999998093E+01 0. -1.
       -5    1    3    3    0  502 -0.34801626725E+01  0.12866585272E+03 -0.68720500019E+02  0.14598496604E+03  0.46999998093E+01 0.  1.
</event>
<event>
 5   0  0.2324616E-03  0.5993624E+03  0.7818609E-02  0.9906730E-01
       -2   -1    0    0    0  501  0.00000000000E+00  0.00000000000E+00  0.55299718545E+02  0.55299718604E+02  0.25500000920E-02 0.  1.
        2   -1    0    0  501    0  0.00000000000E+00  0.00000000000E+00 -0.16240375443E+04  0.16240375443E+04  0.25500000920E-02 0. -1.
    10030    2    1    2    0    0  0.00000000000E+00  0.00000000000E+00 -0.15687378258E+04  0.16793372629E+04  0.59936239174E+03 0.  0.
        4    1    3    3  502    0 -0.56835789670E+02 -0.24403061872E+03 -0.12449848622E+04  0.12699488848E+04  0.12699999809E+01 0. -1.
       -4    1    3    3    0  502  0.56835789670E+02  0.24403061872E+03 -0.32375296356E+03  0.40938837816E+03  0.12699999809E+01 0.  1.
</event>
<event>
 5   0  0.2406307E-03  0.5998685E+03  0.7818609E-02  0.9905679E-01
        2   -1    0    0  501    0  0.00000000000E+00  0.00000000000E+00  0.80006799152E+03  0.80006799152E+03  0.25500000920E-02 0.  1.
       -2   -1    0    0    0  501  0.00000000000E+00  0.00000000000E+00 -0.11244113339E+03  0.11244113342E+03  0.25500000920E-02 0. -1.
    10030    2    1    2    0    0  0.00000000000E+00  0.00000000000E+00  0.68762685813E+03  0.91250912494E+03  0.59986849149E+03 0.  0.
        5    1    3    3  502    0 -0.15639622015E+03  0.72060021183E+02 -0.29685649367E+02  0.17480203690E+03  0.46999998093E+01 0. -1.
       -5    1    3    3    0  502  0.15639622015E+03 -0.72060021183E+02  0.71731250750E+03  0.73770708804E+03  0.46999998093E+01 0.  1.
</event>
<event>
 5   0  0.1392854E-03  0.6001100E+03  0.7818609E-02  0.9905178E-01
        1   -1    0    0  501    0  0.00000000000E+00  0.00000000000E+00  0.12269286315E+03  0.12269286326E+03  0.50400001928E-02 0. -1.
       -1   -1    0    0    0  501  0.00000000000E+00  0.00000000000E+00 -0.73380810104E+03  0.73380810106E+03  0.50400001928E-02 0.  1.
    10030    2    1    2    0    0  0.00000000000E+00  0.00000000000E+00 -0.61111523789E+03  0.85650096431E+03  0.60011004649E+03 0.  0.
        4    1    3    3  502    0 -0.29899523839E+03  0.25164487114E+02 -0.30557058242E+03  0.42825973163E+03  0.12699999809E+01 0. -1.
       -4    1    3    3    0  502  0.29899523839E+03 -0.25164487114E+02 -0.30554465546E+03  0.42824123269E+03  0.12699999809E+01 0.  1.
</event>
<event>
 5   0  0.2346281E-03  0.6000559E+03  0.7818609E-02  0.9905290E-01
       -2   -1    0    0    0  501  0.00000000000E+00  0.00000000000E+00  0.46918582099E+03  0.46918582099E+03  0.25500000920E-02 0. -1.
        2   -1    0    0  501    0  0.00000000000E+00  0.00000000000E+00 -0.19185737948E+03  0.19185737950E+03  0.25500000920E-02 0.  1.
    10030    2    1    2    0    0  0.00000000000E+00  0.00000000000E+00  0.27732844151E+03  0.66104320049E+03  0.60005587110E+03 0.  0.
        3    1    3    3  502    0  0.18999014981E+03 -0.11439113822E+03 -0.83951226421E+02  0.23712740910E+03  0.10100000352E+00 0.  1.
       -3    1    3    3    0  502 -0.18999014981E+03  0.11439113822E+03  0.36127966793E+03  0.42391579139E+03  0.10100000352E+00 0. -1.
</event>
<event>
 5   0  0.1418763E-03  0.5998429E+03  0.7818609E-02  0.9905732E-01
        1   -1    0    0  501    0  0.00000000000E+00  0.00000000000E+00  0.94450577997E+03  0.94450577998E+03  0.50400001928E-02 0. -1.
       -1   -1    0    0    0  501  0.00000000000E+00  0.00000000000E+00 -0.95238050049E+02  0.95238050182E+02  0.50400001928E-02 0.  1.
    10030    2    1    2    0    0  0.00000000000E+00  0.00000000000E+00  0.84926772992E+03  0.10397438302E+04  0.59984294218E+03 0.  0.
        5    1    3    3  502    0  0.12097310345E+03  0.24121150933E+03  0.65138834107E+03  0.70508605494E+03  0.46999998093E+01 0. -1.
       -5    1    3    3    0  502 -0.12097310345E+03 -0.24121150933E+03  0.19787938885E+03  0.33465777523E+03  0.46999998093E+01 0.  1.
</event>
<event>
 5   0  0.1423430E-03  0.5997732E+03  0.7818609E-02  0.9905877E-01
        1   -1    0    0  501    0  0.00000000000E+00  0.00000000000E+00  0.30915414098E+03  0.30915414102E+03  0.50400001928E-02 0. -1.
       -1   -1    0    0    0  501  0.00000000000E+00  0.00000000000E+00 -0.29089690633E+03  0.29089690638E+03  0.50400001928E-02 0.  1.
    10030    2    1    2    0    0  0.00000000000E+00  0.00000000000E+00  0.18257234647E+02  0.60005104740E+03  0.59977323454E+03 0.  0.
        1    1    3    3  502    0  0.83813984158E+02  0.14263692751E+03 -0.24111102082E+03  0.29241169849E+03  0.50400001928E-02 0.  1.
       -1    1    3    3    0  502 -0.83813984158E+02 -0.14263692751E+03  0.25936825547E+03  0.30763934891E+03  0.50400001928E-02 0. -1.
</event>
<event>
 5   0  0.1479385E-03  0.6001462E+03  0.7818609E-02  0.9905103E-01
        1   -1    0    0  501    0  0.00000000000E+00  0.00000000000E+00  0.60693082243E+03  0.60693082246E+03  0.50400001928E-02 0.  1.
       -1   -1    0    0    0  501  0.00000000000E+00  0.00000000000E+00 -0.14835936985E+03  0.14835936993E+03  0.50400001928E-02 0. -1.
    10030    2    1    2    0    0  0.00000000000E+00  0.00000000000E+00  0.45857145259E+03  0.75529019239E+03  0.60014623017E+03 0.  0.
        3    1    3    3  502    0 -0.14253325536E+03 -0.18142690201E+03  0.47075057371E+03  0.52424952314E+03  0.10100000352E+00 0.  1.
       -3    1    3    3    0  502  0.14253325536E+03  0.18142690201E+03 -0.12179121126E+02  0.23104066925E+03  0.10100000352E+00 0. -1.
</event>
<event>
 5   0  0.1392854E-03  0.5999844E+03  0.7818609E-02  0.9905438E-01
       -1   -1    0    0    0  501  0.00000000000E+00  0.00000000000E+00  0.11515164032E+03  0.11515164043E+03  0.50400001928E-02 0.  1.
        1   -1    0    0  501    0  0.00000000000E+00  0.00000000000E+00 -0.78153737591E+03  0.78153737592E+03  0.50400001928E-02 0. -1.
    10030    2    1    2    0    0  0.00000000000E+00  0.00000000000E+00 -0.66638573559E+03  0.89668901635E+03  0.59998436934E+03 0.  0.
        4    1    3    3  502    0 -0.25109161019E+03 -0.13693099361E+03 -0.46849944156E+03  0.54889929255E+03  0.12699999809E+01 0. -1.
       -4    1    3    3    0  502  0.25109161019E+03  0.13693099361E+03 -0.19788629403E+03  0.34778972380E+03  0.12699999809E+01 0.  1.
</event>
<event>
 5   0  0.2346281E-03  0.5998114E+03  0.7818609E-02  0.9905797E-01
        2   -1    0    0  501    0  0.00000000000E+00  0.00000000000E+00  0.43341173601E+03  0.43341173602E+03  0.25500000920E-02 0. -1.
       -2   -1    0    0    0  501  0.00000000000E+00  0.00000000000E+00 -0.20752419097E+03  0.20752419098E+03  0.25500000920E-02 0.  1.
    10030    2    1    2    0    0  0.00000000000E+00  0.00000000000E+00  0.22588754505E+03  0.64093592700E+03  0.59981136995E+03 0.  0.
        3    1    3    3  502    0 -0.29687895077E+03  0.55382758673E+01  0.67916499928E+02  0.30459882645E+03  0.10100000352E+00 0.  1.
       -3    1    3    3    0  502  0.29687895077E+03 -0.55382758673E+01  0.15797104512E+03  0.33633710055E+03  0.10100000352E+00 0. -1.
</event>
<event>
 5   0  0.1418763E-03  0.6003421E+03  0.7818609E-02  0.9904697E-01
        1   -1    0    0  501    0  0.00000000000E+00  0.00000000000E+00  0.21016158334E+03  0.21016158340E+03  0.50400001928E-02 0. -1.
       -1   -1    0    0    0  501  0.00000000000E+00  0.00000000000E+00 -0.42873033978E+03  0.42873033981E+03  0.50400001928E-02 0.  1.
    10030    2    1    2    0    0  0.00000000000E+00  0.00000000000E+00 -0.21856875644E+03  0.63889192322E+03  0.60034205938E+03 0.  0.
        5    1    3    3  502    0 -0.94759079027E+02  0.28381941586E+03 -0.13419272311E+03  0.32796725570E+03  0.46999998093E+01 0. -1.
       -5    1    3    3    0  502  0.94759079027E+02 -0.28381941586E+03 -0.84376033334E+02  0.31092466752E+03  0.46999998093E+01 0.  1.
</event>
<event>
 5   0  0.2346281E-03  0.5980578E+03  0.7818609E-02  0.9909444E-01
        2   -1    0    0  501    0  0.00000000000E+00  0.00000000000E+00  0.74880343452E+02  0.74880343495E+02  0.25500000920E-02 0.  1.
       -2   -1    0    0    0  501  0.00000000000E+00  0.00000000000E+00 -0.11941489276E+04  0.11941489276E+04  0.25500000920E-02 0. -1.
    10030    2    1    2    0    0  0.00000000000E+00  0.00000000000E+00 -0.11192685841E+04  0.12690292711E+04  0.59805779607E+03 0.  0.
        3    1    3    3  502    0  0.21858256084E+03 -0.19252403884E+03 -0.41611939389E+03  0.50793621805E+03  0.10100000352E+00 0.  1.
       -3    1    3    3    0  502 -0.21858256084E+03  0.19252403884E+03 -0.70314919024E+03  0.76109305303E+03  0.10100000352E+00 0. -1.
</event>
<event>
 5   0  0.2406307E-03  0.5997321E+03  0.7818609E-02  0.9905962E-01
       -2   -1    0    0    0  501  0.00000000000E+00  0.00000000000E+00  0.66572615923E+02  0.66572615972E+02  0.25500000920E-02 0.  1.
        2   -1    0    0  501    0  0.00000000000E+00  0.00000000000E+00 -0.13507003683E+04  0.13507003683E+04  0.25500000920E-02 0. -1.
    10030    2    1    2    0    0  0.00000000000E+00  0.00000000000E+00 -0.12841277524E+04  0.14172729843E+04  0.59973212981E+03 0.  0.
        5    1    3    3  502    0 -0.27565138618E+03  0.10296450037E+03 -0.77806858162E+03  0.83186428145E+03  0.46999998093E+01 0. -1.
       -5    1    3    3    0  502  0.27565138618E+03 -0.10296450037E+03 -0.50605917075E+03  0.58540870282E+03  0.46999998093E+01 0.  1.
</event>
<event>
 5   0  0.1416315E-03  0.6004682E+03  0.7818609E-02  0.9904435E-01
        1   -1    0    0  501    0  0.00000000000E+00  0.00000000000E+00  0.59776798658E+03  0.59776798660E+03  0.50400001928E-02 0. -1.
       -1   -1    0    0    0  501  0.00000000000E+00  0.00000000000E+00 -0.15079516973E+03  0.15079516981E+03  0.50400001928E-02 0.  1.
    10030    2    1    2    0    0  0.00000000000E+00  0.00000000000E+00  0.44697281685E+03  0.74856315642E+03  0.60046823408E+03 0.  0.
        2    1    3    3  502    0 -0.23776851940E+03  0.17835533430E+01  0.45200971892E+03  0.51073460416E+03  0.25500000920E-02 0. -1.
       -2    1    3    3    0  502  0.23776851940E+03 -0.17835533430E+01 -0.50369020712E+01  0.23782855226E+03  0.25500000920E-02 0.  1.
</event>
<event>
 5   0  0.1392854E-03  0.6000013E+03  0.7818609E-02  0.9905403E-01
        1   -1    0    0  501    0  0.00000000000E+00  0.00000000000E+00  0.49195130703E+03  0.49195130705E+03  0.50400001928E-02 0.  1.
       -1   -1    0    0    0  501  0.00000000000E+00  0.00000000000E+00 -0.18294570542E+03  0.18294570549E+03  0.50400001928E-02 0. -1.
    10030    2    1    2    0    0  0.00000000000E+00  0.00000000000E+00  0.30900560161E+03  0.67489701254E+03  0.60000126309E+03 0.  0.
        4    1    3    3  502    0  0.45470077625E+02 -0.96372043891E+02 -0.16093752999E+03  0.19302227919E+03  0.12699999809E+01 0. -1.
       -4    1    3    3    0  502 -0.45470077625E+02  0.96372043891E+02  0.46994313160E+03  0.48187473335E+03  0.12699999809E+01 0.  1.
</event>
<event>
 5   0  0.2313168E-03  0.5994618E+03  0.7818609E-02  0.9906523E-01
       -2   -1    0    0    0  501  0.00000000000E+00  0.00000000000E+00  0.10407500903E+03  0.10407500906E+03  0.25500000920E-02 0.  1.
        2   -1    0    0  501    0  0.00000000000E+00  0.00000000000E+00 -0.86321033519E+03  0.86321033519E+03  0.25500000920E-02 0. -1.
    10030    2    1    2    0    0  0.00000000000E+00  0.00000000000E+00 -0.75913532616E+03  0.96728534425E+03  0.59946183680E+03 0.  0.
        2    1    3    3  502    0 -0.25559030883E+03  0.23683743331E+01 -0.12696689196E+03  0.28539903087E+03  0.25500000920E-02 0.  1.
       -2    1    3    3    0  502  0.25559030883E+03 -0.23683743331E+01 -0.63216843421E+03  0.68188631338E+03  0.25500000920E-02 0. -1.
</event>
<event>
 5   0  0.2346281E-03  0.5998525E+03  0.7818609E-02  0.9905712E-01
       -2   -1    0    0    0  501  0.00000000000E+00  0.00000000000E+00  0.96252282581E+02  0.96252282615E+02  0.25500000920E-02 0.  1.
        2   -1    0    0  501    0  0.00000000000E+00  0.00000000000E+00 -0.93458315841E+03  0.93458315841E+03  0.25500000920E-02 0. -1.
    10030    2    1    2    0    0  0.00000000000E+00  0.00000000000E+00 -0.83833087583E+03  0.10308354410E+04  0.59985252280E+03 0.  0.
        3    1    3    3  502    0 -0.14684416186E+03  0.25163512480E+03 -0.29677494956E+03  0.41588318647E+03  0.10100000352E+00 0.  1.
       -3    1    3    3    0  502  0.14684416186E+03 -0.25163512480E+03 -0.54155592627E+03  0.61495225455E+03  0.10100000352E+00 0. -1.
</event>
<event>
 5   0  0.1423430E-03  0.5993607E+03  0.7818609E-02  0.9906733E-01
        1   -1    0    0  501    0  0.00000000000E+00  0.00000000000E+00  0.32923355210E+03  0.32923355214E+03  0.50400001928E-02 0. -1.
       -1   -1    0    0    0  501  0.00000000000E+00  0.00000000000E+00 -0.27277996375E+03  0.27277996380E+03  0.50400001928E-02 0.  1.
    10030    2    1    2    0    0  0.00000000000E+00  0.00000000000E+00  0.56453588351E+02  0.60201351593E+03  0.59936071420E+03 0.  0.
        1    1    3    3  502    0 -0.10189988701E+03 -0.74389967590E+02  0.30125865913E+03  0.32661021720E+03  0.50400001928E-02 0. -1.
       -1    1    3    3    0  502  0.10189988701E+03  0.74389967590E+02 -0.24480507078E+03  0.27540329874E+03  0.50400001928E-02 0.  1.
</event>
<event>
 5   0  0.2406307E-03  0.5999809E+03  0.7818609E-02  0.9905446E-01
       -2   -1    0    0    0  501  0.00000000000E+00  0.00000000000E+00  0.34125348081E+03  0.34125348082E+03  0.25500000920E-02 0.  1.
        2   -1    0    0  501    0  0.00000000000E+00  0.00000000000E+00 -0.26371680617E+03  0.26371680618E+03  0.25500000920E-02 0. -1.
    10030    2    1    2    0    0  0.00000000000E+00  0.00000000000E+00  0.77536674641E+02  0.60497028700E+03  0.59998092657E+03 0.  0.
        5    1    3    3  502    0  0.53025887738E+02  0.22942562993E+03  0.22612070678E+03  0.32649736365E+03  0.46999998093E+01 0.  1.
       -5    1    3    3    0  502 -0.53025887738E+02 -0.22942562993E+03 -0.14858403214E+03  0.27847292335E+03  0.46999998093E+01 0. -1.
</event>
<event>
 5   0  0.1392854E-03  0.6000001E+03  0.7818609E-02  0.9905406E-01
        1   -1    0    0  501    0  0.00000000000E+00  0.00000000000E+00  0.18511385337E+03  0.18511385344E+03  0.50400001928E-02 0. -1.
       -1   -1    0    0    0  501  0.00000000000E+00  0.00000000000E+00 -0.48618739663E+03  0.48618739665E+03  0.50400001928E-02 0.  1.
    10030    2    1    2    0    0  0.00000000000E+00  0.00000000000E+00 -0.30107354326E+03  0.67130125009E+03  0.60000007494E+03 0.  0.
        4    1    3    3  502    0  0.19521088209E+03  0.13326480117E+03  0.56165173356E+02  0.24294636304E+03  0.12699999809E+01 0. -1.
       -4    1    3    3    0  502 -0.19521088209E+03 -0.13326480117E+03 -0.35723871661E+03  0.42835488705E+03  0.12699999809E+01 0.  1.
</event>
<event>
 5   0  0.9496750E-04  0.5999529E+03  0.7818609E-02  0.9905504E-01
        3   -1    0    0  501    0  0.00000000000E+00  0.00000000000E+00  0.22781055578E+03  0.22781057817E+03  0.10100000352E+00 0.  1.
       -3   -1    0    0    0  501  0.00000000000E+00  0.00000000000E+00 -0.39500305881E+03  0.39500307172E+03  0.10100000352E+00 0. -1.
    10030    2    1    2    0    0  0.00000000000E+00  0.00000000000E+00 -0.16719250303E+03  0.62281364989E+03  0.59995292267E+03 0.  0.
        5    1    3    3  502    0  0.20502881558E+03  0.78880053107E+02 -0.29559560656E+03  0.36831743186E+03  0.46999998093E+01 0. -1.
       -5    1    3    3    0  502 -0.20502881558E+03 -0.78880053107E+02  0.12840310353E+03  0.25449621803E+03  0.46999998093E+01 0.  1.
</event>
<event>
 5   0  0.1418763E-03  0.5998901E+03  0.7818609E-02  0.9905634E-01
        1   -1    0    0  501    0  0.00000000000E+00  0.00000000000E+00  0.70173155506E+03  0.70173155508E+03  0.50400001928E-02 0.  1.
       -1   -1    0    0    0  501  0.00000000000E+00  0.00000000000E+00 -0.12820717864E+03  0.12820717874E+03  0.50400001928E-02 0. -1.
    10030    2    1    2    0    0  0.00000000000E+00  0.00000000000E+00  0.57352437643E+03  0.82993873382E+03  0.59989006621E+03 0.  0.
        5    1    3    3  502    0 -0.17047196571E+03  0.59525659845E+02 -0.44526615427E+02  0.18603414942E+03  0.46999998093E+01 0. -1.
       -5    1    3    3    0  502  0.17047196571E+03 -0.59525659845E+02  0.61805099185E+03  0.64390458439E+03  0.46999998093E+01 0.  1.
</event>
<event>
 5   0  0.2313168E-03  0.5995627E+03  0.7818609E-02  0.9906314E-01
        2   -1    0    0  501    0  0.00000000000E+00  0.00000000000E+00  0.12235864460E+04  0.12235864460E+04  0.25500000920E-02 0. -1.
       -2   -1    0    0    0  501  0.00000000000E+00  0.00000000000E+00 -0.73447075852E+02  0.73447075896E+02  0.25500000920E-02 0.  1.
    10030    2    1    2    0    0  0.00000000000E+00  0.00000000000E+00  0.11501393701E+04  0.12970335219E+04  0.59956266241E+03 0.  0.
        2    1    3    3  502    0  0.28716670911E+03 -0.40543320695E+02  0.73925779087E+03  0.79410991749E+03  0.25500000920E-02 0. -1.
       -2    1    3    3    0  502 -0.28716670911E+03  0.40543320695E+02  0.41088157924E+03  0.50292360438E+03  0.25500000920E-02 0.  1.
</event>
<event>
 5   0  0.1423430E-03  0.6001779E+03  0.7818609E-02  0.9905037E-01
       -1   -1    0    0    0  501  0.00000000000E+00  0.00000000000E+00  0.35657696029E+03  0.35657696032E+03  0.50400001928E-02 0.  1.
        1   -1    0    0  501    0  0.00000000000E+00  0.00000000000E+00 -0.25254959568E+03  0.25254959573E+03  0.50400001928E-02 0. -1.
    10030    2    1    2    0    0  0.00000000000E+00  0.00000000000E+00  0.10402736460E+03  0.60912655605E+03  0.60017786422E+03 0.  0.
        1    1    3    3  502    0 -0.39634360972E+02 -0.29389926764E+03  0.54415276626E+01  0.29660962954E+03  0.50400001928E-02 0. -1.
       -1    1    3    3    0  502  0.39634360972E+02  0.29389926764E+03  0.98585836940E+02  0.31251692651E+03  0.50400001928E-02 0.  1.
</event>
<event>
 5   0  0.1416315E-03  0.5998549E+03  0.7818609E-02  0.9905707E-01
       -1   -1    0    0    0  501  0.00000000000E+00  0.00000000000E+00  0.21286822546E+03  0.21286822552E+03  0.50400001928E-02 0.  1.
        1   -1    0    0  501    0  0.00000000000E+00  0.00000000000E+00 -0.42259228307E+03  0.42259228310E+03  0.50400001928E-02 0. -1.
    10030    2    1    2    0    0  0.00000000000E+00  0.00000000000E+00 -0.20972405761E+03  0.63546050862E+03  0.59985488051E+03 0.  0.
        2    1    3    3  502    0 -0.84612098036E+02 -0.86071455900E+02 -0.39573024324E+03  0.41372687618E+03  0.25500000920E-02 0. -1.
       -2    1    3    3    0  502  0.84612098036E+02  0.86071455900E+02  0.18600618563E+03  0.22173363244E+03  0.25500000920E-02 0.  1.
</event>
<event>
 5   0  0.2406307E-03  0.5998851E+03  0.7818609E-02  0.9905645E-01
       -2   -1    0    0    0  501  0.00000000000E+00  0.00000000000E+00  0.18507204466E+03  0.18507204467E+03  0.25500000920E-02 0. -1.
        2   -1    0    0  501    0  0.00000000000E+00  0.00000000000E+00 -0.48611080999E+03  0.48611081000E+03  0.25500000920E-02 0.  1.
    10030    2    1    2    0    0  0.00000000000E+00  0.00000000000E+00 -0.30103876533E+03  0.67118285467E+03  0.59988506080E+03 0.  0.
        5    1    3    3  502    0 -0.87701883438E+02  0.51101797982E+02 -0.46626662857E+03  0.47721030273E+03  0.46999998093E+01 0.  1.
       -5    1    3    3    0  502  0.87701883438E+02 -0.51101797982E+02  0.16522786324E+03  0.19397255194E+03  0.46999998093E+01 0. -1.
</event>
<event>
 5   0  0.2324616E-03  0.6003847E+03  0.7818609E-02  0.9904608E-01
       -2   -1    0    0    0  501  0.00000000000E+00  0.00000000000E+00  0.21298416636E+03  0.21298416637E+03  0.25500000920E-02 0.  1.
        2   -1    0    0  501    0  0.00000000000E+00  0.00000000000E+00 -0.42310871846E+03  0.42310871846E+03  0.25500000920E-02 0. -1.
    10030    2    1    2    0    0  0.00000000000E+00  0.00000000000E+00 -0.21012455210E+03  0.63609288484E+03  0.60038473560E+03 0.  0.
        4    1    3    3  502    0 -0.11879143958E+03 -0.69241999256E+02  0.17765688375E+03  0.22465404920E+03  0.12699999809E+01 0.  1.
       -4    1    3    3    0  502  0.11879143958E+03  0.69241999256E+02 -0.38778143585E+03  0.41143883563E+03  0.12699999809E+01 0. -1.
</event>
<event>
 5   0  0.1416315E-03  0.5998612E+03  0.7818609E-02  0.9905694E-01
       -1   -1    0    0    0  501  0.00000000000E+00  0.00000000000E+00  0.22225061964E+03  0.22225061970E+03  0.50400001928E-02 0.  1.
        1   -1    0    0  501    0  0.00000000000E+00  0.00000000000E+00 -0.40476093991E+03  0.40476093994E+03  0.50400001928E-02 0. -1.
    10030    2    1    2    0    0  0.00000000000E+00  0.00000000000E+00 -0.18251032027E+03  0.62701155964E+03  0.59986121638E+03 0.  0.
        2    1    3    3  502    0  0.26441902276E+03 -0.11505926999E+03 -0.17746426146E+03  0.33859949692E+03  0.25500000920E-02 0.  1.
       -2    1    3    3    0  502 -0.26441902276E+03  0.11505926999E+03 -0.50460588049E+01  0.28841206273E+03  0.25500000920E-02 0. -1.
</event>
<event>
 5   0  0.1479385E-03  0.5999355E+03  0.7818609E-02  0.9905540E-01
       -1   -1    0    0    0  501  0.00000000000E+00  0.00000000000E+00  0.38268129916E+03  0.38268129920E+03  0.50400001928E-02 0. -1.
        1   -1    0    0  501    0  0.00000000000E+00  0.00000000000E+00 -0.23513210695E+03  0.23513210700E+03  0.50400001928E-02 0.  1.
    10030    2    1    2    0    0  0.00000000000E+00  0.00000000000E+00  0.14754919221E+03  0.61781340620E+03  0.59993553050E+03 0.  0.
        3    1    3    3  502    0  0.72831228348E+02  0.16851799035E+03 -0.17052450886E+03  0.25056200673E+03  0.10100000352E+00 0.  1.
       -3    1    3    3    0  502 -0.72831228348E+02 -0.16851799035E+03  0.31807370108E+03  0.36725139947E+03  0.10100000352E+00 0. -1.
</event>
<event>
 5   0  0.1416315E-03  0.5997360E+03  0.7818609E-02  0.9905954E-01
       -1   -1    0    0    0  501  0.00000000000E+00  0.00000000000E+00  0.23001541904E+03  0.23001541910E+03  0.50400001928E-02 0.  1.
        1   -1    0    0  501    0  0.00000000000E+00  0.00000000000E+00 -0.39093387080E+03  0.39093387083E+03  0.50400001928E-02 0. -1.
    10030    2    1    2    0    0  0.00000000000E+00  0.00000000000E+00 -0.16091845176E+03  0.62094928993E+03  0.59973600238E+03 0.  0.
        2    1    3    3  502    0  0.23128464266E+03  0.24574926576E+02 -0.27642710943E+03  0.36125954629E+03  0.25500000920E-02 0. -1.
       -2    1    3    3    0  502 -0.23128464266E+03 -0.24574926576E+02  0.11550865768E+03  0.25968974364E+03  0.25500000920E-02 0.  1.
</event>
<event>
 5   0  0.2346281E-03  0.6001082E+03  0.7818609E-02  0.9905182E-01
       -2   -1    0    0    0  501  0.00000000000E+00  0.00000000000E+00  0.11525605766E+03  0.11525605769E+03  0.25500000920E-02 0. -1.
        2   -1    0    0  501    0  0.00000000000E+00  0.00000000000E+00 -0.78115173407E+03  0.78115173408E+03  0.25500000920E-02 0.  1.
    10030    2    1    2    0    0  0.00000000000E+00  0.00000000000E+00 -0.66589567642E+03  0.89640779176E+03  0.60010822129E+03 0.  0.
        3    1    3    3  502    0  0.26707717322E+03 -0.13470231579E+03 -0.36821818197E+03  0.47440443723E+03  0.10100000352E+00 0.  1.
       -3    1    3    3    0  502 -0.26707717322E+03  0.13470231579E+03 -0.29767749445E+03  0.42200335453E+03  0.10100000352E+00 0. -1.
</event>
<event>
 5   0  0.1418763E-03  0.5993724E+03  0.7818609E-02  0.9906709E-01
        1   -1    0    0  501    0  0.00000000000E+00  0.00000000000E+00  0.80422213875E+03  0.80422213876E+03  0.50400001928E-02 0.  1.
       -1   -1    0    0    0  501  0.00000000000E+00  0.00000000000E+00 -0.11167540249E+03  0.11167540260E+03  0.50400001928E-02 0. -1.
    10030    2    1    2    0    0  0.00000000000E+00  0.00000000000E+00  0.69254673626E+03  0.91589754137E+03  0.59937244212E+03 0.  0.
        5    1    3    3  502    0  0.13116206391E+02  0.34886659817E+02  0.80061004296E+03  0.80149088878E+03  0.46999998093E+01 0.  1.
       -5    1    3    3    0  502 -0.13116206391E+02 -0.34886659817E+02 -0.10806330670E+03  0.11440665259E+03  0.46999998093E+01 0. -1.
</event>
<event>
 5   0  0.1392854E-03  0.6003098E+03  0.7818609E-02  0.9904763E-01
        1   -1    0    0  501    0  0.00000000000E+00  0.00000000000E+00  0.84713622569E+03  0.84713622570E+03  0.50400001928E-02 0.  1.
       -1   -1    0    0    0  501  0.00000000000E+00  0.00000000000E+00 -0.10635003675E+03  0.10635003687E+03  0.50400001928E-02 0. -1.
    10030    2    1    2    0    0  0.00000000000E+00  0.00000000000E+00  0.74078618894E+03  0.95348626258E+03  0.60030981601E+03 0.  0.
        4    1    3    3  502    0  0.12438231190E+03  0.21850706000E+03  0.63077675358E+03  0.67904139826E+03  0.12699999809E+01 0.  1.
       -4    1    3    3    0  502 -0.12438231190E+03 -0.21850706000E+03  0.11000943535E+03  0.27444486432E+03  0.12699999809E+01 0. -1.
</event>
<event>
 5   0  0.1423430E-03  0.6000816E+03  0.7818609E-02  0.9905237E-01
       -1   -1    0    0    0  501  0.00000000000E+00  0.00000000000E+00  0.33454712846E+02  0.33454713226E+02  0.50400001928E-02 0.  1.
        1   -1    0    0  501    0  0.00000000000E+00  0.00000000000E+00 -0.26909353921E+04  0.26909353921E+04  0.50400001928E-02 0. -1.
    10030    2    1    2    0    0  0.00000000000E+00  0.00000000000E+00 -0.26574806792E+04  0.27243901053E+04  0.60008156563E+03 0.  0.
        1    1    3    3  502    0 -0.28381417864E+03  0.29989824784E+02 -0.90833736044E+03  0.95211692453E+03  0.50400001928E-02 0.  1.
       -1    1    3    3    0  502  0.28381417864E+03 -0.29989824784E+02 -0.17491433188E+04  0.17722731808E+04  0.50400001928E-02 0. -1.
</event>
<event>
 5   0  0.2421210E-03  0.6000834E+03  0.7818609E-02  0.9905233E-01
       -2   -1    0    0    0  501  0.00000000000E+00  0.00000000000E+00  0.10433019712E+03  0.10433019715E+03  0.25500000920E-02 0. -1.
        2   -1    0    0  501    0  0.00000000000E+00  0.00000000000E+00 -0.86288567848E+03  0.86288567849E+03  0.25500000920E-02 0.  1.
    10030    2    1    2    0    0  0.00000000000E+00  0.00000000000E+00 -0.75855548137E+03  0.96721587563E+03  0.60008343734E+03 0.  0.
        1    1    3    3  502    0 -0.43790007924E+02 -0.67006058836E+02 -0.84535806688E+03  0.84913935133E+03  0.50400001928E-02 0.  1.
       -1    1    3    3    0  502  0.43790007924E+02  0.67006058836E+02  0.86802585513E+02  0.11807652430E+03  0.50400001928E-02 0. -1.
</event>
<event>
 5   0  0.1423430E-03  0.6000167E+03  0.7818609E-02  0.9905371E-01
        1   -1    0    0  501    0  0.00000000000E+00  0.00000000000E+00  0.96348841776E+03  0.96348841777E+03  0.50400001928E-02 0. -1.
       -1   -1    0    0    0  501  0.00000000000E+00  0.00000000000E+00 -0.93415757009E+02  0.93415757145E+02  0.50400001928E-02 0.  1.
    10030    2    1    2    0    0  0.00000000000E+00  0.00000000000E+00  0.87007266075E+03  0.10569041749E+04  0.60001666641E+03 0.  0.
        1    1    3    3  502    0 -0.15149701386E+03  0.22715866760E+03  0.21607218637E+03  0.34819476622E+03  0.50400001928E-02 0.  1.
       -1    1    3    3    0  502  0.15149701386E+03 -0.22715866760E+03  0.65400047438E+03  0.70870940870E+03  0.50400001928E-02 0. -1.
</event>
<event>
 5   0  0.2346281E-03  0.6002111E+03  0.7818609E-02  0.9904968E-01
       -2   -1    0    0    0  501  0.00000000000E+00  0.00000000000E+00  0.52768399812E+03  0.52768399812E+03  0.25500000920E-02 0.  1.
        2   -1    0    0  501    0  0.00000000000E+00  0.00000000000E+00 -0.17067667505E+03  0.17067667507E+03  0.25500000920E-02 0. -1.
    10030    2    1    2    0    0  0.00000000000E+00  0.00000000000E+00  0.35700732306E+03  0.69836067319E+03  0.60021113047E+03 0.  0.
        3    1    3    3  502    0 -0.12627295466E+03 -0.26567869993E+03  0.10934181732E+03  0.31382427230E+03  0.10100000352E+00 0. -1.
       -3    1    3    3    0  502  0.12627295466E+03  0.26567869993E+03  0.24766550575E+03  0.38453640089E+03  0.10100000352E+00 0.  1.
</event>
<event>
 5   0  0.2346281E-03  0.6003373E+03  0.7818609E-02  0.9904706E-01
        2   -1    0    0  501    0  0.00000000000E+00  0.00000000000E+00  0.14434643406E+04  0.14434643406E+04  0.25500000920E-02 0.  1.
       -2   -1    0    0    0  501  0.00000000000E+00  0.00000000000E+00 -0.62420124172E+02  0.62420124224E+02  0.25500000920E-02 0. -1.
    10030    2    1    2    0    0  0.00000000000E+00  0.00000000000E+00  0.13810442164E+04  0.15058844648E+04  0.60033731658E+03 0.  0.
        3    1    3    3  502    0  0.12001585140E+03 -0.21870330840E+03  0.27179049954E+03  0.36892414875E+03  0.10100000352E+00 0. -1.
       -3    1    3    3    0  502 -0.12001585140E+03  0.21870330840E+03  0.11092537169E+04  0.11369603161E+04  0.10100000352E+00 0.  1.
</event>
<event>
 5   0  0.2324616E-03  0.6011043E+03  0.7818609E-02  0.9903118E-01
       -2   -1    0    0    0  501  0.00000000000E+00  0.00000000000E+00  0.82449717980E+02  0.82449718020E+02  0.25500000920E-02 0.  1.
        2   -1    0    0  501    0  0.00000000000E+00  0.00000000000E+00 -0.10955960099E+04  0.10955960099E+04  0.25500000920E-02 0. -1.
    10030    2    1    2    0    0  0.00000000000E+00  0.00000000000E+00 -0.10131462919E+04  0.11780457279E+04  0.60110425739E+03 0.  0.
        4    1    3    3  502    0 -0.17136763993E+03  0.24062243811E+03 -0.61505390511E+03  0.68231880000E+03  0.12699999809E+01 0. -1.
       -4    1    3    3    0  502  0.17136763993E+03 -0.24062243811E+03 -0.39809238683E+03  0.49572692795E+03  0.12699999809E+01 0.  1.
</event>
<event>
 5   0  0.1479385E-03  0.6001451E+03  0.7818609E-02  0.9905105E-01
       -1   -1    0    0    0  501  0.00000000000E+00  0.00000000000E+00  0.24678714845E+03  0.24678714850E+03  0.50400001928E-02 0.  1.
        1   -1    0    0  501    0  0.00000000000E+00  0.00000000000E+00 -0.36486317707E+03  0.36486317710E+03  0.50400001928E-02 0. -1.
    10030    2    1    2    0    0  0.00000000000E+00  0.00000000000E+00 -0.11807602862E+03  0.61165032560E+03  0.60014512601E+03 0.  0.
        3    1    3    3  502    0  0.46118197189E+02  0.18239068876E+03 -0.29729362090E+03  0.35181921307E+03  0.10100000352E+00 0. -1.
       -3    1    3    3    0  502 -0.46118197189E+02 -0.18239068876E+03  0.17921759228E+03  0.25983111253E+03  0.10100000352E+00 0.  1.
</event>
<event>
 5   0  0.2324616E-03  0.5999571E+03  0.7818609E-02  0.9905495E-01
        2   -1    0    0  501    0  0.00000000000E+00  0.00000000000E+00  0.11705851297E+04  0.11705851297E+04  0.25500000920E-02 0. -1.
       -2   -1    0    0    0  501  0.00000000000E+00  0.00000000000E+00 -0.76873632590E+02  0.76873632632E+02  0.25500000920E-02 0.  1.
    10030    2    1    2    0    0  0.00000000000E+00  0.00000000000E+00  0.10937114971E+04  0.12474587623E+04  0.59995710248E+03 0.  0.
        4    1    3    3  502    0  0.27127883307E+03  0.48122368839E+02  0.30015552208E+03  0.40743455670E+03  0.12699999809E+01 0.  1.
       -4    1    3    3    0  502 -0.27127883307E+03 -0.48122368839E+02  0.79355597503E+03  0.84002420564E+03  0.12699999809E+01 0. -1.
</event>
<event>
 5   0  0.1418763E-03  0.5974455E+03  0.7818609E-02  0.9910720E-01
       -1   -1    0    0    0  501  0.00000000000E+00  0.00000000000E+00  0.68381855043E+02  0.68381855228E+02  0.50400001928E-02 0.  1.
        1   -1    0    0  501    0  0.00000000000E+00  0.00000000000E+00 -0.13049556614E+04  0.13049556615E+04  0.50400001928E-02 0. -1.
    10030    2    1    2    0    0  0.00000000000E+00  0.00000000000E+00 -0.12365738064E+04  0.13733375167E+04  0.59744552559E+03 0.  0.
        5    1    3    3  502    0  0.27724670626E+03 -0.11084756255E+03 -0.63613403108E+03  0.70273858137E+03  0.46999998093E+01 0.  1.
       -5    1    3    3    0  502 -0.27724670626E+03  0.11084756255E+03 -0.60043977532E+03  0.67059893531E+03  0.46999998093E+01 0. -1.
</event>
<event>
 5   0  0.2421210E-03  0.6000276E+03  0.7818609E-02  0.9905349E-01
       -2   -1    0    0    0  501  0.00000000000E+00  0.00000000000E+00  0.93564159122E+03  0.93564159122E+03  0.25500000920E-02 0. -1.
        2   -1    0    0  501    0  0.00000000000E+00  0.00000000000E+00 -0.96199515173E+02  0.96199515207E+02  0.25500000920E-02 0.  1.
    10030    2    1    2    0    0  0.00000000000E+00  0.00000000000E+00  0.83944207604E+03  0.10318411064E+04  0.60002755760E+03 0.  0.
        1    1    3    3  502    0  0.79060740823E+02 -0.15579210475E+03  0.29944164208E+00  0.17470509532E+03  0.50400001928E-02 0.  1.
       -1    1    3    3    0  502 -0.79060740823E+02  0.15579210475E+03  0.83914263440E+03  0.85713601111E+03  0.50400001928E-02 0. -1.
</event>
<event>
 5   0  0.1416315E-03  0.5998854E+03  0.7818609E-02  0.9905644E-01
        1   -1    0    0  501    0  0.00000000000E+00  0.00000000000E+00  0.11778759004E+04  0.11778759004E+04  0.50400001928E-02 0. -1.
       -1   -1    0    0    0  501  0.00000000000E+00  0.00000000000E+00 -0.76379539508E+02  0.76379539674E+02  0.50400001928E-02 0.  1.
    10030    2    1    2    0    0  0.00000000000E+00  0.00000000000E+00  0.11014963609E+04  0.12542554401E+04  0.59988538566E+03 0.  0.
        2    1    3    3  502    0  0.56593892636E+02  0.10276944631E+03 -0.26414965205E+02  0.12025879665E+03  0.25500000920E-02 0.  1.
       -2    1    3    3    0  502 -0.56593892636E+02 -0.10276944631E+03  0.11279113261E+04  0.11339966435E+04  0.25500000920E-02 0. -1.
</event>
<event>
 5   0  0.2406307E-03  0.6036833E+03  0.7818609E-02  0.9897794E-01
        2   -1    0    0  501    0  0.00000000000E+00  0.00000000000E+00  0.44622990386E+03  0.44622990387E+03  0.25500000920E-02 0. -1.
       -2   -1    0    0    0  501  0.00000000000E+00  0.00000000000E+00 -0.20417362043E+03  0.20417362045E+03  0.25500000920E-02 0.  1.
    10030    2    1    2    0    0  0.00000000000E+00  0.00000000000E+00  0.24205628343E+03  0.65040352432E+03  0.60368327796E+03 0.  0.
        5    1    3    3  502    0 -0.15860127605E+03  0.17076535708E+03  0.32762662460E+03  0.40209012309E+03  0.46999998093E+01 0. -1.
       -5    1    3    3    0  502  0.15860127605E+03 -0.17076535708E+03 -0.85570341166E+02  0.24831340122E+03  0.46999998093E+01 0.  1.
</event>
<event>
 5   0  0.1479385E-03  0.5999317E+03  0.7818609E-02  0.9905548E-01
        1   -1    0    0  501    0  0.00000000000E+00  0.00000000000E+00  0.37938131628E+03  0.37938131631E+03  0.50400001928E-02 0.  1.
       -1   -1    0    0    0  501  0.00000000000E+00  0.00000000000E+00 -0.23717436714E+03  0.23717436719E+03  0.50400001928E-02 0. -1.
    10030    2    1    2    0    0  0.00000000000E+00  0.00000000000E+00  0.14220694914E+03  0.61655568350E+03  0.59993174151E+03 0.  0.
        3    1    3    3  502    0  0.13982770976E+03 -0.75497009063E+02 -0.19036318169E+03  0.24797124418E+03  0.10100000352E+00 0. -1.
       -3    1    3    3    0  502 -0.13982770976E+03  0.75497009063E+02  0.33257013083E+03  0.36858443933E+03  0.10100000352E+00 0.  1.
</event>
<event>
 5   0  0.1423430E-03  0.6002918E+03  0.7818609E-02  0.9904801E-01
        1   -1    0    0  501    0  0.00000000000E+00  0.00000000000E+00  0.12263474357E+04  0.12263474357E+04  0.50400001928E-02 0. -1.
       -1   -1    0    0    0  501  0.00000000000E+00  0.00000000000E+00 -0.73460052413E+02  0.73460052586E+02  0.50400001928E-02 0.  1.
    10030    2    1    2    0    0  0.00000000000E+00  0.00000000000E+00  0.11528873833E+04  0.12998074883E+04  0.60029175247E+03 0.  0.
        1    1    3    3  502    0  0.14659738655E+03  0.25270395863E+03  0.42740825204E+03  0.51771410874E+03  0.50400001928E-02 0. -1.
       -1    1    3    3    0  502 -0.14659738655E+03 -0.25270395863E+03  0.72547913121E+03  0.78209337953E+03  0.50400001928E-02 0.  1.
</event>
<event>
 5   0  0.9496750E-04  0.5997768E+03  0.7818609E-02  0.9905869E-01
        3   -1    0    0  501    0  0.00000000000E+00  0.00000000000E+00  0.83298626369E+03  0.83298626982E+03  0.10100000352E+00 0. -1.
       -3   -1    0    0    0  501  0.00000000000E+00  0.00000000000E+00 -0.10796459789E+03  0.10796464514E+03  0.10100000352E+00 0.  1.
    10030    2    1    2    0    0  0.00000000000E+00  0.00000000000E+00  0.72502166580E+03  0.94095091495E+03  0.59977679888E+03 0.  0.
        3    1    3    3  502    0 -0.84569626153E+02  0.13770211271E+03  0.75883705665E+03  0.77585280966E+03  0.10100000352E+00 0. -1.
       -3    1    3    3    0  502  0.84569626153E+02 -0.13770211271E+03 -0.33815390848E+02  0.16509810529E+03  0.10100000352E+00 0.  1.
</event>
<event>
 5   0  0.1418763E-03  0.6000183E+03  0.7818609E-02  0.9905368E-01
       -1   -1    0    0    0  501  0.00000000000E+00  0.00000000000E+00  0.17986442081E+03  0.17986442088E+03  0.50400001928E-02 0.  1.
        1   -1    0    0  501    0  0.00000000000E+00  0.00000000000E+00 -0.50040740720E+03  0.50040740722E+03  0.50400001928E-02 0. -1.
    10030    2    1    2    0    0  0.00000000000E+00  0.00000000000E+00 -0.32054298639E+03  0.68027182811E+03  0.60001829472E+03 0.  0.
        5    1    3    3  502    0 -0.63989894902E+02 -0.28991445376E+03 -0.11166141195E+03  0.31723092231E+03  0.46999998093E+01 0.  1.
       -5    1    3    3    0  502  0.63989894902E+02  0.28991445376E+03 -0.20888157444E+03  0.36304090580E+03  0.46999998093E+01 0. -1.
</event>
<event>
 5   0  0.1423430E-03  0.6000599E+03  0.7818609E-02  0.9905282E-01
        1   -1    0    0  501    0  0.00000000000E+00  0.00000000000E+00  0.84050513644E+03  0.84050513645E+03  0.50400001928E-02 0. -1.
       -1   -1    0    0    0  501  0.00000000000E+00  0.00000000000E+00 -0.10709983204E+03  0.10709983216E+03  0.50400001928E-02 0.  1.
    10030    2    1    2    0    0  0.00000000000E+00  0.00000000000E+00  0.73340530440E+03  0.94760496861E+03  0.60005986036E+03 0.  0.
        1    1    3    3  502    0  0.16193102127E+03  0.23945465835E+03  0.23979902470E+03  0.37558455949E+03  0.50400001928E-02 0.  1.
       -1    1    3    3    0  502 -0.16193102127E+03 -0.23945465835E+03  0.49360627970E+03  0.57202040912E+03  0.50400001928E-02 0. -1.
</event>
<event>
 5   0  0.1416315E-03  0.6000248E+03  0.7818609E-02  0.9905355E-01
        1   -1    0    0  501    0  0.00000000000E+00  0.00000000000E+00  0.53856328651E+03  0.53856328654E+03  0.50400001928E-02 0. -1.
       -1   -1    0    0    0  501  0.00000000000E+00  0.00000000000E+00 -0.16712506763E+03  0.16712506770E+03  0.50400001928E-02 0.  1.
    10030    2    1    2    0    0  0.00000000000E+00  0.00000000000E+00  0.37143821889E+03  0.70568835424E+03  0.60002475187E+03 0.  0.
        2    1    3    3  502    0  0.22225081989E+03  0.17895948774E+03  0.29469403817E+03  0.41020300016E+03  0.25500000920E-02 0. -1.
       -2    1    3    3    0  502 -0.22225081989E+03 -0.17895948774E+03  0.76744180715E+02  0.29548535408E+03  0.25500000920E-02 0.  1.
</event>
<event>
 5   0  0.1479385E-03  0.5996985E+03  0.7818609E-02  0.9906032E-01
        1   -1    0    0  501    0  0.00000000000E+00  0.00000000000E+00  0.21358525622E+03  0.21358525628E+03  0.50400001928E-02 0.  1.
       -1   -1    0    0    0  501  0.00000000000E+00  0.00000000000E+00 -0.42095399152E+03  0.42095399155E+03  0.50400001928E-02 0. -1.
    10030    2    1    2    0    0  0.00000000000E+00  0.00000000000E+00 -0.20736873530E+03  0.63453924784E+03  0.59969847812E+03 0.  0.
        3    1    3    3  502    0 -0.28589384998E+03 -0.82443598223E+02 -0.14295268381E+03  0.33010259065E+03  0.10100000352E+00 0. -1.
       -3    1    3    3    0  502  0.28589384998E+03  0.82443598223E+02 -0.64416051487E+02  0.30443665718E+03  0.10100000352E+00 0.  1.
</event>
<event>
 5   0  0.2406307E-03  0.5997429E+03  0.7818609E-02  0.9905940E-01
       -2   -1    0    0    0  501  0.00000000000E+00  0.00000000000E+00  0.65368636162E+02  0.65368636212E+02  0.25500000920E-02 0. -1.
        2   -1    0    0  501    0  0.00000000000E+00  0.00000000000E+00 -0.13756272152E+04  0.13756272152E+04  0.25500000920E-02 0.  1.
    10030    2    1    2    0    0  0.00000000000E+00  0.00000000000E+00 -0.13102585791E+04  0.14409958514E+04  0.59974286145E+03 0.  0.
        5    1    3    3  502    0  0.21688730426E+03 -0.10589529758E+03 -0.10825573323E+04  0.11091466921E+04  0.46999998093E+01 0.  1.
       -5    1    3    3    0  502 -0.21688730426E+03  0.10589529758E+03 -0.22770124673E+03  0.33184915934E+03  0.46999998093E+01 0. -1.
</event>
<event>
 5   0  0.1418763E-03  0.6020017E+03  0.7818609E-02  0.9901262E-01
        1   -1    0    0  501    0  0.00000000000E+00  0.00000000000E+00  0.15330878770E+04  0.15330878770E+04  0.50400001928E-02 0. -1.
       -1   -1    0    0    0  501  0.00000000000E+00  0.00000000000E+00 -0.59097395772E+02  0.59097395987E+02  0.50400001928E-02 0.  1.
    10030    2    1    2    0    0  0.00000000000E+00  0.00000000000E+00  0.14739904812E+04  0.15921852730E+04  0.60200166510E+03 0.  0.
        5    1    3    3  502    0  0.36562138050E+02  0.24133307334E+03  0.12026709065E+04  0.12271991858E+04  0.46999998093E+01 0. -1.
       -5    1    3    3    0  502 -0.36562138050E+02 -0.24133307334E+03  0.27131957468E+03  0.36498608717E+03  0.46999998093E+01 0.  1.
</event>
<event>
 5   0  0.2421210E-03  0.6005548E+03  0.7818609E-02  0.9904256E-01
        2   -1    0    0  501    0  0.00000000000E+00  0.00000000000E+00  0.66059696988E+03  0.66059696988E+03  0.25500000920E-02 0. -1.
       -2   -1    0    0    0  501  0.00000000000E+00  0.00000000000E+00 -0.13649247379E+03  0.13649247381E+03  0.25500000920E-02 0.  1.
    10030    2    1    2    0    0  0.00000000000E+00  0.00000000000E+00  0.52410449609E+03  0.79708944370E+03  0.60055479219E+03 0.  0.
        1    1    3    3  502    0 -0.11385551102E+03 -0.10665072775E+03  0.60258841693E+03  0.62245502276E+03  0.50400001928E-02 0. -1.
       -1    1    3    3    0  502  0.11385551102E+03  0.10665072775E+03 -0.78483920839E+02  0.17463442093E+03  0.50400001928E-02 0.  1.
</event>
<event>
 5   0  0.1423430E-03  0.5995310E+03  0.7818609E-02  0.9906379E-01
       -1   -1    0    0    0  501  0.00000000000E+00  0.00000000000E+00  0.92105062753E+03  0.92105062754E+03  0.50400001928E-02 0.  1.
        1   -1    0    0  501    0  0.00000000000E+00  0.00000000000E+00 -0.97561807079E+02  0.97561807209E+02  0.50400001928E-02 0. -1.
    10030    2    1    2    0    0  0.00000000000E+00  0.00000000000E+00  0.82348882045E+03  0.10186124348E+04  0.59953102908E+03 0.  0.
        1    1    3    3  502    0  0.10681365939E+03  0.87009482809E+02 -0.40588099106E+02  0.14362173145E+03  0.50400001928E-02 0. -1.
       -1    1    3    3    0  502 -0.10681365939E+03 -0.87009482809E+02  0.86407691956E+03  0.87499070330E+03  0.50400001928E-02 0.  1.
</event>
<event>
 5   0  0.2324616E-03  0.6000477E+03  0.7818609E-02  0.9905307E-01
        2   -1    0    0  501    0  0.00000000000E+00  0.00000000000E+00  0.17855304173E+04  0.17855304173E+04  0.25500000920E-02 0.  1.
       -2   -1    0    0    0  501  0.00000000000E+00  0.00000000000E+00 -0.50413207320E+02  0.50413207385E+02  0.25500000920E-02 0. -1.
    10030    2    1    2    0    0  0.00000000000E+00  0.00000000000E+00  0.17351172100E+04  0.18359436247E+04  0.60004771533E+03 0.  0.
        4    1    3    3  502    0  0.37791069467E+02 -0.60394741419E+02 -0.24148127732E+02  0.75235860435E+02  0.12699999809E+01 0. -1.
       -4    1    3    3    0  502 -0.37791069467E+02  0.60394741419E+02  0.17592653378E+04  0.17607077643E+04  0.12699999809E+01 0.  1.
</event>
<event>
 5   0  0.2346281E-03  0.5999595E+03  0.7818609E-02  0.9905490E-01
        2   -1    0    0  501    0  0.00000000000E+00  0.00000000000E+00  0.59830210910E+03  0.59830210911E+03  0.25500000920E-02 0.  1.
       -2   -1    0    0    0  501  0.00000000000E+00  0.00000000000E+00 -0.15040538686E+03  0.15040538688E+03  0.25500000920E-02 0. -1.
    10030    2    1    2    0    0  0.00000000000E+00  0.00000000000E+00  0.44789672224E+03  0.74870749599E+03  0.59995953260E+03 0.  0.
        3    1    3    3  502    0 -0.12828526044E+03 -0.52075662531E+02 -0.10814845451E+03  0.17568460686E+03  0.10100000352E+00 0. -1.
       -3    1    3    3    0  502  0.12828526044E+03  0.52075662531E+02  0.55604517675E+03  0.57302288913E+03  0.10100000352E+00 0.  1.
</event>
<event>
 5   0  0.1423430E-03  0.5998893E+03  0.7818609E-02  0.9905636E-01
       -1   -1    0    0    0  501  0.00000000000E+00  0.00000000000E+00  0.15535560946E+03  0.15535560954E+03  0.50400001928E-02 0. -1.
        1   -1    0    0  501    0  0.00000000000E+00  0.00000000000E+00 -0.57910229440E+03  0.57910229442E+03  0.50400001928E-02 0.  1.
    10030    2    1    2    0    0  0.00000000000E+00  0.00000000000E+00 -0.42374668494E+03  0.73445790397E+03  0.59988928954E+03 0.  0.
        1    1    3    3  502    0  0.24314548176E+03  0.56726344269E+01 -0.42679297148E+03  0.49122718228E+03  0.50400001928E-02 0.  1.
       -1    1    3    3    0  502 -0.24314548176E+03 -0.56726344269E+01  0.30462865383E+01  0.24323072168E+03  0.50400001928E-02 0. -1.
</event>
<event>
 5   0  0.1418763E-03  0.6000816E+03  0.7818609E-02  0.9905237E-01
       -1   -1    0    0    0  501  0.00000000000E+00  0.00000000000E+00  0.16011330899E+03  0.16011330907E+03  0.50400001928E-02 0. -1.
        1   -1    0    0  501    0  0.00000000000E+00  0.00000000000E+00 -0.56225474214E+03  0.56225474216E+03  0.50400001928E-02 0.  1.
    10030    2    1    2    0    0  0.00000000000E+00  0.00000000000E+00 -0.40214143315E+03  0.72236805123E+03  0.60008155211E+03 0.  0.
        5    1    3    3  502    0  0.59327063611E+02  0.95933663753E+02 -0.53571248766E+03  0.54747870073E+03  0.46999998093E+01 0.  1.
       -5    1    3    3    0  502 -0.59327063611E+02 -0.95933663753E+02  0.13357105451E+03  0.17488935050E+03  0.46999998093E+01 0. -1.
</event>
<event>
 5   0  0.1418763E-03  0.5998946E+03  0.7818609E-02  0.9905625E-01
       -1   -1    0    0    0  501  0.00000000000E+00  0.00000000000E+00  0.19122201722E+03  0.19122201728E+03  0.50400001928E-02 0.  1.
        1   -1    0    0  501    0  0.00000000000E+00  0.00000000000E+00 -0.47049180329E+03  0.47049180332E+03  0.50400001928E-02 0. -1.
    10030    2    1    2    0    0  0.00000000000E+00  0.00000000000E+00 -0.27926978607E+03  0.66171382060E+03  0.59989462989E+03 0.  0.
        5    1    3    3  502    0  0.78752023089E+02 -0.10204311110E+03  0.15906900005E+03  0.20479188079E+03  0.46999998093E+01 0.  1.
       -5    1    3    3    0  502 -0.78752023089E+02  0.10204311110E+03 -0.43833878612E+03  0.45692193981E+03  0.46999998093E+01 0. -1.
</event>
<event>
 5   0  0.1416315E-03  0.5998775E+03  0.7818609E-02  0.9905660E-01
       -1   -1    0    0    0  501  0.00000000000E+00  0.00000000000E+00  0.56567484994E+02  0.56567485218E+02  0.50400001928E-02 0.  1.
        1   -1    0    0  501    0  0.00000000000E+00  0.00000000000E+00 -0.15903705790E+04  0.15903705790E+04  0.50400001928E-02 0. -1.
    10030    2    1    2    0    0  0.00000000000E+00  0.00000000000E+00 -0.15338030940E+04  0.16469380642E+04  0.59987753435E+03 0.  0.
        2    1    3    3  502    0 -0.11834053171E+03 -0.22472404965E+03 -0.12049537028E+04  0.12314295781E+04  0.25500000920E-02 0. -1.
       -2    1    3    3    0  502  0.11834053171E+03  0.22472404965E+03 -0.32884939124E+03  0.41550848615E+03  0.25500000920E-02 0.  1.
</event>
<event>
 5   0  0.2346281E-03  0.5999706E+03  0.7818609E-02  0.9905467E-01
       -2   -1    0    0    0  501  0.00000000000E+00  0.00000000000E+00  0.53303478293E+03  0.53303478293E+03  0.25500000920E-02 0. -1.
        2   -1    0    0  501    0  0.00000000000E+00  0.00000000000E+00 -0.16882797892E+03  0.16882797894E+03  0.25500000920E-02 0.  1.
    10030    2    1    2    0    0  0.00000000000E+00  0.00000000000E+00  0.36420680401E+03  0.70186276187E+03  0.59997061629E+03 0.  0.
        3    1    3    3  502    0 -0.74473872378E+02  0.27985112558E+03  0.90526186135E+02  0.30341063055E+03  0.10100000352E+00 0.  1.
       -3    1    3    3    0  502  0.74473872378E+02 -0.27985112558E+03  0.27368061788E+03  0.39845213132E+03  0.10100000352E+00 0. -1.
</event>
<event>
 5   0  0.2313168E-03  0.6000413E+03  0.7818609E-02  0.9905320E-01
        2   -1    0    0  501    0  0.00000000000E+00  0.00000000000E+00  0.10951196890E+03  0.10951196893E+03  0.25500000920E-02 0. -1.
       -2   -1    0    0    0  501  0.00000000000E+00  0.00000000000E+00 -0.82194122750E+03  0.82194122750E+03  0.25500000920E-02 0.  1.
    10030    2    1    2    0    0  0.00000000000E+00  0.00000000000E+00 -0.71242925860E+03  0.93145319643E+03  0.60004133910E+03 0.  0.
        2    1    3    3  502    0  0.14460869844E+03 -0.23739792435E+02  0.50175248674E+02  0.15489612324E+03  0.25500000920E-02 0. -1.
       -2    1    3    3    0  502 -0.14460869844E+03  0.23739792435E+02 -0.76260450727E+03  0.77655707319E+03  0.25500000920E-02 0.  1.
</event>
<event>
 5   0  0.2346281E-03  0.5998530E+03  0.7818609E-02  0.9905711E-01
        2   -1    0    0  501    0  0.00000000000E+00  0.00000000000E+00  0.78376127357E+03  0.78376127357E+03  0.25500000920E-02 0. -1.
       -2   -1    0    0    0  501  0.00000000000E+00  0.00000000000E+00 -0.11477462576E+03  0.11477462579E+03  0.25500000920E-02 0.  1.
    10030    2    1    2    0    0  0.00000000000E+00  0.00000000000E+00  0.66898664781E+03  0.89853589937E+03  0.59985300491E+03 0.  0.
        3    1    3    3  502    0 -0.26365140191E+02 -0.23736656020E+03  0.62720139226E+02  0.24692474680E+03  0.10100000352E+00 0.  1.
       -3    1    3    3    0  502  0.26365140191E+02  0.23736656020E+03  0.60626650858E+03  0.65161115256E+03  0.10100000352E+00 0. -1.
</event>
<event>
 5   0  0.2313168E-03  0.5998298E+03  0.7818609E-02  0.9905759E-01
        2   -1    0    0  501    0  0.00000000000E+00  0.00000000000E+00  0.60498527640E+02  0.60498527694E+02  0.25500000920E-02 0. -1.
       -2   -1    0    0    0  501  0.00000000000E+00  0.00000000000E+00 -0.14867954984E+04  0.14867954984E+04  0.25500000920E-02 0.  1.
    10030    2    1    2    0    0  0.00000000000E+00  0.00000000000E+00 -0.14262969707E+04  0.15472940261E+04  0.59982977117E+03 0.  0.
        2    1    3    3  502    0  0.56740449957E+02 -0.22525487990E+03 -0.12025146505E+04  0.12247451671E+04  0.25500000920E-02 0.  1.
       -2    1    3    3    0  502 -0.56740449957E+02  0.22525487990E+03 -0.22378232019E+03  0.32254885896E+03  0.25500000920E-02 0. -1.
</event>
<event>
 5   0  0.2346281E-03  0.6002125E+03  0.7818609E-02  0.9904965E-01
        2   -1    0    0  501    0  0.00000000000E+00  0.00000000000E+00  0.64056185751E+03  0.64056185752E+03  0.25500000920E-02 0. -1.
       -2   -1    0    0    0  501  0.00000000000E+00  0.00000000000E+00 -0.14060118695E+03  0.14060118697E+03  0.25500000920E-02 0.  1.
    10030    2    1    2    0    0  0.00000000000E+00  0.00000000000E+00  0.49996067056E+03  0.78116304449E+03  0.60021248735E+03 0.  0.
        3    1    3    3  502    0 -0.53948142065E+02  0.16109683541E+03 -0.71990453436E+02  0.18451349002E+03  0.10100000352E+00 0.  1.
       -3    1    3    3    0  502  0.53948142065E+02 -0.16109683541E+03  0.57195112400E+03  0.59664955447E+03  0.10100000352E+00 0. -1.
</event>
<event>
 5   0  0.2406307E-03  0.6001813E+03  0.7818609E-02  0.9905030E-01
       -2   -1    0    0    0  501  0.00000000000E+00  0.00000000000E+00  0.87314941633E+02  0.87314941671E+02  0.25500000920E-02 0.  1.
        2   -1    0    0  501    0  0.00000000000E+00  0.00000000000E+00 -0.10313744493E+04  0.10313744493E+04  0.25500000920E-02 0. -1.
    10030    2    1    2    0    0  0.00000000000E+00  0.00000000000E+00 -0.94405950765E+03  0.11186893910E+04  0.60018130549E+03 0.  0.
        5    1    3    3  502    0  0.20217986253E+03 -0.88896898618E+02 -0.85060706676E+03  0.87882525420E+03  0.46999998093E+01 0. -1.
       -5    1    3    3    0  502 -0.20217986253E+03  0.88896898618E+02 -0.93452440888E+02  0.23986413676E+03  0.46999998093E+01 0.  1.
</event>
<event>
 5   0  0.2324616E-03  0.6001862E+03  0.7818609E-02  0.9905020E-01
        2   -1    0    0  501    0  0.00000000000E+00  0.00000000000E+00  0.22224065310E+04  0.22224065310E+04  0.25500000920E-02 0. -1.
       -2   -1    0    0    0  501  0.00000000000E+00  0.00000000000E+00 -0.40521784179E+02  0.40521784259E+02  0.25500000920E-02 0.  1.
    10030    2    1    2    0    0  0.00000000000E+00  0.00000000000E+00  0.21818847468E+04  0.22629283152E+04  0.60018623076E+03 0.  0.
        4    1    3    3  502    0 -0.11526134348E+03  0.23261273859E+03  0.16585112463E+04  0.16787063563E+04  0.12699999809E+01 0. -1.
       -4    1    3    3    0  502  0.11526134348E+03 -0.23261273859E+03  0.52337350044E+03  0.58422195895E+03  0.12699999809E+01 0.  1.
</event>
<event>
 5   0  0.2324616E-03  0.5998727E+03  0.7818609E-02  0.9905670E-01
       -2   -1    0    0    0  501  0.00000000000E+00  0.00000000000E+00  0.50519671924E+02  0.50519671988E+02  0.25500000920E-02 0. -1.
        2   -1    0    0  501    0  0.00000000000E+00  0.00000000000E+00 -0.17807286588E+04  0.17807286588E+04  0.25500000920E-02 0.  1.
    10030    2    1    2    0    0  0.00000000000E+00  0.00000000000E+00 -0.17302089869E+04  0.18312483308E+04  0.59987274546E+03 0.  0.
        4    1    3    3  502    0 -0.38860959978E+02  0.28138165816E+03 -0.57111548497E+03  0.63785603535E+03  0.12699999809E+01 0.  1.
       -4    1    3    3    0  502  0.38860959978E+02 -0.28138165816E+03 -0.11590935019E+04  0.11933922954E+04  0.12699999809E+01 0. -1.
</event>
<event>
 5   0  0.1423430E-03  0.5997530E+03  0.7818609E-02  0.9905919E-01
        1   -1    0    0  501    0  0.00000000000E+00  0.00000000000E+00  0.40377054870E+03  0.40377054873E+03  0.50400001928E-02 0.  1.
       -1   -1    0    0    0  501  0.00000000000E+00  0.00000000000E+00 -0.22271540019E+03  0.22271540025E+03  0.50400001928E-02 0. -1.
    10030    2    1    2    0    0  0.00000000000E+00  0.00000000000E+00  0.18105514851E+03  0.62648594898E+03  0.59975301373E+03 0.  0.
        1    1    3    3  502    0 -0.16349158857E+03 -0.10412231205E+03  0.32953854095E+03  0.38231741445E+03  0.50400001928E-02 0.  1.
       -1    1    3    3    0  502  0.16349158857E+03  0.10412231205E+03 -0.14848339244E+03  0.24416853453E+03  0.50400001928E-02 0. -1.
</event>
<event>
 5   0  0.2313168E-03  0.5999863E+03  0.7818609E-02  0.9905434E-01
       -2   -1    0    0    0  501  0.00000000000E+00  0.00000000000E+00  0.23842353301E+03  0.23842353302E+03  0.25500000920E-02 0.  1.
        2   -1    0    0  501    0  0.00000000000E+00  0.00000000000E+00 -0.37746228088E+03  0.37746228089E+03  0.25500000920E-02 0. -1.
    10030    2    1    2    0    0  0.00000000000E+00  0.00000000000E+00 -0.13903874787E+03  0.61588581391E+03  0.59998630182E+03 0.  0.
        2    1    3    3  502    0 -0.41603905983E+02  0.21002457198E+02  0.23468484367E+03  0.23926755747E+03  0.25500000920E-02 0.  1.
       -2    1    3    3    0  502  0.41603905983E+02 -0.21002457198E+02 -0.37372359155E+03  0.37661825644E+03  0.25500000920E-02 0. -1.
</event>
<event>
 5   0  0.1418763E-03  0.6000974E+03  0.7818609E-02  0.9905204E-01
        1   -1    0    0  501    0  0.00000000000E+00  0.00000000000E+00  0.16715133098E+03  0.16715133105E+03  0.50400001928E-02 0.  1.
       -1   -1    0    0    0  501  0.00000000000E+00  0.00000000000E+00 -0.53860910424E+03  0.53860910426E+03  0.50400001928E-02 0. -1.
    10030    2    1    2    0    0  0.00000000000E+00  0.00000000000E+00 -0.37145777326E+03  0.70576043532E+03  0.60009742104E+03 0.  0.
        5    1    3    3  502    0 -0.14767539911E+03  0.24966659587E+03 -0.95655664856E+02  0.30547263186E+03  0.46999998093E+01 0.  1.
       -5    1    3    3    0  502  0.14767539911E+03 -0.24966659587E+03 -0.27580210840E+03  0.40028780346E+03  0.46999998093E+01 0. -1.
</event>
<event>
 5   0  0.1392854E-03  0.6003668E+03  0.7818609E-02  0.9904645E-01
       -1   -1    0    0    0  501  0.00000000000E+00  0.00000000000E+00  0.24689927454E+03  0.24689927459E+03  0.50400001928E-02 0.  1.
        1   -1    0    0  501    0  0.00000000000E+00  0.00000000000E+00 -0.36496693035E+03  0.36496693038E+03  0.50400001928E-02 0. -1.
    10030    2    1    2    0    0  0.00000000000E+00  0.00000000000E+00 -0.11806765581E+03  0.61186620497E+03  0.60036678908E+03 0.  0.
        4    1    3    3  502    0  0.19462242460E+03  0.53700607154E+02 -0.28543014940E+03  0.34961925927E+03  0.12699999809E+01 0. -1.
       -4    1    3    3    0  502 -0.19462242460E+03 -0.53700607154E+02  0.16736249359E+03  0.26224694570E+03  0.12699999809E+01 0.  1.
</event>
<event>
 5   0  0.1418763E-03  0.5998734E+03  0.7818609E-02  0.9905669E-01
       -1   -1    0    0    0  501  0.00000000000E+00  0.00000000000E+00  0.37503146614E+03  0.37503146617E+03  0.50400001928E-02 0. -1.
        1   -1    0    0  501    0  0.00000000000E+00  0.00000000000E+00 -0.23987861528E+03  0.23987861533E+03  0.50400001928E-02 0.  1.
    10030    2    1    2    0    0  0.00000000000E+00  0.00000000000E+00  0.13515285086E+03  0.61491008150E+03  0.59987341601E+03 0.  0.
        5    1    3    3  502    0  0.45581651525E+02 -0.23634731806E+03 -0.11579932119E+03  0.26715035934E+03  0.46999998093E+01 0.  1.
       -5    1    3    3    0  502 -0.45581651525E+02  0.23634731806E+03  0.25095217204E+03  0.34775972216E+03  0.46999998093E+01 0. -1.
</event>
<event>
 5   0  0.2421210E-03  0.6002467E+03  0.7818609E-02  0.9904894E-01
       -2   -1    0    0    0  501  0.00000000000E+00  0.00000000000E+00  0.21202421834E+03  0.21202421835E+03  0.25500000920E-02 0. -1.
        2   -1    0    0  501    0  0.00000000000E+00  0.00000000000E+00 -0.42482895752E+03  0.42482895753E+03  0.25500000920E-02 0.  1.
    10030    2    1    2    0    0  0.00000000000E+00  0.00000000000E+00 -0.21280473918E+03  0.63685317588E+03  0.60024670812E+03 0.  0.
        1    1    3    3  502    0 -0.15598216084E+03  0.19878644008E+03 -0.27822815872E+03  0.37584224295E+03  0.50400001928E-02 0.  1.
       -1    1    3    3    0  502  0.15598216084E+03 -0.19878644008E+03  0.65423419533E+02  0.26101093293E+03  0.50400001928E-02 0. -1.
</event>
<event>
 5   0  0.2346281E-03  0.5994889E+03  0.7818609E-02  0.9906467E-01
       -2   -1    0    0    0  501  0.00000000000E+00  0.00000000000E+00  0.97603389340E+02  0.97603389373E+02  0.25500000920E-02 0. -1.
        2   -1    0    0  501    0  0.00000000000E+00  0.00000000000E+00 -0.92052886611E+03  0.92052886612E+03  0.25500000920E-02 0.  1.
    10030    2    1    2    0    0  0.00000000000E+00  0.00000000000E+00 -0.82292547677E+03  0.10181322555E+04  0.59948890677E+03 0.  0.
        3    1    3    3  502    0 -0.20783422872E+03  0.21587726955E+03 -0.42331036659E+03  0.51864220692E+03  0.10100000352E+00 0. -1.
       -3    1    3    3    0  502  0.20783422872E+03 -0.21587726955E+03 -0.39961511018E+03  0.49949004857E+03  0.10100000352E+00 0.  1.
</event>
<event>
 5   0  0.2406307E-03  0.6000506E+03  0.7818609E-02  0.9905301E-01
       -2   -1    0    0    0  501  0.00000000000E+00  0.00000000000E+00  0.43970305779E+03  0.43970305779E+03  0.25500000920E-02 0. -1.
        2   -1    0    0  501    0  0.00000000000E+00  0.00000000000E+00 -0.20471810790E+03  0.20471810792E+03  0.25500000920E-02 0.  1.
    10030    2    1    2    0    0  0.00000000000E+00  0.00000000000E+00  0.23498494988E+03  0.64442116571E+03  0.60005059132E+03 0.  0.
        5    1    3    3  502    0  0.13686745843E+03  0.73095863686E+01 -0.16908571871E+03  0.21771128014E+03  0.46999998093E+01 0.  1.
       -5    1    3    3    0  502 -0.13686745843E+03 -0.73095863686E+01  0.40407066859E+03  0.42670988557E+03  0.46999998093E+01 0. -1.
</event>
<event>
 5   0  0.1418763E-03  0.6001066E+03  0.7818609E-02  0.9905185E-01
       -1   -1    0    0    0  501  0.00000000000E+00  0.00000000000E+00  0.52126213058E+03  0.52126213061E+03  0.50400001928E-02 0.  1.
        1   -1    0    0  501    0  0.00000000000E+00  0.00000000000E+00 -0.17271920122E+03  0.17271920130E+03  0.50400001928E-02 0. -1.
    10030    2    1    2    0    0  0.00000000000E+00  0.00000000000E+00  0.34854292936E+03  0.69398133191E+03  0.60010658672E+03 0.  0.
        5    1    3    3  502    0  0.26136154309E+03  0.13768346324E+03  0.23484121419E+03  0.37741102015E+03  0.46999998093E+01 0. -1.
       -5    1    3    3    0  502 -0.26136154309E+03 -0.13768346324E+03  0.11370171517E+03  0.31657031176E+03  0.46999998093E+01 0.  1.
</event>
<event>
 5   0  0.2346281E-03  0.6006830E+03  0.7818609E-02  0.9903990E-01
        2   -1    0    0  501    0  0.00000000000E+00  0.00000000000E+00  0.35026269684E+03  0.35026269685E+03  0.25500000920E-02 0. -1.
       -2   -1    0    0    0  501  0.00000000000E+00  0.00000000000E+00 -0.25753528244E+03  0.25753528245E+03  0.25500000920E-02 0.  1.
    10030    2    1    2    0    0  0.00000000000E+00  0.00000000000E+00  0.92727414404E+02  0.60779797930E+03  0.60068295320E+03 0.  0.
        3    1    3    3  502    0 -0.70112706337E+02 -0.17014133536E+03 -0.19381068966E+03  0.26725729029E+03  0.10100000352E+00 0.  1.
       -3    1    3    3    0  502  0.70112706337E+02  0.17014133536E+03  0.28653810407E+03  0.34054068901E+03  0.10100000352E+00 0. -1.
</event>
<event>
 5   0  0.2324616E-03  0.6000261E+03  0.7818609E-02  0.9905352E-01
        2   -1    0    0  501    0  0.00000000000E+00  0.00000000000E+00  0.66611108610E+03  0.66611108611E+03  0.25500000920E-02 0. -1.
       -2   -1    0    0    0  501  0.00000000000E+00  0.00000000000E+00 -0.13512436363E+03  0.13512436365E+03  0.25500000920E-02 0.  1.
    10030    2    1    2    0    0  0.00000000000E+00  0.00000000000E+00  0.53098672247E+03  0.80123544976E+03  0.60002612152E+03 0.  0.
        4    1    3    3  502    0 -0.12871063498E+03  0.11041262965E+02  0.62706550795E+03  0.64023519210E+03  0.12699999809E+01 0. -1.
       -4    1    3    3    0  502  0.12871063498E+03 -0.11041262965E+02 -0.96078785481E+02  0.16100025765E+03  0.12699999809E+01 0.  1.
</event>
<event>
 5   0  0.2406307E-03  0.5997282E+03  0.7818609E-02  0.9905970E-01
       -2   -1    0    0    0  501  0.00000000000E+00  0.00000000000E+00  0.13084445830E+03  0.13084445833E+03  0.25500000920E-02 0. -1.
        2   -1    0    0  501    0  0.00000000000E+00  0.00000000000E+00 -0.68721651676E+03  0.68721651677E+03  0.25500000920E-02 0.  1.
    10030    2    1    2    0    0  0.00000000000E+00  0.00000000000E+00 -0.55637205846E+03  0.81806097509E+03  0.59972818137E+03 0.  0.
        5    1    3    3  502    0  0.10303024274E+02 -0.11315975715E+03  0.10028666998E+03  0.15162713848E+03  0.46999998093E+01 0. -1.
       -5    1    3    3    0  502 -0.10303024274E+02  0.11315975715E+03 -0.65665872845E+03  0.66643383662E+03  0.46999998093E+01 0.  1.
</event>
<event>
 5   0  0.1418763E-03  0.6001138E+03  0.7818609E-02  0.9905170E-01
        1   -1    0    0  501    0  0.00000000000E+00  0.00000000000E+00  0.92852434669E+03  0.92852434670E+03  0.50400001928E-02 0.  1.
       -1   -1    0    0    0  501  0.00000000000E+00  0.00000000000E+00 -0.96964764562E+02  0.96964764693E+02  0.50400001928E-02 0. -1.
    10030    2    1    2    0    0  0.00000000000E+00  0.00000000000E+00  0.83155958213E+03  0.10254891114E+04  0.60011380501E+03 0.  0.
        5    1    3    3  502    0 -0.17753333879E+03 -0.12144927570E+03  0.58377863929E+02  0.22293065726E+03  0.46999998093E+01 0. -1.
       -5    1    3    3    0  502  0.17753333879E+03  0.12144927570E+03  0.77318171820E+03  0.80255845414E+03  0.46999998093E+01 0.  1.
</event>
<event>
 5   0  0.2346281E-03  0.6000065E+03  0.7818609E-02  0.9905393E-01
       -2   -1    0    0    0  501  0.00000000000E+00  0.00000000000E+00  0.31664730644E+03  0.31664730645E+03  0.25500000920E-02 0. -1.
        2   -1    0    0  501    0  0.00000000000E+00  0.00000000000E+00 -0.28423402525E+03  0.28423402526E+03  0.25500000920E-02 0.  1.
    10030    2    1    2    0    0  0.00000000000E+00  0.00000000000E+00  0.32413281192E+02  0.60088133172E+03  0.60000646164E+03 0.  0.
        3    1    3    3  502    0  0.17890524368E+03 -0.19189084357E+03  0.16192738470E+03  0.30830126529E+03  0.10100000352E+00 0. -1.
       -3    1    3    3    0  502 -0.17890524368E+03  0.19189084357E+03 -0.12951410351E+03  0.29258006643E+03  0.10100000352E+00 0.  1.
</event>
<event>
 5   0  0.2421210E-03  0.5998607E+03  0.7818609E-02  0.9905695E-01
       -2   -1    0    0    0  501  0.00000000000E+00  0.00000000000E+00  0.10795111418E+03  0.10795111421E+03  0.25500000920E-02 0.  1.
        2   -1    0    0  501    0  0.00000000000E+00  0.00000000000E+00 -0.83332365590E+03  0.83332365590E+03  0.25500000920E-02 0. -1.
    10030    2    1    2    0    0  0.00000000000E+00  0.00000000000E+00 -0.72537254172E+03  0.94127477011E+03  0.59986070764E+03 0.  0.
        1    1    3    3  502    0  0.47404712460E+02  0.28605571760E+03 -0.48304302740E+03  0.56338765222E+03  0.50400001928E-02 0. -1.
       -1    1    3    3    0  502 -0.47404712460E+02 -0.28605571760E+03 -0.24232951432E+03  0.37788711789E+03  0.50400001928E-02 0.  1.
</event>
<event>
 5   0  0.2324616E-03  0.5999605E+03  0.7818609E-02  0.9905488E-01
       -2   -1    0    0    0  501  0.00000000000E+00  0.00000000000E+00  0.16738396280E+03  0.16738396282E+03  0.25500000920E-02 0.  1.
        2   -1    0    0  501    0  0.00000000000E+00  0.00000000000E+00 -0.53761511338E+03  0.53761511339E+03  0.25500000920E-02 0. -1.
    10030    2    1    2    0    0  0.00000000000E+00  0.00000000000E+00 -0.37023115058E+03  0.70499907621E+03  0.59996049253E+03 0.  0.
        4    1    3    3  502    0  0.40935877840E+02 -0.14816921704E+03 -0.48781262926E+03  0.51146127629E+03  0.12699999809E+01 0. -1.
       -4    1    3    3    0  502 -0.40935877840E+02  0.14816921704E+03  0.11758147868E+03  0.19353779993E+03  0.12699999809E+01 0.  1.
</event>
<event>
 5   0  0.2421210E-03  0.5998629E+03  0.7818609E-02  0.9905690E-01
       -2   -1    0    0    0  501  0.00000000000E+00  0.00000000000E+00  0.33019247236E+03  0.33019247237E+03  0.25500000920E-02 0.  1.
        2   -1    0    0  501    0  0.00000000000E+00  0.00000000000E+00 -0.27244377975E+03  0.27244377976E+03  0.25500000920E-02 0. -1.
    10030    2    1    2    0    0  0.00000000000E+00  0.00000000000E+00  0.57748692613E+02  0.60263625213E+03  0.59986293508E+03 0.  0.
        1    1    3    3  502    0  0.40626694281E+02  0.78163664470E+02  0.31690317613E+03  0.32891900188E+03  0.50400001928E-02 0.  1.
       -1    1    3    3    0  502 -0.40626694281E+02 -0.78163664470E+02 -0.25915448352E+03  0.27371725025E+03  0.50400001928E-02 0. -1.
</event>
<event>
 5   0  0.2346281E-03  0.6001318E+03  0.7818609E-02  0.9905133E-01
       -2   -1    0    0    0  501  0.00000000000E+00  0.00000000000E+00  0.11755430413E+03  0.11755430416E+03  0.25500000920E-02 0.  1.
        2   -1    0    0  501    0  0.00000000000E+00  0.00000000000E+00 -0.76593992651E+03  0.76593992651E+03  0.25500000920E-02 0. -1.
    10030    2    1    2    0    0  0.00000000000E+00  0.00000000000E+00 -0.64838562238E+03  0.88349423067E+03  0.60013176913E+03 0.  0.
        3    1    3    3  502    0 -0.89651713634E+02  0.26505183948E+03 -0.48376932198E+03  0.55885836708E+03  0.10100000352E+00 0. -1.
       -3    1    3    3    0  502  0.89651713634E+02 -0.26505183948E+03 -0.16461630041E+03  0.32463586359E+03  0.10100000352E+00 0.  1.
</event>
<event>
 5   0  0.2313168E-03  0.5998693E+03  0.7818609E-02  0.9905677E-01
        2   -1    0    0  501    0  0.00000000000E+00  0.00000000000E+00  0.13287612154E+04  0.13287612154E+04  0.25500000920E-02 0.  1.
       -2   -1    0    0    0  501  0.00000000000E+00  0.00000000000E+00 -0.67702755463E+02  0.67702755511E+02  0.25500000920E-02 0. -1.
    10030    2    1    2    0    0  0.00000000000E+00  0.00000000000E+00  0.12610584600E+04  0.13964639709E+04  0.59986930467E+03 0.  0.
        2    1    3    3  502    0  0.35256885440E+02  0.17281894598E+03  0.65785593614E+02  0.18824765707E+03  0.25500000920E-02 0.  1.
       -2    1    3    3    0  502 -0.35256885440E+02 -0.17281894598E+03  0.11952728663E+04  0.12082163139E+04  0.25500000920E-02 0. -1.
</event>
<event>
 5   0  0.2421210E-03  0.5995987E+03  0.7818609E-02  0.9906239E-01
        2   -1    0    0  501    0  0.00000000000E+00  0.00000000000E+00  0.53417180893E+03  0.53417180894E+03  0.25500000920E-02 0. -1.
       -2   -1    0    0    0  501  0.00000000000E+00  0.00000000000E+00 -0.16825980329E+03  0.16825980331E+03  0.25500000920E-02 0.  1.
    10030    2    1    2    0    0  0.00000000000E+00  0.00000000000E+00  0.36591200564E+03  0.70243161225E+03  0.59959867746E+03 0.  0.
        1    1    3    3  502    0  0.34038960460E+02  0.15823857107E+03  0.47858714790E+03  0.50521654205E+03  0.50400001928E-02 0. -1.
       -1    1    3    3    0  502 -0.34038960460E+02 -0.15823857107E+03 -0.11267514226E+03  0.19721507019E+03  0.50400001928E-02 0.  1.
</event>
<event>
 5   0  0.2313168E-03  0.6000092E+03  0.7818609E-02  0.9905387E-01
       -2   -1    0    0    0  501  0.00000000000E+00  0.00000000000E+00  0.73854339233E+03  0.73854339234E+03  0.25500000920E-02 0.  1.
        2   -1    0    0  501    0  0.00000000000E+00  0.00000000000E+00 -0.12186522942E+03  0.12186522945E+03  0.25500000920E-02 0. -1.
    10030    2    1    2    0    0  0.00000000000E+00  0.00000000000E+00  0.61667816291E+03  0.86040862179E+03  0.60000919979E+03 0.  0.
        2    1    3    3  502    0  0.27120263613E+03 -0.12397482732E+03  0.26116678444E+03  0.39639464798E+03  0.25500000920E-02 0. -1.
       -2    1    3    3    0  502 -0.27120263613E+03  0.12397482732E+03  0.35551137848E+03  0.46401397380E+03  0.25500000920E-02 0.  1.
</event>
<event>
 5   0  0.1392854E-03  0.5999034E+03  0.7818609E-02  0.9905606E-01
        1   -1    0    0  501    0  0.00000000000E+00  0.00000000000E+00  0.32596340784E+03  0.32596340788E+03  0.50400001928E-02 0.  1.
       -1   -1    0    0    0  501  0.00000000000E+00  0.00000000000E+00 -0.27601572195E+03  0.27601572200E+03  0.50400001928E-02 0. -1.
    10030    2    1    2    0    0  0.00000000000E+00  0.00000000000E+00  0.49947685893E+02  0.60197912988E+03  0.59990341013E+03 0.  0.
        4    1    3    3  502    0  0.15805068029E+03 -0.54628637397E+01 -0.23077967422E+03  0.27976906790E+03  0.12699999809E+01 0. -1.
       -4    1    3    3    0  502 -0.15805068029E+03  0.54628637397E+01  0.28072736012E+03  0.32221006197E+03  0.12699999809E+01 0.  1.
</event>
<event>
 5   0  0.1416315E-03  0.5979027E+03  0.7818609E-02  0.9909767E-01
       -1   -1    0    0    0  501  0.00000000000E+00  0.00000000000E+00  0.14917943171E+03  0.14917943179E+03  0.50400001928E-02 0. -1.
        1   -1    0    0  501    0  0.00000000000E+00  0.00000000000E+00 -0.59909008618E+03  0.59909008620E+03  0.50400001928E-02 0.  1.
    10030    2    1    2    0    0  0.00000000000E+00  0.00000000000E+00 -0.44991065447E+03  0.74826951799E+03  0.59790273000E+03 0.  0.
        2    1    3    3  502    0 -0.68862371214E+02  0.48344181100E+02  0.13405608932E+03  0.15827261641E+03  0.25500000920E-02 0. -1.
       -2    1    3    3    0  502  0.68862371214E+02 -0.48344181100E+02 -0.58396674379E+03  0.58999690158E+03  0.25500000920E-02 0.  1.
</event>
<event>
 5   0  0.1392854E-03  0.5999967E+03  0.7818609E-02  0.9905413E-01
       -1   -1    0    0    0  501  0.00000000000E+00  0.00000000000E+00  0.37492485727E+03  0.37492485731E+03  0.50400001928E-02 0. -1.
        1   -1    0    0  501    0  0.00000000000E+00  0.00000000000E+00 -0.24004544251E+03  0.24004544257E+03  0.50400001928E-02 0.  1.
    10030    2    1    2    0    0  0.00000000000E+00  0.00000000000E+00  0.13487941476E+03  0.61497029987E+03  0.59999667766E+03 0.  0.
        4    1    3    3  502    0 -0.26868479477E+03  0.13333340578E+03  0.62008951621E+02  0.30629404012E+03  0.12699999809E+01 0.  1.
       -4    1    3    3    0  502  0.26868479477E+03 -0.13333340578E+03  0.72870463136E+02  0.30867625975E+03  0.12699999809E+01 0. -1.
</event>
<event>
 5   0  0.9496750E-04  0.6000835E+03  0.7818609E-02  0.9905233E-01
       -3   -1    0    0    0  501  0.00000000000E+00  0.00000000000E+00  0.56948816308E+03  0.56948817204E+03  0.10100000352E+00 0.  1.
        3   -1    0    0  501    0  0.00000000000E+00  0.00000000000E+00 -0.15808059316E+03  0.15808062542E+03  0.10100000352E+00 0. -1.
    10030    2    1    2    0    0  0.00000000000E+00  0.00000000000E+00  0.41140756993E+03  0.72756879746E+03  0.60008346623E+03 0.  0.
        5    1    3    3  502    0  0.12102992106E+03  0.66143997018E+02 -0.11731622607E+03  0.18113104933E+03  0.46999998093E+01 0. -1.
       -5    1    3    3    0  502 -0.12102992106E+03 -0.66143997018E+02  0.52872379600E+03  0.54643774813E+03  0.46999998093E+01 0.  1.
</event>
<event>
 5   0  0.1418763E-03  0.6000792E+03  0.7818609E-02  0.9905242E-01
       -1   -1    0    0    0  501  0.00000000000E+00  0.00000000000E+00  0.96830999183E+02  0.96830999314E+02  0.50400001928E-02 0. -1.
        1   -1    0    0  501    0  0.00000000000E+00  0.00000000000E+00 -0.92969978433E+03  0.92969978435E+03  0.50400001928E-02 0.  1.
    10030    2    1    2    0    0  0.00000000000E+00  0.00000000000E+00 -0.83286878515E+03  0.10265307837E+04  0.60007919188E+03 0.  0.
        5    1    3    3  502    0 -0.87418171758E+02 -0.11443685015E+03 -0.86664632894E+03  0.87854179120E+03  0.46999998093E+01 0.  1.
       -5    1    3    3    0  502  0.87418171758E+02  0.11443685015E+03  0.33777543789E+02  0.14798899246E+03  0.46999998093E+01 0. -1.
</event>
<event>
 5   0  0.2346281E-03  0.5989381E+03  0.7818609E-02  0.9907612E-01
       -2   -1    0    0    0  501  0.00000000000E+00  0.00000000000E+00  0.22831240599E+03  0.22831240601E+03  0.25500000920E-02 0. -1.
        2   -1    0    0  501    0  0.00000000000E+00  0.00000000000E+00 -0.39280260064E+03  0.39280260065E+03  0.25500000920E-02 0.  1.
    10030    2    1    2    0    0  0.00000000000E+00  0.00000000000E+00 -0.16449019465E+03  0.62111500666E+03  0.59893808308E+03 0.  0.
        3    1    3    3  502    0  0.14564458574E+03 -0.24229663360E+03 -0.18470469788E+03  0.33769193006E+03  0.10100000352E+00 0.  1.
       -3    1    3    3    0  502 -0.14564458574E+03  0.24229663360E+03  0.20214503224E+02  0.28342307660E+03  0.10100000352E+00 0. -1.
</event>
<event>
 5   0  0.1418763E-03  0.6000826E+03  0.7818609E-02  0.9905235E-01
        1   -1    0    0  501    0  0.00000000000E+00  0.00000000000E+00  0.74826088544E+03  0.74826088546E+03  0.50400001928E-02 0. -1.
       -1   -1    0    0    0  501  0.00000000000E+00  0.00000000000E+00 -0.12031203437E+03  0.12031203448E+03  0.50400001928E-02 0.  1.
    10030    2    1    2    0    0  0.00000000000E+00  0.00000000000E+00  0.62794885107E+03  0.86857291993E+03  0.60008262571E+03 0.  0.
        5    1    3    3  502    0  0.54387006744E+02 -0.29389841454E+03  0.27655149716E+03  0.40723094817E+03  0.46999998093E+01 0. -1.
       -5    1    3    3    0  502 -0.54387006744E+02  0.29389841454E+03  0.35139735391E+03  0.46134197176E+03  0.46999998093E+01 0.  1.
</event>
<event>
 5   0  0.2346281E-03  0.5995086E+03  0.7818609E-02  0.9906426E-01
        2   -1    0    0  501    0  0.00000000000E+00  0.00000000000E+00  0.54681814425E+03  0.54681814426E+03  0.25500000920E-02 0.  1.
       -2   -1    0    0    0  501  0.00000000000E+00  0.00000000000E+00 -0.16431906842E+03  0.16431906844E+03  0.25500000920E-02 0. -1.
    10030    2    1    2    0    0  0.00000000000E+00  0.00000000000E+00  0.38249907583E+03  0.71113721270E+03  0.59950862568E+03 0.  0.
        3    1    3    3  502    0 -0.21681702899E+03  0.83038110238E+02  0.41615160093E+03  0.47653658513E+03  0.10100000352E+00 0.  1.
       -3    1    3    3    0  502  0.21681702899E+03 -0.83038110238E+02 -0.33652525095E+02  0.23460062757E+03  0.10100000352E+00 0. -1.
</event>
<event>
 5   0  0.1479385E-03  0.6001033E+03  0.7818609E-02  0.9905192E-01
        1   -1    0    0  501    0  0.00000000000E+00  0.00000000000E+00  0.32915593076E+03  0.32915593080E+03  0.50400001928E-02 0. -1.
       -1   -1    0    0    0  501  0.00000000000E+00  0.00000000000E+00 -0.27352080681E+03  0.27352080686E+03  0.50400001928E-02 0.  1.
    10030    2    1    2    0    0  0.00000000000E+00  0.00000000000E+00  0.55635123946E+02  0.60267673766E+03  0.60010331035E+03 0.  0.
        3    1    3    3  502    0  0.23165738579E+02 -0.32704926458E+02  0.32645569205E+03  0.32890666265E+03  0.10100000352E+00 0. -1.
       -3    1    3    3    0  502 -0.23165738579E+02  0.32704926458E+02 -0.27082056811E+03  0.27377007501E+03  0.10100000352E+00 0.  1.
</event>
<event>
 5   0  0.1416315E-03  0.6001748E+03  0.7818609E-02  0.9905044E-01
        1   -1    0    0  501    0  0.00000000000E+00  0.00000000000E+00  0.61481022189E+03  0.61481022191E+03  0.50400001928E-02 0.  1.
       -1   -1    0    0    0  501  0.00000000000E+00  0.00000000000E+00 -0.14647192167E+03  0.14647192176E+03  0.50400001928E-02 0. -1.
    10030    2    1    2    0    0  0.00000000000E+00  0.00000000000E+00  0.46833830022E+03  0.76128214366E+03  0.60017475689E+03 0.  0.
        2    1    3    3  502    0  0.65040484043E+02  0.65439745310E+02  0.59637275240E+03  0.60346755061E+03  0.25500000920E-02 0.  1.
       -2    1    3    3    0  502 -0.65040484043E+02 -0.65439745310E+02 -0.12803445218E+03  0.15781459306E+03  0.25500000920E-02 0. -1.
</event>
<event>
 5   0  0.1418763E-03  0.5999178E+03  0.7818609E-02  0.9905577E-01
       -1   -1    0    0    0  501  0.00000000000E+00  0.00000000000E+00  0.20187633242E+03  0.20187633248E+03  0.50400001928E-02 0. -1.
        1   -1    0    0  501    0  0.00000000000E+00  0.00000000000E+00 -0.44569533985E+03  0.44569533988E+03  0.50400001928E-02 0.  1.
    10030    2    1    2    0    0  0.00000000000E+00  0.00000000000E+00 -0.24381900743E+03  0.64757167236E+03  0.59991779642E+03 0.  0.
        5    1    3    3  502    0 -0.98513342997E+02 -0.65364058223E+02 -0.41944176124E+03  0.43581053214E+03  0.46999998093E+01 0.  1.
       -5    1    3    3    0  502  0.98513342997E+02  0.65364058223E+02  0.17562275380E+03  0.21176114022E+03  0.46999998093E+01 0. -1.
</event>
<event>
 5   0  0.2324616E-03  0.6000409E+03  0.7818609E-02  0.9905321E-01
       -2   -1    0    0    0  501  0.00000000000E+00  0.00000000000E+00  0.43934317911E+02  0.43934317985E+02  0.25500000920E-02 0. -1.
        2   -1    0    0  501    0  0.00000000000E+00  0.00000000000E+00 -0.20487921015E+04  0.20487921015E+04  0.25500000920E-02 0.  1.
    10030    2    1    2    0    0  0.00000000000E+00  0.00000000000E+00 -0.20048577836E+04  0.20927264195E+04  0.60004094394E+03 0.  0.
        4    1    3    3  502    0 -0.58156156883E+02  0.83383245736E+02 -0.17976549937E+02  0.10324569483E+03  0.12699999809E+01 0. -1.
       -4    1    3    3    0  502  0.58156156883E+02 -0.83383245736E+02 -0.19868812337E+04  0.19894807247E+04  0.12699999809E+01 0.  1.
</event>
<event>
 5   0  0.2324616E-03  0.6000118E+03  0.7818609E-02  0.9905382E-01
       -2   -1    0    0    0  501  0.00000000000E+00  0.00000000000E+00  0.22934208295E+03  0.22934208296E+03  0.25500000920E-02 0.  1.
        2   -1    0    0  501    0  0.00000000000E+00  0.00000000000E+00 -0.39244230462E+03  0.39244230463E+03  0.25500000920E-02 0. -1.
    10030    2    1    2    0    0  0.00000000000E+00  0.00000000000E+00 -0.16310022167E+03  0.62178438759E+03  0.60001178517E+03 0.  0.
        4    1    3    3  502    0 -0.29118463306E+02 -0.28542948367E+03 -0.17238967808E+03  0.33472031468E+03  0.12699999809E+01 0. -1.
       -4    1    3    3    0  502  0.29118463306E+02  0.28542948367E+03  0.92894564047E+01  0.28706407291E+03  0.12699999809E+01 0.  1.
</event>
<event>
 5   0  0.2346281E-03  0.5992100E+03  0.7818609E-02  0.9907046E-01
        2   -1    0    0  501    0  0.00000000000E+00  0.00000000000E+00  0.12006845883E+04  0.12006845883E+04  0.25500000920E-02 0. -1.
       -2   -1    0    0    0  501  0.00000000000E+00  0.00000000000E+00 -0.74759989815E+02  0.74759989859E+02  0.25500000920E-02 0.  1.
    10030    2    1    2    0    0  0.00000000000E+00  0.00000000000E+00  0.11259245985E+04  0.12754445781E+04  0.59921003870E+03 0.  0.
        3    1    3    3  502    0  0.48783984378E+01 -0.25660024387E+03  0.89199733873E+03  0.92818465104E+03  0.10100000352E+00 0. -1.
       -3    1    3    3    0  502 -0.48783984378E+01  0.25660024387E+03  0.23392725974E+03  0.34725992711E+03  0.10100000352E+00 0.  1.
</event>
<event>
 5   0  0.1392854E-03  0.6003995E+03  0.7818609E-02  0.9904577E-01
        1   -1    0    0  501    0  0.00000000000E+00  0.00000000000E+00  0.19621403126E+03  0.19621403133E+03  0.50400001928E-02 0.  1.
       -1   -1    0    0    0  501  0.00000000000E+00  0.00000000000E+00 -0.45929386879E+03  0.45929386882E+03  0.50400001928E-02 0. -1.
    10030    2    1    2    0    0  0.00000000000E+00  0.00000000000E+00 -0.26307983753E+03  0.65550790014E+03  0.60039953884E+03 0.  0.
        4    1    3    3  502    0 -0.12906891073E+03 -0.59874399915E+02  0.15706061294E+03  0.21192776251E+03  0.12699999809E+01 0.  1.
       -4    1    3    3    0  502  0.12906891073E+03  0.59874399915E+02 -0.42014045047E+03  0.44358013764E+03  0.12699999809E+01 0. -1.
</event>
<event>
 5   0  0.2324616E-03  0.6024390E+03  0.7818609E-02  0.9900359E-01
       -2   -1    0    0    0  501  0.00000000000E+00  0.00000000000E+00  0.14967804405E+03  0.14967804407E+03  0.25500000920E-02 0. -1.
        2   -1    0    0  501    0  0.00000000000E+00  0.00000000000E+00 -0.60618908731E+03  0.60618908731E+03  0.25500000920E-02 0.  1.
    10030    2    1    2    0    0  0.00000000000E+00  0.00000000000E+00 -0.45651104325E+03  0.75586713138E+03  0.60243903235E+03 0.  0.
        4    1    3    3  502    0  0.64306767291E+02  0.12256533215E+03  0.10741243958E+03  0.17520464047E+03  0.12699999809E+01 0. -1.
       -4    1    3    3    0  502 -0.64306767291E+02 -0.12256533215E+03 -0.56392348284E+03  0.58066249092E+03  0.12699999809E+01 0.  1.
</event>
<event>
 5   0  0.1392854E-03  0.5996677E+03  0.7818609E-02  0.9906096E-01
        1   -1    0    0  501    0  0.00000000000E+00  0.00000000000E+00  0.28314842869E+03  0.28314842873E+03  0.50400001928E-02 0.  1.
       -1   -1    0    0    0  501  0.00000000000E+00  0.00000000000E+00 -0.31750248216E+03  0.31750248220E+03  0.50400001928E-02 0. -1.
    10030    2    1    2    0    0  0.00000000000E+00  0.00000000000E+00 -0.34354053471E+02  0.60065091093E+03  0.59966767114E+03 0.  0.
        4    1    3    3  502    0 -0.27341617603E+03 -0.11406471663E+03  0.29067398333E+02  0.29768051908E+03  0.12699999809E+01 0.  1.
       -4    1    3    3    0  502  0.27341617603E+03  0.11406471663E+03 -0.63421451804E+02  0.30297039186E+03  0.12699999809E+01 0. -1.
</event>
<event>
 5   0  0.2421210E-03  0.6001926E+03  0.7818609E-02  0.9905007E-01
        2   -1    0    0  501    0  0.00000000000E+00  0.00000000000E+00  0.55385974754E+03  0.55385974754E+03  0.25500000920E-02 0.  1.
       -2   -1    0    0    0  501  0.00000000000E+00  0.00000000000E+00 -0.16260035840E+03  0.16260035842E+03  0.25500000920E-02 0. -1.
    10030    2    1    2    0    0  0.00000000000E+00  0.00000000000E+00  0.39125938914E+03  0.71646010596E+03  0.60019261396E+03 0.  0.
        1    1    3    3  502    0 -0.86768170620E+01 -0.36676586130E+02 -0.15976399293E+03  0.16414929968E+03  0.50400001928E-02 0. -1.
       -1    1    3    3    0  502  0.86768170620E+01  0.36676586130E+02  0.55102338207E+03  0.55231080628E+03  0.50400001928E-02 0.  1.
</event>
<event>
 5   0  0.2406307E-03  0.6000799E+03  0.7818609E-02  0.9905240E-01
       -2   -1    0    0    0  501  0.00000000000E+00  0.00000000000E+00  0.45964594269E+02  0.45964594340E+02  0.25500000920E-02 0.  1.
        2   -1    0    0  501    0  0.00000000000E+00  0.00000000000E+00 -0.19585506127E+04  0.19585506127E+04  0.25500000920E-02 0. -1.
    10030    2    1    2    0    0  0.00000000000E+00  0.00000000000E+00 -0.19125860185E+04  0.20045152071E+04  0.60007994248E+03 0.  0.
        5    1    3    3  502    0 -0.25593986251E+03 -0.20532467960E+02 -0.43798933891E+03  0.50772388802E+03  0.46999998093E+01 0. -1.
       -5    1    3    3    0  502  0.25593986251E+03  0.20532467960E+02 -0.14745966796E+04  0.14967913191E+04  0.46999998093E+01 0.  1.
</event>
<event>
 5   0  0.1392854E-03  0.6019522E+03  0.7818609E-02  0.9901364E-01
        1   -1    0    0  501    0  0.00000000000E+00  0.00000000000E+00  0.29240249335E+03  0.29240249340E+03  0.50400001928E-02 0.  1.
       -1   -1    0    0    0  501  0.00000000000E+00  0.00000000000E+00 -0.30980114295E+03  0.30980114299E+03  0.50400001928E-02 0. -1.
    10030    2    1    2    0    0  0.00000000000E+00  0.00000000000E+00 -0.17398649597E+02  0.60220363639E+03  0.60195224617E+03 0.  0.
        4    1    3    3  502    0 -0.11375541284E+03  0.25592595024E+03  0.10155844317E+03  0.29791629065E+03  0.12699999809E+01 0.  1.
       -4    1    3    3    0  502  0.11375541284E+03 -0.25592595024E+03 -0.11895709277E+03  0.30428734574E+03  0.12699999809E+01 0. -1.
</event>
<event>
 5   0  0.1392854E-03  0.6000185E+03  0.7818609E-02  0.9905368E-01
       -1   -1    0    0    0  501  0.00000000000E+00  0.00000000000E+00  0.26723744423E+03  0.26723744428E+03  0.50400001928E-02 0. -1.
        1   -1    0    0  501    0  0.00000000000E+00  0.00000000000E+00 -0.33679996289E+03  0.33679996292E+03  0.50400001928E-02 0.  1.
    10030    2    1    2    0    0  0.00000000000E+00  0.00000000000E+00 -0.69562518656E+02  0.60403740720E+03  0.60001853746E+03 0.  0.
        4    1    3    3  502    0  0.11932771150E+03 -0.25221377332E+03 -0.14576055296E+03  0.31479936767E+03  0.12699999809E+01 0.  1.
       -4    1    3    3    0  502 -0.11932771150E+03  0.25221377332E+03  0.76198034307E+02  0.28923803954E+03  0.12699999809E+01 0. -1.
</event>
<event>
 5   0  0.1392854E-03  0.5958513E+03  0.7818609E-02  0.9914051E-01
        1   -1    0    0  501    0  0.00000000000E+00  0.00000000000E+00  0.48601873395E+03  0.48601873397E+03  0.50400001928E-02 0. -1.
       -1   -1    0    0    0  501  0.00000000000E+00  0.00000000000E+00 -0.18262604622E+03  0.18262604629E+03  0.50400001928E-02 0.  1.
    10030    2    1    2    0    0  0.00000000000E+00  0.00000000000E+00  0.30339268772E+03  0.66864478027E+03  0.59585125595E+03 0.  0.
        4    1    3    3  502    0  0.24644908987E+03  0.64837832496E+02  0.32487758212E+03  0.41290211271E+03  0.12699999809E+01 0. -1.
       -4    1    3    3    0  502 -0.24644908987E+03 -0.64837832496E+02 -0.21484894395E+02  0.25574266755E+03  0.12699999809E+01 0.  1.
</event>
<event>
 5   0  0.2324616E-03  0.6000359E+03  0.7818609E-02  0.9905332E-01
        2   -1    0    0  501    0  0.00000000000E+00  0.00000000000E+00  0.67147598879E+03  0.67147598879E+03  0.25500000920E-02 0. -1.
       -2   -1    0    0    0  501  0.00000000000E+00  0.00000000000E+00 -0.13404912502E+03  0.13404912504E+03  0.25500000920E-02 0.  1.
    10030    2    1    2    0    0  0.00000000000E+00  0.00000000000E+00  0.53742686377E+03  0.80552511383E+03  0.60003589486E+03 0.  0.
        4    1    3    3  502    0  0.26027625319E+03 -0.80938515899E+02  0.43700042166E+03  0.51503956427E+03  0.12699999809E+01 0. -1.
       -4    1    3    3    0  502 -0.26027625319E+03  0.80938515899E+02  0.10042644210E+03  0.29048554956E+03  0.12699999809E+01 0.  1.
</event>
<event>
 5   0  0.1423430E-03  0.6001878E+03  0.7818609E-02  0.9905017E-01
       -1   -1    0    0    0  501  0.00000000000E+00  0.00000000000E+00  0.59136664988E+03  0.59136664990E+03  0.50400001928E-02 0.  1.
        1   -1    0    0  501    0  0.00000000000E+00  0.00000000000E+00 -0.15228512002E+03  0.15228512010E+03  0.50400001928E-02 0. -1.
    10030    2    1    2    0    0  0.00000000000E+00  0.00000000000E+00  0.43908152986E+03  0.74365177000E+03  0.60018777491E+03 0.  0.
        1    1    3    3  502    0  0.58673634849E+02 -0.12594660165E+03 -0.11003052668E+03  0.17723390962E+03  0.50400001928E-02 0. -1.
       -1    1    3    3    0  502 -0.58673634849E+02  0.12594660165E+03  0.54911205654E+03  0.56641786038E+03  0.50400001928E-02 0.  1.
</event>
<event>
 5   0  0.2421210E-03  0.6001144E+03  0.7818609E-02  0.9905169E-01
        2   -1    0    0  501    0  0.00000000000E+00  0.00000000000E+00  0.10847804290E+04  0.10847804290E+04  0.25500000920E-02 0.  1.
       -2   -1    0    0    0  501  0.00000000000E+00  0.00000000000E+00 -0.82997740333E+02  0.82997740372E+02  0.25500000920E-02 0. -1.
    10030    2    1    2    0    0  0.00000000000E+00  0.00000000000E+00  0.10017826887E+04  0.11677781694E+04  0.60011440374E+03 0.  0.
        1    1    3    3  502    0 -0.24342229426E+02 -0.14514461140E+03  0.10097233327E+04  0.10203924299E+04  0.50400001928E-02 0.  1.
       -1    1    3    3    0  502  0.24342229426E+02  0.14514461140E+03 -0.79406440341E+01  0.14738573949E+03  0.50400001928E-02 0. -1.
</event>
<event>
 5   0  0.1418763E-03  0.5971194E+03  0.7818609E-02  0.9911400E-01
        1   -1    0    0  501    0  0.00000000000E+00  0.00000000000E+00  0.12629717200E+04  0.12629717200E+04  0.50400001928E-02 0. -1.
       -1   -1    0    0    0  501  0.00000000000E+00  0.00000000000E+00 -0.70577911556E+02  0.70577911736E+02  0.50400001928E-02 0.  1.
    10030    2    1    2    0    0  0.00000000000E+00  0.00000000000E+00  0.11923938084E+04  0.13335496317E+04  0.59711944024E+03 0.  0.
        5    1    3    3  502    0  0.33877641913E+02 -0.18937976922E+03  0.86418881030E+02  0.21095664153E+03  0.46999998093E+01 0.  1.
       -5    1    3    3    0  502 -0.33877641913E+02  0.18937976922E+03  0.11059749274E+04  0.11225929902E+04  0.46999998093E+01 0. -1.
</event>
<event>
 5   0  0.1418763E-03  0.6023776E+03  0.7818609E-02  0.9900486E-01
        1   -1    0    0  501    0  0.00000000000E+00  0.00000000000E+00  0.36726857948E+03  0.36726857951E+03  0.50400001928E-02 0. -1.
       -1   -1    0    0    0  501  0.00000000000E+00  0.00000000000E+00 -0.24699822436E+03  0.24699822441E+03  0.50400001928E-02 0.  1.
    10030    2    1    2    0    0  0.00000000000E+00  0.00000000000E+00  0.12027035512E+03  0.61426680392E+03  0.60237757933E+03 0.  0.
        5    1    3    3  502    0 -0.52309332221E+02 -0.35060182020E+02 -0.24017198832E+03  0.24833476714E+03  0.46999998093E+01 0.  1.
       -5    1    3    3    0  502  0.52309332221E+02  0.35060182020E+02  0.36044234344E+03  0.36593203678E+03  0.46999998093E+01 0. -1.
</event>
<event>
 5   0  0.2346281E-03  0.6036181E+03  0.7818609E-02  0.9897928E-01
        2   -1    0    0  501    0  0.00000000000E+00  0.00000000000E+00  0.18252797856E+04  0.18252797856E+04  0.25500000920E-02 0. -1.
       -2   -1    0    0    0  501  0.00000000000E+00  0.00000000000E+00 -0.49903961458E+02  0.49903961523E+02  0.25500000920E-02 0.  1.
    10030    2    1    2    0    0  0.00000000000E+00  0.00000000000E+00  0.17753758241E+04  0.18751837471E+04  0.60361806511E+03 0.  0.
        3    1    3    3  502    0 -0.64950111885E+02  0.77958676158E+02  0.46742570422E+01  0.10157721744E+03  0.10100000352E+00 0.  1.
       -3    1    3    3    0  502  0.64950111885E+02 -0.77958676158E+02  0.17707015671E+04  0.17736065297E+04  0.10100000352E+00 0. -1.
</event>
<event>
 5   0  0.1423430E-03  0.6000076E+03  0.7818609E-02  0.9905390E-01
        1   -1    0    0  501    0  0.00000000000E+00  0.00000000000E+00  0.67844823329E+03  0.67844823331E+03  0.50400001928E-02 0. -1.
       -1   -1    0    0    0  501  0.00000000000E+00  0.00000000000E+00 -0.13265902214E+03  0.13265902223E+03  0.50400001928E-02 0.  1.
    10030    2    1    2    0    0  0.00000000000E+00  0.00000000000E+00  0.54578921115E+03  0.81110725554E+03  0.60000759743E+03 0.  0.
        1    1    3    3  502    0  0.20020052678E+03  0.11626336109E+03  0.14964987922E+02  0.23199433386E+03  0.50400001928E-02 0.  1.
       -1    1    3    3    0  502 -0.20020052678E+03 -0.11626336109E+03  0.53082422323E+03  0.57911292167E+03  0.50400001928E-02 0. -1.
</event>
<event>
 5   0  0.1418763E-03  0.5999824E+03  0.7818609E-02  0.9905443E-01
        1   -1    0    0  501    0  0.00000000000E+00  0.00000000000E+00  0.11490068272E+03  0.11490068283E+03  0.50400001928E-02 0.  1.
       -1   -1    0    0    0  501  0.00000000000E+00  0.00000000000E+00 -0.78323919263E+03  0.78323919264E+03  0.50400001928E-02 0. -1.
    10030    2    1    2    0    0  0.00000000000E+00  0.00000000000E+00 -0.66833850990E+03  0.89813987547E+03  0.59998239316E+03 0.  0.
        5    1    3    3  502    0 -0.29787050201E+02  0.26400692304E+03 -0.12574595679E+03  0.29397458975E+03  0.46999998093E+01 0.  1.
       -5    1    3    3    0  502  0.29787050201E+02 -0.26400692304E+03 -0.54259255312E+03  0.60416528572E+03  0.46999998093E+01 0. -1.
</event>
<event>
 5   0  0.9496750E-04  0.6000689E+03  0.7818609E-02  0.9905263E-01
        3   -1    0    0  501    0  0.00000000000E+00  0.00000000000E+00  0.14694416175E+04  0.14694416210E+04  0.10100000352E+00 0.  1.
       -3   -1    0    0    0  501  0.00000000000E+00  0.00000000000E+00 -0.61261780837E+02  0.61261864094E+02  0.10100000352E+00 0. -1.
    10030    2    1    2    0    0  0.00000000000E+00  0.00000000000E+00  0.14081798367E+04  0.15307034851E+04  0.60006891838E+03 0.  0.
        2    1    3    3  502    0  0.29826163050E+02 -0.11010553808E+03  0.14119663124E+04  0.14165668699E+04  0.25500000920E-02 0.  1.
       -2    1    3    3    0  502 -0.29826163050E+02  0.11010553808E+03 -0.37864757409E+01  0.11413661517E+03  0.25500000920E-02 0. -1.
</event>
<event>
 5   0  0.9496750E-04  0.5994016E+03  0.7818609E-02  0.9906648E-01
       -3   -1    0    0    0  501  0.00000000000E+00  0.00000000000E+00  0.29755260817E+03  0.29755262531E+03  0.10100000352E+00 0.  1.
        3   -1    0    0  501    0  0.00000000000E+00  0.00000000000E+00 -0.30186442453E+03  0.30186444143E+03  0.10100000352E+00 0. -1.
    10030    2    1    2    0    0  0.00000000000E+00  0.00000000000E+00 -0.43118163576E+01  0.59941706674E+03  0.59940155834E+03 0.  0.
        5    1    3    3  502    0 -0.12155307823E+02  0.65148883348E+02 -0.29440709816E+03  0.30181079827E+03  0.46999998093E+01 0. -1.
       -5    1    3    3    0  502  0.12155307823E+02 -0.65148883348E+02  0.29009528180E+03  0.29760626847E+03  0.46999998093E+01 0.  1.
</event>
<event>
 5   0  0.2406307E-03  0.5994875E+03  0.7818609E-02  0.9906470E-01
       -2   -1    0    0    0  501  0.00000000000E+00  0.00000000000E+00  0.51454009717E+02  0.51454009780E+02  0.25500000920E-02 0. -1.
        2   -1    0    0  501    0  0.00000000000E+00  0.00000000000E+00 -0.17461480450E+04  0.17461480450E+04  0.25500000920E-02 0.  1.
    10030    2    1    2    0    0  0.00000000000E+00  0.00000000000E+00 -0.16946940353E+04  0.17976020548E+04  0.59948750957E+03 0.  0.
        5    1    3    3  502    0  0.34477572591E+02  0.28785643103E+03 -0.10752024317E+04  0.11136123145E+04  0.46999998093E+01 0.  1.
       -5    1    3    3    0  502 -0.34477572591E+02 -0.28785643103E+03 -0.61949160364E+03  0.68398974033E+03  0.46999998093E+01 0. -1.
</event>
<event>
 5   0  0.1423430E-03  0.5998722E+03  0.7818609E-02  0.9905671E-01
        1   -1    0    0  501    0  0.00000000000E+00  0.00000000000E+00  0.10080720782E+04  0.10080720782E+04  0.50400001928E-02 0. -1.
       -1   -1    0    0    0  501  0.00000000000E+00  0.00000000000E+00 -0.89241292694E+02  0.89241292836E+02  0.50400001928E-02 0.  1.
    10030    2    1    2    0    0  0.00000000000E+00  0.00000000000E+00  0.91883078549E+03  0.10973133710E+04  0.59987217129E+03 0.  0.
        1    1    3    3  502    0  0.60403528466E+02  0.20601663760E+03  0.84255480950E+03  0.86947688195E+03  0.50400001928E-02 0. -1.
       -1    1    3    3    0  502 -0.60403528466E+02 -0.20601663760E+03  0.76275975994E+02  0.22783648908E+03  0.50400001928E-02 0.  1.
</event>
<event>
 5   0  0.1418763E-03  0.6000055E+03  0.7818609E-02  0.9905395E-01
       -1   -1    0    0    0  501  0.00000000000E+00  0.00000000000E+00  0.93447832706E+02  0.93447832842E+02  0.50400001928E-02 0. -1.
        1   -1    0    0  501    0  0.00000000000E+00  0.00000000000E+00 -0.96312181674E+03  0.96312181676E+03  0.50400001928E-02 0.  1.
    10030    2    1    2    0    0  0.00000000000E+00  0.00000000000E+00 -0.86967398404E+03  0.10565696496E+04  0.60000548826E+03 0.  0.
        5    1    3    3  502    0 -0.17947833610E+03 -0.44769204899E+02 -0.19007582885E+02  0.18601110999E+03  0.46999998093E+01 0. -1.
       -5    1    3    3    0  502  0.17947833610E+03  0.44769204899E+02 -0.85066640115E+03  0.87055853961E+03  0.46999998093E+01 0.  1.
</event>
<event>
 5   0  0.1423430E-03  0.5999834E+03  0.7818609E-02  0.9905440E-01
       -1   -1    0    0    0  501  0.00000000000E+00  0.00000000000E+00  0.48843039023E+03  0.48843039026E+03  0.50400001928E-02 0.  1.
        1   -1    0    0  501    0  0.00000000000E+00  0.00000000000E+00 -0.18425352832E+03  0.18425352839E+03  0.50400001928E-02 0. -1.
    10030    2    1    2    0    0  0.00000000000E+00  0.00000000000E+00  0.30417686191E+03  0.67268391865E+03  0.59998340901E+03 0.  0.
        1    1    3    3  502    0 -0.14724345922E+03 -0.23451126437E+03  0.28147977458E+03  0.39485064635E+03  0.50400001928E-02 0.  1.
       -1    1    3    3    0  502  0.14724345922E+03  0.23451126437E+03  0.22697087333E+02  0.27783327230E+03  0.50400001928E-02 0. -1.
</event>
<event>
 5   0  0.2324616E-03  0.6001663E+03  0.7818609E-02  0.9905061E-01
       -2   -1    0    0    0  501  0.00000000000E+00  0.00000000000E+00  0.52413620320E+02  0.52413620382E+02  0.25500000920E-02 0.  1.
        2   -1    0    0  501    0  0.00000000000E+00  0.00000000000E+00 -0.17180629758E+04  0.17180629758E+04  0.25500000920E-02 0. -1.
    10030    2    1    2    0    0  0.00000000000E+00  0.00000000000E+00 -0.16656493555E+04  0.17704765962E+04  0.60016631214E+03 0.  0.
        4    1    3    3  502    0 -0.19182240830E+02  0.14693258046E+03 -0.16025998470E+04  0.16094362441E+04  0.12699999809E+01 0. -1.
       -4    1    3    3    0  502  0.19182240830E+02 -0.14693258046E+03 -0.63049508518E+02  0.16104035205E+03  0.12699999809E+01 0.  1.
</event>
<event>
 5   0  0.1416315E-03  0.6001094E+03  0.7818609E-02  0.9905179E-01
        1   -1    0    0  501    0  0.00000000000E+00  0.00000000000E+00  0.36228844469E+03  0.36228844472E+03  0.50400001928E-02 0.  1.
       -1   -1    0    0    0  501  0.00000000000E+00  0.00000000000E+00 -0.24851142556E+03  0.24851142561E+03  0.50400001928E-02 0. -1.
    10030    2    1    2    0    0  0.00000000000E+00  0.00000000000E+00  0.11377701912E+03  0.61079987033E+03  0.60010938296E+03 0.  0.
        2    1    3    3  502    0  0.50252503013E+02 -0.51042493817E+02 -0.23968196230E+03  0.25015613783E+03  0.25500000920E-02 0. -1.
       -2    1    3    3    0  502 -0.50252503013E+02  0.51042493817E+02  0.35345898143E+03  0.36064373250E+03  0.25500000920E-02 0.  1.
</event>
<event>
 5   0  0.1418763E-03  0.5999045E+03  0.7818609E-02  0.9905604E-01
        1   -1    0    0  501    0  0.00000000000E+00  0.00000000000E+00  0.25334872497E+03  0.25334872502E+03  0.50400001928E-02 0. -1.
       -1   -1    0    0    0  501  0.00000000000E+00  0.00000000000E+00 -0.35512850741E+03  0.35512850745E+03  0.50400001928E-02 0.  1.
    10030    2    1    2    0    0  0.00000000000E+00  0.00000000000E+00 -0.10177978244E+03  0.60847723247E+03  0.59990450767E+03 0.  0.
        5    1    3    3  502    0  0.18063976325E+03  0.22066511029E+03 -0.14509036322E+03  0.31999549757E+03  0.46999998093E+01 0.  1.
       -5    1    3    3    0  502 -0.18063976325E+03 -0.22066511029E+03  0.43310580781E+02  0.28848173490E+03  0.46999998093E+01 0. -1.
</event>
<event>
 5   0  0.2421210E-03  0.6007063E+03  0.7818609E-02  0.9903942E-01
        2   -1    0    0  501    0  0.00000000000E+00  0.00000000000E+00  0.14715095159E+03  0.14715095161E+03  0.25500000920E-02 0. -1.
       -2   -1    0    0    0  501  0.00000000000E+00  0.00000000000E+00 -0.61305767226E+03  0.61305767226E+03  0.25500000920E-02 0.  1.
    10030    2    1    2    0    0  0.00000000000E+00  0.00000000000E+00 -0.46590672067E+03  0.76020862387E+03  0.60070631713E+03 0.  0.
        1    1    3    3  502    0  0.94024387110E+02  0.17962457388E+03 -0.51339328960E+03  0.55197666866E+03  0.50400001928E-02 0.  1.
       -1    1    3    3    0  502 -0.94024387110E+02 -0.17962457388E+03  0.47486568933E+02  0.20823195521E+03  0.50400001928E-02 0. -1.
</event>
<event>
 5   0  0.2324616E-03  0.6001252E+03  0.7818609E-02  0.9905146E-01
        2   -1    0    0  501    0  0.00000000000E+00  0.00000000000E+00  0.30270113961E+03  0.30270113962E+03  0.25500000920E-02 0. -1.
       -2   -1    0    0    0  501  0.00000000000E+00  0.00000000000E+00 -0.29744702554E+03  0.29744702555E+03  0.25500000920E-02 0.  1.
    10030    2    1    2    0    0  0.00000000000E+00  0.00000000000E+00  0.52541140750E+01  0.60014816517E+03  0.60012516565E+03 0.  0.
        4    1    3    3  502    0  0.17927292404E+03  0.14519603523E+03  0.19450746949E+03  0.30175393705E+03  0.12699999809E+01 0. -1.
       -4    1    3    3    0  502 -0.17927292404E+03 -0.14519603523E+03 -0.18925335541E+03  0.29839422812E+03  0.12699999809E+01 0.  1.
</event>
<event>
 5   0  0.2324616E-03  0.6006649E+03  0.7818609E-02  0.9904028E-01
        2   -1    0    0  501    0  0.00000000000E+00  0.00000000000E+00  0.21238226817E+03  0.21238226819E+03  0.25500000920E-02 0.  1.
       -2   -1    0    0    0  501  0.00000000000E+00  0.00000000000E+00 -0.42470388219E+03  0.42470388220E+03  0.25500000920E-02 0. -1.
    10030    2    1    2    0    0  0.00000000000E+00  0.00000000000E+00 -0.21232161402E+03  0.63708615039E+03  0.60066487765E+03 0.  0.
        4    1    3    3  502    0  0.20663617935E+03  0.21697173711E+03 -0.84354101488E+02  0.31127555743E+03  0.12699999809E+01 0. -1.
       -4    1    3    3    0  502 -0.20663617935E+03 -0.21697173711E+03 -0.12796751253E+03  0.32581059296E+03  0.12699999809E+01 0.  1.
</event>
<event>
 5   0  0.2313168E-03  0.5995564E+03  0.7818609E-02  0.9906327E-01
        2   -1    0    0  501    0  0.00000000000E+00  0.00000000000E+00  0.48179353860E+03  0.48179353860E+03  0.25500000920E-02 0.  1.
       -2   -1    0    0    0  501  0.00000000000E+00  0.00000000000E+00 -0.18652591655E+03  0.18652591657E+03  0.25500000920E-02 0. -1.
    10030    2    1    2    0    0  0.00000000000E+00  0.00000000000E+00  0.29526762205E+03  0.66831945517E+03  0.59955644066E+03 0.  0.
        2    1    3    3  502    0 -0.10846690888E+03 -0.24615482262E+03  0.13328747886E+00  0.26899309432E+03  0.25500000920E-02 0. -1.
       -2    1    3    3    0  502  0.10846690888E+03  0.24615482262E+03  0.29513433457E+03  0.39932636085E+03  0.25500000920E-02 0.  1.
</event>
<event>
 5   0  0.2346281E-03  0.5997119E+03  0.7818609E-02  0.9906004E-01
        2   -1    0    0  501    0  0.00000000000E+00  0.00000000000E+00  0.10296303417E+04  0.10296303417E+04  0.25500000920E-02 0. -1.
       -2   -1    0    0    0  501  0.00000000000E+00  0.00000000000E+00 -0.87326094628E+02  0.87326094665E+02  0.25500000920E-02 0.  1.
    10030    2    1    2    0    0  0.00000000000E+00  0.00000000000E+00  0.94230424711E+03  0.11169564364E+04  0.59971191976E+03 0.  0.
        3    1    3    3  502    0  0.14537638968E+03 -0.80637534766E+02  0.93594233893E+03  0.95059180445E+03  0.10100000352E+00 0. -1.
       -3    1    3    3    0  502 -0.14537638968E+03  0.80637534766E+02  0.63619081812E+01  0.16636463195E+03  0.10100000352E+00 0.  1.
</event>
<event>
 5   0  0.1479385E-03  0.5999458E+03  0.7818609E-02  0.9905518E-01
        1   -1    0    0  501    0  0.00000000000E+00  0.00000000000E+00  0.24597159703E+03  0.24597159708E+03  0.50400001928E-02 0.  1.
       -1   -1    0    0    0  501  0.00000000000E+00  0.00000000000E+00 -0.36582983402E+03  0.36582983406E+03  0.50400001928E-02 0. -1.
    10030    2    1    2    0    0  0.00000000000E+00  0.00000000000E+00 -0.11985823700E+03  0.61180143114E+03  0.59994582602E+03 0.  0.
        3    1    3    3  502    0  0.12951129277E+03  0.22690101590E+02 -0.33487858511E+03  0.35976616382E+03  0.10100000352E+00 0. -1.
       -3    1    3    3    0  502 -0.12951129277E+03 -0.22690101590E+02  0.21502034811E+03  0.25203526731E+03  0.10100000352E+00 0.  1.
</event>
<event>
 5   0  0.1392854E-03  0.6000256E+03  0.7818609E-02  0.9905353E-01
       -1   -1    0    0    0  501  0.00000000000E+00  0.00000000000E+00  0.15134467428E+03  0.15134467436E+03  0.50400001928E-02 0. -1.
        1   -1    0    0  501    0  0.00000000000E+00  0.00000000000E+00 -0.59471989442E+03  0.59471989444E+03  0.50400001928E-02 0.  1.
    10030    2    1    2    0    0  0.00000000000E+00  0.00000000000E+00 -0.44337522014E+03  0.74606456880E+03  0.60002562861E+03 0.  0.
        4    1    3    3  502    0 -0.10870089283E+03 -0.27837140771E+03 -0.25457401054E+03  0.39257618939E+03  0.12699999809E+01 0. -1.
       -4    1    3    3    0  502  0.10870089283E+03  0.27837140771E+03 -0.18880120959E+03  0.35348837941E+03  0.12699999809E+01 0.  1.
</event>
<event>
 5   0  0.2346281E-03  0.5999593E+03  0.7818609E-02  0.9905490E-01
       -2   -1    0    0    0  501  0.00000000000E+00  0.00000000000E+00  0.83926354880E+02  0.83926354919E+02  0.25500000920E-02 0.  1.
        2   -1    0    0  501    0  0.00000000000E+00  0.00000000000E+00 -0.10722234132E+04  0.10722234132E+04  0.25500000920E-02 0. -1.
    10030    2    1    2    0    0  0.00000000000E+00  0.00000000000E+00 -0.98829705833E+03  0.11561497681E+04  0.59995934100E+03 0.  0.
        3    1    3    3  502    0 -0.21029265492E+03  0.21194720766E+03 -0.55010503833E+03  0.62590748753E+03  0.10100000352E+00 0. -1.
       -3    1    3    3    0  502  0.21029265492E+03 -0.21194720766E+03 -0.43819202000E+03  0.53024228061E+03  0.10100000352E+00 0.  1.
</event>
<event>
 5   0  0.2313168E-03  0.6002047E+03  0.7818609E-02  0.9904981E-01
        2   -1    0    0  501    0  0.00000000000E+00  0.00000000000E+00  0.61835787312E+03  0.61835787313E+03  0.25500000920E-02 0. -1.
       -2   -1    0    0    0  501  0.00000000000E+00  0.00000000000E+00 -0.14564611718E+03  0.14564611720E+03  0.25500000920E-02 0.  1.
    10030    2    1    2    0    0  0.00000000000E+00  0.00000000000E+00  0.47271175594E+03  0.76400399033E+03  0.60020470928E+03 0.  0.
        2    1    3    3  502    0  0.81903157361E+02  0.20873513846E+03  0.49024532805E+03  0.53909087072E+03  0.25500000920E-02 0. -1.
       -2    1    3    3    0  502 -0.81903157361E+02 -0.20873513846E+03 -0.17533572113E+02  0.22491311961E+03  0.25500000920E-02 0.  1.
</event>
<event>
 5   0  0.1423430E-03  0.6000601E+03  0.7818609E-02  0.9905281E-01
       -1   -1    0    0    0  501  0.00000000000E+00  0.00000000000E+00  0.10603673121E+04  0.10603673121E+04  0.50400001928E-02 0. -1.
        1   -1    0    0  501    0  0.00000000000E+00  0.00000000000E+00 -0.84893250619E+02  0.84893250769E+02  0.50400001928E-02 0.  1.
    10030    2    1    2    0    0  0.00000000000E+00  0.00000000000E+00  0.97547406152E+03  0.11452605629E+04  0.60006009056E+03 0.  0.
        1    1    3    3  502    0 -0.20865132614E+03 -0.17095365353E+03  0.23701152849E+03  0.35907519020E+03  0.50400001928E-02 0. -1.
       -1    1    3    3    0  502  0.20865132614E+03  0.17095365353E+03  0.73846253303E+03  0.78618537272E+03  0.50400001928E-02 0.  1.
</event>
<event>
 5   0  0.2421210E-03  0.5999984E+03  0.7818609E-02  0.9905409E-01
        2   -1    0    0  501    0  0.00000000000E+00  0.00000000000E+00  0.19664333848E+04  0.19664333848E+04  0.25500000920E-02 0. -1.
       -2   -1    0    0    0  501  0.00000000000E+00  0.00000000000E+00 -0.45767894453E+02  0.45767894524E+02  0.25500000920E-02 0.  1.
    10030    2    1    2    0    0  0.00000000000E+00  0.00000000000E+00  0.19206654903E+04  0.20122012793E+04  0.59999838559E+03 0.  0.
        1    1    3    3  502    0 -0.48216033130E+02 -0.96774706860E+02  0.21845773270E+02  0.11030579121E+03  0.50400001928E-02 0.  1.
       -1    1    3    3    0  502  0.48216033130E+02  0.96774706860E+02  0.18988197171E+04  0.19018954881E+04  0.50400001928E-02 0. -1.
</event>
<event>
 5   0  0.1416315E-03  0.5999657E+03  0.7818609E-02  0.9905477E-01
       -1   -1    0    0    0  501  0.00000000000E+00  0.00000000000E+00  0.11237456384E+03  0.11237456395E+03  0.50400001928E-02 0.  1.
        1   -1    0    0  501    0  0.00000000000E+00  0.00000000000E+00 -0.80080152581E+03  0.80080152582E+03  0.50400001928E-02 0. -1.
    10030    2    1    2    0    0  0.00000000000E+00  0.00000000000E+00 -0.68842696197E+03  0.91317608977E+03  0.59996573983E+03 0.  0.
        2    1    3    3  502    0  0.80685473939E+02 -0.27033852068E+02 -0.78204678607E+03  0.78666266625E+03  0.25500000920E-02 0. -1.
       -2    1    3    3    0  502 -0.80685473939E+02  0.27033852068E+02  0.93619824097E+02  0.12651342353E+03  0.25500000920E-02 0.  1.
</event>
<event>
 5   0  0.2406307E-03  0.6000579E+03  0.7818609E-02  0.9905286E-01
       -2   -1    0    0    0  501  0.00000000000E+00  0.00000000000E+00  0.10726340465E+03  0.10726340468E+03  0.25500000920E-02 0.  1.
        2   -1    0    0  501    0  0.00000000000E+00  0.00000000000E+00 -0.83921783704E+03  0.83921783705E+03  0.25500000920E-02 0. -1.
    10030    2    1    2    0    0  0.00000000000E+00  0.00000000000E+00 -0.73195443240E+03  0.94648124173E+03  0.60005787207E+03 0.  0.
        5    1    3    3  502    0 -0.18691619552E+03 -0.23205647196E+03 -0.31116910409E+03  0.43085516321E+03  0.46999998093E+01 0.  1.
       -5    1    3    3    0  502  0.18691619552E+03  0.23205647196E+03 -0.42078532830E+03  0.51562607851E+03  0.46999998093E+01 0. -1.
</event>
<event>
 5   0  0.9496750E-04  0.5999037E+03  0.7818609E-02  0.9905606E-01
        4   -1    0    0  501    0  0.00000000000E+00  0.00000000000E+00  0.18067908047E+03  0.18068354386E+03  0.12699999809E+01 0.  1.
       -4   -1    0    0    0  501  0.00000000000E+00  0.00000000000E+00 -0.49794940191E+03  0.49795102145E+03  0.12699999809E+01 0. -1.
    10030    2    1    2    0    0  0.00000000000E+00  0.00000000000E+00 -0.31727032144E+03  0.67863456531E+03  0.59990367257E+03 0.  0.
        5    1    3    3  502    0  0.20737232137E+03  0.17362481462E+03 -0.12009108855E+02  0.27076773186E+03  0.46999998093E+01 0.  1.
       -5    1    3    3    0  502 -0.20737232137E+03 -0.17362481462E+03 -0.30526121258E+03  0.40786683345E+03  0.46999998093E+01 0. -1.
</event>
<event>
 5   0  0.1423430E-03  0.5985772E+03  0.7818609E-02  0.9908362E-01
        1   -1    0    0  501    0  0.00000000000E+00  0.00000000000E+00  0.31682403400E+03  0.31682403404E+03  0.50400001928E-02 0.  1.
       -1   -1    0    0    0  501  0.00000000000E+00  0.00000000000E+00 -0.28272366686E+03  0.28272366690E+03  0.50400001928E-02 0. -1.
    10030    2    1    2    0    0  0.00000000000E+00  0.00000000000E+00  0.34100367138E+02  0.59954770094E+03  0.59857715515E+03 0.  0.
        1    1    3    3  502    0  0.67479838244E+02 -0.18665862833E+03  0.24141937493E+03  0.31253525676E+03  0.50400001928E-02 0.  1.
       -1    1    3    3    0  502 -0.67479838244E+02  0.18665862833E+03 -0.20731900779E+03  0.28701244418E+03  0.50400001928E-02 0. -1.
</event>
<event>
 5   0  0.1418763E-03  0.5997910E+03  0.7818609E-02  0.9905840E-01
        1   -1    0    0  501    0  0.00000000000E+00  0.00000000000E+00  0.96226447068E+02  0.96226447200E+02  0.50400001928E-02 0.  1.
       -1   -1    0    0    0  501  0.00000000000E+00  0.00000000000E+00 -0.93464227719E+03  0.93464227720E+03  0.50400001928E-02 0. -1.
    10030    2    1    2    0    0  0.00000000000E+00  0.00000000000E+00 -0.83841583012E+03  0.10308687244E+04  0.59979098255E+03 0.  0.
        5    1    3    3  502    0  0.21300656492E+03 -0.21095658521E+03 -0.40823797990E+03  0.50651240437E+03  0.46999998093E+01 0.  1.
       -5    1    3    3    0  502 -0.21300656492E+03  0.21095658521E+03 -0.43017785022E+03  0.52435632003E+03  0.46999998093E+01 0. -1.
</event>
<event>
 5   0  0.2421210E-03  0.6001729E+03  0.7818609E-02  0.9905047E-01
        2   -1    0    0  501    0  0.00000000000E+00  0.00000000000E+00  0.35746785204E+03  0.35746785205E+03  0.25500000920E-02 0.  1.
       -2   -1    0    0    0  501  0.00000000000E+00  0.00000000000E+00 -0.25191601748E+03  0.25191601750E+03  0.25500000920E-02 0. -1.
    10030    2    1    2    0    0  0.00000000000E+00  0.00000000000E+00  0.10555183456E+03  0.60938386955E+03  0.60017290066E+03 0.  0.
        1    1    3    3  502    0  0.10716758946E+03 -0.22289249022E+03 -0.11979106257E+03  0.27480147948E+03  0.50400001928E-02 0. -1.
       -1    1    3    3    0  502 -0.10716758946E+03  0.22289249022E+03  0.22534289713E+03  0.33458239007E+03  0.50400001928E-02 0.  1.
</event>
<event>
 5   0  0.1479385E-03  0.6000157E+03  0.7818609E-02  0.9905373E-01
        1   -1    0    0  501    0  0.00000000000E+00  0.00000000000E+00  0.89661484911E+03  0.89661484912E+03  0.50400001928E-02 0. -1.
       -1   -1    0    0    0  501  0.00000000000E+00  0.00000000000E+00 -0.10038280881E+03  0.10038280894E+03  0.50400001928E-02 0.  1.
    10030    2    1    2    0    0  0.00000000000E+00  0.00000000000E+00  0.79623204029E+03  0.99699765806E+03  0.60001572328E+03 0.  0.
        3    1    3    3  502    0  0.18133893938E+03  0.96935392355E+02  0.35120001144E+02  0.20859939096E+03  0.10100000352E+00 0.  1.
       -3    1    3    3    0  502 -0.18133893938E+03 -0.96935392355E+02  0.76111203915E+03  0.78839826710E+03  0.10100000352E+00 0. -1.
</event>
<event>
 5   0  0.2313168E-03  0.5999106E+03  0.7818609E-02  0.9905592E-01
       -2   -1    0    0    0  501  0.00000000000E+00  0.00000000000E+00  0.39621678857E+03  0.39621678858E+03  0.25500000920E-02 0.  1.
        2   -1    0    0  501    0  0.00000000000E+00  0.00000000000E+00 -0.22708067802E+03  0.22708067803E+03  0.25500000920E-02 0. -1.
    10030    2    1    2    0    0  0.00000000000E+00  0.00000000000E+00  0.16913611055E+03  0.62329746661E+03  0.59991058333E+03 0.  0.
        2    1    3    3  502    0  0.14770574939E+03  0.25783082129E+03  0.12714683169E+03  0.32320278097E+03  0.25500000920E-02 0.  1.
       -2    1    3    3    0  502 -0.14770574939E+03 -0.25783082129E+03  0.41989278860E+02  0.30009468565E+03  0.25500000920E-02 0. -1.
</event>
<event>
 5   0  0.1392854E-03  0.6001688E+03  0.7818609E-02  0.9905056E-01
       -1   -1    0    0    0  501  0.00000000000E+00  0.00000000000E+00  0.14803894267E+03  0.14803894276E+03  0.50400001928E-02 0.  1.
        1   -1    0    0  501    0  0.00000000000E+00  0.00000000000E+00 -0.60829031117E+03  0.60829031119E+03  0.50400001928E-02 0. -1.
    10030    2    1    2    0    0  0.00000000000E+00  0.00000000000E+00 -0.46025136850E+03  0.75632925395E+03  0.60016882473E+03 0.  0.
        4    1    3    3  502    0  0.18611461482E+03  0.72170175340E+02 -0.51248190464E+03  0.54998772671E+03  0.12699999809E+01 0. -1.
       -4    1    3    3    0  502 -0.18611461482E+03 -0.72170175340E+02  0.52230536135E+02  0.20634152724E+03  0.12699999809E+01 0.  1.
</event>
<event>
 5   0  0.1418763E-03  0.6005045E+03  0.7818609E-02  0.9904360E-01
       -1   -1    0    0    0  501  0.00000000000E+00  0.00000000000E+00  0.32961986097E+02  0.32961986482E+02  0.50400001928E-02 0. -1.
        1   -1    0    0  501    0  0.00000000000E+00  0.00000000000E+00 -0.27350118448E+04  0.27350118448E+04  0.50400001928E-02 0.  1.
    10030    2    1    2    0    0  0.00000000000E+00  0.00000000000E+00 -0.27020498587E+04  0.27679738312E+04  0.60050453101E+03 0.  0.
        5    1    3    3  502    0  0.16913157923E+02 -0.28728693677E+02  0.24233962806E+02  0.41482137154E+02  0.46999998093E+01 0. -1.
       -5    1    3    3    0  502 -0.16913157923E+02  0.28728693677E+02 -0.27262838215E+04  0.27264916941E+04  0.46999998093E+01 0.  1.
</event>
<event>
 5   0  0.2406307E-03  0.5989351E+03  0.7818609E-02  0.9907618E-01
       -2   -1    0    0    0  501  0.00000000000E+00  0.00000000000E+00  0.10530006654E+04  0.10530006654E+04  0.25500000920E-02 0.  1.
        2   -1    0    0  501    0  0.00000000000E+00  0.00000000000E+00 -0.85166904795E+02  0.85166904833E+02  0.25500000920E-02 0. -1.
    10030    2    1    2    0    0  0.00000000000E+00  0.00000000000E+00  0.96783376062E+03  0.11381675703E+04  0.59893507977E+03 0.  0.
        5    1    3    3  502    0  0.18571159491E+03  0.15303572414E+02  0.92932063468E+03  0.94783011550E+03  0.46999998093E+01 0.  1.
       -5    1    3    3    0  502 -0.18571159491E+03 -0.15303572414E+02  0.38513125943E+02  0.19033745475E+03  0.46999998093E+01 0. -1.
</event>
<event>
 5   0  0.1418763E-03  0.5998150E+03  0.7818609E-02  0.9905790E-01
       -1   -1    0    0    0  501  0.00000000000E+00  0.00000000000E+00  0.11300268567E+03  0.11300268578E+03  0.50400001928E-02 0.  1.
        1   -1    0    0  501    0  0.00000000000E+00  0.00000000000E+00 -0.79595027679E+03  0.79595027680E+03  0.50400001928E-02 0. -1.
    10030    2    1    2    0    0  0.00000000000E+00  0.00000000000E+00 -0.68294759112E+03  0.90895296258E+03  0.59981503480E+03 0.  0.
        5    1    3    3  502    0  0.10716368452E+03  0.92031640575E+02  0.59370309943E+02  0.15329971249E+03  0.46999998093E+01 0.  1.
       -5    1    3    3    0  502 -0.10716368452E+03 -0.92031640575E+02 -0.74231790106E+03  0.75565325010E+03  0.46999998093E+01 0. -1.
</event>
<event>
 5   0  0.9496750E-04  0.6001079E+03  0.7818609E-02  0.9905182E-01
        4   -1    0    0  501    0  0.00000000000E+00  0.00000000000E+00  0.23083079718E+03  0.23083429083E+03  0.12699999809E+01 0.  1.
       -4   -1    0    0    0  501  0.00000000000E+00  0.00000000000E+00 -0.39002871356E+03  0.39003078122E+03  0.12699999809E+01 0. -1.
    10030    2    1    2    0    0  0.00000000000E+00  0.00000000000E+00 -0.15919791638E+03  0.62086507205E+03  0.60010787457E+03 0.  0.
        3    1    3    3  502    0  0.69473348350E+02  0.85736264381E+02  0.20907754881E+03  0.23641210793E+03  0.10100000352E+00 0.  1.
       -3    1    3    3    0  502 -0.69473348350E+02 -0.85736264381E+02 -0.36827546519E+03  0.38445296412E+03  0.10100000352E+00 0. -1.
</event>
<event>
 5   0  0.2421210E-03  0.5998545E+03  0.7818609E-02  0.9905708E-01
       -2   -1    0    0    0  501  0.00000000000E+00  0.00000000000E+00  0.77618942794E+02  0.77618942836E+02  0.25500000920E-02 0.  1.
        2   -1    0    0  501    0  0.00000000000E+00  0.00000000000E+00 -0.11589486548E+04  0.11589486549E+04  0.25500000920E-02 0. -1.
    10030    2    1    2    0    0  0.00000000000E+00  0.00000000000E+00 -0.10813297121E+04  0.12365675977E+04  0.59985454693E+03 0.  0.
        1    1    3    3  502    0 -0.28773159303E+03  0.81839183083E+02 -0.49600955280E+03  0.57923449311E+03  0.50400001928E-02 0.  1.
       -1    1    3    3    0  502  0.28773159303E+03 -0.81839183083E+02 -0.58532015926E+03  0.65733310458E+03  0.50400001928E-02 0. -1.
</event>
<event>
 5   0  0.1392854E-03  0.5998478E+03  0.7818609E-02  0.9905722E-01
       -1   -1    0    0    0  501  0.00000000000E+00  0.00000000000E+00  0.29205089955E+03  0.29205089959E+03  0.50400001928E-02 0. -1.
        1   -1    0    0  501    0  0.00000000000E+00  0.00000000000E+00 -0.30800914830E+03  0.30800914834E+03  0.50400001928E-02 0.  1.
    10030    2    1    2    0    0  0.00000000000E+00  0.00000000000E+00 -0.15958248753E+02  0.60006004794E+03  0.59984781022E+03 0.  0.
        4    1    3    3  502    0  0.12939523315E+03 -0.23131868002E+03  0.13243177875E+03  0.29629587748E+03  0.12699999809E+01 0. -1.
       -4    1    3    3    0  502 -0.12939523315E+03  0.23131868002E+03 -0.14839002750E+03  0.30376417045E+03  0.12699999809E+01 0.  1.
</event>
<event>
 5   0  0.2421210E-03  0.5998991E+03  0.7818609E-02  0.9905615E-01
       -2   -1    0    0    0  501  0.00000000000E+00  0.00000000000E+00  0.33842854583E+03  0.33842854584E+03  0.25500000920E-02 0. -1.
        2   -1    0    0  501    0  0.00000000000E+00  0.00000000000E+00 -0.26584561887E+03  0.26584561888E+03  0.25500000920E-02 0.  1.
    10030    2    1    2    0    0  0.00000000000E+00  0.00000000000E+00  0.72582926961E+02  0.60427416472E+03  0.59989914557E+03 0.  0.
        1    1    3    3  502    0 -0.10400384491E+03  0.18766434688E+03 -0.17484405212E+03  0.27677635274E+03  0.50400001928E-02 0.  1.
       -1    1    3    3    0  502  0.10400384491E+03 -0.18766434688E+03  0.24742697908E+03  0.32749781198E+03  0.50400001928E-02 0. -1.
</event>
<event>
 5   0  0.2421210E-03  0.5999501E+03  0.7818609E-02  0.9905510E-01
       -2   -1    0    0    0  501  0.00000000000E+00  0.00000000000E+00  0.49958098795E+02  0.49958098860E+02  0.25500000920E-02 0.  1.
        2   -1    0    0  501    0  0.00000000000E+00  0.00000000000E+00 -0.18012103009E+04  0.18012103009E+04  0.25500000920E-02 0. -1.
    10030    2    1    2    0    0  0.00000000000E+00  0.00000000000E+00 -0.17512522021E+04  0.18511683998E+04  0.59995013868E+03 0.  0.
        1    1    3    3  502    0  0.10021732851E+03 -0.14156893303E+03 -0.12045852530E+03  0.21117654244E+03  0.50400001928E-02 0.  1.
       -1    1    3    3    0  502 -0.10021732851E+03  0.14156893303E+03 -0.16307936768E+04  0.16399918574E+04  0.50400001928E-02 0. -1.
</event>
<event>
 5   0  0.1392854E-03  0.6001366E+03  0.7818609E-02  0.9905123E-01
        1   -1    0    0  501    0  0.00000000000E+00  0.00000000000E+00  0.23175229544E+03  0.23175229549E+03  0.50400001928E-02 0.  1.
       -1   -1    0    0    0  501  0.00000000000E+00  0.00000000000E+00 -0.38852253431E+03  0.38852253434E+03  0.50400001928E-02 0. -1.
    10030    2    1    2    0    0  0.00000000000E+00  0.00000000000E+00 -0.15677023887E+03  0.62027482984E+03  0.60013661506E+03 0.  0.
        4    1    3    3  502    0 -0.11735746061E+03  0.45853756197E+02  0.20308397197E+03  0.23899801901E+03  0.12699999809E+01 0.  1.
       -4    1    3    3    0  502  0.11735746061E+03 -0.45853756197E+02 -0.35985421084E+03  0.38127681083E+03  0.12699999809E+01 0. -1.
</event>
<event>
 5   0  0.1479385E-03  0.6000406E+03  0.7818609E-02  0.9905322E-01
       -1   -1    0    0    0  501  0.00000000000E+00  0.00000000000E+00  0.22262579426E+03  0.22262579432E+03  0.50400001928E-02 0. -1.
        1   -1    0    0  501    0  0.00000000000E+00  0.00000000000E+00 -0.40432056564E+03  0.40432056567E+03  0.50400001928E-02 0.  1.
    10030    2    1    2    0    0  0.00000000000E+00  0.00000000000E+00 -0.18169477137E+03  0.62694635999E+03  0.60004062226E+03 0.  0.
        3    1    3    3  502    0  0.26379102063E+03 -0.11347952472E+03 -0.67264691807E-01  0.28716427323E+03  0.10100000352E+00 0. -1.
       -3    1    3    3    0  502 -0.26379102063E+03  0.11347952472E+03 -0.18162750668E+03  0.33978208676E+03  0.10100000352E+00 0.  1.
</event>
<event>
 5   0  0.9496750E-04  0.5999810E+03  0.7818609E-02  0.9905445E-01
       -3   -1    0    0    0  501  0.00000000000E+00  0.00000000000E+00  0.39695173099E+02  0.39695301591E+02  0.10100000352E+00 0.  1.
        3   -1    0    0  501    0  0.00000000000E+00  0.00000000000E+00 -0.22671307417E+04  0.22671307439E+04  0.10100000352E+00 0. -1.
    10030    2    1    2    0    0  0.00000000000E+00  0.00000000000E+00 -0.22274355686E+04  0.23068260455E+04  0.59998099313E+03 0.  0.
        4    1    3    3  502    0 -0.75416829273E+02 -0.12374351173E+03 -0.21236178261E+04  0.21285568912E+04  0.12699999809E+01 0. -1.
       -4    1    3    3    0  502  0.75416829273E+02  0.12374351173E+03 -0.10381774251E+03  0.17826915435E+03  0.12699999809E+01 0.  1.
</event>
<event>
 5   0  0.2324616E-03  0.6004202E+03  0.7818609E-02  0.9904535E-01
       -2   -1    0    0    0  501  0.00000000000E+00  0.00000000000E+00  0.58424515874E+02  0.58424515930E+02  0.25500000920E-02 0.  1.
        2   -1    0    0  501    0  0.00000000000E+00  0.00000000000E+00 -0.15426076101E+04  0.15426076101E+04  0.25500000920E-02 0. -1.
    10030    2    1    2    0    0  0.00000000000E+00  0.00000000000E+00 -0.14841830943E+04  0.16010321261E+04  0.60042019570E+03 0.  0.
        4    1    3    3  502    0  0.16435968241E+03  0.13296149596E+03 -0.17373104159E+03  0.27363653323E+03  0.12699999809E+01 0.  1.
       -4    1    3    3    0  502 -0.16435968241E+03 -0.13296149596E+03 -0.13104520527E+04  0.13273955928E+04  0.12699999809E+01 0. -1.
</event>
<event>
 5   0  0.1392854E-03  0.5996241E+03  0.7818609E-02  0.9906186E-01
       -1   -1    0    0    0  501  0.00000000000E+00  0.00000000000E+00  0.70634464560E+03  0.70634464561E+03  0.50400001928E-02 0. -1.
        1   -1    0    0  501    0  0.00000000000E+00  0.00000000000E+00 -0.12725693450E+03  0.12725693460E+03  0.50400001928E-02 0.  1.
    10030    2    1    2    0    0  0.00000000000E+00  0.00000000000E+00  0.57908771109E+03  0.83360158022E+03  0.59962406340E+03 0.  0.
        4    1    3    3  502    0  0.19283687058E+03 -0.19298282031E+03  0.11670352667E+03  0.29673178735E+03  0.12699999809E+01 0.  1.
       -4    1    3    3    0  502 -0.19283687058E+03  0.19298282031E+03  0.46238418442E+03  0.53686979287E+03  0.12699999809E+01 0. -1.
</event>
<event>
 5   0  0.1423430E-03  0.6004090E+03  0.7818609E-02  0.9904558E-01
       -1   -1    0    0    0  501  0.00000000000E+00  0.00000000000E+00  0.80527422314E+02  0.80527422472E+02  0.50400001928E-02 0.  1.
        1   -1    0    0  501    0  0.00000000000E+00  0.00000000000E+00 -0.11191558843E+04  0.11191558843E+04  0.50400001928E-02 0. -1.
    10030    2    1    2    0    0  0.00000000000E+00  0.00000000000E+00 -0.10386284620E+04  0.11996833068E+04  0.60040898938E+03 0.  0.
        1    1    3    3  502    0 -0.19907142214E+03 -0.15953382424E+03 -0.20311832268E+03  0.32609435018E+03  0.50400001928E-02 0.  1.
       -1    1    3    3    0  502  0.19907142214E+03  0.15953382424E+03 -0.83551013933E+03  0.87358895663E+03  0.50400001928E-02 0. -1.
</event>
<event>
 5   0  0.1418763E-03  0.6003335E+03  0.7818609E-02  0.9904714E-01
       -1   -1    0    0    0  501  0.00000000000E+00  0.00000000000E+00  0.39195809660E+03  0.39195809663E+03  0.50400001928E-02 0.  1.
        1   -1    0    0  501    0  0.00000000000E+00  0.00000000000E+00 -0.22987170545E+03  0.22987170551E+03  0.50400001928E-02 0. -1.
    10030    2    1    2    0    0  0.00000000000E+00  0.00000000000E+00  0.16208639115E+03  0.62182980213E+03  0.60033349451E+03 0.  0.
        5    1    3    3  502    0 -0.14003462126E+03  0.24658954197E+03 -0.20771384663E+02  0.28437587412E+03  0.46999998093E+01 0. -1.
       -5    1    3    3    0  502  0.14003462126E+03 -0.24658954197E+03  0.18285777581E+03  0.33745392802E+03  0.46999998093E+01 0.  1.
</event>
<event>
 5   0  0.2324616E-03  0.5999120E+03  0.7818609E-02  0.9905589E-01
        2   -1    0    0  501    0  0.00000000000E+00  0.00000000000E+00  0.58202080692E+03  0.58202080693E+03  0.25500000920E-02 0.  1.
       -2   -1    0    0    0  501  0.00000000000E+00  0.00000000000E+00 -0.15458831362E+03  0.15458831364E+03  0.25500000920E-02 0. -1.
    10030    2    1    2    0    0  0.00000000000E+00  0.00000000000E+00  0.42743249331E+03  0.73660912056E+03  0.59991204369E+03 0.  0.
        4    1    3    3  502    0  0.23864854945E+03 -0.10195413355E+03  0.29029223008E+02  0.26113614111E+03  0.12699999809E+01 0. -1.
       -4    1    3    3    0  502 -0.23864854945E+03  0.10195413355E+03  0.39840327030E+03  0.47547297945E+03  0.12699999809E+01 0.  1.
</event>
<event>
 5   0  0.2313168E-03  0.6005397E+03  0.7818609E-02  0.9904287E-01
       -2   -1    0    0    0  501  0.00000000000E+00  0.00000000000E+00  0.79764505765E+02  0.79764505806E+02  0.25500000920E-02 0.  1.
        2   -1    0    0  501    0  0.00000000000E+00  0.00000000000E+00 -0.11303521041E+04  0.11303521041E+04  0.25500000920E-02 0. -1.
    10030    2    1    2    0    0  0.00000000000E+00  0.00000000000E+00 -0.10505875984E+04  0.12101166099E+04  0.60053968046E+03 0.  0.
        2    1    3    3  502    0 -0.25438695473E+03  0.11106054091E+03 -0.75605698326E+03  0.80540010456E+03  0.25500000920E-02 0. -1.
       -2    1    3    3    0  502  0.25438695473E+03 -0.11106054091E+03 -0.29453061510E+03  0.40471650537E+03  0.25500000920E-02 0.  1.
</event>
<event>
 5   0  0.1418763E-03  0.5998820E+03  0.7818609E-02  0.9905651E-01
        1   -1    0    0  501    0  0.00000000000E+00  0.00000000000E+00  0.39694598136E+03  0.39694598139E+03  0.50400001928E-02 0.  1.
       -1   -1    0    0    0  501  0.00000000000E+00  0.00000000000E+00 -0.22664193441E+03  0.22664193447E+03  0.50400001928E-02 0. -1.
    10030    2    1    2    0    0  0.00000000000E+00  0.00000000000E+00  0.17030404694E+03  0.62358791586E+03  0.59988200540E+03 0.  0.
        5    1    3    3  502    0 -0.85777438925E+02  0.28733983755E+03  0.89865961545E+02  0.31308135095E+03  0.46999998093E+01 0.  1.
       -5    1    3    3    0  502  0.85777438925E+02 -0.28733983755E+03  0.80438085397E+02  0.31050656491E+03  0.46999998093E+01 0. -1.
</event>
<event>
 5   0  0.1423430E-03  0.5998747E+03  0.7818609E-02  0.9905666E-01
        1   -1    0    0  501    0  0.00000000000E+00  0.00000000000E+00  0.14279048504E+03  0.14279048513E+03  0.50400001928E-02 0. -1.
       -1   -1    0    0    0  501  0.00000000000E+00  0.00000000000E+00 -0.63003077908E+03  0.63003077910E+03  0.50400001928E-02 0.  1.
    10030    2    1    2    0    0  0.00000000000E+00  0.00000000000E+00 -0.48724029405E+03  0.77282126423E+03  0.59987465549E+03 0.  0.
        1    1    3    3  502    0  0.21400076706E+03  0.59689617085E+02 -0.50321662607E+03  0.55007831394E+03  0.50400001928E-02 0.  1.
       -1    1    3    3    0  502 -0.21400076706E+03 -0.59689617085E+02  0.15976332022E+02  0.22274295029E+03  0.50400001928E-02 0. -1.
</event>
<event>
 5   0  0.2346281E-03  0.5999567E+03  0.7818609E-02  0.9905496E-01
       -2   -1    0    0    0  501  0.00000000000E+00  0.00000000000E+00  0.95327825842E+02  0.95327825877E+02  0.25500000920E-02 0.  1.
        2   -1    0    0  501    0  0.00000000000E+00  0.00000000000E+00 -0.94397431895E+03  0.94397431895E+03  0.25500000920E-02 0. -1.
    10030    2    1    2    0    0  0.00000000000E+00  0.00000000000E+00 -0.84864649311E+03  0.10393021448E+04  0.59995673009E+03 0.  0.
        3    1    3    3  502    0 -0.64390394554E+02  0.12256687947E+03 -0.88531640329E+03  0.89607695372E+03  0.10100000352E+00 0. -1.
       -3    1    3    3    0  502  0.64390394554E+02 -0.12256687947E+03  0.36669910184E+02  0.14322519111E+03  0.10100000352E+00 0.  1.
</event>
<event>
 5   0  0.2324616E-03  0.5998849E+03  0.7818609E-02  0.9905645E-01
       -2   -1    0    0    0  501  0.00000000000E+00  0.00000000000E+00  0.24628364744E+03  0.24628364745E+03  0.25500000920E-02 0. -1.
        2   -1    0    0  501    0  0.00000000000E+00  0.00000000000E+00 -0.36529207790E+03  0.36529207791E+03  0.25500000920E-02 0.  1.
    10030    2    1    2    0    0  0.00000000000E+00  0.00000000000E+00 -0.11900843046E+03  0.61157572536E+03  0.59988487340E+03 0.  0.
        4    1    3    3  502    0 -0.14683126703E+03  0.26019511339E+03 -0.86533822350E+02  0.31104763835E+03  0.12699999809E+01 0. -1.
       -4    1    3    3    0  502  0.14683126703E+03 -0.26019511339E+03 -0.32474608109E+02  0.30052808701E+03  0.12699999809E+01 0.  1.
</event>
<event>
 5   0  0.2324616E-03  0.6000663E+03  0.7818609E-02  0.9905268E-01
       -2   -1    0    0    0  501  0.00000000000E+00  0.00000000000E+00  0.16046252642E+03  0.16046252644E+03  0.25500000920E-02 0.  1.
        2   -1    0    0  501    0  0.00000000000E+00  0.00000000000E+00 -0.56100260497E+03  0.56100260497E+03  0.25500000920E-02 0. -1.
    10030    2    1    2    0    0  0.00000000000E+00  0.00000000000E+00 -0.40054007855E+03  0.72146513141E+03  0.60006631410E+03 0.  0.
        4    1    3    3  502    0 -0.16798805475E+03  0.15108632614E+03  0.37079333439E+02  0.22896190590E+03  0.12699999809E+01 0.  1.
       -4    1    3    3    0  502  0.16798805475E+03 -0.15108632614E+03 -0.43761941199E+03  0.49250322551E+03  0.12699999809E+01 0. -1.
</event>
<event>
 5   0  0.1479385E-03  0.6002326E+03  0.7818609E-02  0.9904924E-01
       -1   -1    0    0    0  501  0.00000000000E+00  0.00000000000E+00  0.10387678354E+03  0.10387678367E+03  0.50400001928E-02 0.  1.
        1   -1    0    0  501    0  0.00000000000E+00  0.00000000000E+00 -0.86708298476E+03  0.86708298477E+03  0.50400001928E-02 0. -1.
    10030    2    1    2    0    0  0.00000000000E+00  0.00000000000E+00 -0.76320620121E+03  0.97095976844E+03  0.60023259355E+03 0.  0.
        3    1    3    3  502    0  0.13420427540E+03 -0.16171633521E+03 -0.35009715768E+02  0.21304612413E+03  0.10100000352E+00 0.  1.
       -3    1    3    3    0  502 -0.13420427540E+03  0.16171633521E+03 -0.72819648544E+03  0.75791364430E+03  0.10100000352E+00 0. -1.
</event>
<event>
 5   0  0.1479385E-03  0.6001839E+03  0.7818609E-02  0.9905024E-01
       -1   -1    0    0    0  501  0.00000000000E+00  0.00000000000E+00  0.15359569020E+03  0.15359569028E+03  0.50400001928E-02 0. -1.
        1   -1    0    0  501    0  0.00000000000E+00  0.00000000000E+00 -0.58631328134E+03  0.58631328136E+03  0.50400001928E-02 0.  1.
    10030    2    1    2    0    0  0.00000000000E+00  0.00000000000E+00 -0.43271759114E+03  0.73990897164E+03  0.60018394900E+03 0.  0.
        3    1    3    3  502    0 -0.63852574024E+02 -0.27097832025E+03 -0.35445912000E+03  0.45071906905E+03  0.10100000352E+00 0.  1.
       -3    1    3    3    0  502  0.63852574024E+02  0.27097832025E+03 -0.78258471144E+02  0.28918990259E+03  0.10100000352E+00 0. -1.
</event>
<event>
 5   0  0.1423430E-03  0.5994926E+03  0.7818609E-02  0.9906459E-01
       -1   -1    0    0    0  501  0.00000000000E+00  0.00000000000E+00  0.29061562310E+03  0.29061562314E+03  0.50400001928E-02 0.  1.
        1   -1    0    0  501    0  0.00000000000E+00  0.00000000000E+00 -0.30916385339E+03  0.30916385343E+03  0.50400001928E-02 0. -1.
    10030    2    1    2    0    0  0.00000000000E+00  0.00000000000E+00 -0.18548230295E+02  0.59977947657E+03  0.59949260518E+03 0.  0.
        1    1    3    3  502    0 -0.16315794235E+03  0.21902801515E+03  0.11429231504E+03  0.29606843614E+03  0.50400001928E-02 0.  1.
       -1    1    3    3    0  502  0.16315794235E+03 -0.21902801515E+03 -0.13284054534E+03  0.30371104044E+03  0.50400001928E-02 0. -1.
</event>
<event>
 5   0  0.9496750E-04  0.5999691E+03  0.7818609E-02  0.9905470E-01
        4   -1    0    0  501    0  0.00000000000E+00  0.00000000000E+00  0.17622972812E+03  0.17623430419E+03  0.12699999809E+01 0.  1.
       -4   -1    0    0    0  501  0.00000000000E+00  0.00000000000E+00 -0.51063242168E+03  0.51063400099E+03  0.12699999809E+01 0. -1.
    10030    2    1    2    0    0  0.00000000000E+00  0.00000000000E+00 -0.33440269356E+03  0.68686830518E+03  0.59996908854E+03 0.  0.
        1    1    3    3  502    0  0.76806967910E+02  0.89135350781E+02  0.14871276086E+03  0.18963097412E+03  0.50400001928E-02 0.  1.
       -1    1    3    3    0  502 -0.76806967910E+02 -0.89135350781E+02 -0.48311545442E+03  0.49723733106E+03  0.50400001928E-02 0. -1.
</event>
<event>
 5   0  0.2346281E-03  0.6000180E+03  0.7818609E-02  0.9905369E-01
       -2   -1    0    0    0  501  0.00000000000E+00  0.00000000000E+00  0.75518722346E+02  0.75518722389E+02  0.25500000920E-02 0.  1.
        2   -1    0    0  501    0  0.00000000000E+00  0.00000000000E+00 -0.11918288394E+04  0.11918288394E+04  0.25500000920E-02 0. -1.
    10030    2    1    2    0    0  0.00000000000E+00  0.00000000000E+00 -0.11163101171E+04  0.12673475618E+04  0.60001797052E+03 0.  0.
        3    1    3    3  502    0 -0.23030743629E+03  0.14820860440E+02 -0.96303468250E+03  0.99030146067E+03  0.10100000352E+00 0. -1.
       -3    1    3    3    0  502  0.23030743629E+03 -0.14820860440E+02 -0.15327543459E+03  0.27704610115E+03  0.10100000352E+00 0.  1.
</event>
<event>
 5   0  0.2346281E-03  0.6002426E+03  0.7818609E-02  0.9904903E-01
        2   -1    0    0  501    0  0.00000000000E+00  0.00000000000E+00  0.45514747883E+03  0.45514747884E+03  0.25500000920E-02 0. -1.
       -2   -1    0    0    0  501  0.00000000000E+00  0.00000000000E+00 -0.19789802217E+03  0.19789802219E+03  0.25500000920E-02 0.  1.
    10030    2    1    2    0    0  0.00000000000E+00  0.00000000000E+00  0.25724945666E+03  0.65304550102E+03  0.60024257051E+03 0.  0.
        3    1    3    3  502    0  0.28556258935E+03 -0.56244779985E+02  0.48947720643E+02  0.29513616734E+03  0.10100000352E+00 0.  1.
       -3    1    3    3    0  502 -0.28556258935E+03  0.56244779985E+02  0.20830173602E+03  0.35790933369E+03  0.10100000352E+00 0. -1.
</event>
<event>
 5   0  0.9496750E-04  0.6009139E+03  0.7818609E-02  0.9903512E-01
       -3   -1    0    0    0  501  0.00000000000E+00  0.00000000000E+00  0.14230719751E+03  0.14230723335E+03  0.10100000352E+00 0.  1.
        3   -1    0    0  501    0  0.00000000000E+00  0.00000000000E+00 -0.63436255006E+03  0.63436255810E+03  0.10100000352E+00 0. -1.
    10030    2    1    2    0    0  0.00000000000E+00  0.00000000000E+00 -0.49205535255E+03  0.77666979146E+03  0.60091388317E+03 0.  0.
        1    1    3    3  502    0 -0.14738607250E+03  0.22122279495E+03 -0.42703130014E+03  0.50300885747E+03  0.50400001928E-02 0. -1.
       -1    1    3    3    0  502  0.14738607250E+03 -0.22122279495E+03 -0.65024052409E+02  0.27366093398E+03  0.50400001928E-02 0.  1.
</event>
<event>
 5   0  0.1479385E-03  0.5999083E+03  0.7818609E-02  0.9905596E-01
       -1   -1    0    0    0  501  0.00000000000E+00  0.00000000000E+00  0.19601007035E+03  0.19601007041E+03  0.50400001928E-02 0. -1.
        1   -1    0    0  501    0  0.00000000000E+00  0.00000000000E+00 -0.45901971717E+03  0.45901971720E+03  0.50400001928E-02 0.  1.
    10030    2    1    2    0    0  0.00000000000E+00  0.00000000000E+00 -0.26300964682E+03  0.65502978761E+03  0.59990828327E+03 0.  0.
        3    1    3    3  502    0  0.23105567431E+03 -0.18019351750E+03 -0.20155616117E+03  0.35564213008E+03  0.10100000352E+00 0. -1.
       -3    1    3    3    0  502 -0.23105567431E+03  0.18019351750E+03 -0.61453485646E+02  0.29938765753E+03  0.10100000352E+00 0.  1.
</event>
<event>
 5   0  0.2313168E-03  0.6003023E+03  0.7818609E-02  0.9904779E-01
       -2   -1    0    0    0  501  0.00000000000E+00  0.00000000000E+00  0.16697483912E+03  0.16697483914E+03  0.25500000920E-02 0. -1.
        2   -1    0    0  501    0  0.00000000000E+00  0.00000000000E+00 -0.53954660980E+03  0.53954660980E+03  0.25500000920E-02 0.  1.
    10030    2    1    2    0    0  0.00000000000E+00  0.00000000000E+00 -0.37257177068E+03  0.70652144894E+03  0.60030228511E+03 0.  0.
        2    1    3    3  502    0 -0.11974642117E+03  0.25659372830E+03 -0.69115560854E+02  0.29147299626E+03  0.25500000920E-02 0. -1.
       -2    1    3    3    0  502  0.11974642117E+03 -0.25659372830E+03 -0.30345620983E+03  0.41504845269E+03  0.25500000920E-02 0.  1.
</event>
<event>
 5   0  0.2421210E-03  0.6024908E+03  0.7818609E-02  0.9900252E-01
       -2   -1    0    0    0  501  0.00000000000E+00  0.00000000000E+00  0.31163230730E+03  0.31163230731E+03  0.25500000920E-02 0.  1.
        2   -1    0    0  501    0  0.00000000000E+00  0.00000000000E+00 -0.29120467114E+03  0.29120467115E+03  0.25500000920E-02 0. -1.
    10030    2    1    2    0    0  0.00000000000E+00  0.00000000000E+00  0.20427636163E+02  0.60283697846E+03  0.60249077527E+03 0.  0.
        1    1    3    3  502    0  0.40015511757E+02 -0.10331694335E+03 -0.27007774790E+03  0.29192057465E+03  0.50400001928E-02 0. -1.
       -1    1    3    3    0  502 -0.40015511757E+02  0.10331694335E+03  0.29050538407E+03  0.31091640381E+03  0.50400001928E-02 0.  1.
</event>
<event>
 5   0  0.2324616E-03  0.6003655E+03  0.7818609E-02  0.9904648E-01
        2   -1    0    0  501    0  0.00000000000E+00  0.00000000000E+00  0.56042199016E+03  0.56042199017E+03  0.25500000920E-02 0.  1.
       -2   -1    0    0    0  501  0.00000000000E+00  0.00000000000E+00 -0.16078898805E+03  0.16078898807E+03  0.25500000920E-02 0. -1.
    10030    2    1    2    0    0  0.00000000000E+00  0.00000000000E+00  0.39963300211E+03  0.72121097824E+03  0.60036550431E+03 0.  0.
        4    1    3    3  502    0 -0.19616823210E+02 -0.29953538399E+03  0.20143078061E+03  0.36149998381E+03  0.12699999809E+01 0.  1.
       -4    1    3    3    0  502  0.19616823210E+02  0.29953538399E+03  0.19820222149E+03  0.35971099444E+03  0.12699999809E+01 0. -1.
</event>
<event>
 5   0  0.9496750E-04  0.5996894E+03  0.7818609E-02  0.9906051E-01
       -3   -1    0    0    0  501  0.00000000000E+00  0.00000000000E+00  0.66652429759E+02  0.66652506282E+02  0.10100000352E+00 0.  1.
        3   -1    0    0  501    0  0.00000000000E+00  0.00000000000E+00 -0.13488897903E+04  0.13488897940E+04  0.10100000352E+00 0. -1.
    10030    2    1    2    0    0  0.00000000000E+00  0.00000000000E+00 -0.12822373605E+04  0.14155423003E+04  0.59968938238E+03 0.  0.
        1    1    3    3  502    0  0.13280991241E+02 -0.15380182023E+03 -0.12478781605E+04  0.12573906665E+04  0.50400001928E-02 0. -1.
       -1    1    3    3    0  502 -0.13280991241E+02  0.15380182023E+03 -0.34359199971E+02  0.15815163383E+03  0.50400001928E-02 0.  1.
</event>
<event>
 5   0  0.1418763E-03  0.6000066E+03  0.7818609E-02  0.9905392E-01
       -1   -1    0    0    0  501  0.00000000000E+00  0.00000000000E+00  0.43874544907E+03  0.43874544910E+03  0.50400001928E-02 0. -1.
        1   -1    0    0  501    0  0.00000000000E+00  0.00000000000E+00 -0.20513481824E+03  0.20513481830E+03  0.50400001928E-02 0.  1.
    10030    2    1    2    0    0  0.00000000000E+00  0.00000000000E+00  0.23361063083E+03  0.64388026740E+03  0.60000655989E+03 0.  0.
        5    1    3    3  502    0 -0.25379597773E+02 -0.93804912571E+02  0.42134591814E+03  0.43243260554E+03  0.46999998093E+01 0. -1.
       -5    1    3    3    0  502  0.25379597773E+02  0.93804912571E+02 -0.18773528731E+03  0.21144766186E+03  0.46999998093E+01 0.  1.
</event>
<event>
 5   0  0.2421210E-03  0.5998264E+03  0.7818609E-02  0.9905766E-01
        2   -1    0    0  501    0  0.00000000000E+00  0.00000000000E+00  0.15448771309E+04  0.15448771309E+04  0.25500000920E-02 0.  1.
       -2   -1    0    0    0  501  0.00000000000E+00  0.00000000000E+00 -0.58223354751E+02  0.58223354807E+02  0.25500000920E-02 0. -1.
    10030    2    1    2    0    0  0.00000000000E+00  0.00000000000E+00  0.14866537761E+04  0.16031004857E+04  0.59982640583E+03 0.  0.
        1    1    3    3  502    0  0.26991440398E+03 -0.53528763653E+01  0.10924628244E+04  0.11253254913E+04  0.50400001928E-02 0. -1.
       -1    1    3    3    0  502 -0.26991440398E+03  0.53528763653E+01  0.39419095173E+03  0.47777499434E+03  0.50400001928E-02 0.  1.
</event>
<event>
 5   0  0.2346281E-03  0.5998021E+03  0.7818609E-02  0.9905817E-01
       -2   -1    0    0    0  501  0.00000000000E+00  0.00000000000E+00  0.66295856547E+02  0.66295856596E+02  0.25500000920E-02 0. -1.
        2   -1    0    0  501    0  0.00000000000E+00  0.00000000000E+00 -0.13566553797E+04  0.13566553797E+04  0.25500000920E-02 0.  1.
    10030    2    1    2    0    0  0.00000000000E+00  0.00000000000E+00 -0.12903595231E+04  0.14229512363E+04  0.59980206893E+03 0.  0.
        3    1    3    3  502    0  0.14269374481E+03  0.22631786842E+03 -0.96662764121E+03  0.10029707320E+04  0.10100000352E+00 0.  1.
       -3    1    3    3    0  502 -0.14269374481E+03 -0.22631786842E+03 -0.32373188194E+03  0.41998050426E+03  0.10100000352E+00 0. -1.
</event>
<event>
 5   0  0.1392854E-03  0.6007861E+03  0.7818609E-02  0.9903776E-01
       -1   -1    0    0    0  501  0.00000000000E+00  0.00000000000E+00  0.17967933828E+03  0.17967933835E+03  0.50400001928E-02 0. -1.
        1   -1    0    0  501    0  0.00000000000E+00  0.00000000000E+00 -0.50220576073E+03  0.50220576076E+03  0.50400001928E-02 0.  1.
    10030    2    1    2    0    0  0.00000000000E+00  0.00000000000E+00 -0.32252642245E+03  0.68188509911E+03  0.60078614765E+03 0.  0.
        4    1    3    3  502    0 -0.27557793751E+03  0.81186410471E+01 -0.25893466898E+02  0.27691369865E+03  0.12699999809E+01 0. -1.
       -4    1    3    3    0  502  0.27557793751E+03 -0.81186410471E+01 -0.29663295555E+03  0.40497140046E+03  0.12699999809E+01 0.  1.
</event>
<event>
 5   0  0.9496750E-04  0.6001478E+03  0.7818609E-02  0.9905099E-01
       -3   -1    0    0    0  501  0.00000000000E+00  0.00000000000E+00  0.44479667972E+03  0.44479669118E+03  0.10100000352E+00 0. -1.
        3   -1    0    0  501    0  0.00000000000E+00  0.00000000000E+00 -0.20243932343E+03  0.20243934862E+03  0.10100000352E+00 0.  1.
    10030    2    1    2    0    0  0.00000000000E+00  0.00000000000E+00  0.24235735629E+03  0.64723603981E+03  0.60014781769E+03 0.  0.
        3    1    3    3  502    0  0.62592756806E+02 -0.21032425828E+03  0.34190831318E+03  0.40627017076E+03  0.10100000352E+00 0. -1.
       -3    1    3    3    0  502 -0.62592756806E+02  0.21032425828E+03 -0.99550956895E+02  0.24096586905E+03  0.10100000352E+00 0.  1.
</event>
<event>
 5   0  0.2406307E-03  0.6000788E+03  0.7818609E-02  0.9905243E-01
        2   -1    0    0  501    0  0.00000000000E+00  0.00000000000E+00  0.60380732728E+03  0.60380732729E+03  0.25500000920E-02 0. -1.
       -2   -1    0    0    0  501  0.00000000000E+00  0.00000000000E+00 -0.14909330615E+03  0.14909330617E+03  0.25500000920E-02 0.  1.
    10030    2    1    2    0    0  0.00000000000E+00  0.00000000000E+00  0.45471402114E+03  0.75290063346E+03  0.60007876386E+03 0.  0.
        5    1    3    3  502    0 -0.18314151185E+02  0.13257499718E+03  0.56423057018E+03  0.57990496147E+03  0.46999998093E+01 0. -1.
       -5    1    3    3    0  502  0.18314151185E+02 -0.13257499718E+03 -0.10951654905E+03  0.17299567198E+03  0.46999998093E+01 0.  1.
</event>
<event>
 5   0  0.2313168E-03  0.6004177E+03  0.7818609E-02  0.9904540E-01
        2   -1    0    0  501    0  0.00000000000E+00  0.00000000000E+00  0.45305915557E+03  0.45305915557E+03  0.25500000920E-02 0.  1.
       -2   -1    0    0    0  501  0.00000000000E+00  0.00000000000E+00 -0.19892620710E+03  0.19892620711E+03  0.25500000920E-02 0. -1.
    10030    2    1    2    0    0  0.00000000000E+00  0.00000000000E+00  0.25413294847E+03  0.65198536269E+03  0.60041765269E+03 0.  0.
        2    1    3    3  502    0 -0.71215362080E+02  0.73164013101E+02  0.43362653046E+03  0.44548464455E+03  0.25500000920E-02 0.  1.
       -2    1    3    3    0  502  0.71215362080E+02 -0.73164013101E+02 -0.17949358199E+03  0.20650071813E+03  0.25500000920E-02 0. -1.
</event>
<event>
 5   0  0.2313168E-03  0.6000670E+03  0.7818609E-02  0.9905267E-01
       -2   -1    0    0    0  501  0.00000000000E+00  0.00000000000E+00  0.20218301515E+03  0.20218301517E+03  0.25500000920E-02 0.  1.
        2   -1    0    0  501    0  0.00000000000E+00  0.00000000000E+00 -0.44524063678E+03  0.44524063678E+03  0.25500000920E-02 0. -1.
    10030    2    1    2    0    0  0.00000000000E+00  0.00000000000E+00 -0.24305762162E+03  0.64742365195E+03  0.60006697766E+03 0.  0.
        2    1    3    3  502    0  0.28983846026E+03 -0.50659938209E+02 -0.18487644362E+03  0.34749397376E+03  0.25500000920E-02 0. -1.
       -2    1    3    3    0  502 -0.28983846026E+03  0.50659938209E+02 -0.58181177997E+02  0.29992967820E+03  0.25500000920E-02 0.  1.
</event>
<event>
 5   0  0.1479385E-03  0.6003430E+03  0.7818609E-02  0.9904695E-01
        1   -1    0    0  501    0  0.00000000000E+00  0.00000000000E+00  0.90869189952E+03  0.90869189953E+03  0.50400001928E-02 0.  1.
       -1   -1    0    0    0  501  0.00000000000E+00  0.00000000000E+00 -0.99156737287E+02  0.99156737415E+02  0.50400001928E-02 0. -1.
    10030    2    1    2    0    0  0.00000000000E+00  0.00000000000E+00  0.80953516223E+03  0.10078486369E+04  0.60034298206E+03 0.  0.
        3    1    3    3  502    0  0.27437647554E+02  0.28606159083E+03  0.25919762670E+03  0.38699803377E+03  0.10100000352E+00 0. -1.
       -3    1    3    3    0  502 -0.27437647554E+02 -0.28606159083E+03  0.55033753553E+03  0.62085060318E+03  0.10100000352E+00 0.  1.
</event>
<event>
 5   0  0.1416315E-03  0.6008928E+03  0.7818609E-02  0.9903555E-01
        1   -1    0    0  501    0  0.00000000000E+00  0.00000000000E+00  0.65636654456E+03  0.65636654458E+03  0.50400001928E-02 0.  1.
       -1   -1    0    0    0  501  0.00000000000E+00  0.00000000000E+00 -0.13752688928E+03  0.13752688938E+03  0.50400001928E-02 0. -1.
    10030    2    1    2    0    0  0.00000000000E+00  0.00000000000E+00  0.51883965528E+03  0.79389343396E+03  0.60089283287E+03 0.  0.
        2    1    3    3  502    0 -0.52710575304E+02  0.38563840446E+01  0.65017667528E+03  0.65232122879E+03  0.25500000920E-02 0.  1.
       -2    1    3    3    0  502  0.52710575304E+02 -0.38563840446E+01 -0.13133702000E+03  0.14157220517E+03  0.25500000920E-02 0. -1.
</event>
<event>
 5   0  0.2421210E-03  0.6001059E+03  0.7818609E-02  0.9905186E-01
        2   -1    0    0  501    0  0.00000000000E+00  0.00000000000E+00  0.10568089242E+03  0.10568089245E+03  0.25500000920E-02 0. -1.
       -2   -1    0    0    0  501  0.00000000000E+00  0.00000000000E+00 -0.85192092000E+03  0.85192092000E+03  0.25500000920E-02 0.  1.
    10030    2    1    2    0    0  0.00000000000E+00  0.00000000000E+00 -0.74624002757E+03  0.95760181245E+03  0.60010586771E+03 0.  0.
        1    1    3    3  502    0  0.10431809957E+03 -0.19088212149E+03 -0.70291172143E+03  0.73580101818E+03  0.50400001928E-02 0.  1.
       -1    1    3    3    0  502 -0.10431809957E+03  0.19088212149E+03 -0.43328306142E+02  0.22180079427E+03  0.50400001928E-02 0. -1.
</event>
<event>
 5   0  0.9496750E-04  0.6001949E+03  0.7818609E-02  0.9905002E-01
        4   -1    0    0  501    0  0.00000000000E+00  0.00000000000E+00  0.41289178060E+03  0.41289373377E+03  0.12699999809E+01 0.  1.
       -4   -1    0    0    0  501  0.00000000000E+00  0.00000000000E+00 -0.21811210612E+03  0.21811580350E+03  0.12699999809E+01 0. -1.
    10030    2    1    2    0    0  0.00000000000E+00  0.00000000000E+00  0.19477967448E+03  0.63100953727E+03  0.60019489713E+03 0.  0.
        4    1    3    3  502    0 -0.40302642136E+02 -0.17311388640E+02 -0.21472369758E+03  0.21916173558E+03  0.12699999809E+01 0. -1.
       -4    1    3    3    0  502  0.40302642136E+02  0.17311388640E+02  0.40950337205E+03  0.41184780170E+03  0.12699999809E+01 0.  1.
</event>
<event>
 5   0  0.1418763E-03  0.6001137E+03  0.7818609E-02  0.9905170E-01
       -1   -1    0    0    0  501  0.00000000000E+00  0.00000000000E+00  0.19223077771E+03  0.19223077777E+03  0.50400001928E-02 0.  1.
        1   -1    0    0  501    0  0.00000000000E+00  0.00000000000E+00 -0.46836473612E+03  0.46836473615E+03  0.50400001928E-02 0. -1.
    10030    2    1    2    0    0  0.00000000000E+00  0.00000000000E+00 -0.27613395841E+03  0.66059551392E+03  0.60011371424E+03 0.  0.
        5    1    3    3  502    0  0.19362415049E+03 -0.17389676232E+03  0.26247398401E+02  0.26161309508E+03  0.46999998093E+01 0.  1.
       -5    1    3    3    0  502 -0.19362415049E+03  0.17389676232E+03 -0.30238135681E+03  0.39898241884E+03  0.46999998093E+01 0. -1.
</event>
<event>
 5   0  0.2406307E-03  0.5999955E+03  0.7818609E-02  0.9905415E-01
       -2   -1    0    0    0  501  0.00000000000E+00  0.00000000000E+00  0.34458931506E+03  0.34458931506E+03  0.25500000920E-02 0. -1.
        2   -1    0    0  501    0  0.00000000000E+00  0.00000000000E+00 -0.26117654384E+03  0.26117654385E+03  0.25500000920E-02 0.  1.
    10030    2    1    2    0    0  0.00000000000E+00  0.00000000000E+00  0.83412771219E+02  0.60576585891E+03  0.59999548784E+03 0.  0.
        5    1    3    3  502    0 -0.23910402035E+03 -0.17421150668E+03  0.91742829831E+02  0.30977284973E+03  0.46999998093E+01 0. -1.
       -5    1    3    3    0  502  0.23910402035E+03  0.17421150668E+03 -0.83300586120E+01  0.29599300918E+03  0.46999998093E+01 0.  1.
</event>
<event>
 5   0  0.9496750E-04  0.5997795E+03  0.7818609E-02  0.9905864E-01
        4   -1    0    0  501    0  0.00000000000E+00  0.00000000000E+00  0.21247219228E+03  0.21247598780E+03  0.12699999809E+01 0.  1.
       -4   -1    0    0    0  501  0.00000000000E+00  0.00000000000E+00 -0.42326501107E+03  0.42326691637E+03  0.12699999809E+01 0. -1.
    10030    2    1    2    0    0  0.00000000000E+00  0.00000000000E+00 -0.21079281879E+03  0.63574290417E+03  0.59977948260E+03 0.  0.
        1    1    3    3  502    0  0.63522177732E+02 -0.68412748859E+02  0.19668038230E+03  0.21771206691E+03  0.50400001928E-02 0.  1.
       -1    1    3    3    0  502 -0.63522177732E+02  0.68412748859E+02 -0.40747320109E+03  0.41803083726E+03  0.50400001928E-02 0. -1.
</event>
<event>
 5   0  0.1479385E-03  0.5991310E+03  0.7818609E-02  0.9907211E-01
        1   -1    0    0  501    0  0.00000000000E+00  0.00000000000E+00  0.94871711906E+03  0.94871711907E+03  0.50400001928E-02 0.  1.
       -1   -1    0    0    0  501  0.00000000000E+00  0.00000000000E+00 -0.94590368740E+02  0.94590368874E+02  0.50400001928E-02 0. -1.
    10030    2    1    2    0    0  0.00000000000E+00  0.00000000000E+00  0.85412675032E+03  0.10433074879E+04  0.59913104476E+03 0.  0.
        3    1    3    3  502    0 -0.70842497691E+02 -0.13316272171E+02 -0.79263099693E+02  0.10713837668E+03  0.10100000352E+00 0. -1.
       -3    1    3    3    0  502  0.70842497691E+02  0.13316272171E+02  0.93338985001E+03  0.93616911127E+03  0.10100000352E+00 0.  1.
</event>
<event>
 5   0  0.1479385E-03  0.6038682E+03  0.7818609E-02  0.9897413E-01
       -1   -1    0    0    0  501  0.00000000000E+00  0.00000000000E+00  0.33797690301E+03  0.33797690304E+03  0.50400001928E-02 0. -1.
        1   -1    0    0  501    0  0.00000000000E+00  0.00000000000E+00 -0.26973497325E+03  0.26973497330E+03  0.50400001928E-02 0.  1.
    10030    2    1    2    0    0  0.00000000000E+00  0.00000000000E+00  0.68241929755E+02  0.60771187634E+03  0.60386816746E+03 0.  0.
        3    1    3    3  502    0 -0.20410268931E+03  0.20531440445E+03  0.12041211539E+03  0.31354585022E+03  0.10100000352E+00 0.  1.
       -3    1    3    3    0  502  0.20410268931E+03 -0.20531440445E+03 -0.52170185630E+02  0.29416602613E+03  0.10100000352E+00 0. -1.
</event>
<event>
 5   0  0.2313168E-03  0.5998461E+03  0.7818609E-02  0.9905725E-01
        2   -1    0    0  501    0  0.00000000000E+00  0.00000000000E+00  0.79104343224E+03  0.79104343224E+03  0.25500000920E-02 0.  1.
       -2   -1    0    0    0  501  0.00000000000E+00  0.00000000000E+00 -0.11371543816E+03  0.11371543819E+03  0.25500000920E-02 0. -1.
    10030    2    1    2    0    0  0.00000000000E+00  0.00000000000E+00  0.67732799408E+03  0.90475887043E+03  0.59984614866E+03 0.  0.
        2    1    3    3  502    0 -0.26861245985E+03  0.12352323808E+03  0.26259918546E+03  0.39543517312E+03  0.25500000920E-02 0.  1.
       -2    1    3    3    0  502  0.26861245985E+03 -0.12352323808E+03  0.41472880862E+03  0.50932369731E+03  0.25500000920E-02 0. -1.
</event>
<event>
 5   0  0.2421210E-03  0.5999744E+03  0.7818609E-02  0.9905459E-01
       -2   -1    0    0    0  501  0.00000000000E+00  0.00000000000E+00  0.67332855767E+02  0.67332855815E+02  0.25500000920E-02 0.  1.
        2   -1    0    0  501    0  0.00000000000E+00  0.00000000000E+00 -0.13365291128E+04  0.13365291128E+04  0.25500000920E-02 0. -1.
    10030    2    1    2    0    0  0.00000000000E+00  0.00000000000E+00 -0.12691962571E+04  0.14038619687E+04  0.59997440618E+03 0.  0.
        1    1    3    3  502    0 -0.19601900847E+03  0.17405380988E+03 -0.97588352627E+03  0.10104785190E+04  0.50400001928E-02 0. -1.
       -1    1    3    3    0  502  0.19601900847E+03 -0.17405380988E+03 -0.29331273079E+03  0.39338344968E+03  0.50400001928E-02 0.  1.
</event>
<event>
 5   0  0.1423430E-03  0.6001040E+03  0.7818609E-02  0.9905190E-01
        1   -1    0    0  501    0  0.00000000000E+00  0.00000000000E+00  0.10348797679E+04  0.10348797679E+04  0.50400001928E-02 0. -1.
       -1   -1    0    0    0  501  0.00000000000E+00  0.00000000000E+00 -0.86996787652E+02  0.86996787798E+02  0.50400001928E-02 0.  1.
    10030    2    1    2    0    0  0.00000000000E+00  0.00000000000E+00  0.94788298028E+03  0.11218765557E+04  0.60010404266E+03 0.  0.
        1    1    3    3  502    0  0.15283344531E+03 -0.23897783824E+03  0.29112732767E+03  0.40647704747E+03  0.50400001928E-02 0.  1.
       -1    1    3    3    0  502 -0.15283344531E+03  0.23897783824E+03  0.65675565261E+03  0.71539950827E+03  0.50400001928E-02 0. -1.
</event>
<event>
 5   0  0.2421210E-03  0.5996533E+03  0.7818609E-02  0.9906126E-01
       -2   -1    0    0    0  501  0.00000000000E+00  0.00000000000E+00  0.46755803010E+02  0.46755803080E+02  0.25500000920E-02 0.  1.
        2   -1    0    0  501    0  0.00000000000E+00  0.00000000000E+00 -0.19226709968E+04  0.19226709968E+04  0.25500000920E-02 0. -1.
    10030    2    1    2    0    0  0.00000000000E+00  0.00000000000E+00 -0.18759151938E+04  0.19694267998E+04  0.59965332134E+03 0.  0.
        1    1    3    3  502    0 -0.31433075882E+02  0.71987228964E+02 -0.18882764015E+04  0.18899095132E+04  0.50400001928E-02 0. -1.
       -1    1    3    3    0  502  0.31433075882E+02 -0.71987228964E+02  0.12361207791E+02  0.79517286654E+02  0.50400001928E-02 0.  1.
</event>
<event>
 5   0  0.2421210E-03  0.5999326E+03  0.7818609E-02  0.9905546E-01
       -2   -1    0    0    0  501  0.00000000000E+00  0.00000000000E+00  0.26796541222E+03  0.26796541223E+03  0.25500000920E-02 0. -1.
        2   -1    0    0  501    0  0.00000000000E+00  0.00000000000E+00 -0.33578875470E+03  0.33578875471E+03  0.25500000920E-02 0.  1.
    10030    2    1    2    0    0  0.00000000000E+00  0.00000000000E+00 -0.67823342485E+02  0.60375416694E+03  0.59993256981E+03 0.  0.
        1    1    3    3  502    0  0.72929053320E+02  0.82981001979E+02  0.24674701548E+03  0.27034900255E+03  0.50400001928E-02 0. -1.
       -1    1    3    3    0  502 -0.72929053320E+02 -0.82981001979E+02 -0.31457035796E+03  0.33340516439E+03  0.50400001928E-02 0.  1.
</event>
<event>
 5   0  0.2406307E-03  0.6011454E+03  0.7818609E-02  0.9903033E-01
       -2   -1    0    0    0  501  0.00000000000E+00  0.00000000000E+00  0.10534326584E+03  0.10534326587E+03  0.25500000920E-02 0.  1.
        2   -1    0    0  501    0  0.00000000000E+00  0.00000000000E+00 -0.85761471061E+03  0.85761471061E+03  0.25500000920E-02 0. -1.
    10030    2    1    2    0    0  0.00000000000E+00  0.00000000000E+00 -0.75227144477E+03  0.96295797648E+03  0.60114535502E+03 0.  0.
        5    1    3    3  502    0 -0.21835159133E+03  0.48382536601E+02 -0.69772349559E+03  0.73270625327E+03  0.46999998093E+01 0. -1.
       -5    1    3    3    0  502  0.21835159133E+03 -0.48382536601E+02 -0.54547949178E+02  0.23025172321E+03  0.46999998093E+01 0.  1.
</event>
<event>
 5   0  0.2346281E-03  0.6007864E+03  0.7818609E-02  0.9903776E-01
        2   -1    0    0  501    0  0.00000000000E+00  0.00000000000E+00  0.37377325841E+03  0.37377325841E+03  0.25500000920E-02 0. -1.
       -2   -1    0    0    0  501  0.00000000000E+00  0.00000000000E+00 -0.24141926050E+03  0.24141926051E+03  0.25500000920E-02 0.  1.
    10030    2    1    2    0    0  0.00000000000E+00  0.00000000000E+00  0.13235399791E+03  0.61519251892E+03  0.60078636351E+03 0.  0.
        3    1    3    3  502    0  0.13182839907E+03  0.23163460604E+03  0.20807377681E+03  0.33812427348E+03  0.10100000352E+00 0. -1.
       -3    1    3    3    0  502 -0.13182839907E+03 -0.23163460604E+03 -0.75719778905E+02  0.27706824545E+03  0.10100000352E+00 0.  1.
</event>
<event>
 5   0  0.1392854E-03  0.6000948E+03  0.7818609E-02  0.9905209E-01
        1   -1    0    0  501    0  0.00000000000E+00  0.00000000000E+00  0.13230666651E+04  0.13230666651E+04  0.50400001928E-02 0. -1.
       -1   -1    0    0    0  501  0.00000000000E+00  0.00000000000E+00 -0.68045277887E+02  0.68045278074E+02  0.50400001928E-02 0.  1.
    10030    2    1    2    0    0  0.00000000000E+00  0.00000000000E+00  0.12550213872E+04  0.13911119432E+04  0.60009478926E+03 0.  0.
        4    1    3    3  502    0 -0.17668289412E+02  0.94111037606E+02 -0.31667912971E+02  0.10086389573E+03  0.12699999809E+01 0.  1.
       -4    1    3    3    0  502  0.17668289412E+02 -0.94111037606E+02  0.12866893002E+04  0.12902480474E+04  0.12699999809E+01 0. -1.
</event>
<event>
 5   0  0.1423430E-03  0.5991954E+03  0.7818609E-02  0.9907077E-01
       -1   -1    0    0    0  501  0.00000000000E+00  0.00000000000E+00  0.89668083895E+03  0.89668083897E+03  0.50400001928E-02 0.  1.
        1   -1    0    0  501    0  0.00000000000E+00  0.00000000000E+00 -0.10010113538E+03  0.10010113551E+03  0.50400001928E-02 0. -1.
    10030    2    1    2    0    0  0.00000000000E+00  0.00000000000E+00  0.79657970357E+03  0.99678197448E+03  0.59919536088E+03 0.  0.
        1    1    3    3  502    0  0.11354318144E+03 -0.15027100661E+03  0.10699447041E+02  0.18864757532E+03  0.50400001928E-02 0. -1.
       -1    1    3    3    0  502 -0.11354318144E+03  0.15027100661E+03  0.78588025653E+03  0.80813439916E+03  0.50400001928E-02 0.  1.
</event>
<event>
 5   0  0.1423430E-03  0.5997858E+03  0.7818609E-02  0.9905851E-01
       -1   -1    0    0    0  501  0.00000000000E+00  0.00000000000E+00  0.24790448385E+03  0.24790448390E+03  0.50400001928E-02 0. -1.
        1   -1    0    0  501    0  0.00000000000E+00  0.00000000000E+00 -0.36278382984E+03  0.36278382987E+03  0.50400001928E-02 0.  1.
    10030    2    1    2    0    0  0.00000000000E+00  0.00000000000E+00 -0.11487934599E+03  0.61068831377E+03  0.59978575545E+03 0.  0.
        1    1    3    3  502    0 -0.29119397463E+03  0.28071428975E+02  0.97430812396E+01  0.29270610455E+03  0.50400001928E-02 0. -1.
       -1    1    3    3    0  502  0.29119397463E+03 -0.28071428975E+02 -0.12462242723E+03  0.31798220922E+03  0.50400001928E-02 0.  1.
</event>
<event>
 5   0  0.2406307E-03  0.5999215E+03  0.7818609E-02  0.9905569E-01
       -2   -1    0    0    0  501  0.00000000000E+00  0.00000000000E+00  0.11319268744E+03  0.11319268746E+03  0.25500000920E-02 0.  1.
        2   -1    0    0  501    0  0.00000000000E+00  0.00000000000E+00 -0.79489627045E+03  0.79489627045E+03  0.25500000920E-02 0. -1.
    10030    2    1    2    0    0  0.00000000000E+00  0.00000000000E+00 -0.68170358301E+03  0.90808895792E+03  0.59992147853E+03 0.  0.
        5    1    3    3  502    0 -0.26863862379E+02  0.12084424675E+03 -0.75436447114E+03  0.76446899504E+03  0.46999998093E+01 0. -1.
       -5    1    3    3    0  502  0.26863862379E+02 -0.12084424675E+03  0.72660888124E+02  0.14361996287E+03  0.46999998093E+01 0.  1.
</event>
<event>
 5   0  0.2421210E-03  0.5998901E+03  0.7818609E-02  0.9905634E-01
        2   -1    0    0  501    0  0.00000000000E+00  0.00000000000E+00  0.86082062724E+03  0.86082062724E+03  0.25500000920E-02 0. -1.
       -2   -1    0    0    0  501  0.00000000000E+00  0.00000000000E+00 -0.10451310458E+03  0.10451310461E+03  0.25500000920E-02 0.  1.
    10030    2    1    2    0    0  0.00000000000E+00  0.00000000000E+00  0.75630752266E+03  0.96533373185E+03  0.59989011078E+03 0.  0.
        1    1    3    3  502    0  0.11953269103E+03  0.22759383714E+03  0.62682359164E+03  0.67749157485E+03  0.50400001928E-02 0. -1.
       -1    1    3    3    0  502 -0.11953269103E+03 -0.22759383714E+03  0.12948393102E+03  0.28784215700E+03  0.50400001928E-02 0.  1.
</event>
<event>
 5   0  0.1479385E-03  0.5997499E+03  0.7818609E-02  0.9905925E-01
        1   -1    0    0  501    0  0.00000000000E+00  0.00000000000E+00  0.82932414269E+03  0.82932414270E+03  0.50400001928E-02 0.  1.
       -1   -1    0    0    0  501  0.00000000000E+00  0.00000000000E+00 -0.10843163321E+03  0.10843163333E+03  0.50400001928E-02 0. -1.
    10030    2    1    2    0    0  0.00000000000E+00  0.00000000000E+00  0.72089250948E+03  0.93775577603E+03  0.59974985224E+03 0.  0.
        3    1    3    3  502    0  0.24467229305E+03 -0.14515000269E+03  0.50871359531E+03  0.58285726085E+03  0.10100000352E+00 0.  1.
       -3    1    3    3    0  502 -0.24467229305E+03  0.14515000269E+03  0.21217891416E+03  0.35489851519E+03  0.10100000352E+00 0. -1.
</event>
<event>
 5   0  0.1479385E-03  0.6000665E+03  0.7818609E-02  0.9905268E-01
        1   -1    0    0  501    0  0.00000000000E+00  0.00000000000E+00  0.83795806101E+03  0.83795806103E+03  0.50400001928E-02 0.  1.
       -1   -1    0    0    0  501  0.00000000000E+00  0.00000000000E+00 -0.10742774974E+03  0.10742774985E+03  0.50400001928E-02 0. -1.
    10030    2    1    2    0    0  0.00000000000E+00  0.00000000000E+00  0.73053031128E+03  0.94538581088E+03  0.60006649275E+03 0.  0.
        3    1    3    3  502    0  0.26698198674E+02 -0.19359370951E+03  0.65955890276E+01  0.19553728588E+03  0.10100000352E+00 0. -1.
       -3    1    3    3    0  502 -0.26698198674E+02  0.19359370951E+03  0.72393472225E+03  0.74984852500E+03  0.10100000352E+00 0.  1.
</event>
<event>
 5   0  0.2421210E-03  0.5999277E+03  0.7818609E-02  0.9905556E-01
       -2   -1    0    0    0  501  0.00000000000E+00  0.00000000000E+00  0.20042026135E+03  0.20042026137E+03  0.25500000920E-02 0.  1.
        2   -1    0    0  501    0  0.00000000000E+00  0.00000000000E+00 -0.44894818217E+03  0.44894818218E+03  0.25500000920E-02 0. -1.
    10030    2    1    2    0    0  0.00000000000E+00  0.00000000000E+00 -0.24852792082E+03  0.64936844355E+03  0.59992770235E+03 0.  0.
        1    1    3    3  502    0 -0.91869805579E+02 -0.10593462172E+03 -0.41128892490E+03  0.43453513670E+03  0.50400001928E-02 0. -1.
       -1    1    3    3    0  502  0.91869805579E+02  0.10593462172E+03  0.16276100408E+03  0.21483330685E+03  0.50400001928E-02 0.  1.
</event>
<event>
 5   0  0.9496750E-04  0.6003145E+03  0.7818609E-02  0.9904754E-01
       -3   -1    0    0    0  501  0.00000000000E+00  0.00000000000E+00  0.54870932832E+03  0.54870933762E+03  0.10100000352E+00 0.  1.
        3   -1    0    0  501    0  0.00000000000E+00  0.00000000000E+00 -0.16419323269E+03  0.16419326375E+03  0.10100000352E+00 0. -1.
    10030    2    1    2    0    0  0.00000000000E+00  0.00000000000E+00  0.38451609563E+03  0.71290260137E+03  0.60031449361E+03 0.  0.
        5    1    3    3  502    0  0.23646967198E+02 -0.98785931496E+02  0.52763160332E+03  0.53734070955E+03  0.46999998093E+01 0.  1.
       -5    1    3    3    0  502 -0.23646967198E+02  0.98785931496E+02 -0.14311550769E+03  0.17556189182E+03  0.46999998093E+01 0. -1.
</event>
<event>
 5   0  0.1423430E-03  0.6009463E+03  0.7818609E-02  0.9903445E-01
        1   -1    0    0  501    0  0.00000000000E+00  0.00000000000E+00  0.78289650851E+03  0.78289650853E+03  0.50400001928E-02 0. -1.
       -1   -1    0    0    0  501  0.00000000000E+00  0.00000000000E+00 -0.11532061483E+03  0.11532061495E+03  0.50400001928E-02 0.  1.
    10030    2    1    2    0    0  0.00000000000E+00  0.00000000000E+00  0.66757589368E+03  0.89821712347E+03  0.60094627637E+03 0.  0.
        1    1    3    3  502    0  0.14858090214E+03 -0.80809027040E+02  0.70498955510E+03  0.72499424560E+03  0.50400001928E-02 0. -1.
       -1    1    3    3    0  502 -0.14858090214E+03  0.80809027040E+02 -0.37413661419E+02  0.17322287787E+03  0.50400001928E-02 0.  1.
</event>
<event>
 5   0  0.1416315E-03  0.6001562E+03  0.7818609E-02  0.9905082E-01
       -1   -1    0    0    0  501  0.00000000000E+00  0.00000000000E+00  0.49843412581E+03  0.49843412583E+03  0.50400001928E-02 0.  1.
        1   -1    0    0  501    0  0.00000000000E+00  0.00000000000E+00 -0.18065950970E+03  0.18065950977E+03  0.50400001928E-02 0. -1.
    10030    2    1    2    0    0  0.00000000000E+00  0.00000000000E+00  0.31777461611E+03  0.67909363560E+03  0.60015619573E+03 0.  0.
        2    1    3    3  502    0 -0.40672103712E+02 -0.11048528526E+03 -0.15343423749E+03  0.19339928521E+03  0.25500000920E-02 0. -1.
       -2    1    3    3    0  502  0.40672103712E+02  0.11048528526E+03  0.47120885360E+03  0.48569435039E+03  0.25500000920E-02 0.  1.
</event>
<event>
 5   0  0.1392854E-03  0.5999543E+03  0.7818609E-02  0.9905501E-01
        1   -1    0    0  501    0  0.00000000000E+00  0.00000000000E+00  0.36423836867E+03  0.36423836870E+03  0.50400001928E-02 0.  1.
       -1   -1    0    0    0  501  0.00000000000E+00  0.00000000000E+00 -0.24705327405E+03  0.24705327410E+03  0.50400001928E-02 0. -1.
    10030    2    1    2    0    0  0.00000000000E+00  0.00000000000E+00  0.11718509462E+03  0.61129164280E+03  0.59995427006E+03 0.  0.
        4    1    3    3  502    0  0.14032308207E+03  0.13646220440E+03 -0.17301817006E+03  0.26124586248E+03  0.12699999809E+01 0. -1.
       -4    1    3    3    0  502 -0.14032308207E+03 -0.13646220440E+03  0.29020326468E+03  0.35004578032E+03  0.12699999809E+01 0.  1.
</event>
<event>
 5   0  0.1416315E-03  0.6011389E+03  0.7818609E-02  0.9903046E-01
        1   -1    0    0  501    0  0.00000000000E+00  0.00000000000E+00  0.44103927222E+03  0.44103927225E+03  0.50400001928E-02 0.  1.
       -1   -1    0    0    0  501  0.00000000000E+00  0.00000000000E+00 -0.20483886156E+03  0.20483886162E+03  0.50400001928E-02 0. -1.
    10030    2    1    2    0    0  0.00000000000E+00  0.00000000000E+00  0.23620041066E+03  0.64587813387E+03  0.60113886068E+03 0.  0.
        2    1    3    3  502    0 -0.19019551425E+03  0.18358677796E+03  0.27179749186E+03  0.37914682548E+03  0.25500000920E-02 0.  1.
       -2    1    3    3    0  502  0.19019551425E+03 -0.18358677796E+03 -0.35597081201E+02  0.26673130839E+03  0.25500000920E-02 0. -1.
</event>
<event>
 5   0  0.1392854E-03  0.5997895E+03  0.7818609E-02  0.9905843E-01
       -1   -1    0    0    0  501  0.00000000000E+00  0.00000000000E+00  0.92527193447E+03  0.92527193449E+03  0.50400001928E-02 0. -1.
        1   -1    0    0  501    0  0.00000000000E+00  0.00000000000E+00 -0.97200457631E+02  0.97200457762E+02  0.50400001928E-02 0.  1.
    10030    2    1    2    0    0  0.00000000000E+00  0.00000000000E+00  0.82807147684E+03  0.10224723922E+04  0.59978948153E+03 0.  0.
        4    1    3    3  502    0  0.70254689465E+02 -0.11484167315E+03 -0.42787264568E+02  0.14126816412E+03  0.12699999809E+01 0.  1.
       -4    1    3    3    0  502 -0.70254689465E+02  0.11484167315E+03  0.87085874141E+03  0.88120422813E+03  0.12699999809E+01 0. -1.
</event>
<event>
 5   0  0.1479385E-03  0.6001592E+03  0.7818609E-02  0.9905076E-01
        1   -1    0    0  501    0  0.00000000000E+00  0.00000000000E+00  0.22228078317E+03  0.22228078323E+03  0.50400001928E-02 0. -1.
       -1   -1    0    0    0  501  0.00000000000E+00  0.00000000000E+00 -0.40510819710E+03  0.40510819713E+03  0.50400001928E-02 0.  1.
    10030    2    1    2    0    0  0.00000000000E+00  0.00000000000E+00 -0.18282741393E+03  0.62738898036E+03  0.60015920338E+03 0.  0.
        3    1    3    3  502    0 -0.28089598647E+03  0.10295277377E+03 -0.66988501702E+02  0.30657674146E+03  0.10100000352E+00 0. -1.
       -3    1    3    3    0  502  0.28089598647E+03 -0.10295277377E+03 -0.11583891223E+03  0.32081223890E+03  0.10100000352E+00 0.  1.
</event>
<event>
 5   0  0.1392854E-03  0.5997954E+03  0.7818609E-02  0.9905831E-01
       -1   -1    0    0    0  501  0.00000000000E+00  0.00000000000E+00  0.15666646048E+03  0.15666646056E+03  0.50400001928E-02 0.  1.
        1   -1    0    0  501    0  0.00000000000E+00  0.00000000000E+00 -0.57407704700E+03  0.57407704702E+03  0.50400001928E-02 0. -1.
    10030    2    1    2    0    0  0.00000000000E+00  0.00000000000E+00 -0.41741058652E+03  0.73074350758E+03  0.59979536188E+03 0.  0.
        4    1    3    3  502    0 -0.28240212727E+01 -0.24702177700E+03 -0.41585315059E+03  0.48369741489E+03  0.12699999809E+01 0. -1.
       -4    1    3    3    0  502  0.28240212727E+01  0.24702177700E+03 -0.15574359306E+01  0.24704609270E+03  0.12699999809E+01 0.  1.
</event>
<event>
 5   0  0.2346281E-03  0.5995468E+03  0.7818609E-02  0.9906347E-01
       -2   -1    0    0    0  501  0.00000000000E+00  0.00000000000E+00  0.50164804875E+02  0.50164804940E+02  0.25500000920E-02 0.  1.
        2   -1    0    0  501    0  0.00000000000E+00  0.00000000000E+00 -0.17913772524E+04  0.17913772524E+04  0.25500000920E-02 0. -1.
    10030    2    1    2    0    0  0.00000000000E+00  0.00000000000E+00 -0.17412124476E+04  0.18415420574E+04  0.59954679679E+03 0.  0.
        3    1    3    3  502    0 -0.11089955407E+03  0.26176796587E+03 -0.57851907713E+03  0.64459717022E+03  0.10100000352E+00 0.  1.
       -3    1    3    3    0  502  0.11089955407E+03 -0.26176796587E+03 -0.11626933704E+04  0.11969448872E+04  0.10100000352E+00 0. -1.
</event>
<event>
 5   0  0.1416315E-03  0.5999938E+03  0.7818609E-02  0.9905419E-01
       -1   -1    0    0    0  501  0.00000000000E+00  0.00000000000E+00  0.51575130008E+02  0.51575130254E+02  0.50400001928E-02 0. -1.
        1   -1    0    0  501    0  0.00000000000E+00  0.00000000000E+00 -0.17449909161E+04  0.17449909161E+04  0.50400001928E-02 0.  1.
    10030    2    1    2    0    0  0.00000000000E+00  0.00000000000E+00 -0.16934157861E+04  0.17965660464E+04  0.59999377860E+03 0.  0.
        2    1    3    3  502    0 -0.77287149141E+02  0.14922846494E+03 -0.10260164925E+03  0.19689981363E+03  0.25500000920E-02 0. -1.
       -2    1    3    3    0  502  0.77287149141E+02 -0.14922846494E+03 -0.15908141369E+04  0.15996662328E+04  0.25500000920E-02 0.  1.
</event>
<event>
 5   0  0.1479385E-03  0.6005032E+03  0.7818609E-02  0.9904363E-01
       -1   -1    0    0    0  501  0.00000000000E+00  0.00000000000E+00  0.22064334137E+03  0.22064334143E+03  0.50400001928E-02 0.  1.
        1   -1    0    0  501    0  0.00000000000E+00  0.00000000000E+00 -0.40858263437E+03  0.40858263440E+03  0.50400001928E-02 0. -1.
    10030    2    1    2    0    0  0.00000000000E+00  0.00000000000E+00 -0.18793929300E+03  0.62922597583E+03  0.60050324795E+03 0.  0.
        3    1    3    3  502    0 -0.21022519833E+03  0.21065023375E+03 -0.13565795273E+03  0.32706458893E+03  0.10100000352E+00 0.  1.
       -3    1    3    3    0  502  0.21022519833E+03 -0.21065023375E+03 -0.52281340267E+02  0.30216138690E+03  0.10100000352E+00 0. -1.
</event>
<event>
 5   0  0.9496750E-04  0.6001859E+03  0.7818609E-02  0.9905021E-01
       -4   -1    0    0    0  501  0.00000000000E+00  0.00000000000E+00  0.58118843811E+03  0.58118982569E+03  0.12699999809E+01 0. -1.
        4   -1    0    0  501    0  0.00000000000E+00  0.00000000000E+00 -0.15494688887E+03  0.15495209347E+03  0.12699999809E+01 0.  1.
    10030    2    1    2    0    0  0.00000000000E+00  0.00000000000E+00  0.42624154924E+03  0.73614191916E+03  0.60018586026E+03 0.  0.
        1    1    3    3  502    0 -0.20766956543E+03  0.17520777008E+03  0.36938270513E+03  0.45854988167E+03  0.50400001928E-02 0. -1.
       -1    1    3    3    0  502  0.20766956543E+03 -0.17520777008E+03  0.56858844106E+02  0.27759203750E+03  0.50400001928E-02 0.  1.
</event>
<event>
 5   0  0.2421210E-03  0.5998264E+03  0.7818609E-02  0.9905766E-01
        2   -1    0    0  501    0  0.00000000000E+00  0.00000000000E+00  0.15033056716E+04  0.15033056716E+04  0.25500000920E-02 0.  1.
       -2   -1    0    0    0  501  0.00000000000E+00  0.00000000000E+00 -0.59833434250E+02  0.59833434304E+02  0.25500000920E-02 0. -1.
    10030    2    1    2    0    0  0.00000000000E+00  0.00000000000E+00  0.14434722373E+04  0.15631391059E+04  0.59982644524E+03 0.  0.
        1    1    3    3  502    0  0.21030881509E+03 -0.19285417109E+03  0.96235500296E+03  0.10037677424E+04  0.50400001928E-02 0.  1.
       -1    1    3    3    0  502 -0.21030881509E+03  0.19285417109E+03  0.48111723437E+03  0.55937136345E+03  0.50400001928E-02 0. -1.
</event>
<event>
 5   0  0.9496750E-04  0.5998965E+03  0.7818609E-02  0.9905621E-01
        3   -1    0    0  501    0  0.00000000000E+00  0.00000000000E+00  0.93730729276E+02  0.93730783693E+02  0.10100000352E+00 0.  1.
       -3   -1    0    0    0  501  0.00000000000E+00  0.00000000000E+00 -0.95986565041E+03  0.95986565573E+03  0.10100000352E+00 0. -1.
    10030    2    1    2    0    0  0.00000000000E+00  0.00000000000E+00 -0.86613492114E+03  0.10535964394E+04  0.59989645402E+03 0.  0.
        4    1    3    3  502    0 -0.19614035033E+03  0.16001804136E+03 -0.15046993983E+03  0.29448196258E+03  0.12699999809E+01 0.  1.
       -4    1    3    3    0  502  0.19614035033E+03 -0.16001804136E+03 -0.71566498131E+03  0.75911447685E+03  0.12699999809E+01 0. -1.
</event>
<event>
 5   0  0.1423430E-03  0.5998132E+03  0.7818609E-02  0.9905794E-01
       -1   -1    0    0    0  501  0.00000000000E+00  0.00000000000E+00  0.12600992387E+03  0.12600992397E+03  0.50400001928E-02 0.  1.
        1   -1    0    0  501    0  0.00000000000E+00  0.00000000000E+00 -0.71378485373E+03  0.71378485374E+03  0.50400001928E-02 0. -1.
    10030    2    1    2    0    0  0.00000000000E+00  0.00000000000E+00 -0.58777492986E+03  0.83979477772E+03  0.59981322136E+03 0.  0.
        1    1    3    3  502    0 -0.11028597283E+03 -0.27837711909E+03 -0.31761312217E+03  0.43650304883E+03  0.50400001928E-02 0.  1.
       -1    1    3    3    0  502  0.11028597283E+03  0.27837711909E+03 -0.27016180768E+03  0.40329172889E+03  0.50400001928E-02 0. -1.
</event>
<event>
 5   0  0.2313168E-03  0.5999821E+03  0.7818609E-02  0.9905443E-01
       -2   -1    0    0    0  501  0.00000000000E+00  0.00000000000E+00  0.21670065043E+03  0.21670065045E+03  0.25500000920E-02 0.  1.
        2   -1    0    0  501    0  0.00000000000E+00  0.00000000000E+00 -0.41529464168E+03  0.41529464169E+03  0.25500000920E-02 0. -1.
    10030    2    1    2    0    0  0.00000000000E+00  0.00000000000E+00 -0.19859399125E+03  0.63199529214E+03  0.59998206300E+03 0.  0.
        2    1    3    3  502    0  0.37683838771E+02  0.27806745976E+03  0.12443453541E+02  0.28088507156E+03  0.25500000920E-02 0.  1.
       -2    1    3    3    0  502 -0.37683838771E+02 -0.27806745976E+03 -0.21103744479E+03  0.35111022058E+03  0.25500000920E-02 0. -1.
</event>
<event>
 5   0  0.1418763E-03  0.6000626E+03  0.7818609E-02  0.9905276E-01
        1   -1    0    0  501    0  0.00000000000E+00  0.00000000000E+00  0.35316709611E+03  0.35316709615E+03  0.50400001928E-02 0.  1.
       -1   -1    0    0    0  501  0.00000000000E+00  0.00000000000E+00 -0.25489002262E+03  0.25489002267E+03  0.50400001928E-02 0. -1.
    10030    2    1    2    0    0  0.00000000000E+00  0.00000000000E+00  0.98277073494E+02  0.60805711882E+03  0.60006256055E+03 0.  0.
        5    1    3    3  502    0 -0.92070611347E+02  0.24096983804E+03 -0.10604622519E+03  0.27894686267E+03  0.46999998093E+01 0. -1.
       -5    1    3    3    0  502  0.92070611347E+02 -0.24096983804E+03  0.20432329869E+03  0.32911025615E+03  0.46999998093E+01 0.  1.
</event>
<event>
 5   0  0.1392854E-03  0.5999909E+03  0.7818609E-02  0.9905425E-01
       -1   -1    0    0    0  501  0.00000000000E+00  0.00000000000E+00  0.93759102754E+02  0.93759102889E+02  0.50400001928E-02 0. -1.
        1   -1    0    0  501    0  0.00000000000E+00  0.00000000000E+00 -0.95987754379E+03  0.95987754380E+03  0.50400001928E-02 0.  1.
    10030    2    1    2    0    0  0.00000000000E+00  0.00000000000E+00 -0.86611844104E+03  0.10536366467E+04  0.59999085772E+03 0.  0.
        4    1    3    3  502    0 -0.24668411771E+03 -0.16001262099E+03 -0.53752138081E+03  0.61268910594E+03  0.12699999809E+01 0. -1.
       -4    1    3    3    0  502  0.24668411771E+03  0.16001262099E+03 -0.32859706022E+03  0.44094754075E+03  0.12699999809E+01 0.  1.
</event>
<event>
 5   0  0.1423430E-03  0.5999163E+03  0.7818609E-02  0.9905580E-01
       -1   -1    0    0    0  501  0.00000000000E+00  0.00000000000E+00  0.12041821479E+03  0.12041821490E+03  0.50400001928E-02 0.  1.
        1   -1    0    0  501    0  0.00000000000E+00  0.00000000000E+00 -0.74718680446E+03  0.74718680448E+03  0.50400001928E-02 0. -1.
    10030    2    1    2    0    0  0.00000000000E+00  0.00000000000E+00 -0.62676858966E+03  0.86760501937E+03  0.59991633138E+03 0.  0.
        1    1    3    3  502    0  0.10413739022E+02 -0.37595193105E+02  0.11673387946E+03  0.12307982428E+03  0.50400001928E-02 0.  1.
       -1    1    3    3    0  502 -0.10413739022E+02  0.37595193105E+02 -0.74350246913E+03  0.74452519509E+03  0.50400001928E-02 0. -1.
</event>
<event>
 5   0  0.9496750E-04  0.6003626E+03  0.7818609E-02  0.9904654E-01
       -3   -1    0    0    0  501  0.00000000000E+00  0.00000000000E+00  0.10415521903E+03  0.10415526800E+03  0.10100000352E+00 0. -1.
        3   -1    0    0  501    0  0.00000000000E+00  0.00000000000E+00 -0.86513956183E+03  0.86513956772E+03  0.10100000352E+00 0.  1.
    10030    2    1    2    0    0  0.00000000000E+00  0.00000000000E+00 -0.76098434280E+03  0.96929483573E+03  0.60036264756E+03 0.  0.
        2    1    3    3  502    0 -0.11766952343E+01 -0.15432142276E+03 -0.79618632120E+03  0.81100502107E+03  0.25500000920E-02 0.  1.
       -2    1    3    3    0  502  0.11766952343E+01  0.15432142276E+03  0.35201978405E+02  0.15828981465E+03  0.25500000920E-02 0. -1.
</event>
<event>
 5   0  0.2346281E-03  0.5999530E+03  0.7818609E-02  0.9905504E-01
        2   -1    0    0  501    0  0.00000000000E+00  0.00000000000E+00  0.97223560906E+03  0.97223560906E+03  0.25500000920E-02 0.  1.
       -2   -1    0    0    0  501  0.00000000000E+00  0.00000000000E+00 -0.92555656306E+02  0.92555656341E+02  0.25500000920E-02 0. -1.
    10030    2    1    2    0    0  0.00000000000E+00  0.00000000000E+00  0.87967995276E+03  0.10647912654E+04  0.59995301450E+03 0.  0.
        3    1    3    3  502    0 -0.24241157807E+03 -0.16590122251E+03  0.33189377553E+03  0.44321561034E+03  0.10100000352E+00 0.  1.
       -3    1    3    3    0  502  0.24241157807E+03  0.16590122251E+03  0.54778617722E+03  0.62157565506E+03  0.10100000352E+00 0. -1.
</event>
<event>
 5   0  0.2324616E-03  0.6021390E+03  0.7818609E-02  0.9900978E-01
       -2   -1    0    0    0  501  0.00000000000E+00  0.00000000000E+00  0.20968321192E+03  0.20968321194E+03  0.25500000920E-02 0.  1.
        2   -1    0    0  501    0  0.00000000000E+00  0.00000000000E+00 -0.43228464861E+03  0.43228464862E+03  0.25500000920E-02 0. -1.
    10030    2    1    2    0    0  0.00000000000E+00  0.00000000000E+00 -0.22260143669E+03  0.64196786056E+03  0.60213896600E+03 0.  0.
        4    1    3    3  502    0  0.12383957870E+03 -0.23657453848E+03  0.36956671045E+02  0.26957589274E+03  0.12699999809E+01 0.  1.
       -4    1    3    3    0  502 -0.12383957870E+03  0.23657453848E+03 -0.25955810773E+03  0.37239196782E+03  0.12699999809E+01 0. -1.
</event>
<event>
 5   0  0.1392854E-03  0.5999659E+03  0.7818609E-02  0.9905477E-01
        1   -1    0    0  501    0  0.00000000000E+00  0.00000000000E+00  0.16899391135E+04  0.16899391135E+04  0.50400001928E-02 0.  1.
       -1   -1    0    0    0  501  0.00000000000E+00  0.00000000000E+00 -0.53250307108E+02  0.53250307347E+02  0.50400001928E-02 0. -1.
    10030    2    1    2    0    0  0.00000000000E+00  0.00000000000E+00  0.16366888064E+04  0.17431894208E+04  0.59996592237E+03 0.  0.
        4    1    3    3  502    0 -0.59232616643E+02 -0.28036819449E+03  0.56053579668E+03  0.62953698828E+03  0.12699999809E+01 0. -1.
       -4    1    3    3    0  502  0.59232616643E+02  0.28036819449E+03  0.10761530097E+04  0.11136524326E+04  0.12699999809E+01 0.  1.
</event>
<event>
 5   0  0.1479385E-03  0.6001380E+03  0.7818609E-02  0.9905120E-01
        1   -1    0    0  501    0  0.00000000000E+00  0.00000000000E+00  0.28136516793E+03  0.28136516798E+03  0.50400001928E-02 0. -1.
       -1   -1    0    0    0  501  0.00000000000E+00  0.00000000000E+00 -0.32001617781E+03  0.32001617785E+03  0.50400001928E-02 0.  1.
    10030    2    1    2    0    0  0.00000000000E+00  0.00000000000E+00 -0.38651009883E+02  0.60138134583E+03  0.60013800292E+03 0.  0.
        3    1    3    3  502    0 -0.24839114342E+03 -0.14591170732E+03 -0.10348169042E+03  0.30609942325E+03  0.10100000352E+00 0. -1.
       -3    1    3    3    0  502  0.24839114342E+03  0.14591170732E+03  0.64830680537E+02  0.29528192258E+03  0.10100000352E+00 0.  1.
</event>
<event>
 5   0  0.2346281E-03  0.5999908E+03  0.7818609E-02  0.9905425E-01
        2   -1    0    0  501    0  0.00000000000E+00  0.00000000000E+00  0.84537067498E+03  0.84537067498E+03  0.25500000920E-02 0. -1.
       -2   -1    0    0    0  501  0.00000000000E+00  0.00000000000E+00 -0.10645892321E+03  0.10645892324E+03  0.25500000920E-02 0.  1.
    10030    2    1    2    0    0  0.00000000000E+00  0.00000000000E+00  0.73891175177E+03  0.95182959822E+03  0.59999083922E+03 0.  0.
        3    1    3    3  502    0 -0.62996951225E+02  0.39769608318E+02 -0.91550263541E+02  0.11803261653E+03  0.10100000352E+00 0.  1.
       -3    1    3    3    0  502  0.62996951225E+02 -0.39769608318E+02  0.83046201531E+03  0.83379698169E+03  0.10100000352E+00 0. -1.
</event>
<event>
 5   0  0.1416315E-03  0.6000161E+03  0.7818609E-02  0.9905373E-01
       -1   -1    0    0    0  501  0.00000000000E+00  0.00000000000E+00  0.36348175032E+03  0.36348175035E+03  0.50400001928E-02 0.  1.
        1   -1    0    0  501    0  0.00000000000E+00  0.00000000000E+00 -0.24761855944E+03  0.24761855949E+03  0.50400001928E-02 0. -1.
    10030    2    1    2    0    0  0.00000000000E+00  0.00000000000E+00  0.11586319088E+03  0.61110030984E+03  0.60001609119E+03 0.  0.
        2    1    3    3  502    0 -0.64522570522E+02 -0.27728475006E+03  0.15430969193E+03  0.32382321682E+03  0.25500000920E-02 0.  1.
       -2    1    3    3    0  502  0.64522570522E+02  0.27728475006E+03 -0.38446501051E+02  0.28727709302E+03  0.25500000920E-02 0. -1.
</event>
<event>
 5   0  0.2346281E-03  0.6010306E+03  0.7818609E-02  0.9903270E-01
       -2   -1    0    0    0  501  0.00000000000E+00  0.00000000000E+00  0.24315232477E+03  0.24315232478E+03  0.25500000920E-02 0.  1.
        2   -1    0    0  501    0  0.00000000000E+00  0.00000000000E+00 -0.37141093352E+03  0.37141093353E+03  0.25500000920E-02 0. -1.
    10030    2    1    2    0    0  0.00000000000E+00  0.00000000000E+00 -0.12825860875E+03  0.61456325831E+03  0.60103055475E+03 0.  0.
        3    1    3    3  502    0  0.13307592556E+03 -0.24437537032E+03  0.51920153140E+02  0.28306224772E+03  0.10100000352E+00 0.  1.
       -3    1    3    3    0  502 -0.13307592556E+03  0.24437537032E+03 -0.18017876189E+03  0.33150101059E+03  0.10100000352E+00 0. -1.
</event>
<event>
 5   0  0.1418763E-03  0.5999240E+03  0.7818609E-02  0.9905564E-01
       -1   -1    0    0    0  501  0.00000000000E+00  0.00000000000E+00  0.21677556280E+03  0.21677556286E+03  0.50400001928E-02 0.  1.
        1   -1    0    0  501    0  0.00000000000E+00  0.00000000000E+00 -0.41507070854E+03  0.41507070857E+03  0.50400001928E-02 0. -1.
    10030    2    1    2    0    0  0.00000000000E+00  0.00000000000E+00 -0.19829514574E+03  0.63184627143E+03  0.59992395010E+03 0.  0.
        5    1    3    3  502    0  0.13428214802E+03 -0.19441143667E+03 -0.29371407252E+03  0.37698481187E+03  0.46999998093E+01 0. -1.
       -5    1    3    3    0  502 -0.13428214802E+03  0.19441143667E+03  0.95418926779E+02  0.25486145956E+03  0.46999998093E+01 0.  1.
</event>
<event>
 5   0  0.1416315E-03  0.5996916E+03  0.7818609E-02  0.9906046E-01
       -1   -1    0    0    0  501  0.00000000000E+00  0.00000000000E+00  0.12121213451E+03  0.12121213461E+03  0.50400001928E-02 0. -1.
        1   -1    0    0  501    0  0.00000000000E+00  0.00000000000E+00 -0.74173692422E+03  0.74173692423E+03  0.50400001928E-02 0.  1.
    10030    2    1    2    0    0  0.00000000000E+00  0.00000000000E+00 -0.62052478971E+03  0.86294905885E+03  0.59969164036E+03 0.  0.
        2    1    3    3  502    0 -0.21121582336E+03  0.19383939187E+03 -0.43671073143E+03  0.52240032239E+03  0.25500000920E-02 0. -1.
       -2    1    3    3    0  502  0.21121582336E+03 -0.19383939187E+03 -0.18381405828E+03  0.34054873646E+03  0.25500000920E-02 0.  1.
</event>
<event>
 5   0  0.2406307E-03  0.6000573E+03  0.7818609E-02  0.9905287E-01
        2   -1    0    0  501    0  0.00000000000E+00  0.00000000000E+00  0.66364332637E+03  0.66364332638E+03  0.25500000920E-02 0. -1.
       -2   -1    0    0    0  501  0.00000000000E+00  0.00000000000E+00 -0.13564093562E+03  0.13564093564E+03  0.25500000920E-02 0.  1.
    10030    2    1    2    0    0  0.00000000000E+00  0.00000000000E+00  0.52800239075E+03  0.79928426202E+03  0.60005733632E+03 0.  0.
        5    1    3    3  502    0  0.13706658795E+03 -0.26315289706E+03  0.20505430899E+03  0.36070217132E+03  0.46999998093E+01 0. -1.
       -5    1    3    3    0  502 -0.13706658795E+03  0.26315289706E+03  0.32294808176E+03  0.43858209069E+03  0.46999998093E+01 0.  1.
</event>
<event>
 5   0  0.1423430E-03  0.5995080E+03  0.7818609E-02  0.9906427E-01
        1   -1    0    0  501    0  0.00000000000E+00  0.00000000000E+00  0.17451155568E+03  0.17451155575E+03  0.50400001928E-02 0. -1.
       -1   -1    0    0    0  501  0.00000000000E+00  0.00000000000E+00 -0.51487973882E+03  0.51487973885E+03  0.50400001928E-02 0.  1.
    10030    2    1    2    0    0  0.00000000000E+00  0.00000000000E+00 -0.34036818315E+03  0.68939129460E+03  0.59950801243E+03 0.  0.
        1    1    3    3  502    0  0.94001262956E+02 -0.17301834616E+03  0.89712140226E+02  0.21637895848E+03  0.50400001928E-02 0. -1.
       -1    1    3    3    0  502 -0.94001262956E+02  0.17301834616E+03 -0.43008032337E+03  0.47301233612E+03  0.50400001928E-02 0.  1.
</event>
<event>
 5   0  0.1423430E-03  0.6000891E+03  0.7818609E-02  0.9905221E-01
       -1   -1    0    0    0  501  0.00000000000E+00  0.00000000000E+00  0.12002591732E+03  0.12002591743E+03  0.50400001928E-02 0. -1.
        1   -1    0    0  501    0  0.00000000000E+00  0.00000000000E+00 -0.75006075450E+03  0.75006075452E+03  0.50400001928E-02 0.  1.
    10030    2    1    2    0    0  0.00000000000E+00  0.00000000000E+00 -0.63003483718E+03  0.87008667195E+03  0.60008909392E+03 0.  0.
        1    1    3    3  502    0 -0.71343909310E+02  0.27703637974E+03 -0.18381989159E+03  0.34004244098E+03  0.50400001928E-02 0. -1.
       -1    1    3    3    0  502  0.71343909310E+02 -0.27703637974E+03 -0.44621494559E+03  0.53004423097E+03  0.50400001928E-02 0.  1.
</event>
<event>
 5   0  0.2346281E-03  0.6002950E+03  0.7818609E-02  0.9904794E-01
       -2   -1    0    0    0  501  0.00000000000E+00  0.00000000000E+00  0.56023789149E+03  0.56023789150E+03  0.25500000920E-02 0. -1.
        2   -1    0    0  501    0  0.00000000000E+00  0.00000000000E+00 -0.16080404242E+03  0.16080404244E+03  0.25500000920E-02 0.  1.
    10030    2    1    2    0    0  0.00000000000E+00  0.00000000000E+00  0.39943384907E+03  0.72104193393E+03  0.60029498640E+03 0.  0.
        3    1    3    3  502    0  0.67131600704E+02 -0.28362764403E+03  0.28580830791E+03  0.40821280154E+03  0.10100000352E+00 0. -1.
       -3    1    3    3    0  502 -0.67131600704E+02  0.28362764403E+03  0.11362554117E+03  0.31282913240E+03  0.10100000352E+00 0.  1.
</event>
<event>
 5   0  0.1416315E-03  0.5998510E+03  0.7818609E-02  0.9905715E-01
       -1   -1    0    0    0  501  0.00000000000E+00  0.00000000000E+00  0.12160326351E+03  0.12160326361E+03  0.50400001928E-02 0.  1.
        1   -1    0    0  501    0  0.00000000000E+00  0.00000000000E+00 -0.73974411124E+03  0.73974411126E+03  0.50400001928E-02 0. -1.
    10030    2    1    2    0    0  0.00000000000E+00  0.00000000000E+00 -0.61814084773E+03  0.86134737487E+03  0.59985097529E+03 0.  0.
        2    1    3    3  502    0  0.18010863751E+02  0.16291191705E+03 -0.66974650547E+03  0.68951074359E+03  0.25500000920E-02 0. -1.
       -2    1    3    3    0  502 -0.18010863751E+02 -0.16291191705E+03  0.51605657740E+02  0.17183663127E+03  0.25500000920E-02 0.  1.
</event>
<event>
 5   0  0.1423430E-03  0.5996106E+03  0.7818609E-02  0.9906214E-01
        1   -1    0    0  501    0  0.00000000000E+00  0.00000000000E+00  0.54884229819E+03  0.54884229822E+03  0.50400001928E-02 0.  1.
       -1   -1    0    0    0  501  0.00000000000E+00  0.00000000000E+00 -0.16376877829E+03  0.16376877837E+03  0.50400001928E-02 0. -1.
    10030    2    1    2    0    0  0.00000000000E+00  0.00000000000E+00  0.38507351990E+03  0.71261107659E+03  0.59961064930E+03 0.  0.
        1    1    3    3  502    0 -0.86140830454E+02  0.44174634120E+02 -0.14468255161E+03  0.17408239927E+03  0.50400001928E-02 0. -1.
       -1    1    3    3    0  502  0.86140830454E+02 -0.44174634120E+02  0.52975607151E+03  0.53852867732E+03  0.50400001928E-02 0.  1.
</event>
<event>
 5   0  0.2406307E-03  0.6000523E+03  0.7818609E-02  0.9905298E-01
        2   -1    0    0  501    0  0.00000000000E+00  0.00000000000E+00  0.11783292785E+04  0.11783292786E+04  0.25500000920E-02 0.  1.
       -2   -1    0    0    0  501  0.00000000000E+00  0.00000000000E+00 -0.76392637906E+02  0.76392637949E+02  0.25500000920E-02 0. -1.
    10030    2    1    2    0    0  0.00000000000E+00  0.00000000000E+00  0.11019366406E+04  0.12547219165E+04  0.60005227085E+03 0.  0.
        5    1    3    3  502    0  0.23333174302E+03 -0.18762639567E+03  0.58987622067E+03  0.66153111216E+03  0.46999998093E+01 0. -1.
       -5    1    3    3    0  502 -0.23333174302E+03  0.18762639567E+03  0.51206041997E+03  0.59319080434E+03  0.46999998093E+01 0.  1.
</event>
<event>
 5   0  0.1418763E-03  0.5995212E+03  0.7818609E-02  0.9906400E-01
        1   -1    0    0  501    0  0.00000000000E+00  0.00000000000E+00  0.16722195097E+03  0.16722195105E+03  0.50400001928E-02 0.  1.
       -1   -1    0    0    0  501  0.00000000000E+00  0.00000000000E+00 -0.53734826286E+03  0.53734826288E+03  0.50400001928E-02 0. -1.
    10030    2    1    2    0    0  0.00000000000E+00  0.00000000000E+00 -0.37012631188E+03  0.70457021393E+03  0.59952122532E+03 0.  0.
        5    1    3    3  502    0  0.22302859955E+03  0.20016302918E+03 -0.17891814821E+03  0.34905699853E+03  0.46999998093E+01 0. -1.
       -5    1    3    3    0  502 -0.22302859955E+03 -0.20016302918E+03 -0.19120816368E+03  0.35551321540E+03  0.46999998093E+01 0.  1.
</event>
<event>
 5   0  0.2346281E-03  0.6006355E+03  0.7818609E-02  0.9904088E-01
        2   -1    0    0  501    0  0.00000000000E+00  0.00000000000E+00  0.16827316253E+04  0.16827316253E+04  0.25500000920E-02 0. -1.
       -2   -1    0    0    0  501  0.00000000000E+00  0.00000000000E+00 -0.53597827134E+02  0.53597827194E+02  0.25500000920E-02 0.  1.
    10030    2    1    2    0    0  0.00000000000E+00  0.00000000000E+00  0.16291337982E+04  0.17363294525E+04  0.60063552616E+03 0.  0.
        3    1    3    3  502    0  0.16205783743E+03  0.13664226772E+03  0.19958334658E+03  0.29114837185E+03  0.10100000352E+00 0.  1.
       -3    1    3    3    0  502 -0.16205783743E+03 -0.13664226772E+03  0.14295504516E+04  0.14451810807E+04  0.10100000352E+00 0. -1.
</event>
<event>
 5   0  0.1416315E-03  0.6000448E+03  0.7818609E-02  0.9905313E-01
       -1   -1    0    0    0  501  0.00000000000E+00  0.00000000000E+00  0.58789116553E+02  0.58789116769E+02  0.50400001928E-02 0. -1.
        1   -1    0    0  501    0  0.00000000000E+00  0.00000000000E+00 -0.15311240707E+04  0.15311240707E+04  0.50400001928E-02 0.  1.
    10030    2    1    2    0    0  0.00000000000E+00  0.00000000000E+00 -0.14723349542E+04  0.15899131875E+04  0.60004477043E+03 0.  0.
        2    1    3    3  502    0 -0.20100133175E+02  0.16045469460E+03 -0.14057695960E+04  0.14150398868E+04  0.25500000920E-02 0.  1.
       -2    1    3    3    0  502  0.20100133175E+02 -0.16045469460E+03 -0.66565358223E+02  0.17487330069E+03  0.25500000920E-02 0. -1.
</event>
<event>
 5   0  0.1416315E-03  0.5999819E+03  0.7818609E-02  0.9905444E-01
       -1   -1    0    0    0  501  0.00000000000E+00  0.00000000000E+00  0.23930878865E+03  0.23930878870E+03  0.50400001928E-02 0.  1.
        1   -1    0    0  501    0  0.00000000000E+00  0.00000000000E+00 -0.37606039831E+03  0.37606039835E+03  0.50400001928E-02 0. -1.
    10030    2    1    2    0    0  0.00000000000E+00  0.00000000000E+00 -0.13675160966E+03  0.61536918705E+03  0.59998186108E+03 0.  0.
        2    1    3    3  502    0 -0.55753164847E+01 -0.22057337144E+03  0.14008756524E+03  0.26135841728E+03  0.25500000920E-02 0.  1.
       -2    1    3    3    0  502  0.55753164847E+01  0.22057337144E+03 -0.27683917490E+03  0.35401076977E+03  0.25500000920E-02 0. -1.
</event>
<event>
 5   0  0.1392854E-03  0.5999116E+03  0.7818609E-02  0.9905590E-01
       -1   -1    0    0    0  501  0.00000000000E+00  0.00000000000E+00  0.62955771347E+03  0.62955771349E+03  0.50400001928E-02 0. -1.
        1   -1    0    0  501    0  0.00000000000E+00  0.00000000000E+00 -0.14291536839E+03  0.14291536848E+03  0.50400001928E-02 0.  1.
    10030    2    1    2    0    0  0.00000000000E+00  0.00000000000E+00  0.48664234508E+03  0.77247308197E+03  0.59991156877E+03 0.  0.
        4    1    3    3  502    0  0.17826368943E+03 -0.68052105182E+02  0.54132913342E+03  0.57397550086E+03  0.12699999809E+01 0. -1.
       -4    1    3    3    0  502 -0.17826368943E+03  0.68052105182E+02 -0.54686788346E+02  0.19849758112E+03  0.12699999809E+01 0.  1.
</event>
<event>
 5   0  0.1392854E-03  0.5999614E+03  0.7818609E-02  0.9905486E-01
        1   -1    0    0  501    0  0.00000000000E+00  0.00000000000E+00  0.10943546708E+04  0.10943546708E+04  0.50400001928E-02 0.  1.
       -1   -1    0    0    0  501  0.00000000000E+00  0.00000000000E+00 -0.82229680724E+02  0.82229680878E+02  0.50400001928E-02 0. -1.
    10030    2    1    2    0    0  0.00000000000E+00  0.00000000000E+00  0.10121249901E+04  0.11765843517E+04  0.59996144968E+03 0.  0.
        4    1    3    3  502    0  0.10430938273E+03  0.24716291017E+03  0.24283005747E+03  0.36185356320E+03  0.12699999809E+01 0. -1.
       -4    1    3    3    0  502 -0.10430938273E+03 -0.24716291017E+03  0.76929493261E+03  0.81473078850E+03  0.12699999809E+01 0.  1.
</event>
<event>
 5   0  0.2313168E-03  0.6002075E+03  0.7818609E-02  0.9904976E-01
        2   -1    0    0  501    0  0.00000000000E+00  0.00000000000E+00  0.59961065361E+03  0.59961065362E+03  0.25500000920E-02 0. -1.
       -2   -1    0    0    0  501  0.00000000000E+00  0.00000000000E+00 -0.15020123057E+03  0.15020123059E+03  0.25500000920E-02 0.  1.
    10030    2    1    2    0    0  0.00000000000E+00  0.00000000000E+00  0.44940942304E+03  0.74981188421E+03  0.60020749095E+03 0.  0.
        2    1    3    3  502    0 -0.15279279643E+03  0.71526170167E+02  0.53476309059E+03  0.56074343039E+03  0.25500000920E-02 0. -1.
       -2    1    3    3    0  502  0.15279279643E+03 -0.71526170167E+02 -0.85353667549E+02  0.18906845382E+03  0.25500000920E-02 0.  1.
</event>
<event>
 5   0  0.2421210E-03  0.6000208E+03  0.7818609E-02  0.9905363E-01
        2   -1    0    0  501    0  0.00000000000E+00  0.00000000000E+00  0.69172109879E+03  0.69172109879E+03  0.25500000920E-02 0.  1.
       -2   -1    0    0    0  501  0.00000000000E+00  0.00000000000E+00 -0.13011924768E+03  0.13011924770E+03  0.25500000920E-02 0. -1.
    10030    2    1    2    0    0  0.00000000000E+00  0.00000000000E+00  0.56160185111E+03  0.82184034650E+03  0.60002076294E+03 0.  0.
        1    1    3    3  502    0  0.93286417078E+02  0.30405114564E+02  0.66912432936E+03  0.67627967201E+03  0.50400001928E-02 0.  1.
       -1    1    3    3    0  502 -0.93286417078E+02 -0.30405114564E+02 -0.10752247825E+03  0.14556067449E+03  0.50400001928E-02 0. -1.
</event>
<event>
 5   0  0.2346281E-03  0.6002375E+03  0.7818609E-02  0.9904914E-01
       -2   -1    0    0    0  501  0.00000000000E+00  0.00000000000E+00  0.10043398779E+04  0.10043398779E+04  0.25500000920E-02 0. -1.
        2   -1    0    0  501    0  0.00000000000E+00  0.00000000000E+00 -0.89682046278E+02  0.89682046314E+02  0.25500000920E-02 0.  1.
    10030    2    1    2    0    0  0.00000000000E+00  0.00000000000E+00  0.91465783160E+03  0.10940219242E+04  0.60023747110E+03 0.  0.
        3    1    3    3  502    0  0.28835734083E+03  0.33108972507E+02  0.31822028985E+03  0.43070909341E+03  0.10100000352E+00 0. -1.
       -3    1    3    3    0  502 -0.28835734083E+03 -0.33108972507E+02  0.59643754175E+03  0.66331283078E+03  0.10100000352E+00 0.  1.
</event>
<event>
 5   0  0.2421210E-03  0.6000582E+03  0.7818609E-02  0.9905285E-01
       -2   -1    0    0    0  501  0.00000000000E+00  0.00000000000E+00  0.41631750836E+02  0.41631750914E+02  0.25500000920E-02 0. -1.
        2   -1    0    0  501    0  0.00000000000E+00  0.00000000000E+00 -0.21622307416E+04  0.21622307416E+04  0.25500000920E-02 0.  1.
    10030    2    1    2    0    0  0.00000000000E+00  0.00000000000E+00 -0.21205989908E+04  0.22038624926E+04  0.60005816909E+03 0.  0.
        1    1    3    3  502    0  0.15972358943E+03 -0.12831756710E+03 -0.25530191049E+03  0.32734704607E+03  0.50400001928E-02 0. -1.
       -1    1    3    3    0  502 -0.15972358943E+03  0.12831756710E+03 -0.18652970803E+04  0.18765154465E+04  0.50400001928E-02 0.  1.
</event>
<event>
 5   0  0.2324616E-03  0.5998620E+03  0.7818609E-02  0.9905692E-01
        2   -1    0    0  501    0  0.00000000000E+00  0.00000000000E+00  0.74224375815E+03  0.74224375815E+03  0.25500000920E-02 0.  1.
       -2   -1    0    0    0  501  0.00000000000E+00  0.00000000000E+00 -0.12119818374E+03  0.12119818377E+03  0.25500000920E-02 0. -1.
    10030    2    1    2    0    0  0.00000000000E+00  0.00000000000E+00  0.62104557441E+03  0.86344194192E+03  0.59986196878E+03 0.  0.
        4    1    3    3  502    0  0.47807345433E+02  0.28887466234E+03  0.40406026422E+03  0.49899942169E+03  0.12699999809E+01 0.  1.
       -4    1    3    3    0  502 -0.47807345433E+02 -0.28887466234E+03  0.21698531019E+03  0.36444252024E+03  0.12699999809E+01 0. -1.
</event>
<event>
 5   0  0.1423430E-03  0.5996461E+03  0.7818609E-02  0.9906141E-01
       -1   -1    0    0    0  501  0.00000000000E+00  0.00000000000E+00  0.46708322217E+03  0.46708322220E+03  0.50400001928E-02 0. -1.
        1   -1    0    0  501    0  0.00000000000E+00  0.00000000000E+00 -0.19245791946E+03  0.19245791953E+03  0.50400001928E-02 0.  1.
    10030    2    1    2    0    0  0.00000000000E+00  0.00000000000E+00  0.27462530271E+03  0.65954114172E+03  0.59964611292E+03 0.  0.
        1    1    3    3  502    0  0.48654974385E+02 -0.89305170982E+02  0.44753286068E+03  0.45894267781E+03  0.50400001928E-02 0. -1.
       -1    1    3    3    0  502 -0.48654974385E+02  0.89305170982E+02 -0.17290755797E+03  0.20059846392E+03  0.50400001928E-02 0.  1.
</event>
<event>
 5   0  0.1423430E-03  0.5998699E+03  0.7818609E-02  0.9905676E-01
       -1   -1    0    0    0  501  0.00000000000E+00  0.00000000000E+00  0.81620226008E+02  0.81620226163E+02  0.50400001928E-02 0. -1.
        1   -1    0    0  501    0  0.00000000000E+00  0.00000000000E+00 -0.11021896662E+04  0.11021896662E+04  0.50400001928E-02 0.  1.
    10030    2    1    2    0    0  0.00000000000E+00  0.00000000000E+00 -0.10205694402E+04  0.11838098924E+04  0.59986988509E+03 0.  0.
        1    1    3    3  502    0  0.12079191707E+03  0.89099454885E+02  0.21712293165E+01  0.15011367144E+03  0.50400001928E-02 0. -1.
       -1    1    3    3    0  502 -0.12079191707E+03 -0.89099454885E+02 -0.10227406695E+04  0.10336962210E+04  0.50400001928E-02 0.  1.
</event>
<event>
 5   0  0.1418763E-03  0.6001057E+03  0.7818609E-02  0.9905187E-01
       -1   -1    0    0    0  501  0.00000000000E+00  0.00000000000E+00  0.62470295388E+02  0.62470295591E+02  0.50400001928E-02 0.  1.
        1   -1    0    0  501    0  0.00000000000E+00  0.00000000000E+00 -0.14411924847E+04  0.14411924847E+04  0.50400001928E-02 0. -1.
    10030    2    1    2    0    0  0.00000000000E+00  0.00000000000E+00 -0.13787221893E+04  0.15036627803E+04  0.60010572531E+03 0.  0.
        5    1    3    3  502    0 -0.87031403497E+02  0.22362277586E+03 -0.11405754323E+04  0.11655539532E+04  0.46999998093E+01 0. -1.
       -5    1    3    3    0  502  0.87031403497E+02 -0.22362277586E+03 -0.23814675699E+03  0.33810882707E+03  0.46999998093E+01 0.  1.
</event>
<event>
 5   0  0.1392854E-03  0.6004127E+03  0.7818609E-02  0.9904550E-01
        1   -1    0    0  501    0  0.00000000000E+00  0.00000000000E+00  0.30646136095E+03  0.30646136099E+03  0.50400001928E-02 0. -1.
       -1   -1    0    0    0  501  0.00000000000E+00  0.00000000000E+00 -0.29407903892E+03  0.29407903897E+03  0.50400001928E-02 0.  1.
    10030    2    1    2    0    0  0.00000000000E+00  0.00000000000E+00  0.12382322030E+02  0.60054039996E+03  0.60041273311E+03 0.  0.
        4    1    3    3  502    0  0.19516092731E+03  0.22348753013E+03 -0.39510851010E+02  0.29932788697E+03  0.12699999809E+01 0. -1.
       -4    1    3    3    0  502 -0.19516092731E+03 -0.22348753013E+03  0.51893173040E+02  0.30121251299E+03  0.12699999809E+01 0.  1.
</event>
<event>
 5   0  0.1392854E-03  0.6014034E+03  0.7818609E-02  0.9902499E-01
       -1   -1    0    0    0  501  0.00000000000E+00  0.00000000000E+00  0.48056663011E+03  0.48056663014E+03  0.50400001928E-02 0.  1.
        1   -1    0    0  501    0  0.00000000000E+00  0.00000000000E+00 -0.18815602943E+03  0.18815602950E+03  0.50400001928E-02 0. -1.
    10030    2    1    2    0    0  0.00000000000E+00  0.00000000000E+00  0.29241060068E+03  0.66872265964E+03  0.60140338885E+03 0.  0.
        4    1    3    3  502    0  0.96584340635E+02 -0.28425353726E+03  0.16518290251E+03  0.34265961607E+03  0.12699999809E+01 0.  1.
       -4    1    3    3    0  502 -0.96584340635E+02  0.28425353726E+03  0.12722769817E+03  0.32606304357E+03  0.12699999809E+01 0. -1.
</event>
<event>
 5   0  0.1423430E-03  0.6000156E+03  0.7818609E-02  0.9905374E-01
       -1   -1    0    0    0  501  0.00000000000E+00  0.00000000000E+00  0.12621429483E+03  0.12621429493E+03  0.50400001928E-02 0.  1.
        1   -1    0    0  501    0  0.00000000000E+00  0.00000000000E+00 -0.71310999487E+03  0.71310999489E+03  0.50400001928E-02 0. -1.
    10030    2    1    2    0    0  0.00000000000E+00  0.00000000000E+00 -0.58689570004E+03  0.83932428982E+03  0.60001558376E+03 0.  0.
        1    1    3    3  502    0 -0.26978390493E+03 -0.12638626454E+03 -0.34286131522E+03  0.45421440392E+03  0.50400001928E-02 0. -1.
       -1    1    3    3    0  502  0.26978390493E+03  0.12638626454E+03 -0.24403438482E+03  0.38510988590E+03  0.50400001928E-02 0.  1.
</event>
<event>
 5   0  0.2324616E-03  0.5998024E+03  0.7818609E-02  0.9905816E-01
        2   -1    0    0  501    0  0.00000000000E+00  0.00000000000E+00  0.18944398946E+03  0.18944398948E+03  0.25500000920E-02 0. -1.
       -2   -1    0    0    0  501  0.00000000000E+00  0.00000000000E+00 -0.47476164943E+03  0.47476164944E+03  0.25500000920E-02 0.  1.
    10030    2    1    2    0    0  0.00000000000E+00  0.00000000000E+00 -0.28531765997E+03  0.66420563891E+03  0.59980243720E+03 0.  0.
        4    1    3    3  502    0  0.95208821674E+02 -0.26646140263E+03 -0.25268929406E+03  0.37936775173E+03  0.12699999809E+01 0.  1.
       -4    1    3    3    0  502 -0.95208821674E+02  0.26646140263E+03 -0.32628365903E+02  0.28483788719E+03  0.12699999809E+01 0. -1.
</event>
<event>
 5   0  0.1416315E-03  0.5999600E+03  0.7818609E-02  0.9905489E-01
       -1   -1    0    0    0  501  0.00000000000E+00  0.00000000000E+00  0.21380402152E+03  0.21380402158E+03  0.50400001928E-02 0.  1.
        1   -1    0    0  501    0  0.00000000000E+00  0.00000000000E+00 -0.42089017575E+03  0.42089017578E+03  0.50400001928E-02 0. -1.
    10030    2    1    2    0    0  0.00000000000E+00  0.00000000000E+00 -0.20708615423E+03  0.63469419736E+03  0.59996003941E+03 0.  0.
        2    1    3    3  502    0 -0.11630939155E+03 -0.15317728701E+03 -0.34708137005E+03  0.39680805594E+03  0.25500000920E-02 0. -1.
       -2    1    3    3    0  502  0.11630939155E+03  0.15317728701E+03  0.13999521582E+03  0.23788614142E+03  0.25500000920E-02 0.  1.
</event>
<event>
 5   0  0.1479385E-03  0.6000410E+03  0.7818609E-02  0.9905321E-01
        1   -1    0    0  501    0  0.00000000000E+00  0.00000000000E+00  0.51737405292E+03  0.51737405295E+03  0.50400001928E-02 0. -1.
       -1   -1    0    0    0  501  0.00000000000E+00  0.00000000000E+00 -0.17397915194E+03  0.17397915202E+03  0.50400001928E-02 0.  1.
    10030    2    1    2    0    0  0.00000000000E+00  0.00000000000E+00  0.34339490098E+03  0.69135320496E+03  0.60004099526E+03 0.  0.
        3    1    3    3  502    0 -0.31950109687E+02 -0.24120086772E+03  0.37394833234E+03  0.44613454648E+03  0.10100000352E+00 0. -1.
       -3    1    3    3    0  502  0.31950109687E+02  0.24120086772E+03 -0.30553431363E+02  0.24521865848E+03  0.10100000352E+00 0.  1.
</event>
<event>
 5   0  0.2406307E-03  0.5986229E+03  0.7818609E-02  0.9908267E-01
       -2   -1    0    0    0  501  0.00000000000E+00  0.00000000000E+00  0.16947065043E+03  0.16947065045E+03  0.25500000920E-02 0.  1.
        2   -1    0    0  501    0  0.00000000000E+00  0.00000000000E+00 -0.52863052480E+03  0.52863052480E+03  0.25500000920E-02 0. -1.
    10030    2    1    2    0    0  0.00000000000E+00  0.00000000000E+00 -0.35915987437E+03  0.69810117525E+03  0.59862294939E+03 0.  0.
        5    1    3    3  502    0  0.95245382540E+02  0.14875525908E+03 -0.46131633593E+03  0.49399864554E+03  0.46999998093E+01 0. -1.
       -5    1    3    3    0  502 -0.95245382540E+02 -0.14875525908E+03  0.10215646156E+03  0.20410252972E+03  0.46999998093E+01 0.  1.
</event>
<event>
 5   0  0.1416315E-03  0.6000109E+03  0.7818609E-02  0.9905383E-01
        1   -1    0    0  501    0  0.00000000000E+00  0.00000000000E+00  0.87924035325E+03  0.87924035327E+03  0.50400001928E-02 0.  1.
       -1   -1    0    0    0  501  0.00000000000E+00  0.00000000000E+00 -0.10236480874E+03  0.10236480887E+03  0.50400001928E-02 0. -1.
    10030    2    1    2    0    0  0.00000000000E+00  0.00000000000E+00  0.77687554451E+03  0.98160516214E+03  0.60001090213E+03 0.  0.
        2    1    3    3  502    0  0.47746373288E+02 -0.33809671625E+02 -0.92941779344E+02  0.10982251323E+03  0.25500000920E-02 0. -1.
       -2    1    3    3    0  502 -0.47746373288E+02  0.33809671625E+02  0.86981732385E+03  0.87178264891E+03  0.25500000920E-02 0.  1.
</event>
<event>
 5   0  0.1479385E-03  0.6001076E+03  0.7818609E-02  0.9905183E-01
        1   -1    0    0  501    0  0.00000000000E+00  0.00000000000E+00  0.63536804636E+03  0.63536804638E+03  0.50400001928E-02 0. -1.
       -1   -1    0    0    0  501  0.00000000000E+00  0.00000000000E+00 -0.14170097145E+03  0.14170097154E+03  0.50400001928E-02 0.  1.
    10030    2    1    2    0    0  0.00000000000E+00  0.00000000000E+00  0.49366707492E+03  0.77706901792E+03  0.60010755515E+03 0.  0.
        3    1    3    3  502    0  0.91266835128E+02  0.10490483436E+03 -0.97463141923E+02  0.16980498726E+03  0.10100000352E+00 0.  1.
       -3    1    3    3    0  502 -0.91266835128E+02 -0.10490483436E+03  0.59113021684E+03  0.60726403066E+03  0.10100000352E+00 0. -1.
</event>
<event>
 5   0  0.1418763E-03  0.6001098E+03  0.7818609E-02  0.9905178E-01
       -1   -1    0    0    0  501  0.00000000000E+00  0.00000000000E+00  0.87650585548E+02  0.87650585693E+02  0.50400001928E-02 0.  1.
        1   -1    0    0  501    0  0.00000000000E+00  0.00000000000E+00 -0.10271803058E+04  0.10271803058E+04  0.50400001928E-02 0. -1.
    10030    2    1    2    0    0  0.00000000000E+00  0.00000000000E+00 -0.93952972020E+03  0.11148308915E+04  0.60010984111E+03 0.  0.
        5    1    3    3  502    0 -0.50453850494E+02 -0.29360110291E+03 -0.53580295176E+03  0.61306940209E+03  0.46999998093E+01 0. -1.
       -5    1    3    3    0  502  0.50453850494E+02  0.29360110291E+03 -0.40372676844E+03  0.50176148937E+03  0.46999998093E+01 0.  1.
</event>
<event>
 5   0  0.9496750E-04  0.5999202E+03  0.7818609E-02  0.9905572E-01
        3   -1    0    0  501    0  0.00000000000E+00  0.00000000000E+00  0.92806277332E+03  0.92806277882E+03  0.10100000352E+00 0. -1.
       -3   -1    0    0    0  501  0.00000000000E+00  0.00000000000E+00 -0.96950358510E+02  0.96950411119E+02  0.10100000352E+00 0.  1.
    10030    2    1    2    0    0  0.00000000000E+00  0.00000000000E+00  0.83111241481E+03  0.10250131899E+04  0.59992015593E+03 0.  0.
        5    1    3    3  502    0 -0.49983286432E+02 -0.29572317086E+03  0.41872315930E+03  0.51507445757E+03  0.46999998093E+01 0.  1.
       -5    1    3    3    0  502  0.49983286432E+02  0.29572317086E+03  0.41238925551E+03  0.50993873237E+03  0.46999998093E+01 0. -1.
</event>
<event>
 5   0  0.2313168E-03  0.5979110E+03  0.7818609E-02  0.9909750E-01
        2   -1    0    0  501    0  0.00000000000E+00  0.00000000000E+00  0.15806003112E+04  0.15806003112E+04  0.25500000920E-02 0. -1.
       -2   -1    0    0    0  501  0.00000000000E+00  0.00000000000E+00 -0.56544583930E+02  0.56544583988E+02  0.25500000920E-02 0.  1.
    10030    2    1    2    0    0  0.00000000000E+00  0.00000000000E+00  0.15240557273E+04  0.16371448952E+04  0.59791098671E+03 0.  0.
        2    1    3    3  502    0  0.10024336913E+03  0.18140593724E+03  0.17210986870E+03  0.26940425763E+03  0.25500000920E-02 0.  1.
       -2    1    3    3    0  502 -0.10024336913E+03 -0.18140593724E+03  0.13519458586E+04  0.13677406376E+04  0.25500000920E-02 0. -1.
</event>
<event>
 5   0  0.2313168E-03  0.6007245E+03  0.7818609E-02  0.9903904E-01
        2   -1    0    0  501    0  0.00000000000E+00  0.00000000000E+00  0.17202296347E+04  0.17202296347E+04  0.25500000920E-02 0.  1.
       -2   -1    0    0    0  501  0.00000000000E+00  0.00000000000E+00 -0.52445029270E+02  0.52445029332E+02  0.25500000920E-02 0. -1.
    10030    2    1    2    0    0  0.00000000000E+00  0.00000000000E+00  0.16677846054E+04  0.17726746640E+04  0.60072454120E+03 0.  0.
        2    1    3    3  502    0  0.24590281231E+03  0.15056330124E+03  0.10821885019E+04  0.11199417192E+04  0.25500000920E-02 0.  1.
       -2    1    3    3    0  502 -0.24590281231E+03 -0.15056330124E+03  0.58559610356E+03  0.65273294485E+03  0.25500000920E-02 0. -1.
</event>
<event>
 5   0  0.2406307E-03  0.5999436E+03  0.7818609E-02  0.9905523E-01
       -2   -1    0    0    0  501  0.00000000000E+00  0.00000000000E+00  0.10471094483E+03  0.10471094486E+03  0.25500000920E-02 0.  1.
        2   -1    0    0  501    0  0.00000000000E+00  0.00000000000E+00 -0.85934735856E+03  0.85934735856E+03  0.25500000920E-02 0. -1.
    10030    2    1    2    0    0  0.00000000000E+00  0.00000000000E+00 -0.75463641373E+03  0.96405830342E+03  0.59994357690E+03 0.  0.
        5    1    3    3  502    0 -0.98129750128E+02  0.27839137380E+03 -0.29183729406E+03  0.41511721365E+03  0.46999998093E+01 0. -1.
       -5    1    3    3    0  502  0.98129750128E+02 -0.27839137380E+03 -0.46279911967E+03  0.54894108977E+03  0.46999998093E+01 0.  1.
</event>
<event>
 5   0  0.2324616E-03  0.5995329E+03  0.7818609E-02  0.9906376E-01
       -2   -1    0    0    0  501  0.00000000000E+00  0.00000000000E+00  0.74359481473E+02  0.74359481517E+02  0.25500000920E-02 0. -1.
        2   -1    0    0  501    0  0.00000000000E+00  0.00000000000E+00 -0.12084527850E+04  0.12084527850E+04  0.25500000920E-02 0.  1.
    10030    2    1    2    0    0  0.00000000000E+00  0.00000000000E+00 -0.11340933036E+04  0.12828122666E+04  0.59953289321E+03 0.  0.
        4    1    3    3  502    0  0.12465769516E+03 -0.62652577724E+01 -0.11502024778E+04  0.11569555512E+04  0.12699999809E+01 0.  1.
       -4    1    3    3    0  502 -0.12465769516E+03  0.62652577724E+01  0.16109174267E+02  0.12585671541E+03  0.12699999809E+01 0. -1.
</event>
<event>
 5   0  0.1423430E-03  0.6018503E+03  0.7818609E-02  0.9901575E-01
       -1   -1    0    0    0  501  0.00000000000E+00  0.00000000000E+00  0.52373151290E+03  0.52373151292E+03  0.50400001928E-02 0. -1.
        1   -1    0    0  501    0  0.00000000000E+00  0.00000000000E+00 -0.17290530133E+03  0.17290530141E+03  0.50400001928E-02 0.  1.
    10030    2    1    2    0    0  0.00000000000E+00  0.00000000000E+00  0.35082621156E+03  0.69663681433E+03  0.60185033053E+03 0.  0.
        1    1    3    3  502    0 -0.15827055521E+03 -0.24757924842E+03  0.25052444301E+03  0.38614446709E+03  0.50400001928E-02 0. -1.
       -1    1    3    3    0  502  0.15827055521E+03  0.24757924842E+03  0.10030176855E+03  0.31049234724E+03  0.50400001928E-02 0.  1.
</event>
<event>
 5   0  0.2324616E-03  0.5997627E+03  0.7818609E-02  0.9905899E-01
       -2   -1    0    0    0  501  0.00000000000E+00  0.00000000000E+00  0.17107727326E+03  0.17107727328E+03  0.25500000920E-02 0. -1.
        2   -1    0    0  501    0  0.00000000000E+00  0.00000000000E+00 -0.52566199212E+03  0.52566199213E+03  0.25500000920E-02 0.  1.
    10030    2    1    2    0    0  0.00000000000E+00  0.00000000000E+00 -0.35458471886E+03  0.69673926541E+03  0.59976268733E+03 0.  0.
        4    1    3    3  502    0  0.25000893176E+03 -0.77912034671E+02 -0.75404128548E+01  0.26197943017E+03  0.12699999809E+01 0. -1.
       -4    1    3    3    0  502 -0.25000893176E+03  0.77912034671E+02 -0.34704430601E+03  0.43475983524E+03  0.12699999809E+01 0.  1.
</event>
<event>
 5   0  0.1392854E-03  0.5998733E+03  0.7818609E-02  0.9905669E-01
       -1   -1    0    0    0  501  0.00000000000E+00  0.00000000000E+00  0.84331632085E+02  0.84331632236E+02  0.50400001928E-02 0.  1.
        1   -1    0    0  501    0  0.00000000000E+00  0.00000000000E+00 -0.10667645014E+04  0.10667645014E+04  0.50400001928E-02 0. -1.
    10030    2    1    2    0    0  0.00000000000E+00  0.00000000000E+00 -0.98243286930E+03  0.11510961336E+04  0.59987329177E+03 0.  0.
        4    1    3    3  502    0 -0.26709626280E+02 -0.10939075372E+02 -0.10640882702E+04  0.10644804024E+04  0.12699999809E+01 0. -1.
       -4    1    3    3    0  502  0.26709626280E+02  0.10939075372E+02  0.81655400863E+02  0.86615731228E+02  0.12699999809E+01 0.  1.
</event>
<event>
 5   0  0.2421210E-03  0.6001208E+03  0.7818609E-02  0.9905155E-01
       -2   -1    0    0    0  501  0.00000000000E+00  0.00000000000E+00  0.21983507195E+03  0.21983507196E+03  0.25500000920E-02 0. -1.
        2   -1    0    0  501    0  0.00000000000E+00  0.00000000000E+00 -0.40956268285E+03  0.40956268286E+03  0.25500000920E-02 0.  1.
    10030    2    1    2    0    0  0.00000000000E+00  0.00000000000E+00 -0.18972761091E+03  0.62939775482E+03  0.60012079404E+03 0.  0.
        1    1    3    3  502    0 -0.61894813876E+02  0.21203026229E+03 -0.30786904546E+03  0.37890783747E+03  0.50400001928E-02 0.  1.
       -1    1    3    3    0  502  0.61894813876E+02 -0.21203026229E+03  0.11814143456E+03  0.25048991736E+03  0.50400001928E-02 0. -1.
</event>
<event>
 5   0  0.1479385E-03  0.6005992E+03  0.7818609E-02  0.9904164E-01
        1   -1    0    0  501    0  0.00000000000E+00  0.00000000000E+00  0.37186082052E+03  0.37186082055E+03  0.50400001928E-02 0. -1.
       -1   -1    0    0    0  501  0.00000000000E+00  0.00000000000E+00 -0.24250965013E+03  0.24250965018E+03  0.50400001928E-02 0.  1.
    10030    2    1    2    0    0  0.00000000000E+00  0.00000000000E+00  0.12935117040E+03  0.61437047073E+03  0.60059915919E+03 0.  0.
        3    1    3    3  502    0 -0.10692427867E+03  0.16847275371E+03  0.29424051194E+03  0.35551843719E+03  0.10100000352E+00 0. -1.
       -3    1    3    3    0  502  0.10692427867E+03 -0.16847275371E+03 -0.16488934155E+03  0.25885203354E+03  0.10100000352E+00 0.  1.
</event>
<event>
 5   0  0.2346281E-03  0.5999474E+03  0.7818609E-02  0.9905515E-01
        2   -1    0    0  501    0  0.00000000000E+00  0.00000000000E+00  0.19865405649E+04  0.19865405649E+04  0.25500000920E-02 0.  1.
       -2   -1    0    0    0  501  0.00000000000E+00  0.00000000000E+00 -0.45296941404E+02  0.45296941476E+02  0.25500000920E-02 0. -1.
    10030    2    1    2    0    0  0.00000000000E+00  0.00000000000E+00  0.19412436235E+04  0.20318375064E+04  0.59994736983E+03 0.  0.
        3    1    3    3  502    0  0.44492000300E+02 -0.18909804503E+03  0.19650801887E+03  0.27632050305E+03  0.10100000352E+00 0. -1.
       -3    1    3    3    0  502 -0.44492000300E+02  0.18909804503E+03  0.17447356046E+04  0.17555170033E+04  0.10100000352E+00 0.  1.
</event>
<event>
 5   0  0.1418763E-03  0.6000135E+03  0.7818609E-02  0.9905378E-01
        1   -1    0    0  501    0  0.00000000000E+00  0.00000000000E+00  0.51394868073E+03  0.51394868075E+03  0.50400001928E-02 0. -1.
       -1   -1    0    0    0  501  0.00000000000E+00  0.00000000000E+00 -0.17512266777E+03  0.17512266784E+03  0.50400001928E-02 0.  1.
    10030    2    1    2    0    0  0.00000000000E+00  0.00000000000E+00  0.33882601296E+03  0.68907134859E+03  0.60001354684E+03 0.  0.
        5    1    3    3  502    0  0.75950869414E+01  0.19554063437E+02 -0.17423699944E+03  0.17555816334E+03  0.46999998093E+01 0.  1.
       -5    1    3    3    0  502 -0.75950869414E+01 -0.19554063437E+02  0.51306301240E+03  0.51351318526E+03  0.46999998093E+01 0. -1.
</event>
<event>
 5   0  0.2421210E-03  0.6000385E+03  0.7818609E-02  0.9905326E-01
        2   -1    0    0  501    0  0.00000000000E+00  0.00000000000E+00  0.18155180582E+03  0.18155180584E+03  0.25500000920E-02 0. -1.
       -2   -1    0    0    0  501  0.00000000000E+00  0.00000000000E+00 -0.49578991540E+03  0.49578991541E+03  0.25500000920E-02 0.  1.
    10030    2    1    2    0    0  0.00000000000E+00  0.00000000000E+00 -0.31423810958E+03  0.67734172125E+03  0.60003851362E+03 0.  0.
        1    1    3    3  502    0 -0.19896528096E+02  0.30603830103E+01 -0.49502669645E+03  0.49543583641E+03  0.50400001928E-02 0.  1.
       -1    1    3    3    0  502  0.19896528096E+02 -0.30603830103E+01  0.18078858687E+03  0.18190588484E+03  0.50400001928E-02 0. -1.
</event>
<event>
 5   0  0.2346281E-03  0.6000546E+03  0.7818609E-02  0.9905293E-01
        2   -1    0    0  501    0  0.00000000000E+00  0.00000000000E+00  0.12092705825E+04  0.12092705825E+04  0.25500000920E-02 0.  1.
       -2   -1    0    0    0  501  0.00000000000E+00  0.00000000000E+00 -0.74438574738E+02  0.74438574782E+02  0.25500000920E-02 0. -1.
    10030    2    1    2    0    0  0.00000000000E+00  0.00000000000E+00  0.11348320078E+04  0.12837091573E+04  0.60005459306E+03 0.  0.
        3    1    3    3  502    0  0.12346489770E+03 -0.10206428281E+03  0.24704182134E+02  0.16208332920E+03  0.10100000352E+00 0. -1.
       -3    1    3    3    0  502 -0.12346489770E+03  0.10206428281E+03  0.11101278256E+04  0.11216258281E+04  0.10100000352E+00 0.  1.
</event>
<event>
 5   0  0.1418763E-03  0.6003499E+03  0.7818609E-02  0.9904680E-01
        1   -1    0    0  501    0  0.00000000000E+00  0.00000000000E+00  0.22326646587E+03  0.22326646593E+03  0.50400001928E-02 0. -1.
       -1   -1    0    0    0  501  0.00000000000E+00  0.00000000000E+00 -0.40357609007E+03  0.40357609011E+03  0.50400001928E-02 0.  1.
    10030    2    1    2    0    0  0.00000000000E+00  0.00000000000E+00 -0.18030962420E+03  0.62684255604E+03  0.60034992253E+03 0.  0.
        5    1    3    3  502    0 -0.53821560004E+02  0.23256710387E+03 -0.28011363827E+03  0.36806243828E+03  0.46999998093E+01 0.  1.
       -5    1    3    3    0  502  0.53821560004E+02 -0.23256710387E+03  0.99804014070E+02  0.25878011776E+03  0.46999998093E+01 0. -1.
</event>
<event>
 5   0  0.1392854E-03  0.5991515E+03  0.7818609E-02  0.9907168E-01
       -1   -1    0    0    0  501  0.00000000000E+00  0.00000000000E+00  0.21277852230E+03  0.21277852236E+03  0.50400001928E-02 0.  1.
        1   -1    0    0  501    0  0.00000000000E+00  0.00000000000E+00 -0.42177954178E+03  0.42177954181E+03  0.50400001928E-02 0. -1.
    10030    2    1    2    0    0  0.00000000000E+00  0.00000000000E+00 -0.20900101948E+03  0.63455806418E+03  0.59915149225E+03 0.  0.
        4    1    3    3  502    0 -0.27561722827E+03  0.11583790951E+03 -0.84385046097E+02  0.31065370866E+03  0.12699999809E+01 0.  1.
       -4    1    3    3    0  502  0.27561722827E+03 -0.11583790951E+03 -0.12461597338E+03  0.32390435551E+03  0.12699999809E+01 0. -1.
</event>
<event>
 5   0  0.1416315E-03  0.6001031E+03  0.7818609E-02  0.9905192E-01
       -1   -1    0    0    0  501  0.00000000000E+00  0.00000000000E+00  0.58795818594E+03  0.58795818596E+03  0.50400001928E-02 0.  1.
        1   -1    0    0  501    0  0.00000000000E+00  0.00000000000E+00 -0.15312472368E+03  0.15312472377E+03  0.50400001928E-02 0. -1.
    10030    2    1    2    0    0  0.00000000000E+00  0.00000000000E+00  0.43483346226E+03  0.74108290973E+03  0.60010310713E+03 0.  0.
        2    1    3    3  502    0 -0.73859012794E+02 -0.25996438943E+02  0.57511909938E+03  0.58042479882E+03  0.25500000920E-02 0.  1.
       -2    1    3    3    0  502  0.73859012794E+02  0.25996438943E+02 -0.14028563713E+03  0.16065811090E+03  0.25500000920E-02 0. -1.
</event>
<event>
 5   0  0.2324616E-03  0.5985048E+03  0.7818609E-02  0.9908513E-01
       -2   -1    0    0    0  501  0.00000000000E+00  0.00000000000E+00  0.59415213050E+02  0.59415213105E+02  0.25500000920E-02 0. -1.
        2   -1    0    0  501    0  0.00000000000E+00  0.00000000000E+00 -0.15072234341E+04  0.15072234341E+04  0.25500000920E-02 0.  1.
    10030    2    1    2    0    0  0.00000000000E+00  0.00000000000E+00 -0.14478082210E+04  0.15666386472E+04  0.59850480865E+03 0.  0.
        4    1    3    3  502    0  0.98366926325E+02 -0.10367047683E+03 -0.35688816114E+02  0.14730554795E+03  0.12699999809E+01 0. -1.
       -4    1    3    3    0  502 -0.98366926325E+02  0.10367047683E+03 -0.14121194049E+04  0.14193330992E+04  0.12699999809E+01 0.  1.
</event>
<event>
 5   0  0.2421210E-03  0.6000132E+03  0.7818609E-02  0.9905379E-01
       -2   -1    0    0    0  501  0.00000000000E+00  0.00000000000E+00  0.58193003779E+03  0.58193003780E+03  0.25500000920E-02 0. -1.
        2   -1    0    0  501    0  0.00000000000E+00  0.00000000000E+00 -0.15466457216E+03  0.15466457218E+03  0.25500000920E-02 0.  1.
    10030    2    1    2    0    0  0.00000000000E+00  0.00000000000E+00  0.42726546563E+03  0.73659460998E+03  0.60001320096E+03 0.  0.
        1    1    3    3  502    0 -0.24899034635E+03 -0.15731916581E+03  0.28370934775E+03  0.40894560339E+03  0.50400001928E-02 0. -1.
       -1    1    3    3    0  502  0.24899034635E+03  0.15731916581E+03  0.14355611788E+03  0.32764900658E+03  0.50400001928E-02 0.  1.
</event>
<event>
 5   0  0.1392854E-03  0.5999879E+03  0.7818609E-02  0.9905431E-01
       -1   -1    0    0    0  501  0.00000000000E+00  0.00000000000E+00  0.73240016403E+02  0.73240016576E+02  0.50400001928E-02 0. -1.
        1   -1    0    0  501    0  0.00000000000E+00  0.00000000000E+00 -0.12287867442E+04  0.12287867443E+04  0.50400001928E-02 0.  1.
    10030    2    1    2    0    0  0.00000000000E+00  0.00000000000E+00 -0.11555467278E+04  0.13020267608E+04  0.59998787129E+03 0.  0.
        4    1    3    3  502    0 -0.76098566911E+02  0.16315539191E+02  0.50944223119E+02  0.93027498484E+02  0.12699999809E+01 0. -1.
       -4    1    3    3    0  502  0.76098566911E+02 -0.16315539191E+02 -0.12064909510E+04  0.12089992623E+04  0.12699999809E+01 0.  1.
</event>
<event>
 5   0  0.2406307E-03  0.5998537E+03  0.7818609E-02  0.9905710E-01
       -2   -1    0    0    0  501  0.00000000000E+00  0.00000000000E+00  0.22976982391E+03  0.22976982393E+03  0.25500000920E-02 0.  1.
        2   -1    0    0  501    0  0.00000000000E+00  0.00000000000E+00 -0.39150536363E+03  0.39150536364E+03  0.25500000920E-02 0. -1.
    10030    2    1    2    0    0  0.00000000000E+00  0.00000000000E+00 -0.16173553972E+03  0.62127518757E+03  0.59985371040E+03 0.  0.
        5    1    3    3  502    0  0.11301161955E+03  0.13991383622E+03  0.16767382438E+03  0.24593517255E+03  0.46999998093E+01 0.  1.
       -5    1    3    3    0  502 -0.11301161955E+03 -0.13991383622E+03 -0.32940936410E+03  0.37534001502E+03  0.46999998093E+01 0. -1.
</event>
<event>
 5   0  0.1392854E-03  0.5992243E+03  0.7818609E-02  0.9907017E-01
       -1   -1    0    0    0  501  0.00000000000E+00  0.00000000000E+00  0.52735773769E+02  0.52735774009E+02  0.50400001928E-02 0.  1.
        1   -1    0    0  501    0  0.00000000000E+00  0.00000000000E+00 -0.17022113254E+04  0.17022113254E+04  0.50400001928E-02 0. -1.
    10030    2    1    2    0    0  0.00000000000E+00  0.00000000000E+00 -0.16494755516E+04  0.17549470994E+04  0.59922427047E+03 0.  0.
        4    1    3    3  502    0  0.71826209747E+00  0.29666386591E+03 -0.70201680954E+03  0.76212805946E+03  0.12699999809E+01 0.  1.
       -4    1    3    3    0  502 -0.71826209747E+00 -0.29666386591E+03 -0.94745874206E+03  0.99281903993E+03  0.12699999809E+01 0. -1.
</event>
<event>
 5   0  0.1479385E-03  0.5997700E+03  0.7818609E-02  0.9905883E-01
       -1   -1    0    0    0  501  0.00000000000E+00  0.00000000000E+00  0.49544003048E+03  0.49544003050E+03  0.50400001928E-02 0. -1.
        1   -1    0    0  501    0  0.00000000000E+00  0.00000000000E+00 -0.18151744720E+03  0.18151744727E+03  0.50400001928E-02 0.  1.
    10030    2    1    2    0    0  0.00000000000E+00  0.00000000000E+00  0.31392258328E+03  0.67695747778E+03  0.59976998793E+03 0.  0.
        3    1    3    3  502    0  0.22587258570E+03 -0.18778244858E+03  0.88767865310E+02  0.30685569422E+03  0.10100000352E+00 0.  1.
       -3    1    3    3    0  502 -0.22587258570E+03  0.18778244858E+03  0.22515471797E+03  0.37010178355E+03  0.10100000352E+00 0. -1.
</event>
<event>
 5   0  0.9496750E-04  0.5999655E+03  0.7818609E-02  0.9905478E-01
        3   -1    0    0  501    0  0.00000000000E+00  0.00000000000E+00  0.13447832016E+03  0.13447835809E+03  0.10100000352E+00 0. -1.
       -3   -1    0    0    0  501  0.00000000000E+00  0.00000000000E+00 -0.66917571870E+03  0.66917572633E+03  0.10100000352E+00 0.  1.
    10030    2    1    2    0    0  0.00000000000E+00  0.00000000000E+00 -0.53469739854E+03  0.80365408442E+03  0.59996548183E+03 0.  0.
        2    1    3    3  502    0 -0.19522953760E+03  0.98673842103E+02  0.76196215458E+01  0.21888160751E+03  0.25500000920E-02 0. -1.
       -2    1    3    3    0  502  0.19522953760E+03 -0.98673842103E+02 -0.54231702009E+03  0.58477247691E+03  0.25500000920E-02 0.  1.
</event>
<event>
 5   0  0.1416315E-03  0.6000910E+03  0.7818609E-02  0.9905217E-01
        1   -1    0    0  501    0  0.00000000000E+00  0.00000000000E+00  0.10884553396E+04  0.10884553396E+04  0.50400001928E-02 0.  1.
       -1   -1    0    0    0  501  0.00000000000E+00  0.00000000000E+00 -0.82711052952E+02  0.82711053105E+02  0.50400001928E-02 0. -1.
    10030    2    1    2    0    0  0.00000000000E+00  0.00000000000E+00  0.10057442867E+04  0.11711663927E+04  0.60009095086E+03 0.  0.
        2    1    3    3  502    0 -0.11294941109E+03  0.26863240391E+03  0.64233443223E+03  0.70534704985E+03  0.25500000920E-02 0.  1.
       -2    1    3    3    0  502  0.11294941109E+03 -0.26863240391E+03  0.36340985442E+03  0.46581934287E+03  0.25500000920E-02 0. -1.
</event>
<event>
 5   0  0.9496750E-04  0.6002423E+03  0.7818609E-02  0.9904904E-01
        3   -1    0    0  501    0  0.00000000000E+00  0.00000000000E+00  0.80140348042E+03  0.80140348679E+03  0.10100000352E+00 0.  1.
       -3   -1    0    0    0  501  0.00000000000E+00  0.00000000000E+00 -0.11239366356E+03  0.11239370894E+03  0.10100000352E+00 0. -1.
    10030    2    1    2    0    0  0.00000000000E+00  0.00000000000E+00  0.68900981686E+03  0.91379719572E+03  0.60024227374E+03 0.  0.
        4    1    3    3  502    0  0.17602356783E+03  0.11452340891E+03  0.67091685885E+03  0.70301561292E+03  0.12699999809E+01 0.  1.
       -4    1    3    3    0  502 -0.17602356783E+03 -0.11452340891E+03  0.18092958016E+02  0.21078158281E+03  0.12699999809E+01 0. -1.
</event>
<event>
 5   0  0.2324616E-03  0.5999941E+03  0.7818609E-02  0.9905418E-01
       -2   -1    0    0    0  501  0.00000000000E+00  0.00000000000E+00  0.17554332917E+03  0.17554332919E+03  0.25500000920E-02 0.  1.
        2   -1    0    0  501    0  0.00000000000E+00  0.00000000000E+00 -0.51268381431E+03  0.51268381432E+03  0.25500000920E-02 0. -1.
    10030    2    1    2    0    0  0.00000000000E+00  0.00000000000E+00 -0.33714048514E+03  0.68822714351E+03  0.59999407859E+03 0.  0.
        4    1    3    3  502    0 -0.25109774944E+03  0.14155097235E+03 -0.73220562258E+02  0.29740481029E+03  0.12699999809E+01 0. -1.
       -4    1    3    3    0  502  0.25109774944E+03 -0.14155097235E+03 -0.26391992288E+03  0.39082233322E+03  0.12699999809E+01 0.  1.
</event>
<event>
 5   0  0.1423430E-03  0.6043142E+03  0.7818609E-02  0.9896496E-01
       -1   -1    0    0    0  501  0.00000000000E+00  0.00000000000E+00  0.18629024942E+03  0.18629024949E+03  0.50400001928E-02 0.  1.
        1   -1    0    0  501    0  0.00000000000E+00  0.00000000000E+00 -0.49008960141E+03  0.49008960143E+03  0.50400001928E-02 0. -1.
    10030    2    1    2    0    0  0.00000000000E+00  0.00000000000E+00 -0.30379935198E+03  0.67637985093E+03  0.60431420343E+03 0.  0.
        1    1    3    3  502    0  0.66660270378E+01 -0.19903755532E+03 -0.40623975049E+03  0.45242802660E+03  0.50400001928E-02 0. -1.
       -1    1    3    3    0  502 -0.66660270378E+01  0.19903755532E+03  0.10244039851E+03  0.22395182433E+03  0.50400001928E-02 0.  1.
</event>
<event>
 5   0  0.1479385E-03  0.5999678E+03  0.7818609E-02  0.9905473E-01
        1   -1    0    0  501    0  0.00000000000E+00  0.00000000000E+00  0.80500988368E+03  0.80500988369E+03  0.50400001928E-02 0. -1.
       -1   -1    0    0    0  501  0.00000000000E+00  0.00000000000E+00 -0.11178787298E+03  0.11178787309E+03  0.50400001928E-02 0.  1.
    10030    2    1    2    0    0  0.00000000000E+00  0.00000000000E+00  0.69322201070E+03  0.91679775678E+03  0.59996780807E+03 0.  0.
        3    1    3    3  502    0 -0.70475352478E+02 -0.17610475184E+03  0.70173939348E+03  0.72692354858E+03  0.10100000352E+00 0. -1.
       -3    1    3    3    0  502  0.70475352478E+02  0.17610475184E+03 -0.85173827749E+01  0.18987420820E+03  0.10100000352E+00 0.  1.
</event>
<event>
 5   0  0.2313168E-03  0.6000700E+03  0.7818609E-02  0.9905261E-01
       -2   -1    0    0    0  501  0.00000000000E+00  0.00000000000E+00  0.11156872341E+03  0.11156872344E+03  0.25500000920E-02 0.  1.
        2   -1    0    0  501    0  0.00000000000E+00  0.00000000000E+00 -0.80686598574E+03  0.80686598575E+03  0.25500000920E-02 0. -1.
    10030    2    1    2    0    0  0.00000000000E+00  0.00000000000E+00 -0.69529726233E+03  0.91843470919E+03  0.60007002261E+03 0.  0.
        2    1    3    3  502    0 -0.91500040752E+02  0.25598968978E+03 -0.54196184136E+03  0.60632138032E+03  0.25500000920E-02 0. -1.
       -2    1    3    3    0  502  0.91500040752E+02 -0.25598968978E+03 -0.15333542097E+03  0.31211332887E+03  0.25500000920E-02 0.  1.
</event>
<event>
 5   0  0.2324616E-03  0.6000653E+03  0.7818609E-02  0.9905271E-01
       -2   -1    0    0    0  501  0.00000000000E+00  0.00000000000E+00  0.48605439347E+03  0.48605439347E+03  0.25500000920E-02 0.  1.
        2   -1    0    0  501    0  0.00000000000E+00  0.00000000000E+00 -0.18520475744E+03  0.18520475746E+03  0.25500000920E-02 0. -1.
    10030    2    1    2    0    0  0.00000000000E+00  0.00000000000E+00  0.30084963602E+03  0.67125915093E+03  0.60006528330E+03 0.  0.
        4    1    3    3  502    0 -0.13400992109E+03  0.19036572292E+03  0.36214182988E+03  0.43051839132E+03  0.12699999809E+01 0.  1.
       -4    1    3    3    0  502  0.13400992109E+03 -0.19036572292E+03 -0.61292193857E+02  0.24074075962E+03  0.12699999809E+01 0. -1.
</event>
<event>
 5   0  0.1418763E-03  0.5995561E+03  0.7818609E-02  0.9906327E-01
        1   -1    0    0  501    0  0.00000000000E+00  0.00000000000E+00  0.87644979461E+03  0.87644979462E+03  0.50400001928E-02 0.  1.
       -1   -1    0    0    0  501  0.00000000000E+00  0.00000000000E+00 -0.10253512945E+03  0.10253512957E+03  0.50400001928E-02 0. -1.
    10030    2    1    2    0    0  0.00000000000E+00  0.00000000000E+00  0.77391466516E+03  0.97898492419E+03  0.59955614653E+03 0.  0.
        5    1    3    3  502    0  0.29710997516E+03  0.81021519496E+01  0.32361579999E+03  0.43941922831E+03  0.46999998093E+01 0.  1.
       -5    1    3    3    0  502 -0.29710997516E+03 -0.81021519496E+01  0.45029886517E+03  0.53956569588E+03  0.46999998093E+01 0. -1.
</event>
<event>
 5   0  0.2324616E-03  0.6004515E+03  0.7818609E-02  0.9904470E-01
       -2   -1    0    0    0  501  0.00000000000E+00  0.00000000000E+00  0.17463249275E+03  0.17463249277E+03  0.25500000920E-02 0.  1.
        2   -1    0    0  501    0  0.00000000000E+00  0.00000000000E+00 -0.51614386197E+03  0.51614386198E+03  0.25500000920E-02 0. -1.
    10030    2    1    2    0    0  0.00000000000E+00  0.00000000000E+00 -0.34151136922E+03  0.69077635474E+03  0.60045146095E+03 0.  0.
        4    1    3    3  502    0  0.71226527624E+02  0.28828850716E+03 -0.11994900467E+03  0.32026997708E+03  0.12699999809E+01 0. -1.
       -4    1    3    3    0  502 -0.71226527624E+02 -0.28828850716E+03 -0.22156236455E+03  0.37050637766E+03  0.12699999809E+01 0.  1.
</event>
<event>
 5   0  0.1416315E-03  0.6001399E+03  0.7818609E-02  0.9905116E-01
        1   -1    0    0  501    0  0.00000000000E+00  0.00000000000E+00  0.26804742625E+03  0.26804742630E+03  0.50400001928E-02 0. -1.
       -1   -1    0    0    0  501  0.00000000000E+00  0.00000000000E+00 -0.33591805621E+03  0.33591805625E+03  0.50400001928E-02 0.  1.
    10030    2    1    2    0    0  0.00000000000E+00  0.00000000000E+00 -0.67870629963E+02  0.60396548255E+03  0.60013988511E+03 0.  0.
        2    1    3    3  502    0  0.99944704483E+01  0.50646944855E+02  0.26354491815E+03  0.26855339571E+03  0.25500000920E-02 0. -1.
       -2    1    3    3    0  502 -0.99944704483E+01 -0.50646944855E+02 -0.33141554811E+03  0.33541208684E+03  0.25500000920E-02 0.  1.
</event>
<event>
 5   0  0.2406307E-03  0.5999989E+03  0.7818609E-02  0.9905408E-01
        2   -1    0    0  501    0  0.00000000000E+00  0.00000000000E+00  0.95979978656E+03  0.95979978656E+03  0.25500000920E-02 0.  1.
       -2   -1    0    0    0  501  0.00000000000E+00  0.00000000000E+00 -0.93769225394E+02  0.93769225428E+02  0.25500000920E-02 0. -1.
    10030    2    1    2    0    0  0.00000000000E+00  0.00000000000E+00  0.86603056117E+03  0.10535690120E+04  0.59999894180E+03 0.  0.
        5    1    3    3  502    0 -0.10652660852E+03 -0.41816070636E+02 -0.53865096483E+02  0.12657029945E+03  0.46999998093E+01 0. -1.
       -5    1    3    3    0  502  0.10652660852E+03  0.41816070636E+02  0.91989565765E+03  0.92699871254E+03  0.46999998093E+01 0.  1.
</event>
<event>
 5   0  0.1416315E-03  0.5999818E+03  0.7818609E-02  0.9905444E-01
        1   -1    0    0  501    0  0.00000000000E+00  0.00000000000E+00  0.35578370402E+03  0.35578370406E+03  0.50400001928E-02 0.  1.
       -1   -1    0    0    0  501  0.00000000000E+00  0.00000000000E+00 -0.25294737400E+03  0.25294737405E+03  0.50400001928E-02 0. -1.
    10030    2    1    2    0    0  0.00000000000E+00  0.00000000000E+00  0.10283633003E+03  0.60873107810E+03  0.59998184529E+03 0.  0.
        2    1    3    3  502    0  0.10570441932E+03  0.15075391997E+03 -0.18887812235E+03  0.26377094942E+03  0.25500000920E-02 0. -1.
       -2    1    3    3    0  502 -0.10570441932E+03 -0.15075391997E+03  0.29171445237E+03  0.34496012868E+03  0.25500000920E-02 0.  1.
</event>
<event>
 5   0  0.2346281E-03  0.5999408E+03  0.7818609E-02  0.9905529E-01
        2   -1    0    0  501    0  0.00000000000E+00  0.00000000000E+00  0.61187651081E+03  0.61187651082E+03  0.25500000920E-02 0. -1.
       -2   -1    0    0    0  501  0.00000000000E+00  0.00000000000E+00 -0.14705945563E+03  0.14705945565E+03  0.25500000920E-02 0.  1.
    10030    2    1    2    0    0  0.00000000000E+00  0.00000000000E+00  0.46481705518E+03  0.75893596647E+03  0.59994075242E+03 0.  0.
        3    1    3    3  502    0  0.14112167394E+03 -0.26024878636E+03  0.29356870671E+03  0.41692607668E+03  0.10100000352E+00 0.  1.
       -3    1    3    3    0  502 -0.14112167394E+03  0.26024878636E+03  0.17124834847E+03  0.34200988979E+03  0.10100000352E+00 0. -1.
</event>
<event>
 5   0  0.9496750E-04  0.5995398E+03  0.7818609E-02  0.9906361E-01
        4   -1    0    0  501    0  0.00000000000E+00  0.00000000000E+00  0.12413685658E+04  0.12413692154E+04  0.12699999809E+01 0.  1.
       -4   -1    0    0    0  501  0.00000000000E+00  0.00000000000E+00 -0.72383211311E+02  0.72394351849E+02  0.12699999809E+01 0. -1.
    10030    2    1    2    0    0  0.00000000000E+00  0.00000000000E+00  0.11689853545E+04  0.13137635673E+04  0.59953978328E+03 0.  0.
        4    1    3    3  502    0  0.15300918624E+03 -0.79049863377E+02  0.11221385420E+04  0.11352784735E+04  0.12699999809E+01 0.  1.
       -4    1    3    3    0  502 -0.15300918624E+03  0.79049863377E+02  0.46846812465E+02  0.17848509381E+03  0.12699999809E+01 0. -1.
</event>
<event>
 5   0  0.2313168E-03  0.5999213E+03  0.7818609E-02  0.9905569E-01
       -2   -1    0    0    0  501  0.00000000000E+00  0.00000000000E+00  0.51440805999E+02  0.51440806062E+02  0.25500000920E-02 0.  1.
        2   -1    0    0  501    0  0.00000000000E+00  0.00000000000E+00 -0.17491249790E+04  0.17491249790E+04  0.25500000920E-02 0. -1.
    10030    2    1    2    0    0  0.00000000000E+00  0.00000000000E+00 -0.16976841730E+04  0.18005657851E+04  0.59992132409E+03 0.  0.
        2    1    3    3  502    0 -0.10779418346E+03 -0.24210636394E+03 -0.12705413115E+04  0.12978868601E+04  0.25500000920E-02 0. -1.
       -2    1    3    3    0  502  0.10779418346E+03  0.24210636394E+03 -0.42714286156E+03  0.50267892500E+03  0.25500000920E-02 0.  1.
</event>
<event>
 5   0  0.1418763E-03  0.5999545E+03  0.7818609E-02  0.9905500E-01
       -1   -1    0    0    0  501  0.00000000000E+00  0.00000000000E+00  0.17901451780E+03  0.17901451787E+03  0.50400001928E-02 0. -1.
        1   -1    0    0  501    0  0.00000000000E+00  0.00000000000E+00 -0.50267629643E+03  0.50267629646E+03  0.50400001928E-02 0.  1.
    10030    2    1    2    0    0  0.00000000000E+00  0.00000000000E+00 -0.32366177863E+03  0.68169081433E+03  0.59995451443E+03 0.  0.
        5    1    3    3  502    0 -0.25858914448E+03 -0.35974353755E+02  0.59393577999E+01  0.26118932930E+03  0.46999998093E+01 0. -1.
       -5    1    3    3    0  502  0.25858914448E+03  0.35974353755E+02 -0.32960113643E+03  0.42050148502E+03  0.46999998093E+01 0.  1.
</event>
<event>
 5   0  0.2324616E-03  0.6000014E+03  0.7818609E-02  0.9905403E-01
       -2   -1    0    0    0  501  0.00000000000E+00  0.00000000000E+00  0.36068682255E+03  0.36068682256E+03  0.25500000920E-02 0.  1.
        2   -1    0    0  501    0  0.00000000000E+00  0.00000000000E+00 -0.24952514115E+03  0.24952514116E+03  0.25500000920E-02 0. -1.
    10030    2    1    2    0    0  0.00000000000E+00  0.00000000000E+00  0.11116168140E+03  0.61021196372E+03  0.60000143438E+03 0.  0.
        4    1    3    3  502    0 -0.25140103354E+03  0.11022237231E+03  0.17866671138E+03  0.32752840743E+03  0.12699999809E+01 0.  1.
       -4    1    3    3    0  502  0.25140103354E+03 -0.11022237231E+03 -0.67505029978E+02  0.28268355629E+03  0.12699999809E+01 0. -1.
</event>
<event>
 5   0  0.2406307E-03  0.5996512E+03  0.7818609E-02  0.9906130E-01
        2   -1    0    0  501    0  0.00000000000E+00  0.00000000000E+00  0.14645179277E+04  0.14645179277E+04  0.25500000920E-02 0. -1.
       -2   -1    0    0    0  501  0.00000000000E+00  0.00000000000E+00 -0.61382239983E+02  0.61382240036E+02  0.25500000920E-02 0.  1.
    10030    2    1    2    0    0  0.00000000000E+00  0.00000000000E+00  0.14031356877E+04  0.15259001677E+04  0.59965120174E+03 0.  0.
        5    1    3    3  502    0  0.22413552077E+03 -0.10122999551E+03  0.26533311194E+03  0.36181209757E+03  0.46999998093E+01 0.  1.
       -5    1    3    3    0  502 -0.22413552077E+03  0.10122999551E+03  0.11378025757E+04  0.11640880701E+04  0.46999998093E+01 0. -1.
</event>
<event>
 5   0  0.1392854E-03  0.5999522E+03  0.7818609E-02  0.9905505E-01
        1   -1    0    0  501    0  0.00000000000E+00  0.00000000000E+00  0.32644445056E+03  0.32644445060E+03  0.50400001928E-02 0.  1.
       -1   -1    0    0    0  501  0.00000000000E+00  0.00000000000E+00 -0.27565380837E+03  0.27565380841E+03  0.50400001928E-02 0. -1.
    10030    2    1    2    0    0  0.00000000000E+00  0.00000000000E+00  0.50790642190E+02  0.60209825901E+03  0.59995218490E+03 0.  0.
        4    1    3    3  502    0 -0.18063735594E+03  0.21755552297E+03  0.12587229915E+03  0.30952497238E+03  0.12699999809E+01 0. -1.
       -4    1    3    3    0  502  0.18063735594E+03 -0.21755552297E+03 -0.75081656959E+02  0.29257328663E+03  0.12699999809E+01 0.  1.
</event>
<event>
 5   0  0.9496750E-04  0.6001721E+03  0.7818609E-02  0.9905049E-01
        4   -1    0    0  501    0  0.00000000000E+00  0.00000000000E+00  0.10450698608E+04  0.10450706324E+04  0.12699999809E+01 0. -1.
       -4   -1    0    0    0  501  0.00000000000E+00  0.00000000000E+00 -0.86162562934E+02  0.86171922058E+02  0.12699999809E+01 0.  1.
    10030    2    1    2    0    0  0.00000000000E+00  0.00000000000E+00  0.95890729783E+03  0.11312425545E+04  0.60017206805E+03 0.  0.
        4    1    3    3  502    0 -0.28084705437E+02  0.29658794366E+03  0.41157615218E+03  0.50808434432E+03  0.12699999809E+01 0.  1.
       -4    1    3    3    0  502  0.28084705437E+02 -0.29658794366E+03  0.54733114565E+03  0.62315821017E+03  0.12699999809E+01 0. -1.
</event>
<event>
 5   0  0.2406307E-03  0.5997908E+03  0.7818609E-02  0.9905840E-01
        2   -1    0    0  501    0  0.00000000000E+00  0.00000000000E+00  0.44243009830E+03  0.44243009831E+03  0.25500000920E-02 0. -1.
       -2   -1    0    0    0  501  0.00000000000E+00  0.00000000000E+00 -0.20328012773E+03  0.20328012774E+03  0.25500000920E-02 0.  1.
    10030    2    1    2    0    0  0.00000000000E+00  0.00000000000E+00  0.23914997058E+03  0.64571022605E+03  0.59979078653E+03 0.  0.
        5    1    3    3  502    0 -0.19318577113E+03  0.15663318319E+03 -0.60762193954E+02  0.25606411395E+03  0.46999998093E+01 0.  1.
       -5    1    3    3    0  502  0.19318577113E+03 -0.15663318319E+03  0.29991216453E+03  0.38964611210E+03  0.46999998093E+01 0. -1.
</event>
<event>
 5   0  0.1479385E-03  0.6001106E+03  0.7818609E-02  0.9905177E-01
        1   -1    0    0  501    0  0.00000000000E+00  0.00000000000E+00  0.26380487196E+03  0.26380487201E+03  0.50400001928E-02 0. -1.
       -1   -1    0    0    0  501  0.00000000000E+00  0.00000000000E+00 -0.34128707061E+03  0.34128707065E+03  0.50400001928E-02 0.  1.
    10030    2    1    2    0    0  0.00000000000E+00  0.00000000000E+00 -0.77482198653E+02  0.60509194266E+03  0.60011062977E+03 0.  0.
        3    1    3    3  502    0  0.25103556918E+02 -0.25117992661E+03 -0.20229616155E+03  0.32348924446E+03  0.10100000352E+00 0.  1.
       -3    1    3    3    0  502 -0.25103556918E+02  0.25117992661E+03  0.12481396289E+03  0.28160269821E+03  0.10100000352E+00 0. -1.
</event>
<event>
 5   0  0.2421210E-03  0.5995282E+03  0.7818609E-02  0.9906385E-01
       -2   -1    0    0    0  501  0.00000000000E+00  0.00000000000E+00  0.74614191738E+02  0.74614191782E+02  0.25500000920E-02 0.  1.
        2   -1    0    0  501    0  0.00000000000E+00  0.00000000000E+00 -0.12043088050E+04  0.12043088050E+04  0.25500000920E-02 0. -1.
    10030    2    1    2    0    0  0.00000000000E+00  0.00000000000E+00 -0.11296946133E+04  0.12789229968E+04  0.59952824160E+03 0.  0.
        1    1    3    3  502    0 -0.98886261627E+02  0.18609438388E+02  0.37512208959E+02  0.10738700937E+03  0.50400001928E-02 0.  1.
       -1    1    3    3    0  502  0.98886261627E+02 -0.18609438388E+02 -0.11672068223E+04  0.11715359874E+04  0.50400001928E-02 0. -1.
</event>
<event>
 5   0  0.1423430E-03  0.6000414E+03  0.7818609E-02  0.9905320E-01
       -1   -1    0    0    0  501  0.00000000000E+00  0.00000000000E+00  0.11370507095E+03  0.11370507107E+03  0.50400001928E-02 0. -1.
        1   -1    0    0  501    0  0.00000000000E+00  0.00000000000E+00 -0.79163065206E+03  0.79163065208E+03  0.50400001928E-02 0.  1.
    10030    2    1    2    0    0  0.00000000000E+00  0.00000000000E+00 -0.67792558111E+03  0.90533572314E+03  0.60004139697E+03 0.  0.
        1    1    3    3  502    0  0.51734319168E+02  0.16003154833E+03 -0.71381674815E+03  0.73336272486E+03  0.50400001928E-02 0.  1.
       -1    1    3    3    0  502 -0.51734319168E+02 -0.16003154833E+03  0.35891167045E+02  0.17197299828E+03  0.50400001928E-02 0. -1.
</event>
<event>
 5   0  0.2421210E-03  0.5971315E+03  0.7818609E-02  0.9911375E-01
       -2   -1    0    0    0  501  0.00000000000E+00  0.00000000000E+00  0.59129963480E+02  0.59129963535E+02  0.25500000920E-02 0. -1.
        2   -1    0    0  501    0  0.00000000000E+00  0.00000000000E+00 -0.15075519972E+04  0.15075519972E+04  0.25500000920E-02 0.  1.
    10030    2    1    2    0    0  0.00000000000E+00  0.00000000000E+00 -0.14484220338E+04  0.15666819608E+04  0.59713145818E+03 0.  0.
        1    1    3    3  502    0  0.23664142603E+03  0.10621506151E+03 -0.33629042667E+03  0.42470231328E+03  0.50400001928E-02 0. -1.
       -1    1    3    3    0  502 -0.23664142603E+03 -0.10621506151E+03 -0.11121316071E+04  0.11419796475E+04  0.50400001928E-02 0.  1.
</event>
<event>
 5   0  0.2421210E-03  0.5998412E+03  0.7818609E-02  0.9905736E-01
        2   -1    0    0  501    0  0.00000000000E+00  0.00000000000E+00  0.20536784262E+03  0.20536784264E+03  0.25500000920E-02 0.  1.
       -2   -1    0    0    0  501  0.00000000000E+00  0.00000000000E+00 -0.43800606205E+03  0.43800606205E+03  0.25500000920E-02 0. -1.
    10030    2    1    2    0    0  0.00000000000E+00  0.00000000000E+00 -0.23263821942E+03  0.64337390469E+03  0.59984117906E+03 0.  0.
        1    1    3    3  502    0  0.25716186144E+03 -0.60519294004E+02 -0.26860022903E+03  0.37675043595E+03  0.50400001928E-02 0. -1.
       -1    1    3    3    0  502 -0.25716186144E+03  0.60519294004E+02  0.35962009609E+02  0.26662346874E+03  0.50400001928E-02 0.  1.
</event>
<event>
 5   0  0.2406307E-03  0.5998555E+03  0.7818609E-02  0.9905706E-01
        2   -1    0    0  501    0  0.00000000000E+00  0.00000000000E+00  0.12734212320E+04  0.12734212320E+04  0.25500000920E-02 0.  1.
       -2   -1    0    0    0  501  0.00000000000E+00  0.00000000000E+00 -0.70641719785E+02  0.70641719831E+02  0.25500000920E-02 0. -1.
    10030    2    1    2    0    0  0.00000000000E+00  0.00000000000E+00  0.12027795122E+04  0.13440629518E+04  0.59985553551E+03 0.  0.
        5    1    3    3  502    0 -0.73866238731E+02 -0.19752855077E+03  0.10791297524E+04  0.10995530283E+04  0.46999998093E+01 0.  1.
       -5    1    3    3    0  502  0.73866238731E+02  0.19752855077E+03  0.12364975983E+03  0.24450992351E+03  0.46999998093E+01 0. -1.
</event>
<event>
 5   0  0.2346281E-03  0.5998034E+03  0.7818609E-02  0.9905814E-01
        2   -1    0    0  501    0  0.00000000000E+00  0.00000000000E+00  0.14423079162E+04  0.14423079162E+04  0.25500000920E-02 0. -1.
       -2   -1    0    0    0  501  0.00000000000E+00  0.00000000000E+00 -0.62359097658E+02  0.62359097711E+02  0.25500000920E-02 0.  1.
    10030    2    1    2    0    0  0.00000000000E+00  0.00000000000E+00  0.13799488185E+04  0.15046670139E+04  0.59980336858E+03 0.  0.
        3    1    3    3  502    0  0.45665134811E+02  0.57811076409E+02 -0.39306360462E+02  0.83501049494E+02  0.10100000352E+00 0.  1.
       -3    1    3    3    0  502 -0.45665134811E+02 -0.57811076409E+02  0.14192551790E+04  0.14211659644E+04  0.10100000352E+00 0. -1.
</event>
<event>
 5   0  0.1416315E-03  0.6008375E+03  0.7818609E-02  0.9903670E-01
       -1   -1    0    0    0  501  0.00000000000E+00  0.00000000000E+00  0.69115934616E+02  0.69115934800E+02  0.50400001928E-02 0. -1.
        1   -1    0    0  501    0  0.00000000000E+00  0.00000000000E+00 -0.13057978261E+04  0.13057978261E+04  0.50400001928E-02 0.  1.
    10030    2    1    2    0    0  0.00000000000E+00  0.00000000000E+00 -0.12366818915E+04  0.13749137609E+04  0.60083753978E+03 0.  0.
        2    1    3    3  502    0 -0.11401894724E+03  0.17117120311E+03 -0.11724641575E+03  0.23674168014E+03  0.25500000920E-02 0. -1.
       -2    1    3    3    0  502  0.11401894724E+03 -0.17117120311E+03 -0.11194354757E+04  0.11381720808E+04  0.25500000920E-02 0.  1.
</event>
<event>
 5   0  0.1479385E-03  0.5998274E+03  0.7818609E-02  0.9905764E-01
        1   -1    0    0  501    0  0.00000000000E+00  0.00000000000E+00  0.68079447541E+03  0.68079447543E+03  0.50400001928E-02 0.  1.
       -1   -1    0    0    0  501  0.00000000000E+00  0.00000000000E+00 -0.13212244836E+03  0.13212244846E+03  0.50400001928E-02 0. -1.
    10030    2    1    2    0    0  0.00000000000E+00  0.00000000000E+00  0.54867202705E+03  0.81291692389E+03  0.59982741842E+03 0.  0.
        3    1    3    3  502    0 -0.27342513380E+03  0.74000594727E+02  0.40788729158E+03  0.49659787016E+03  0.10100000352E+00 0.  1.
       -3    1    3    3    0  502  0.27342513380E+03 -0.74000594727E+02  0.14078473547E+03  0.31631905373E+03  0.10100000352E+00 0. -1.
</event>
<event>
 5   0  0.1418763E-03  0.6004263E+03  0.7818609E-02  0.9904522E-01
       -1   -1    0    0    0  501  0.00000000000E+00  0.00000000000E+00  0.60597988356E+02  0.60597988566E+02  0.50400001928E-02 0. -1.
        1   -1    0    0  501    0  0.00000000000E+00  0.00000000000E+00 -0.14873090809E+04  0.14873090809E+04  0.50400001928E-02 0.  1.
    10030    2    1    2    0    0  0.00000000000E+00  0.00000000000E+00 -0.14267110925E+04  0.15479070694E+04  0.60042631032E+03 0.  0.
        5    1    3    3  502    0  0.88622305628E+02 -0.48711171450E+02 -0.14419769191E+04  0.14455262766E+04  0.46999998093E+01 0.  1.
       -5    1    3    3    0  502 -0.88622305628E+02  0.48711171450E+02  0.15265826562E+02  0.10238079282E+03  0.46999998093E+01 0. -1.
</event>
<event>
 5   0  0.9496750E-04  0.6003523E+03  0.7818609E-02  0.9904675E-01
        3   -1    0    0  501    0  0.00000000000E+00  0.00000000000E+00  0.15555301282E+04  0.15555301315E+04  0.10100000352E+00 0.  1.
       -3   -1    0    0    0  501  0.00000000000E+00  0.00000000000E+00 -0.57926008269E+02  0.57926096321E+02  0.10100000352E+00 0. -1.
    10030    2    1    2    0    0  0.00000000000E+00  0.00000000000E+00  0.14976041199E+04  0.16134562278E+04  0.60035231239E+03 0.  0.
        4    1    3    3  502    0  0.13827273390E+03  0.20868868456E+03  0.30366479695E+03  0.39355334812E+03  0.12699999809E+01 0. -1.
       -4    1    3    3    0  502 -0.13827273390E+03 -0.20868868456E+03  0.11939393230E+04  0.12199028797E+04  0.12699999809E+01 0.  1.
</event>
<event>
 5   0  0.1416315E-03  0.6005622E+03  0.7818609E-02  0.9904240E-01
        1   -1    0    0  501    0  0.00000000000E+00  0.00000000000E+00  0.48396713253E+03  0.48396713256E+03  0.50400001928E-02 0.  1.
       -1   -1    0    0    0  501  0.00000000000E+00  0.00000000000E+00 -0.18631168402E+03  0.18631168409E+03  0.50400001928E-02 0. -1.
    10030    2    1    2    0    0  0.00000000000E+00  0.00000000000E+00  0.29765544851E+03  0.67027881665E+03  0.60056217498E+03 0.  0.
        2    1    3    3  502    0 -0.21166620825E+03 -0.49005807616E+02  0.38016882457E+03  0.43787268478E+03  0.25500000920E-02 0.  1.
       -2    1    3    3    0  502  0.21166620825E+03  0.49005807616E+02 -0.82513376066E+02  0.23240613187E+03  0.25500000920E-02 0. -1.
</event>
<event>
 5   0  0.1423430E-03  0.6000125E+03  0.7818609E-02  0.9905380E-01
       -1   -1    0    0    0  501  0.00000000000E+00  0.00000000000E+00  0.76666956038E+02  0.76666956203E+02  0.50400001928E-02 0. -1.
        1   -1    0    0  501    0  0.00000000000E+00  0.00000000000E+00 -0.11739576335E+04  0.11739576336E+04  0.50400001928E-02 0.  1.
    10030    2    1    2    0    0  0.00000000000E+00  0.00000000000E+00 -0.10972906775E+04  0.12506245898E+04  0.60001252784E+03 0.  0.
        1    1    3    3  502    0 -0.13954736720E+03  0.12818807378E+03 -0.63850837503E+02  0.19995644382E+03  0.50400001928E-02 0. -1.
       -1    1    3    3    0  502  0.13954736720E+03 -0.12818807378E+03 -0.10334398400E+04  0.10506681459E+04  0.50400001928E-02 0.  1.
</event>
<event>
 5   0  0.2324616E-03  0.6000304E+03  0.7818609E-02  0.9905343E-01
       -2   -1    0    0    0  501  0.00000000000E+00  0.00000000000E+00  0.64191439590E+02  0.64191439641E+02  0.25500000920E-02 0.  1.
        2   -1    0    0  501    0  0.00000000000E+00  0.00000000000E+00 -0.14021981179E+04  0.14021981179E+04  0.25500000920E-02 0. -1.
    10030    2    1    2    0    0  0.00000000000E+00  0.00000000000E+00 -0.13380066783E+04  0.14663895576E+04  0.60003038529E+03 0.  0.
        4    1    3    3  502    0  0.27381141373E+02  0.23516580806E+02 -0.13968661751E+04  0.13973329884E+04  0.12699999809E+01 0. -1.
       -4    1    3    3    0  502 -0.27381141373E+02 -0.23516580806E+02  0.58859496796E+02  0.69056569121E+02  0.12699999809E+01 0.  1.
</event>
<event>
 5   0  0.1479385E-03  0.6000285E+03  0.7818609E-02  0.9905347E-01
       -1   -1    0    0    0  501  0.00000000000E+00  0.00000000000E+00  0.15289329507E+03  0.15289329515E+03  0.50400001928E-02 0. -1.
        1   -1    0    0  501    0  0.00000000000E+00  0.00000000000E+00 -0.58870167212E+03  0.58870167214E+03  0.50400001928E-02 0.  1.
    10030    2    1    2    0    0  0.00000000000E+00  0.00000000000E+00 -0.43580837705E+03  0.74159496730E+03  0.60002846100E+03 0.  0.
        3    1    3    3  502    0 -0.26803982400E+02  0.55865156167E+02  0.14489879578E+03  0.15759137148E+03  0.10100000352E+00 0. -1.
       -3    1    3    3    0  502  0.26803982400E+02 -0.55865156167E+02 -0.58070717283E+03  0.58400359582E+03  0.10100000352E+00 0.  1.
</event>
<event>
 5   0  0.2313168E-03  0.5998142E+03  0.7818609E-02  0.9905792E-01
        2   -1    0    0  501    0  0.00000000000E+00  0.00000000000E+00  0.16852914790E+04  0.16852914790E+04  0.25500000920E-02 0.  1.
       -2   -1    0    0    0  501  0.00000000000E+00  0.00000000000E+00 -0.53370152515E+02  0.53370152576E+02  0.25500000920E-02 0. -1.
    10030    2    1    2    0    0  0.00000000000E+00  0.00000000000E+00  0.16319213265E+04  0.17386616316E+04  0.59981418229E+03 0.  0.
        2    1    3    3  502    0  0.19535162814E+03 -0.14481428945E+03  0.30715725397E+03  0.39176397960E+03  0.25500000920E-02 0. -1.
       -2    1    3    3    0  502 -0.19535162814E+03  0.14481428945E+03  0.13247640725E+04  0.13468976519E+04  0.25500000920E-02 0.  1.
</event>
<event>
 5   0  0.1418763E-03  0.5998746E+03  0.7818609E-02  0.9905666E-01
        1   -1    0    0  501    0  0.00000000000E+00  0.00000000000E+00  0.35036296533E+03  0.35036296537E+03  0.50400001928E-02 0. -1.
       -1   -1    0    0    0  501  0.00000000000E+00  0.00000000000E+00 -0.25676913116E+03  0.25676913121E+03  0.50400001928E-02 0.  1.
    10030    2    1    2    0    0  0.00000000000E+00  0.00000000000E+00  0.93593834179E+02  0.60713209658E+03  0.59987463432E+03 0.  0.
        5    1    3    3  502    0 -0.17824641304E+03 -0.24112044451E+03  0.41304318241E+02  0.30271932418E+03  0.46999998093E+01 0. -1.
       -5    1    3    3    0  502  0.17824641304E+03  0.24112044451E+03  0.52289515938E+02  0.30441277240E+03  0.46999998093E+01 0.  1.
</event>
<event>
 5   0  0.2324616E-03  0.6000509E+03  0.7818609E-02  0.9905300E-01
        2   -1    0    0  501    0  0.00000000000E+00  0.00000000000E+00  0.41634495468E+03  0.41634495469E+03  0.25500000920E-02 0. -1.
       -2   -1    0    0    0  501  0.00000000000E+00  0.00000000000E+00 -0.21620358711E+03  0.21620358712E+03  0.25500000920E-02 0.  1.
    10030    2    1    2    0    0  0.00000000000E+00  0.00000000000E+00  0.20014136757E+03  0.63254854181E+03  0.60005090679E+03 0.  0.
        4    1    3    3  502    0 -0.14180654825E+02 -0.19990495424E+03 -0.13529376371E+03  0.24180384012E+03  0.12699999809E+01 0.  1.
       -4    1    3    3    0  502  0.14180654825E+02  0.19990495424E+03  0.33543513128E+03  0.39074470169E+03  0.12699999809E+01 0. -1.
</event>
<event>
 5   0  0.2421210E-03  0.6003142E+03  0.7818609E-02  0.9904754E-01
       -2   -1    0    0    0  501  0.00000000000E+00  0.00000000000E+00  0.20726163885E+03  0.20726163887E+03  0.25500000920E-02 0.  1.
        2   -1    0    0  501    0  0.00000000000E+00  0.00000000000E+00 -0.43468865179E+03  0.43468865180E+03  0.25500000920E-02 0. -1.
    10030    2    1    2    0    0  0.00000000000E+00  0.00000000000E+00 -0.22742701293E+03  0.64195029066E+03  0.60031419230E+03 0.  0.
        1    1    3    3  502    0 -0.97348807273E+02 -0.27305062625E+03 -0.30462504358E+02  0.29148138700E+03  0.50400001928E-02 0. -1.
       -1    1    3    3    0  502  0.97348807273E+02  0.27305062625E+03 -0.19696450858E+03  0.35046890366E+03  0.50400001928E-02 0.  1.
</event>
<event>
 5   0  0.2421210E-03  0.5996491E+03  0.7818609E-02  0.9906134E-01
        2   -1    0    0  501    0  0.00000000000E+00  0.00000000000E+00  0.18920468447E+03  0.18920468449E+03  0.25500000920E-02 0. -1.
       -2   -1    0    0    0  501  0.00000000000E+00  0.00000000000E+00 -0.47511907548E+03  0.47511907549E+03  0.25500000920E-02 0.  1.
    10030    2    1    2    0    0  0.00000000000E+00  0.00000000000E+00 -0.28591439101E+03  0.66432375997E+03  0.59964907995E+03 0.  0.
        1    1    3    3  502    0 -0.10600343929E+03 -0.25347679043E+03 -0.27593451236E+03  0.38939320432E+03  0.50400001928E-02 0.  1.
       -1    1    3    3    0  502  0.10600343929E+03  0.25347679043E+03 -0.99798786473E+01  0.27493055566E+03  0.50400001928E-02 0. -1.
</event>
<event>
 5   0  0.1416315E-03  0.6002221E+03  0.7818609E-02  0.9904945E-01
       -1   -1    0    0    0  501  0.00000000000E+00  0.00000000000E+00  0.55740302542E+03  0.55740302545E+03  0.50400001928E-02 0. -1.
        1   -1    0    0  501    0  0.00000000000E+00  0.00000000000E+00 -0.16158261885E+03  0.16158261893E+03  0.50400001928E-02 0.  1.
    10030    2    1    2    0    0  0.00000000000E+00  0.00000000000E+00  0.39582040657E+03  0.71898564438E+03  0.60022209436E+03 0.  0.
        2    1    3    3  502    0  0.10715621830E+03 -0.24520897013E+03  0.36064701930E+03  0.44908369675E+03  0.25500000920E-02 0. -1.
       -2    1    3    3    0  502 -0.10715621830E+03  0.24520897013E+03  0.35173387276E+02  0.26990194763E+03  0.25500000920E-02 0.  1.
</event>
<event>
 5   0  0.2324616E-03  0.6003202E+03  0.7818609E-02  0.9904742E-01
        2   -1    0    0  501    0  0.00000000000E+00  0.00000000000E+00  0.14762132492E+04  0.14762132492E+04  0.25500000920E-02 0. -1.
       -2   -1    0    0    0  501  0.00000000000E+00  0.00000000000E+00 -0.61031888263E+02  0.61031888317E+02  0.25500000920E-02 0.  1.
    10030    2    1    2    0    0  0.00000000000E+00  0.00000000000E+00  0.14151813609E+04  0.15372451375E+04  0.60032018830E+03 0.  0.
        4    1    3    3  502    0  0.11319405283E+03  0.80198022532E+02  0.13891907963E+04  0.13961007477E+04  0.12699999809E+01 0. -1.
       -4    1    3    3    0  502 -0.11319405283E+03 -0.80198022532E+02  0.25990564628E+02  0.14114438977E+03  0.12699999809E+01 0.  1.
</event>
<event>
 5   0  0.2324616E-03  0.5997562E+03  0.7818609E-02  0.9905912E-01
       -2   -1    0    0    0  501  0.00000000000E+00  0.00000000000E+00  0.12811482450E+03  0.12811482452E+03  0.25500000920E-02 0. -1.
        2   -1    0    0  501    0  0.00000000000E+00  0.00000000000E+00 -0.70192402009E+03  0.70192402009E+03  0.25500000920E-02 0.  1.
    10030    2    1    2    0    0  0.00000000000E+00  0.00000000000E+00 -0.57380919559E+03  0.83003884462E+03  0.59975619265E+03 0.  0.
        4    1    3    3  502    0 -0.55376341162E+02 -0.28051547375E+02  0.11912173250E+03  0.13433178523E+03  0.12699999809E+01 0. -1.
       -4    1    3    3    0  502  0.55376341162E+02  0.28051547375E+02 -0.69293092809E+03  0.69570705938E+03  0.12699999809E+01 0.  1.
</event>
<event>
 5   0  0.9496750E-04  0.5999613E+03  0.7818609E-02  0.9905486E-01
        4   -1    0    0  501    0  0.00000000000E+00  0.00000000000E+00  0.99441615915E+03  0.99441697013E+03  0.12699999809E+01 0. -1.
       -4   -1    0    0    0  501  0.00000000000E+00  0.00000000000E+00 -0.90488387647E+02  0.90497299401E+02  0.12699999809E+01 0.  1.
    10030    2    1    2    0    0  0.00000000000E+00  0.00000000000E+00  0.90392777150E+03  0.10849142695E+04  0.59996129553E+03 0.  0.
        1    1    3    3  502    0 -0.63131810955E+02  0.28100768316E+02  0.97983195922E+03  0.98226572121E+03  0.50400001928E-02 0. -1.
       -1    1    3    3    0  502  0.63131810955E+02 -0.28100768316E+02 -0.75904187714E+02  0.10264854832E+03  0.50400001928E-02 0.  1.
</event>
<event>
 5   0  0.2324616E-03  0.5999449E+03  0.7818609E-02  0.9905520E-01
       -2   -1    0    0    0  501  0.00000000000E+00  0.00000000000E+00  0.34656089259E+03  0.34656089260E+03  0.25500000920E-02 0. -1.
        2   -1    0    0  501    0  0.00000000000E+00  0.00000000000E+00 -0.25964694274E+03  0.25964694276E+03  0.25500000920E-02 0.  1.
    10030    2    1    2    0    0  0.00000000000E+00  0.00000000000E+00  0.86913949850E+02  0.60620783536E+03  0.59994491828E+03 0.  0.
        4    1    3    3  502    0 -0.21672119358E+03  0.56234619952E+02 -0.15825526782E+03  0.27418379041E+03  0.12699999809E+01 0.  1.
       -4    1    3    3    0  502  0.21672119358E+03 -0.56234619952E+02  0.24516921767E+03  0.33202404495E+03  0.12699999809E+01 0. -1.
</event>
<event>
 5   0  0.1479385E-03  0.6000028E+03  0.7818609E-02  0.9905400E-01
       -1   -1    0    0    0  501  0.00000000000E+00  0.00000000000E+00  0.22776004172E+03  0.22776004178E+03  0.50400001928E-02 0.  1.
        1   -1    0    0  501    0  0.00000000000E+00  0.00000000000E+00 -0.39515636758E+03  0.39515636761E+03  0.50400001928E-02 0. -1.
    10030    2    1    2    0    0  0.00000000000E+00  0.00000000000E+00 -0.16739632585E+03  0.62291640939E+03  0.60000276931E+03 0.  0.
        3    1    3    3  502    0  0.51860164308E+02 -0.65729857471E+01 -0.39039152475E+03  0.39387591140E+03  0.10100000352E+00 0. -1.
       -3    1    3    3    0  502 -0.51860164308E+02  0.65729857471E+01  0.22299519890E+03  0.22904049798E+03  0.10100000352E+00 0.  1.
</event>
<event>
 5   0  0.1418763E-03  0.6000032E+03  0.7818609E-02  0.9905400E-01
       -1   -1    0    0    0  501  0.00000000000E+00  0.00000000000E+00  0.63955698243E+02  0.63955698441E+02  0.50400001928E-02 0. -1.
        1   -1    0    0  501    0  0.00000000000E+00  0.00000000000E+00 -0.14072388777E+04  0.14072388777E+04  0.50400001928E-02 0.  1.
    10030    2    1    2    0    0  0.00000000000E+00  0.00000000000E+00 -0.13432831795E+04  0.14711945761E+04  0.60000315056E+03 0.  0.
        5    1    3    3  502    0  0.14122834006E+03 -0.13749946251E+03 -0.12260669043E+04  0.12418187025E+04  0.46999998093E+01 0.  1.
       -5    1    3    3    0  502 -0.14122834006E+03  0.13749946251E+03 -0.11721627518E+03  0.22937587361E+03  0.46999998093E+01 0. -1.
</event>
<event>
 5   0  0.1479385E-03  0.5999536E+03  0.7818609E-02  0.9905502E-01
       -1   -1    0    0    0  501  0.00000000000E+00  0.00000000000E+00  0.10942138871E+03  0.10942138882E+03  0.50400001928E-02 0. -1.
        1   -1    0    0  501    0  0.00000000000E+00  0.00000000000E+00 -0.82238099344E+03  0.82238099346E+03  0.50400001928E-02 0.  1.
    10030    2    1    2    0    0  0.00000000000E+00  0.00000000000E+00 -0.71295960474E+03  0.93180238228E+03  0.59995356623E+03 0.  0.
        3    1    3    3  502    0  0.13823663596E+02  0.22659314948E+03 -0.66102884317E+03  0.69892395206E+03  0.10100000352E+00 0.  1.
       -3    1    3    3    0  502 -0.13823663596E+02 -0.22659314948E+03 -0.51930761572E+02  0.23287843022E+03  0.10100000352E+00 0. -1.
</event>
<event>
 5   0  0.9496750E-04  0.6000612E+03  0.7818609E-02  0.9905279E-01
        4   -1    0    0  501    0  0.00000000000E+00  0.00000000000E+00  0.60349331196E+03  0.60349464827E+03  0.12699999809E+01 0. -1.
       -4   -1    0    0    0  501  0.00000000000E+00  0.00000000000E+00 -0.14915792849E+03  0.14916333508E+03  0.12699999809E+01 0.  1.
    10030    2    1    2    0    0  0.00000000000E+00  0.00000000000E+00  0.45433538347E+03  0.75265798334E+03  0.60006116290E+03 0.  0.
        3    1    3    3  502    0 -0.14276411585E+03 -0.10179919238E+03 -0.78207017712E+02  0.19199222944E+03  0.10100000352E+00 0.  1.
       -3    1    3    3    0  502  0.14276411585E+03  0.10179919238E+03  0.53254240119E+03  0.56066575391E+03  0.10100000352E+00 0. -1.
</event>
<event>
 5   0  0.2346281E-03  0.5999986E+03  0.7818609E-02  0.9905409E-01
       -2   -1    0    0    0  501  0.00000000000E+00  0.00000000000E+00  0.53248849915E+02  0.53248849976E+02  0.25500000920E-02 0.  1.
        2   -1    0    0  501    0  0.00000000000E+00  0.00000000000E+00 -0.16901695244E+04  0.16901695244E+04  0.25500000920E-02 0. -1.
    10030    2    1    2    0    0  0.00000000000E+00  0.00000000000E+00 -0.16369206745E+04  0.17434183744E+04  0.59999861129E+03 0.  0.
        3    1    3    3  502    0  0.21271599650E+03  0.38141304562E+02 -0.14230752665E+04  0.14393908707E+04  0.10100000352E+00 0. -1.
       -3    1    3    3    0  502 -0.21271599650E+03 -0.38141304562E+02 -0.21384540795E+03  0.30402750366E+03  0.10100000352E+00 0.  1.
</event>
<event>
 5   0  0.2406307E-03  0.6004097E+03  0.7818609E-02  0.9904557E-01
        2   -1    0    0  501    0  0.00000000000E+00  0.00000000000E+00  0.32969268286E+03  0.32969268287E+03  0.25500000920E-02 0. -1.
       -2   -1    0    0    0  501  0.00000000000E+00  0.00000000000E+00 -0.27335438176E+03  0.27335438177E+03  0.25500000920E-02 0.  1.
    10030    2    1    2    0    0  0.00000000000E+00  0.00000000000E+00  0.56338301094E+02  0.60304706464E+03  0.60040965848E+03 0.  0.
        5    1    3    3  502    0 -0.10390766522E+03  0.17270733606E+03 -0.19524043645E+03  0.28065199954E+03  0.46999998093E+01 0.  1.
       -5    1    3    3    0  502  0.10390766522E+03 -0.17270733606E+03  0.25157873755E+03  0.32239506510E+03  0.46999998093E+01 0. -1.
</event>
<event>
 5   0  0.2313168E-03  0.5999839E+03  0.7818609E-02  0.9905439E-01
        2   -1    0    0  501    0  0.00000000000E+00  0.00000000000E+00  0.23796766500E+03  0.23796766501E+03  0.25500000920E-02 0.  1.
       -2   -1    0    0    0  501  0.00000000000E+00  0.00000000000E+00 -0.37818234907E+03  0.37818234908E+03  0.25500000920E-02 0. -1.
    10030    2    1    2    0    0  0.00000000000E+00  0.00000000000E+00 -0.14021468407E+03  0.61615001409E+03  0.59998390164E+03 0.  0.
        2    1    3    3  502    0  0.15874573309E+03  0.17264002922E+03  0.12198993710E+03  0.26436023193E+03  0.25500000920E-02 0.  1.
       -2    1    3    3    0  502 -0.15874573309E+03 -0.17264002922E+03 -0.26220462117E+03  0.35178978216E+03  0.25500000920E-02 0. -1.
</event>
<event>
 5   0  0.1416315E-03  0.5998707E+03  0.7818609E-02  0.9905674E-01
       -1   -1    0    0    0  501  0.00000000000E+00  0.00000000000E+00  0.37577969895E+03  0.37577969899E+03  0.50400001928E-02 0. -1.
        1   -1    0    0  501    0  0.00000000000E+00  0.00000000000E+00 -0.23939879056E+03  0.23939879062E+03  0.50400001928E-02 0.  1.
    10030    2    1    2    0    0  0.00000000000E+00  0.00000000000E+00  0.13638090839E+03  0.61517848960E+03  0.59987067098E+03 0.  0.
        2    1    3    3  502    0 -0.89624977087E+02  0.26358989508E+03 -0.46231571633E+02  0.28222265594E+03  0.25500000920E-02 0.  1.
       -2    1    3    3    0  502  0.89624977087E+02 -0.26358989508E+03  0.18261248002E+03  0.33295583366E+03  0.25500000920E-02 0. -1.
</event>
<event>
 5   0  0.2421210E-03  0.5998919E+03  0.7818609E-02  0.9905630E-01
       -2   -1    0    0    0  501  0.00000000000E+00  0.00000000000E+00  0.14873825764E+03  0.14873825766E+03  0.25500000920E-02 0. -1.
        2   -1    0    0  501    0  0.00000000000E+00  0.00000000000E+00 -0.60487166858E+03  0.60487166859E+03  0.25500000920E-02 0.  1.
    10030    2    1    2    0    0  0.00000000000E+00  0.00000000000E+00 -0.45613341095E+03  0.75360992625E+03  0.59989185056E+03 0.  0.
        1    1    3    3  502    0  0.21405524165E+03  0.19531135170E+03 -0.32538611882E+03  0.43570895896E+03  0.50400001928E-02 0.  1.
       -1    1    3    3    0  502 -0.21405524165E+03 -0.19531135170E+03 -0.13074729213E+03  0.31790096729E+03  0.50400001928E-02 0. -1.
</event>
<event>
 5   0  0.1418763E-03  0.6001937E+03  0.7818609E-02  0.9905004E-01
       -1   -1    0    0    0  501  0.00000000000E+00  0.00000000000E+00  0.38717255423E+03  0.38717255426E+03  0.50400001928E-02 0.  1.
        1   -1    0    0  501    0  0.00000000000E+00  0.00000000000E+00 -0.23260460241E+03  0.23260460246E+03  0.50400001928E-02 0. -1.
    10030    2    1    2    0    0  0.00000000000E+00  0.00000000000E+00  0.15456795182E+03  0.61977715672E+03  0.60019369562E+03 0.  0.
        5    1    3    3  502    0 -0.22790839998E+03 -0.78182410478E+02  0.26195220841E+03  0.35594350335E+03  0.46999998093E+01 0.  1.
       -5    1    3    3    0  502  0.22790839998E+03  0.78182410478E+02 -0.10738425659E+03  0.26383365337E+03  0.46999998093E+01 0. -1.
</event>
<event>
 5   0  0.9496750E-04  0.5991814E+03  0.7818609E-02  0.9907106E-01
        4   -1    0    0  501    0  0.00000000000E+00  0.00000000000E+00  0.16859385197E+03  0.16859863529E+03  0.12699999809E+01 0.  1.
       -4   -1    0    0    0  501  0.00000000000E+00  0.00000000000E+00 -0.53235850417E+03  0.53236001903E+03  0.12699999809E+01 0. -1.
    10030    2    1    2    0    0  0.00000000000E+00  0.00000000000E+00 -0.36376465220E+03  0.70095865433E+03  0.59918136894E+03 0.  0.
        4    1    3    3  502    0 -0.81063378681E+02  0.26315629386E+03 -0.43806765942E+02  0.27882459003E+03  0.12699999809E+01 0.  1.
       -4    1    3    3    0  502  0.81063378681E+02 -0.26315629386E+03 -0.31995788626E+03  0.42213406430E+03  0.12699999809E+01 0. -1.
</event>
<event>
 5   0  0.1423430E-03  0.6000102E+03  0.7818609E-02  0.9905385E-01
       -1   -1    0    0    0  501  0.00000000000E+00  0.00000000000E+00  0.68532925841E+02  0.68532926026E+02  0.50400001928E-02 0. -1.
        1   -1    0    0  501    0  0.00000000000E+00  0.00000000000E+00 -0.13132821563E+04  0.13132821563E+04  0.50400001928E-02 0.  1.
    10030    2    1    2    0    0  0.00000000000E+00  0.00000000000E+00 -0.12447492305E+04  0.13818150823E+04  0.60001022912E+03 0.  0.
        1    1    3    3  502    0  0.33236020785E+02 -0.82171473941E+02  0.37688153519E+02  0.96318124714E+02  0.50400001928E-02 0. -1.
       -1    1    3    3    0  502 -0.33236020785E+02  0.82171473941E+02 -0.12824373840E+04  0.12854969576E+04  0.50400001928E-02 0.  1.
</event>
<event>
 5   0  0.9496750E-04  0.5992160E+03  0.7818609E-02  0.9907034E-01
        3   -1    0    0  501    0  0.00000000000E+00  0.00000000000E+00  0.43167383721E+03  0.43167384903E+03  0.10100000352E+00 0.  1.
       -3   -1    0    0    0  501  0.00000000000E+00  0.00000000000E+00 -0.20794621714E+03  0.20794624166E+03  0.10100000352E+00 0. -1.
    10030    2    1    2    0    0  0.00000000000E+00  0.00000000000E+00  0.22372762008E+03  0.63962009069E+03  0.59921599815E+03 0.  0.
        1    1    3    3  502    0 -0.25097330428E+02  0.90735185756E+02  0.41547576699E+03  0.42600805498E+03  0.50400001928E-02 0.  1.
       -1    1    3    3    0  502  0.25097330428E+02 -0.90735185756E+02 -0.19174814692E+03  0.21361203571E+03  0.50400001928E-02 0. -1.
</event>
<event>
 5   0  0.1479385E-03  0.5999253E+03  0.7818609E-02  0.9905561E-01
        1   -1    0    0  501    0  0.00000000000E+00  0.00000000000E+00  0.13776471927E+04  0.13776471927E+04  0.50400001928E-02 0. -1.
       -1   -1    0    0    0  501  0.00000000000E+00  0.00000000000E+00 -0.65312516667E+02  0.65312516861E+02  0.50400001928E-02 0.  1.
    10030    2    1    2    0    0  0.00000000000E+00  0.00000000000E+00  0.13123346760E+04  0.14429597095E+04  0.59992534662E+03 0.  0.
        3    1    3    3  502    0 -0.19148314795E+03 -0.19267915299E+03  0.35015844377E+03  0.44317265020E+03  0.10100000352E+00 0.  1.
       -3    1    3    3    0  502  0.19148314795E+03  0.19267915299E+03  0.96217623223E+03  0.99978705934E+03  0.10100000352E+00 0. -1.
</event>
<event>
 5   0  0.1416315E-03  0.5997646E+03  0.7818609E-02  0.9905895E-01
       -1   -1    0    0    0  501  0.00000000000E+00  0.00000000000E+00  0.29040208651E+03  0.29040208655E+03  0.50400001928E-02 0. -1.
        1   -1    0    0  501    0  0.00000000000E+00  0.00000000000E+00 -0.30967196300E+03  0.30967196304E+03  0.50400001928E-02 0.  1.
    10030    2    1    2    0    0  0.00000000000E+00  0.00000000000E+00 -0.19269876491E+02  0.60007404960E+03  0.59976456786E+03 0.  0.
        2    1    3    3  502    0 -0.90738601376E+02  0.15457657052E+02  0.27591897506E+03  0.29086717544E+03  0.25500000920E-02 0. -1.
       -2    1    3    3    0  502  0.90738601376E+02 -0.15457657052E+02 -0.29518885155E+03  0.30920687416E+03  0.25500000920E-02 0.  1.
</event>
<event>
 5   0  0.1479385E-03  0.6000170E+03  0.7818609E-02  0.9905371E-01
       -1   -1    0    0    0  501  0.00000000000E+00  0.00000000000E+00  0.86329737876E+02  0.86329738023E+02  0.50400001928E-02 0. -1.
        1   -1    0    0  501    0  0.00000000000E+00  0.00000000000E+00 -0.10425735213E+04  0.10425735213E+04  0.50400001928E-02 0.  1.
    10030    2    1    2    0    0  0.00000000000E+00  0.00000000000E+00 -0.95624378342E+03  0.11289032593E+04  0.60001699609E+03 0.  0.
        3    1    3    3  502    0 -0.89595288589E+02 -0.28613336984E+03 -0.49744392203E+03  0.58081846290E+03  0.10100000352E+00 0.  1.
       -3    1    3    3    0  502  0.89595288589E+02  0.28613336984E+03 -0.45879986139E+03  0.54808479644E+03  0.10100000352E+00 0. -1.
</event>
<event>
 5   0  0.1392854E-03  0.6001489E+03  0.7818609E-02  0.9905097E-01
       -1   -1    0    0    0  501  0.00000000000E+00  0.00000000000E+00  0.20010186683E+03  0.20010186690E+03  0.50400001928E-02 0.  1.
        1   -1    0    0  501    0  0.00000000000E+00  0.00000000000E+00 -0.44999414000E+03  0.44999414003E+03  0.50400001928E-02 0. -1.
    10030    2    1    2    0    0  0.00000000000E+00  0.00000000000E+00 -0.24989227317E+03  0.65009600692E+03  0.60014887322E+03 0.  0.
        4    1    3    3  502    0 -0.73920301017E+02  0.99304113936E+02  0.17114797871E+03  0.21123153520E+03  0.12699999809E+01 0.  1.
       -4    1    3    3    0  502  0.73920301017E+02 -0.99304113936E+02 -0.42104025187E+03  0.43886447173E+03  0.12699999809E+01 0. -1.
</event>
<event>
 5   0  0.9496750E-04  0.5999205E+03  0.7818609E-02  0.9905571E-01
        4   -1    0    0  501    0  0.00000000000E+00  0.00000000000E+00  0.94018281690E+03  0.94018367466E+03  0.12699999809E+01 0.  1.
       -4   -1    0    0    0  501  0.00000000000E+00  0.00000000000E+00 -0.95695580873E+02  0.95704007745E+02  0.12699999809E+01 0. -1.
    10030    2    1    2    0    0  0.00000000000E+00  0.00000000000E+00  0.84448723603E+03  0.10358876824E+04  0.59992049368E+03 0.  0.
        3    1    3    3  502    0 -0.16247631393E+03  0.16447336576E+03  0.75224869096E+03  0.78697404270E+03  0.10100000352E+00 0.  1.
       -3    1    3    3    0  502  0.16247631393E+03 -0.16447336576E+03  0.92238545062E+02  0.24891363970E+03  0.10100000352E+00 0. -1.
</event>
<event>
 5   0  0.2313168E-03  0.5998758E+03  0.7818609E-02  0.9905664E-01
       -2   -1    0    0    0  501  0.00000000000E+00  0.00000000000E+00  0.14550561463E+03  0.14550561465E+03  0.25500000920E-02 0.  1.
        2   -1    0    0  501    0  0.00000000000E+00  0.00000000000E+00 -0.61827681676E+03  0.61827681676E+03  0.25500000920E-02 0. -1.
    10030    2    1    2    0    0  0.00000000000E+00  0.00000000000E+00 -0.47277120213E+03  0.76378243141E+03  0.59987581463E+03 0.  0.
        2    1    3    3  502    0 -0.25220862286E+03  0.15872480314E+03 -0.27975031581E+03  0.40873339939E+03  0.25500000920E-02 0. -1.
       -2    1    3    3    0  502  0.25220862286E+03 -0.15872480314E+03 -0.19302088632E+03  0.35504903202E+03  0.25500000920E-02 0.  1.
</event>
<event>
 5   0  0.1416315E-03  0.5991968E+03  0.7818609E-02  0.9907074E-01
       -1   -1    0    0    0  501  0.00000000000E+00  0.00000000000E+00  0.38555192280E+03  0.38555192283E+03  0.50400001928E-02 0.  1.
        1   -1    0    0  501    0  0.00000000000E+00  0.00000000000E+00 -0.23280702390E+03  0.23280702396E+03  0.50400001928E-02 0. -1.
    10030    2    1    2    0    0  0.00000000000E+00  0.00000000000E+00  0.15274489890E+03  0.61835894679E+03  0.59919678148E+03 0.  0.
        2    1    3    3  502    0 -0.84933233466E+02  0.10040992693E+03 -0.20142643349E+03  0.24055854940E+03  0.25500000920E-02 0. -1.
       -2    1    3    3    0  502  0.84933233466E+02 -0.10040992693E+03  0.35417133239E+03  0.37780039739E+03  0.25500000920E-02 0.  1.
</event>
<event>
 5   0  0.1418763E-03  0.5998027E+03  0.7818609E-02  0.9905815E-01
       -1   -1    0    0    0  501  0.00000000000E+00  0.00000000000E+00  0.22275615043E+03  0.22275615048E+03  0.50400001928E-02 0. -1.
        1   -1    0    0  501    0  0.00000000000E+00  0.00000000000E+00 -0.40376362276E+03  0.40376362279E+03  0.50400001928E-02 0.  1.
    10030    2    1    2    0    0  0.00000000000E+00  0.00000000000E+00 -0.18100747233E+03  0.62651977327E+03  0.59980273529E+03 0.  0.
        5    1    3    3  502    0  0.15264996945E+03 -0.82163384283E+02  0.16506993876E+03  0.23942224118E+03  0.46999998093E+01 0. -1.
       -5    1    3    3    0  502 -0.15264996945E+03  0.82163384283E+02 -0.34607741109E+03  0.38709753209E+03  0.46999998093E+01 0.  1.
</event>
<event>
 5   0  0.1418763E-03  0.5999445E+03  0.7818609E-02  0.9905521E-01
        1   -1    0    0  501    0  0.00000000000E+00  0.00000000000E+00  0.87743986313E+03  0.87743986314E+03  0.50400001928E-02 0.  1.
       -1   -1    0    0    0  501  0.00000000000E+00  0.00000000000E+00 -0.10255216488E+03  0.10255216500E+03  0.50400001928E-02 0. -1.
    10030    2    1    2    0    0  0.00000000000E+00  0.00000000000E+00  0.77488769825E+03  0.97999202814E+03  0.59994452270E+03 0.  0.
        5    1    3    3  502    0  0.25792533050E+03 -0.93140124267E+02  0.58590022458E+03  0.64691709053E+03  0.46999998093E+01 0.  1.
       -5    1    3    3    0  502 -0.25792533050E+03  0.93140124267E+02  0.18898747367E+03  0.33307493761E+03  0.46999998093E+01 0. -1.
</event>
<event>
 5   0  0.2346281E-03  0.6001947E+03  0.7818609E-02  0.9905002E-01
       -2   -1    0    0    0  501  0.00000000000E+00  0.00000000000E+00  0.49509137624E+02  0.49509137690E+02  0.25500000920E-02 0.  1.
        2   -1    0    0  501    0  0.00000000000E+00  0.00000000000E+00 -0.18190264522E+04  0.18190264522E+04  0.25500000920E-02 0. -1.
    10030    2    1    2    0    0  0.00000000000E+00  0.00000000000E+00 -0.17695173145E+04  0.18685355898E+04  0.60019473848E+03 0.  0.
        3    1    3    3  502    0 -0.25600622048E+03 -0.95898435775E+02 -0.49938927494E+03  0.56932007960E+03  0.10100000352E+00 0.  1.
       -3    1    3    3    0  502  0.25600622048E+03  0.95898435775E+02 -0.12701280396E+04  0.12992155102E+04  0.10100000352E+00 0. -1.
</event>
<event>
 5   0  0.2346281E-03  0.5999451E+03  0.7818609E-02  0.9905520E-01
        2   -1    0    0  501    0  0.00000000000E+00  0.00000000000E+00  0.17809992814E+03  0.17809992815E+03  0.25500000920E-02 0. -1.
       -2   -1    0    0    0  501  0.00000000000E+00  0.00000000000E+00 -0.50524185975E+03  0.50524185975E+03  0.25500000920E-02 0.  1.
    10030    2    1    2    0    0  0.00000000000E+00  0.00000000000E+00 -0.32714193161E+03  0.68334178791E+03  0.59994512723E+03 0.  0.
        3    1    3    3  502    0  0.22516155042E+03  0.18165113366E+03 -0.73246402252E+02  0.29842905990E+03  0.10100000352E+00 0. -1.
       -3    1    3    3    0  502 -0.22516155042E+03 -0.18165113366E+03 -0.25389552936E+03  0.38491272800E+03  0.10100000352E+00 0.  1.
</event>
<event>
 5   0  0.2324616E-03  0.5999580E+03  0.7818609E-02  0.9905493E-01
        2   -1    0    0  501    0  0.00000000000E+00  0.00000000000E+00  0.17962839284E+04  0.17962839284E+04  0.25500000920E-02 0. -1.
       -2   -1    0    0    0  501  0.00000000000E+00  0.00000000000E+00 -0.50096425007E+02  0.50096425072E+02  0.25500000920E-02 0.  1.
    10030    2    1    2    0    0  0.00000000000E+00  0.00000000000E+00  0.17461875034E+04  0.18463803535E+04  0.59995800910E+03 0.  0.
        4    1    3    3  502    0  0.10759707197E+03  0.14565365281E+03  0.16090878165E+04  0.16192459141E+04  0.12699999809E+01 0. -1.
       -4    1    3    3    0  502 -0.10759707197E+03 -0.14565365281E+03  0.13709968692E+03  0.22713443932E+03  0.12699999809E+01 0.  1.
</event>
<event>
 5   0  0.2346281E-03  0.6000634E+03  0.7818609E-02  0.9905275E-01
        2   -1    0    0  501    0  0.00000000000E+00  0.00000000000E+00  0.20031918001E+03  0.20031918003E+03  0.25500000920E-02 0. -1.
       -2   -1    0    0    0  501  0.00000000000E+00  0.00000000000E+00 -0.44937788594E+03  0.44937788595E+03  0.25500000920E-02 0.  1.
    10030    2    1    2    0    0  0.00000000000E+00  0.00000000000E+00 -0.24905870593E+03  0.64969706597E+03  0.60006336210E+03 0.  0.
        3    1    3    3  502    0  0.15087658722E+03 -0.21318835542E+03 -0.28441209907E+03  0.38613892805E+03  0.10100000352E+00 0.  1.
       -3    1    3    3    0  502 -0.15087658722E+03  0.21318835542E+03  0.35353393142E+02  0.26355813792E+03  0.10100000352E+00 0. -1.
</event>
<event>
 5   0  0.2421210E-03  0.5995256E+03  0.7818609E-02  0.9906391E-01
       -2   -1    0    0    0  501  0.00000000000E+00  0.00000000000E+00  0.63043246012E+03  0.63043246012E+03  0.25500000920E-02 0. -1.
        2   -1    0    0  501    0  0.00000000000E+00  0.00000000000E+00 -0.14253350270E+03  0.14253350272E+03  0.25500000920E-02 0.  1.
    10030    2    1    2    0    0  0.00000000000E+00  0.00000000000E+00  0.48789895742E+03  0.77296596285E+03  0.59952563504E+03 0.  0.
        1    1    3    3  502    0  0.90341283682E+01 -0.14602179219E+03 -0.93377666013E+02  0.17356084756E+03  0.50400001928E-02 0.  1.
       -1    1    3    3    0  502 -0.90341283682E+01  0.14602179219E+03  0.58127662343E+03  0.59940511529E+03  0.50400001928E-02 0. -1.
</event>
<event>
 5   0  0.2346281E-03  0.5998238E+03  0.7818609E-02  0.9905772E-01
        2   -1    0    0  501    0  0.00000000000E+00  0.00000000000E+00  0.11137032619E+04  0.11137032619E+04  0.25500000920E-02 0. -1.
       -2   -1    0    0    0  501  0.00000000000E+00  0.00000000000E+00 -0.80764024950E+02  0.80764024990E+02  0.25500000920E-02 0.  1.
    10030    2    1    2    0    0  0.00000000000E+00  0.00000000000E+00  0.10329392369E+04  0.11944672869E+04  0.59982383432E+03 0.  0.
        3    1    3    3  502    0 -0.74157924962E+02 -0.28300942616E+03  0.38507863528E+03  0.48361068917E+03  0.10100000352E+00 0.  1.
       -3    1    3    3    0  502  0.74157924962E+02  0.28300942616E+03  0.64786060164E+03  0.71085659770E+03  0.10100000352E+00 0. -1.
</event>
<event>
 5   0  0.2406307E-03  0.6004049E+03  0.7818609E-02  0.9904566E-01
       -2   -1    0    0    0  501  0.00000000000E+00  0.00000000000E+00  0.24201500696E+03  0.24201500698E+03  0.25500000920E-02 0. -1.
        2   -1    0    0  501    0  0.00000000000E+00  0.00000000000E+00 -0.37237990380E+03  0.37237990381E+03  0.25500000920E-02 0.  1.
    10030    2    1    2    0    0  0.00000000000E+00  0.00000000000E+00 -0.13036489683E+03  0.61439491079E+03  0.60040494674E+03 0.  0.
        5    1    3    3  502    0  0.10252488617E+03  0.21526965444E+03 -0.25176883850E+03  0.34678814058E+03  0.46999998093E+01 0.  1.
       -5    1    3    3    0  502 -0.10252488617E+03 -0.21526965444E+03  0.12140394167E+03  0.26760677020E+03  0.46999998093E+01 0. -1.
</event>
<event>
 5   0  0.1479385E-03  0.6000181E+03  0.7818609E-02  0.9905368E-01
        1   -1    0    0  501    0  0.00000000000E+00  0.00000000000E+00  0.32114571477E+03  0.32114571481E+03  0.50400001928E-02 0. -1.
       -1   -1    0    0    0  501  0.00000000000E+00  0.00000000000E+00 -0.28026355668E+03  0.28026355673E+03  0.50400001928E-02 0.  1.
    10030    2    1    2    0    0  0.00000000000E+00  0.00000000000E+00  0.40882158089E+02  0.60140927154E+03  0.60001813393E+03 0.  0.
        3    1    3    3  502    0  0.11402021234E+03 -0.64182878104E+02 -0.25015777463E+03  0.28231006548E+03  0.10100000352E+00 0.  1.
       -3    1    3    3    0  502 -0.11402021234E+03  0.64182878104E+02  0.29103993272E+03  0.31909920605E+03  0.10100000352E+00 0. -1.
</event>
<event>
 5   0  0.9496750E-04  0.5999392E+03  0.7818609E-02  0.9905532E-01
        3   -1    0    0  501    0  0.00000000000E+00  0.00000000000E+00  0.51787762175E+03  0.51787763160E+03  0.10100000352E+00 0.  1.
       -3   -1    0    0    0  501  0.00000000000E+00  0.00000000000E+00 -0.17375100190E+03  0.17375103125E+03  0.10100000352E+00 0. -1.
    10030    2    1    2    0    0  0.00000000000E+00  0.00000000000E+00  0.34412661986E+03  0.69162866286E+03  0.59993922758E+03 0.  0.
        1    1    3    3  502    0  0.55899966135E+02 -0.21669018146E+03 -0.58221261391E+02  0.23123398595E+03  0.50400001928E-02 0. -1.
       -1    1    3    3    0  502 -0.55899966135E+02  0.21669018146E+03  0.40234788125E+03  0.46039467691E+03  0.50400001928E-02 0.  1.
</event>
<event>
 5   0  0.1423430E-03  0.5999641E+03  0.7818609E-02  0.9905481E-01
       -1   -1    0    0    0  501  0.00000000000E+00  0.00000000000E+00  0.20088606878E+03  0.20088606885E+03  0.50400001928E-02 0.  1.
        1   -1    0    0  501    0  0.00000000000E+00  0.00000000000E+00 -0.44796148897E+03  0.44796148900E+03  0.50400001928E-02 0. -1.
    10030    2    1    2    0    0  0.00000000000E+00  0.00000000000E+00 -0.24707542018E+03  0.64884755784E+03  0.59996407397E+03 0.  0.
        1    1    3    3  502    0  0.12024646486E+03 -0.11236676425E+03 -0.39477887149E+03  0.42771001790E+03  0.50400001928E-02 0. -1.
       -1    1    3    3    0  502 -0.12024646486E+03  0.11236676425E+03  0.14770345130E+03  0.22113753994E+03  0.50400001928E-02 0.  1.
</event>
<event>
 5   0  0.1479385E-03  0.6001578E+03  0.7818609E-02  0.9905079E-01
       -1   -1    0    0    0  501  0.00000000000E+00  0.00000000000E+00  0.68993849986E+03  0.68993849988E+03  0.50400001928E-02 0. -1.
        1   -1    0    0  501    0  0.00000000000E+00  0.00000000000E+00 -0.13051502265E+03  0.13051502275E+03  0.50400001928E-02 0.  1.
    10030    2    1    2    0    0  0.00000000000E+00  0.00000000000E+00  0.55942347721E+03  0.82045352263E+03  0.60015777588E+03 0.  0.
        3    1    3    3  502    0 -0.28431316313E+03  0.69704615432E+02  0.36992361376E+03  0.47173742523E+03  0.10100000352E+00 0.  1.
       -3    1    3    3    0  502  0.28431316313E+03 -0.69704615432E+02  0.18949986345E+03  0.34871609741E+03  0.10100000352E+00 0. -1.
</event>
<event>
 5   0  0.1392854E-03  0.6001788E+03  0.7818609E-02  0.9905035E-01
        1   -1    0    0  501    0  0.00000000000E+00  0.00000000000E+00  0.93831645053E+03  0.93831645055E+03  0.50400001928E-02 0.  1.
       -1   -1    0    0    0  501  0.00000000000E+00  0.00000000000E+00 -0.95973643759E+02  0.95973643891E+02  0.50400001928E-02 0. -1.
    10030    2    1    2    0    0  0.00000000000E+00  0.00000000000E+00  0.84234280677E+03  0.10342900944E+04  0.60017880280E+03 0.  0.
        4    1    3    3  502    0  0.65551454845E+02  0.67692062484E+02 -0.69812268165E+02  0.11727989701E+03  0.12699999809E+01 0. -1.
       -4    1    3    3    0  502 -0.65551454845E+02 -0.67692062484E+02  0.91215507494E+03  0.91701019743E+03  0.12699999809E+01 0.  1.
</event>
<event>
 5   0  0.1392854E-03  0.6002421E+03  0.7818609E-02  0.9904904E-01
        1   -1    0    0  501    0  0.00000000000E+00  0.00000000000E+00  0.10027458496E+04  0.10027458497E+04  0.50400001928E-02 0. -1.
       -1   -1    0    0    0  501  0.00000000000E+00  0.00000000000E+00 -0.89825998063E+02  0.89825998204E+02  0.50400001928E-02 0.  1.
    10030    2    1    2    0    0  0.00000000000E+00  0.00000000000E+00  0.91291985158E+03  0.10925718479E+04  0.60024210726E+03 0.  0.
        4    1    3    3  502    0  0.21224113427E+03  0.17366046535E+03  0.67839808038E+03  0.73173070502E+03  0.12699999809E+01 0.  1.
       -4    1    3    3    0  502 -0.21224113427E+03 -0.17366046535E+03  0.23452177120E+03  0.36084114284E+03  0.12699999809E+01 0. -1.
</event>
<event>
 5   0  0.2324616E-03  0.5996497E+03  0.7818609E-02  0.9906133E-01
       -2   -1    0    0    0  501  0.00000000000E+00  0.00000000000E+00  0.24957705196E+03  0.24957705197E+03  0.25500000920E-02 0. -1.
        2   -1    0    0  501    0  0.00000000000E+00  0.00000000000E+00 -0.36018915376E+03  0.36018915377E+03  0.25500000920E-02 0.  1.
    10030    2    1    2    0    0  0.00000000000E+00  0.00000000000E+00 -0.11061210181E+03  0.60976620574E+03  0.59964972159E+03 0.  0.
        4    1    3    3  502    0  0.10930248632E+03 -0.27766761447E+03 -0.84900247266E+02  0.31025151495E+03  0.12699999809E+01 0.  1.
       -4    1    3    3    0  502 -0.10930248632E+03  0.27766761447E+03 -0.25711854543E+02  0.29951469080E+03  0.12699999809E+01 0. -1.
</event>
<event>
 5   0  0.2406307E-03  0.5993170E+03  0.7818609E-02  0.9906824E-01
        2   -1    0    0  501    0  0.00000000000E+00  0.00000000000E+00  0.58613386224E+03  0.58613386224E+03  0.25500000920E-02 0.  1.
       -2   -1    0    0    0  501  0.00000000000E+00  0.00000000000E+00 -0.15319918632E+03  0.15319918634E+03  0.25500000920E-02 0. -1.
    10030    2    1    2    0    0  0.00000000000E+00  0.00000000000E+00  0.43293467591E+03  0.73933304858E+03  0.59931704724E+03 0.  0.
        5    1    3    3  502    0  0.25138238953E+03  0.67296348280E+02  0.39965657862E+03  0.47693749600E+03  0.46999998093E+01 0.  1.
       -5    1    3    3    0  502 -0.25138238953E+03 -0.67296348280E+02  0.33278097300E+02  0.26239555259E+03  0.46999998093E+01 0. -1.
</event>
<event>
 5   0  0.1392854E-03  0.6016830E+03  0.7818609E-02  0.9901921E-01
       -1   -1    0    0    0  501  0.00000000000E+00  0.00000000000E+00  0.56095206736E+03  0.56095206738E+03  0.50400001928E-02 0.  1.
        1   -1    0    0  501    0  0.00000000000E+00  0.00000000000E+00 -0.16134282876E+03  0.16134282884E+03  0.50400001928E-02 0. -1.
    10030    2    1    2    0    0  0.00000000000E+00  0.00000000000E+00  0.39960923860E+03  0.72229489622E+03  0.60168295100E+03 0.  0.
        4    1    3    3  502    0 -0.13120155448E+03  0.86891234827E+02 -0.10799058004E+03  0.19085992996E+03  0.12699999809E+01 0. -1.
       -4    1    3    3    0  502  0.13120155448E+03 -0.86891234827E+02  0.50759981863E+03  0.53143496626E+03  0.12699999809E+01 0.  1.
</event>
<event>
 5   0  0.2346281E-03  0.5981764E+03  0.7818609E-02  0.9909197E-01
       -2   -1    0    0    0  501  0.00000000000E+00  0.00000000000E+00  0.14463978706E+03  0.14463978708E+03  0.25500000920E-02 0.  1.
        2   -1    0    0  501    0  0.00000000000E+00  0.00000000000E+00 -0.61845882590E+03  0.61845882590E+03  0.25500000920E-02 0. -1.
    10030    2    1    2    0    0  0.00000000000E+00  0.00000000000E+00 -0.47381903884E+03  0.76309861299E+03  0.59817640507E+03 0.  0.
        3    1    3    3  502    0  0.36320337838E+02 -0.10377711536E+03 -0.59174197030E+03  0.60186994129E+03  0.10100000352E+00 0. -1.
       -3    1    3    3    0  502 -0.36320337838E+02  0.10377711536E+03  0.11792293146E+03  0.16122867170E+03  0.10100000352E+00 0.  1.
</event>
<event>
 5   0  0.2421210E-03  0.5999852E+03  0.7818609E-02  0.9905437E-01
       -2   -1    0    0    0  501  0.00000000000E+00  0.00000000000E+00  0.10332355119E+03  0.10332355122E+03  0.25500000920E-02 0.  1.
        2   -1    0    0  501    0  0.00000000000E+00  0.00000000000E+00 -0.87100724134E+03  0.87100724134E+03  0.25500000920E-02 0. -1.
    10030    2    1    2    0    0  0.00000000000E+00  0.00000000000E+00 -0.76768369015E+03  0.97433079256E+03  0.59998520417E+03 0.  0.
        1    1    3    3  502    0 -0.53924527408E+02  0.24461136655E+03 -0.65192710371E+03  0.69839209896E+03  0.50400001928E-02 0. -1.
       -1    1    3    3    0  502  0.53924527408E+02 -0.24461136655E+03 -0.11575658643E+03  0.27593869361E+03  0.50400001928E-02 0.  1.
</event>
<event>
 5   0  0.9496750E-04  0.5996600E+03  0.7818609E-02  0.9906112E-01
       -3   -1    0    0    0  501  0.00000000000E+00  0.00000000000E+00  0.40454391818E+03  0.40454393079E+03  0.10100000352E+00 0. -1.
        3   -1    0    0  501    0  0.00000000000E+00  0.00000000000E+00 -0.22222063001E+03  0.22222065296E+03  0.10100000352E+00 0.  1.
    10030    2    1    2    0    0  0.00000000000E+00  0.00000000000E+00  0.18232328817E+03  0.62676458376E+03  0.59965995534E+03 0.  0.
        3    1    3    3  502    0  0.24357691837E+03 -0.81528584495E+02 -0.70494611651E+02  0.26635713943E+03  0.10100000352E+00 0.  1.
       -3    1    3    3    0  502 -0.24357691837E+03  0.81528584495E+02  0.25281789982E+03  0.36040744432E+03  0.10100000352E+00 0. -1.
</event>
<event>
 5   0  0.2313168E-03  0.5983747E+03  0.7818609E-02  0.9908784E-01
        2   -1    0    0  501    0  0.00000000000E+00  0.00000000000E+00  0.19838252231E+03  0.19838252233E+03  0.25500000920E-02 0.  1.
       -2   -1    0    0    0  501  0.00000000000E+00  0.00000000000E+00 -0.45121455147E+03  0.45121455148E+03  0.25500000920E-02 0. -1.
    10030    2    1    2    0    0  0.00000000000E+00  0.00000000000E+00 -0.25283202915E+03  0.64959707381E+03  0.59837473487E+03 0.  0.
        2    1    3    3  502    0  0.17071599889E+03  0.13882076944E+03 -0.34649610022E+03  0.41045670390E+03  0.25500000920E-02 0. -1.
       -2    1    3    3    0  502 -0.17071599889E+03 -0.13882076944E+03  0.93664071066E+02  0.23914036991E+03  0.25500000920E-02 0.  1.
</event>
<event>
 5   0  0.9496750E-04  0.6000533E+03  0.7818609E-02  0.9905296E-01
       -4   -1    0    0    0  501  0.00000000000E+00  0.00000000000E+00  0.37722312213E+03  0.37722525998E+03  0.12699999809E+01 0.  1.
        4   -1    0    0  501    0  0.00000000000E+00  0.00000000000E+00 -0.23862345569E+03  0.23862683526E+03  0.12699999809E+01 0. -1.
    10030    2    1    2    0    0  0.00000000000E+00  0.00000000000E+00  0.13859966644E+03  0.61585209524E+03  0.60005327736E+03 0.  0.
        1    1    3    3  502    0  0.17659963399E+03  0.18288758823E+03  0.23280755436E+03  0.34472403172E+03  0.50400001928E-02 0.  1.
       -1    1    3    3    0  502 -0.17659963399E+03 -0.18288758823E+03 -0.94207887919E+02  0.27112806352E+03  0.50400001928E-02 0. -1.
</event>
<event>
 5   0  0.1392854E-03  0.5978164E+03  0.7818609E-02  0.9909947E-01
        1   -1    0    0  501    0  0.00000000000E+00  0.00000000000E+00  0.62364572952E+03  0.62364572954E+03  0.50400001928E-02 0. -1.
       -1   -1    0    0    0  501  0.00000000000E+00  0.00000000000E+00 -0.14326421215E+03  0.14326421224E+03  0.50400001928E-02 0.  1.
    10030    2    1    2    0    0  0.00000000000E+00  0.00000000000E+00  0.48038151737E+03  0.76690994178E+03  0.59781640708E+03 0.  0.
        4    1    3    3  502    0  0.18528305352E+03 -0.18158465439E+03  0.49732799408E+02  0.26415480474E+03  0.12699999809E+01 0. -1.
       -4    1    3    3    0  502 -0.18528305352E+03  0.18158465439E+03  0.43064871796E+03  0.50275513704E+03  0.12699999809E+01 0.  1.
</event>
<event>
 5   0  0.2406307E-03  0.5994420E+03  0.7818609E-02  0.9906564E-01
       -2   -1    0    0    0  501  0.00000000000E+00  0.00000000000E+00  0.58437881369E+02  0.58437881425E+02  0.25500000920E-02 0.  1.
        2   -1    0    0  501    0  0.00000000000E+00  0.00000000000E+00 -0.15372336746E+04  0.15372336746E+04  0.25500000920E-02 0. -1.
    10030    2    1    2    0    0  0.00000000000E+00  0.00000000000E+00 -0.14787957933E+04  0.15956715561E+04  0.59944200440E+03 0.  0.
        5    1    3    3  502    0 -0.72157922609E+01  0.26774846099E+03 -0.10972196944E+04  0.11294487389E+04  0.46999998093E+01 0. -1.
       -5    1    3    3    0  502  0.72157922609E+01 -0.26774846099E+03 -0.38157609885E+03  0.46622281715E+03  0.46999998093E+01 0.  1.
</event>
<event>
 5   0  0.9496750E-04  0.6000844E+03  0.7818609E-02  0.9905231E-01
       -4   -1    0    0    0  501  0.00000000000E+00  0.00000000000E+00  0.12110054952E+03  0.12110720868E+03  0.12699999809E+01 0. -1.
        4   -1    0    0  501    0  0.00000000000E+00  0.00000000000E+00 -0.74336557344E+03  0.74336665830E+03  0.12699999809E+01 0.  1.
    10030    2    1    2    0    0  0.00000000000E+00  0.00000000000E+00 -0.62226502392E+03  0.86447386698E+03  0.60008441632E+03 0.  0.
        4    1    3    3  502    0  0.74908333682E+02 -0.15418566598E+03  0.43612567271E+02  0.17688455832E+03  0.12699999809E+01 0. -1.
       -4    1    3    3    0  502 -0.74908333682E+02  0.15418566598E+03 -0.66587759119E+03  0.68758930867E+03  0.12699999809E+01 0.  1.
</event>
<event>
 5   0  0.1418763E-03  0.6000139E+03  0.7818609E-02  0.9905377E-01
       -1   -1    0    0    0  501  0.00000000000E+00  0.00000000000E+00  0.78445141021E+02  0.78445141183E+02  0.50400001928E-02 0.  1.
        1   -1    0    0  501    0  0.00000000000E+00  0.00000000000E+00 -0.11473518162E+04  0.11473518162E+04  0.50400001928E-02 0. -1.
    10030    2    1    2    0    0  0.00000000000E+00  0.00000000000E+00 -0.10689066752E+04  0.12257969574E+04  0.60001391694E+03 0.  0.
        5    1    3    3  502    0 -0.27408960853E+03  0.11797418823E+03 -0.47184899296E+03  0.55830689119E+03  0.46999998093E+01 0.  1.
       -5    1    3    3    0  502  0.27408960853E+03 -0.11797418823E+03 -0.59705768223E+03  0.66749006622E+03  0.46999998093E+01 0. -1.
</event>
<event>
 5   0  0.1392854E-03  0.5999838E+03  0.7818609E-02  0.9905440E-01
       -1   -1    0    0    0  501  0.00000000000E+00  0.00000000000E+00  0.21404568425E+03  0.21404568431E+03  0.50400001928E-02 0.  1.
        1   -1    0    0  501    0  0.00000000000E+00  0.00000000000E+00 -0.42044826783E+03  0.42044826786E+03  0.50400001928E-02 0. -1.
    10030    2    1    2    0    0  0.00000000000E+00  0.00000000000E+00 -0.20640258358E+03  0.63449395216E+03  0.59998379047E+03 0.  0.
        4    1    3    3  502    0 -0.87224017618E+02  0.27155248495E+03 -0.48762788803E+01  0.28526158579E+03  0.12699999809E+01 0.  1.
       -4    1    3    3    0  502  0.87224017618E+02 -0.27155248495E+03 -0.20152630470E+03  0.34923236637E+03  0.12699999809E+01 0. -1.
</event>
<event>
 5   0  0.1479385E-03  0.6001073E+03  0.7818609E-02  0.9905184E-01
       -1   -1    0    0    0  501  0.00000000000E+00  0.00000000000E+00  0.70387705867E+02  0.70387706047E+02  0.50400001928E-02 0.  1.
        1   -1    0    0  501    0  0.00000000000E+00  0.00000000000E+00 -0.12790895517E+04  0.12790895517E+04  0.50400001928E-02 0. -1.
    10030    2    1    2    0    0  0.00000000000E+00  0.00000000000E+00 -0.12087018458E+04  0.13494772577E+04  0.60010725465E+03 0.  0.
        3    1    3    3  502    0  0.67842845913E+02 -0.93668024332E+01  0.52576728038E+02  0.86340669800E+02  0.10100000352E+00 0.  1.
       -3    1    3    3    0  502 -0.67842845913E+02  0.93668024332E+01 -0.12612785738E+04  0.12631365879E+04  0.10100000352E+00 0. -1.
</event>
<event>
 5   0  0.9496750E-04  0.6000868E+03  0.7818609E-02  0.9905226E-01
        3   -1    0    0  501    0  0.00000000000E+00  0.00000000000E+00  0.57199112192E+02  0.57199201363E+02  0.10100000352E+00 0.  1.
       -3   -1    0    0    0  501  0.00000000000E+00  0.00000000000E+00 -0.15739050204E+04  0.15739050237E+04  0.10100000352E+00 0. -1.
    10030    2    1    2    0    0  0.00000000000E+00  0.00000000000E+00 -0.15167059082E+04  0.16311042250E+04  0.60008681109E+03 0.  0.
        3    1    3    3  502    0 -0.11665083534E+03  0.80934911633E+02 -0.14768207010E+04  0.14836297619E+04  0.10100000352E+00 0. -1.
       -3    1    3    3    0  502  0.11665083534E+03 -0.80934911633E+02 -0.39885207187E+02  0.14747446308E+03  0.10100000352E+00 0.  1.
</event>
<event>
 5   0  0.9496750E-04  0.6000040E+03  0.7818609E-02  0.9905398E-01
        3   -1    0    0  501    0  0.00000000000E+00  0.00000000000E+00  0.29840128098E+04  0.29840128116E+04  0.10100000352E+00 0.  1.
       -3   -1    0    0    0  501  0.00000000000E+00  0.00000000000E+00 -0.30161045875E+02  0.30161214984E+02  0.10100000352E+00 0. -1.
    10030    2    1    2    0    0  0.00000000000E+00  0.00000000000E+00  0.29538517640E+04  0.30141740265E+04  0.60000401561E+03 0.  0.
        2    1    3    3  502    0  0.72011880375E+02  0.27948967762E+03  0.18881555362E+04  0.19100867833E+04  0.25500000920E-02 0.  1.
       -2    1    3    3    0  502 -0.72011880375E+02 -0.27948967762E+03  0.10656962277E+04  0.11040872432E+04  0.25500000920E-02 0. -1.
</event>
<event>
 5   0  0.1418763E-03  0.5991196E+03  0.7818609E-02  0.9907234E-01
        1   -1    0    0  501    0  0.00000000000E+00  0.00000000000E+00  0.96051372676E+03  0.96051372678E+03  0.50400001928E-02 0. -1.
       -1   -1    0    0    0  501  0.00000000000E+00  0.00000000000E+00 -0.93425074022E+02  0.93425074158E+02  0.50400001928E-02 0.  1.
    10030    2    1    2    0    0  0.00000000000E+00  0.00000000000E+00  0.86708865274E+03  0.10539388009E+04  0.59911957438E+03 0.  0.
        5    1    3    3  502    0 -0.24730729683E+03 -0.95511775389E+02  0.18833061984E+03  0.32522901265E+03  0.46999998093E+01 0.  1.
       -5    1    3    3    0  502  0.24730729683E+03  0.95511775389E+02  0.67875803290E+03  0.72870978828E+03  0.46999998093E+01 0. -1.
</event>
<event>
 5   0  0.1392854E-03  0.5997721E+03  0.7818609E-02  0.9905879E-01
        1   -1    0    0  501    0  0.00000000000E+00  0.00000000000E+00  0.10949132657E+04  0.10949132658E+04  0.50400001928E-02 0. -1.
       -1   -1    0    0    0  501  0.00000000000E+00  0.00000000000E+00 -0.82135854538E+02  0.82135854693E+02  0.50400001928E-02 0.  1.
    10030    2    1    2    0    0  0.00000000000E+00  0.00000000000E+00  0.10127774112E+04  0.11770491204E+04  0.59977207946E+03 0.  0.
        4    1    3    3  502    0 -0.22086004922E+03  0.19113915575E+02  0.11005468892E+03  0.24750383949E+03  0.12699999809E+01 0.  1.
       -4    1    3    3    0  502  0.22086004922E+03 -0.19113915575E+02  0.90272272229E+03  0.92954528096E+03  0.12699999809E+01 0. -1.
</event>
<event>
 5   0  0.1418763E-03  0.6000921E+03  0.7818609E-02  0.9905215E-01
        1   -1    0    0  501    0  0.00000000000E+00  0.00000000000E+00  0.93804749178E+03  0.93804749180E+03  0.50400001928E-02 0. -1.
       -1   -1    0    0    0  501  0.00000000000E+00  0.00000000000E+00 -0.95973429236E+02  0.95973429368E+02  0.50400001928E-02 0.  1.
    10030    2    1    2    0    0  0.00000000000E+00  0.00000000000E+00  0.84207406255E+03  0.10340209212E+04  0.60009210842E+03 0.  0.
        5    1    3    3  502    0  0.71505124866E+01 -0.33571422860E+02  0.93458950188E+03  0.93523141376E+03  0.46999998093E+01 0. -1.
       -5    1    3    3    0  502 -0.71505124866E+01  0.33571422860E+02 -0.92515439329E+02  0.98789507409E+02  0.46999998093E+01 0.  1.
</event>
<event>
 5   0  0.2421210E-03  0.6006199E+03  0.7818609E-02  0.9904121E-01
        2   -1    0    0  501    0  0.00000000000E+00  0.00000000000E+00  0.48558373493E+03  0.48558373494E+03  0.25500000920E-02 0. -1.
       -2   -1    0    0    0  501  0.00000000000E+00  0.00000000000E+00 -0.18572709457E+03  0.18572709459E+03  0.25500000920E-02 0.  1.
    10030    2    1    2    0    0  0.00000000000E+00  0.00000000000E+00  0.29985664036E+03  0.67131082953E+03  0.60061986736E+03 0.  0.
        1    1    3    3  502    0 -0.15545238937E+03 -0.12950322738E+03  0.39797018199E+03  0.44644909792E+03  0.50400001928E-02 0. -1.
       -1    1    3    3    0  502  0.15545238937E+03  0.12950322738E+03 -0.98113541624E+02  0.22486173160E+03  0.50400001928E-02 0.  1.
</event>
<event>
 5   0  0.1423430E-03  0.6000342E+03  0.7818609E-02  0.9905335E-01
       -1   -1    0    0    0  501  0.00000000000E+00  0.00000000000E+00  0.27245752996E+03  0.27245753001E+03  0.50400001928E-02 0. -1.
        1   -1    0    0  501    0  0.00000000000E+00  0.00000000000E+00 -0.33036435587E+03  0.33036435591E+03  0.50400001928E-02 0.  1.
    10030    2    1    2    0    0  0.00000000000E+00  0.00000000000E+00 -0.57906825912E+02  0.60282188592E+03  0.60003418707E+03 0.  0.
        1    1    3    3  502    0 -0.89517787288E+02 -0.11563217133E+02  0.25849316784E+03  0.27379894097E+03  0.50400001928E-02 0. -1.
       -1    1    3    3    0  502  0.89517787288E+02  0.11563217133E+02 -0.31639999375E+03  0.32902294495E+03  0.50400001928E-02 0.  1.
</event>
<event>
 5   0  0.2324616E-03  0.6006199E+03  0.7818609E-02  0.9904121E-01
        2   -1    0    0  501    0  0.00000000000E+00  0.00000000000E+00  0.81534475059E+03  0.81534475059E+03  0.25500000920E-02 0.  1.
       -2   -1    0    0    0  501  0.00000000000E+00  0.00000000000E+00 -0.11061096152E+03  0.11061096155E+03  0.25500000920E-02 0. -1.
    10030    2    1    2    0    0  0.00000000000E+00  0.00000000000E+00  0.70473378906E+03  0.92595571214E+03  0.60061990260E+03 0.  0.
        4    1    3    3  502    0  0.19845005295E+03  0.18412175245E+03  0.55279074624E+03  0.61551804626E+03  0.12699999809E+01 0. -1.
       -4    1    3    3    0  502 -0.19845005295E+03 -0.18412175245E+03  0.15194304282E+03  0.31043766589E+03  0.12699999809E+01 0.  1.
</event>
<event>
 5   0  0.2406307E-03  0.5998703E+03  0.7818609E-02  0.9905675E-01
        2   -1    0    0  501    0  0.00000000000E+00  0.00000000000E+00  0.83551079567E+03  0.83551079568E+03  0.25500000920E-02 0. -1.
       -2   -1    0    0    0  501  0.00000000000E+00  0.00000000000E+00 -0.10767195359E+03  0.10767195362E+03  0.25500000920E-02 0.  1.
    10030    2    1    2    0    0  0.00000000000E+00  0.00000000000E+00  0.72783884208E+03  0.94318274930E+03  0.59987025141E+03 0.  0.
        5    1    3    3  502    0 -0.53310104597E+02  0.27820172720E+03  0.51878067713E+03  0.59109529623E+03  0.46999998093E+01 0. -1.
       -5    1    3    3    0  502  0.53310104597E+02 -0.27820172720E+03  0.20905816496E+03  0.35208745306E+03  0.46999998093E+01 0.  1.
</event>
<event>
 5   0  0.9496750E-04  0.6001723E+03  0.7818609E-02  0.9905049E-01
       -4   -1    0    0    0  501  0.00000000000E+00  0.00000000000E+00  0.74574504139E+03  0.74574612279E+03  0.12699999809E+01 0.  1.
        4   -1    0    0  501    0  0.00000000000E+00  0.00000000000E+00 -0.12074949774E+03  0.12075617626E+03  0.12699999809E+01 0. -1.
    10030    2    1    2    0    0  0.00000000000E+00  0.00000000000E+00  0.62499554365E+03  0.86650229904E+03  0.60017231248E+03 0.  0.
        3    1    3    3  502    0  0.42787660833E+02  0.30047273184E+02  0.73912230193E+03  0.74096923685E+03  0.10100000352E+00 0.  1.
       -3    1    3    3    0  502 -0.42787660833E+02 -0.30047273184E+02 -0.11412675829E+03  0.12553306219E+03  0.10100000352E+00 0. -1.
</event>
<event>
 5   0  0.1423430E-03  0.5994175E+03  0.7818609E-02  0.9906615E-01
       -1   -1    0    0    0  501  0.00000000000E+00  0.00000000000E+00  0.18603711065E+03  0.18603711071E+03  0.50400001928E-02 0. -1.
        1   -1    0    0  501    0  0.00000000000E+00  0.00000000000E+00 -0.48283564206E+03  0.48283564209E+03  0.50400001928E-02 0.  1.
    10030    2    1    2    0    0  0.00000000000E+00  0.00000000000E+00 -0.29679853142E+03  0.66887275280E+03  0.59941754328E+03 0.  0.
        1    1    3    3  502    0 -0.43544030434E+02  0.13467287038E+03 -0.44319308975E+03  0.46524507459E+03  0.50400001928E-02 0.  1.
       -1    1    3    3    0  502  0.43544030434E+02 -0.13467287038E+03  0.14639455833E+03  0.20362767822E+03  0.50400001928E-02 0. -1.
</event>
<event>
 5   0  0.2313168E-03  0.5999724E+03  0.7818609E-02  0.9905463E-01
       -2   -1    0    0    0  501  0.00000000000E+00  0.00000000000E+00  0.10868793416E+03  0.10868793419E+03  0.25500000920E-02 0.  1.
        2   -1    0    0  501    0  0.00000000000E+00  0.00000000000E+00 -0.82798257797E+03  0.82798257797E+03  0.25500000920E-02 0. -1.
    10030    2    1    2    0    0  0.00000000000E+00  0.00000000000E+00 -0.71929464381E+03  0.93667051215E+03  0.59997238580E+03 0.  0.
        2    1    3    3  502    0 -0.27932773067E+03  0.64900214152E+02 -0.49713570456E+03  0.57391630720E+03  0.25500000920E-02 0. -1.
       -2    1    3    3    0  502  0.27932773067E+03 -0.64900214152E+02 -0.22215893925E+03  0.36275420495E+03  0.25500000920E-02 0.  1.
</event>
<event>
 5   0  0.1479385E-03  0.5999497E+03  0.7818609E-02  0.9905510E-01
        1   -1    0    0  501    0  0.00000000000E+00  0.00000000000E+00  0.75557854756E+03  0.75557854758E+03  0.50400001928E-02 0.  1.
       -1   -1    0    0    0  501  0.00000000000E+00  0.00000000000E+00 -0.11909404364E+03  0.11909404375E+03  0.50400001928E-02 0. -1.
    10030    2    1    2    0    0  0.00000000000E+00  0.00000000000E+00  0.63648450392E+03  0.87467259133E+03  0.59994967979E+03 0.  0.
        3    1    3    3  502    0 -0.20957201939E+03  0.14811507163E+03  0.54469461207E+03  0.60212186173E+03  0.10100000352E+00 0.  1.
       -3    1    3    3    0  502  0.20957201939E+03 -0.14811507163E+03  0.91789891859E+02  0.27255072960E+03  0.10100000352E+00 0. -1.
</event>
<event>
 5   0  0.1479385E-03  0.5990706E+03  0.7818609E-02  0.9907336E-01
        1   -1    0    0  501    0  0.00000000000E+00  0.00000000000E+00  0.85889359721E+03  0.85889359723E+03  0.50400001928E-02 0.  1.
       -1   -1    0    0    0  501  0.00000000000E+00  0.00000000000E+00 -0.10446158120E+03  0.10446158132E+03  0.50400001928E-02 0. -1.
    10030    2    1    2    0    0  0.00000000000E+00  0.00000000000E+00  0.75443201602E+03  0.96335517855E+03  0.59907055781E+03 0.  0.
        3    1    3    3  502    0 -0.18410019885E+03  0.16380297850E+03  0.10338315606E+03  0.26723096030E+03  0.10100000352E+00 0. -1.
       -3    1    3    3    0  502  0.18410019885E+03 -0.16380297850E+03  0.65104885995E+03  0.69612421825E+03  0.10100000352E+00 0.  1.
</event>
<event>
 5   0  0.2313168E-03  0.5998951E+03  0.7818609E-02  0.9905624E-01
       -2   -1    0    0    0  501  0.00000000000E+00  0.00000000000E+00  0.11251196301E+03  0.11251196304E+03  0.25500000920E-02 0.  1.
        2   -1    0    0  501    0  0.00000000000E+00  0.00000000000E+00 -0.79963514660E+03  0.79963514660E+03  0.25500000920E-02 0. -1.
    10030    2    1    2    0    0  0.00000000000E+00  0.00000000000E+00 -0.68712318358E+03  0.91214710964E+03  0.59989505767E+03 0.  0.
        2    1    3    3  502    0  0.68854010649E+02 -0.20463632369E+03 -0.66014800274E+03  0.69455905817E+03  0.25500000920E-02 0. -1.
       -2    1    3    3    0  502 -0.68854010649E+02  0.20463632369E+03 -0.26975180844E+02  0.21758805147E+03  0.25500000920E-02 0.  1.
</event>
<event>
 5   0  0.1479385E-03  0.5995371E+03  0.7818609E-02  0.9906367E-01
       -1   -1    0    0    0  501  0.00000000000E+00  0.00000000000E+00  0.32661594919E+03  0.32661594923E+03  0.50400001928E-02 0. -1.
        1   -1    0    0  501    0  0.00000000000E+00  0.00000000000E+00 -0.27512794701E+03  0.27512794705E+03  0.50400001928E-02 0.  1.
    10030    2    1    2    0    0  0.00000000000E+00  0.00000000000E+00  0.51488002186E+02  0.60174389628E+03  0.59953707337E+03 0.  0.
        3    1    3    3  502    0  0.27071734963E+03  0.83897082892E+02  0.12374849985E+03  0.30925766818E+03  0.10100000352E+00 0. -1.
       -3    1    3    3    0  502 -0.27071734963E+03 -0.83897082892E+02 -0.72260497662E+02  0.29248622811E+03  0.10100000352E+00 0.  1.
</event>
<event>
 5   0  0.2346281E-03  0.5999972E+03  0.7818609E-02  0.9905412E-01
        2   -1    0    0  501    0  0.00000000000E+00  0.00000000000E+00  0.61272414037E+03  0.61272414037E+03  0.25500000920E-02 0.  1.
       -2   -1    0    0    0  501  0.00000000000E+00  0.00000000000E+00 -0.14688367580E+03  0.14688367582E+03  0.25500000920E-02 0. -1.
    10030    2    1    2    0    0  0.00000000000E+00  0.00000000000E+00  0.46584046457E+03  0.75960781619E+03  0.59999724665E+03 0.  0.
        3    1    3    3  502    0 -0.11695853442E+03  0.12362690903E+03 -0.79856254748E+02  0.18798920988E+03  0.10100000352E+00 0. -1.
       -3    1    3    3    0  502  0.11695853442E+03 -0.12362690903E+03  0.54569671932E+03  0.57161860631E+03  0.10100000352E+00 0.  1.
</event>
<event>
 5   0  0.2346281E-03  0.6001528E+03  0.7818609E-02  0.9905089E-01
       -2   -1    0    0    0  501  0.00000000000E+00  0.00000000000E+00  0.16105155285E+03  0.16105155287E+03  0.25500000920E-02 0.  1.
        2   -1    0    0  501    0  0.00000000000E+00  0.00000000000E+00 -0.55911195788E+03  0.55911195789E+03  0.25500000920E-02 0. -1.
    10030    2    1    2    0    0  0.00000000000E+00  0.00000000000E+00 -0.39806040503E+03  0.72016351076E+03  0.60015281069E+03 0.  0.
        3    1    3    3  502    0  0.24173687387E+03  0.28122234507E+02 -0.40968596511E+03  0.47651881020E+03  0.10100000352E+00 0. -1.
       -3    1    3    3    0  502 -0.24173687387E+03 -0.28122234507E+02  0.11625560074E+02  0.24364470056E+03  0.10100000352E+00 0.  1.
</event>
<event>
 5   0  0.2313168E-03  0.6000336E+03  0.7818609E-02  0.9905336E-01
        2   -1    0    0  501    0  0.00000000000E+00  0.00000000000E+00  0.10075926270E+04  0.10075926270E+04  0.25500000920E-02 0.  1.
       -2   -1    0    0    0  501  0.00000000000E+00  0.00000000000E+00 -0.89331809379E+02  0.89331809415E+02  0.25500000920E-02 0. -1.
    10030    2    1    2    0    0  0.00000000000E+00  0.00000000000E+00  0.91826081760E+03  0.10969244364E+04  0.60003357408E+03 0.  0.
        2    1    3    3  502    0 -0.12739471367E+03  0.10873627783E+02 -0.37032348057E+02  0.13311289818E+03  0.25500000920E-02 0. -1.
       -2    1    3    3    0  502  0.12739471367E+03 -0.10873627783E+02  0.95529316566E+03  0.96381153823E+03  0.25500000920E-02 0.  1.
</event>
<event>
 5   0  0.1392854E-03  0.6000007E+03  0.7818609E-02  0.9905405E-01
        1   -1    0    0  501    0  0.00000000000E+00  0.00000000000E+00  0.23415918826E+03  0.23415918832E+03  0.50400001928E-02 0. -1.
       -1   -1    0    0    0  501  0.00000000000E+00  0.00000000000E+00 -0.38435483756E+03  0.38435483759E+03  0.50400001928E-02 0.  1.
    10030    2    1    2    0    0  0.00000000000E+00  0.00000000000E+00 -0.15019564930E+03  0.61851402591E+03  0.60000072265E+03 0.  0.
        4    1    3    3  502    0  0.12009485078E+03 -0.21764200882E+03  0.98036144145E+02  0.26721436272E+03  0.12699999809E+01 0.  1.
       -4    1    3    3    0  502 -0.12009485078E+03  0.21764200882E+03 -0.24823179344E+03  0.35129966319E+03  0.12699999809E+01 0. -1.
</event>
<event>
 5   0  0.2421210E-03  0.6001469E+03  0.7818609E-02  0.9905101E-01
        2   -1    0    0  501    0  0.00000000000E+00  0.00000000000E+00  0.49964218378E+03  0.49964218379E+03  0.25500000920E-02 0.  1.
       -2   -1    0    0    0  501  0.00000000000E+00  0.00000000000E+00 -0.18021709583E+03  0.18021709585E+03  0.25500000920E-02 0. -1.
    10030    2    1    2    0    0  0.00000000000E+00  0.00000000000E+00  0.31942508795E+03  0.67985927964E+03  0.60014685978E+03 0.  0.
        1    1    3    3  502    0 -0.29824088800E+03  0.29608349438E+02  0.17650666303E+03  0.34782018882E+03  0.50400001928E-02 0.  1.
       -1    1    3    3    0  502  0.29824088800E+03 -0.29608349438E+02  0.14291842492E+03  0.33203909082E+03  0.50400001928E-02 0. -1.
</event>
<event>
 5   0  0.2313168E-03  0.5999024E+03  0.7818609E-02  0.9905609E-01
        2   -1    0    0  501    0  0.00000000000E+00  0.00000000000E+00  0.13264871766E+04  0.13264871766E+04  0.25500000920E-02 0.  1.
       -2   -1    0    0    0  501  0.00000000000E+00  0.00000000000E+00 -0.67826295184E+02  0.67826295232E+02  0.25500000920E-02 0. -1.
    10030    2    1    2    0    0  0.00000000000E+00  0.00000000000E+00  0.12586608814E+04  0.13943134718E+04  0.59990236150E+03 0.  0.
        2    1    3    3  502    0 -0.14470137014E+03  0.30277078438E+02  0.12359311297E+04  0.12447413166E+04  0.25500000920E-02 0.  1.
       -2    1    3    3    0  502  0.14470137014E+03 -0.30277078438E+02  0.22729751759E+02  0.14957215523E+03  0.25500000920E-02 0. -1.
</event>
<event>
 5   0  0.2324616E-03  0.6000011E+03  0.7818609E-02  0.9905404E-01
       -2   -1    0    0    0  501  0.00000000000E+00  0.00000000000E+00  0.11457598672E+03  0.11457598675E+03  0.25500000920E-02 0. -1.
        2   -1    0    0  501    0  0.00000000000E+00  0.00000000000E+00 -0.78550776546E+03  0.78550776547E+03  0.25500000920E-02 0.  1.
    10030    2    1    2    0    0  0.00000000000E+00  0.00000000000E+00 -0.67093177875E+03  0.90008375221E+03  0.60000109105E+03 0.  0.
        4    1    3    3  502    0  0.27776786145E+03 -0.65827501525E+02 -0.19707495407E+03  0.34688383536E+03  0.12699999809E+01 0. -1.
       -4    1    3    3    0  502 -0.27776786145E+03  0.65827501525E+02 -0.47385682468E+03  0.55319991685E+03  0.12699999809E+01 0.  1.
</event>
<event>
 5   0  0.2346281E-03  0.5975970E+03  0.7818609E-02  0.9910404E-01
        2   -1    0    0  501    0  0.00000000000E+00  0.00000000000E+00  0.34885027773E+03  0.34885027774E+03  0.25500000920E-02 0. -1.
       -2   -1    0    0    0  501  0.00000000000E+00  0.00000000000E+00 -0.25592797159E+03  0.25592797160E+03  0.25500000920E-02 0.  1.
    10030    2    1    2    0    0  0.00000000000E+00  0.00000000000E+00  0.92922306146E+02  0.60477824935E+03  0.59759700125E+03 0.  0.
        3    1    3    3  502    0  0.21809327306E+03  0.74401110931E+02  0.23895818258E+03  0.33196569745E+03  0.10100000352E+00 0. -1.
       -3    1    3    3    0  502 -0.21809327306E+03 -0.74401110931E+02 -0.14603587644E+03  0.27281255189E+03  0.10100000352E+00 0.  1.
</event>
<event>
 5   0  0.9496750E-04  0.5997251E+03  0.7818609E-02  0.9905977E-01
       -4   -1    0    0    0  501  0.00000000000E+00  0.00000000000E+00  0.20577386241E+03  0.20577778148E+03  0.12699999809E+01 0.  1.
        4   -1    0    0  501    0  0.00000000000E+00  0.00000000000E+00 -0.43696365348E+03  0.43696549905E+03  0.12699999809E+01 0. -1.
    10030    2    1    2    0    0  0.00000000000E+00  0.00000000000E+00 -0.23118979107E+03  0.64274328053E+03  0.59972510801E+03 0.  0.
        3    1    3    3  502    0  0.15222247387E+03  0.20764905048E+03 -0.28033385788E+03  0.38062697197E+03  0.10100000352E+00 0. -1.
       -3    1    3    3    0  502 -0.15222247387E+03 -0.20764905048E+03  0.49144066808E+02  0.26211630857E+03  0.10100000352E+00 0.  1.
</event>
<event>
 5   0  0.2421210E-03  0.6000156E+03  0.7818609E-02  0.9905374E-01
       -2   -1    0    0    0  501  0.00000000000E+00  0.00000000000E+00  0.16456161328E+03  0.16456161330E+03  0.25500000920E-02 0.  1.
        2   -1    0    0  501    0  0.00000000000E+00  0.00000000000E+00 -0.54693613183E+03  0.54693613184E+03  0.25500000920E-02 0. -1.
    10030    2    1    2    0    0  0.00000000000E+00  0.00000000000E+00 -0.38237451855E+03  0.71149774514E+03  0.60001564055E+03 0.  0.
        1    1    3    3  502    0 -0.22192779264E+03  0.14174385096E+03 -0.20739568612E+02  0.26414653918E+03  0.50400001928E-02 0.  1.
       -1    1    3    3    0  502  0.22192779264E+03 -0.14174385096E+03 -0.36163494994E+03  0.44735120596E+03  0.50400001928E-02 0. -1.
</event>
<event>
 5   0  0.2324616E-03  0.5973572E+03  0.7818609E-02  0.9910904E-01
        2   -1    0    0  501    0  0.00000000000E+00  0.00000000000E+00  0.14315428241E+03  0.14315428243E+03  0.25500000920E-02 0.  1.
       -2   -1    0    0    0  501  0.00000000000E+00  0.00000000000E+00 -0.62316617268E+03  0.62316617269E+03  0.25500000920E-02 0. -1.
    10030    2    1    2    0    0  0.00000000000E+00  0.00000000000E+00 -0.48001189027E+03  0.76632045512E+03  0.59735720062E+03 0.  0.
        4    1    3    3  502    0 -0.29609528237E+03  0.16757802613E+02 -0.19457682834E+03  0.35470409530E+03  0.12699999809E+01 0.  1.
       -4    1    3    3    0  502  0.29609528237E+03 -0.16757802613E+02 -0.28543506193E+03  0.41161635982E+03  0.12699999809E+01 0. -1.
</event>
<event>
 5   0  0.1423430E-03  0.6000157E+03  0.7818609E-02  0.9905373E-01
       -1   -1    0    0    0  501  0.00000000000E+00  0.00000000000E+00  0.44249305585E+02  0.44249305872E+02  0.50400001928E-02 0. -1.
        1   -1    0    0  501    0  0.00000000000E+00  0.00000000000E+00 -0.20340369382E+04  0.20340369382E+04  0.50400001928E-02 0.  1.
    10030    2    1    2    0    0  0.00000000000E+00  0.00000000000E+00 -0.19897876326E+04  0.20782862441E+04  0.60001574098E+03 0.  0.
        1    1    3    3  502    0 -0.22224681855E+03 -0.13267590242E+03 -0.15202862836E+04  0.15421630677E+04  0.50400001928E-02 0.  1.
       -1    1    3    3    0  502  0.22224681855E+03  0.13267590242E+03 -0.46950134905E+03  0.53612317635E+03  0.50400001928E-02 0. -1.
</event>
<event>
 5   0  0.1416315E-03  0.6003214E+03  0.7818609E-02  0.9904739E-01
        1   -1    0    0  501    0  0.00000000000E+00  0.00000000000E+00  0.91008215645E+03  0.91008215646E+03  0.50400001928E-02 0.  1.
       -1   -1    0    0    0  501  0.00000000000E+00  0.00000000000E+00 -0.98998160330E+02  0.98998160458E+02  0.50400001928E-02 0. -1.
    10030    2    1    2    0    0  0.00000000000E+00  0.00000000000E+00  0.81108399612E+03  0.10090803169E+04  0.60032144493E+03 0.  0.
        2    1    3    3  502    0  0.35460827779E+02 -0.36775534054E+02  0.90272070478E+03  0.90416512931E+03  0.25500000920E-02 0.  1.
       -2    1    3    3    0  502 -0.35460827779E+02  0.36775534054E+02 -0.91636708660E+02  0.10491518761E+03  0.25500000920E-02 0. -1.
</event>
<event>
 5   0  0.1418763E-03  0.5999443E+03  0.7818609E-02  0.9905522E-01
       -1   -1    0    0    0  501  0.00000000000E+00  0.00000000000E+00  0.66547765552E+03  0.66547765554E+03  0.50400001928E-02 0. -1.
        1   -1    0    0  501    0  0.00000000000E+00  0.00000000000E+00 -0.13521607791E+03  0.13521607800E+03  0.50400001928E-02 0.  1.
    10030    2    1    2    0    0  0.00000000000E+00  0.00000000000E+00  0.53026157761E+03  0.80069373354E+03  0.59994425928E+03 0.  0.
        5    1    3    3  502    0 -0.31615873916E+02  0.78484069976E+02  0.64917004103E+03  0.65467789400E+03  0.46999998093E+01 0. -1.
       -5    1    3    3    0  502  0.31615873916E+02 -0.78484069976E+02 -0.11890846342E+03  0.14601583954E+03  0.46999998093E+01 0.  1.
</event>
<event>
 5   0  0.1418763E-03  0.6005186E+03  0.7818609E-02  0.9904331E-01
        1   -1    0    0  501    0  0.00000000000E+00  0.00000000000E+00  0.48289631319E+03  0.48289631321E+03  0.50400001928E-02 0.  1.
       -1   -1    0    0    0  501  0.00000000000E+00  0.00000000000E+00 -0.18669772790E+03  0.18669772796E+03  0.50400001928E-02 0. -1.
    10030    2    1    2    0    0  0.00000000000E+00  0.00000000000E+00  0.29619858529E+03  0.66959404118E+03  0.60051859093E+03 0.  0.
        5    1    3    3  502    0  0.12156932327E+03 -0.22232666543E+03 -0.31434863823E+02  0.25537910483E+03  0.46999998093E+01 0. -1.
       -5    1    3    3    0  502 -0.12156932327E+03  0.22232666543E+03  0.32763344911E+03  0.41421493635E+03  0.46999998093E+01 0.  1.
</event>
<event>
 5   0  0.1423430E-03  0.5998499E+03  0.7818609E-02  0.9905718E-01
       -1   -1    0    0    0  501  0.00000000000E+00  0.00000000000E+00  0.39284798831E+03  0.39284798834E+03  0.50400001928E-02 0.  1.
        1   -1    0    0  501    0  0.00000000000E+00  0.00000000000E+00 -0.22898163665E+03  0.22898163670E+03  0.50400001928E-02 0. -1.
    10030    2    1    2    0    0  0.00000000000E+00  0.00000000000E+00  0.16386635166E+03  0.62182962504E+03  0.59984989903E+03 0.  0.
        1    1    3    3  502    0  0.11697351082E+03  0.27559514570E+03  0.10046237297E+03  0.31579768045E+03  0.50400001928E-02 0. -1.
       -1    1    3    3    0  502 -0.11697351082E+03 -0.27559514570E+03  0.63403978686E+02  0.30603194459E+03  0.50400001928E-02 0.  1.
</event>
<event>
 5   0  0.2324616E-03  0.5998549E+03  0.7818609E-02  0.9905707E-01
       -2   -1    0    0    0  501  0.00000000000E+00  0.00000000000E+00  0.26873663717E+03  0.26873663719E+03  0.25500000920E-02 0. -1.
        2   -1    0    0  501    0  0.00000000000E+00  0.00000000000E+00 -0.33473838472E+03  0.33473838473E+03  0.25500000920E-02 0.  1.
    10030    2    1    2    0    0  0.00000000000E+00  0.00000000000E+00 -0.66001747549E+02  0.60347502192E+03  0.59985487528E+03 0.  0.
        4    1    3    3  502    0  0.26348558072E+03  0.13026951957E+03 -0.93027166192E+02  0.30830255517E+03  0.12699999809E+01 0.  1.
       -4    1    3    3    0  502 -0.26348558072E+03 -0.13026951957E+03  0.27025418643E+02  0.29517246675E+03  0.12699999809E+01 0. -1.
</event>
<event>
 5   0  0.1423430E-03  0.6004823E+03  0.7818609E-02  0.9904406E-01
       -1   -1    0    0    0  501  0.00000000000E+00  0.00000000000E+00  0.11262436964E+03  0.11262436975E+03  0.50400001928E-02 0. -1.
        1   -1    0    0  501    0  0.00000000000E+00  0.00000000000E+00 -0.80040175830E+03  0.80040175831E+03  0.50400001928E-02 0.  1.
    10030    2    1    2    0    0  0.00000000000E+00  0.00000000000E+00 -0.68777738865E+03  0.91302612807E+03  0.60048228466E+03 0.  0.
        1    1    3    3  502    0 -0.20655748452E+03  0.21787272300E+03 -0.33902653494E+03  0.45285042703E+03  0.50400001928E-02 0. -1.
       -1    1    3    3    0  502  0.20655748452E+03 -0.21787272300E+03 -0.34875085371E+03  0.46017570104E+03  0.50400001928E-02 0.  1.
</event>
<event>
 5   0  0.2406307E-03  0.5997538E+03  0.7818609E-02  0.9905917E-01
        2   -1    0    0  501    0  0.00000000000E+00  0.00000000000E+00  0.39954024993E+03  0.39954024994E+03  0.25500000920E-02 0.  1.
       -2   -1    0    0    0  501  0.00000000000E+00  0.00000000000E+00 -0.22507409804E+03  0.22507409806E+03  0.25500000920E-02 0. -1.
    10030    2    1    2    0    0  0.00000000000E+00  0.00000000000E+00  0.17446615189E+03  0.62461434799E+03  0.59975382080E+03 0.  0.
        5    1    3    3  502    0 -0.14192455008E+03  0.23663370939E+03 -0.34958851846E+02  0.27817674536E+03  0.46999998093E+01 0. -1.
       -5    1    3    3    0  502  0.14192455008E+03 -0.23663370939E+03  0.20942500373E+03  0.34643760264E+03  0.46999998093E+01 0.  1.
</event>
<event>
 5   0  0.2406307E-03  0.6001455E+03  0.7818609E-02  0.9905104E-01
       -2   -1    0    0    0  501  0.00000000000E+00  0.00000000000E+00  0.13046402135E+03  0.13046402138E+03  0.25500000920E-02 0.  1.
        2   -1    0    0  501    0  0.00000000000E+00  0.00000000000E+00 -0.69018005667E+03  0.69018005668E+03  0.25500000920E-02 0. -1.
    10030    2    1    2    0    0  0.00000000000E+00  0.00000000000E+00 -0.55971603532E+03  0.82064407806E+03  0.60014553456E+03 0.  0.
        5    1    3    3  502    0 -0.13264513872E+03 -0.22434222706E+03 -0.76590057930E+02  0.27168418180E+03  0.46999998093E+01 0.  1.
       -5    1    3    3    0  502  0.13264513872E+03  0.22434222706E+03 -0.48312597739E+03  0.54895989625E+03  0.46999998093E+01 0. -1.
</event>
<event>
 5   0  0.2406307E-03  0.6001662E+03  0.7818609E-02  0.9905061E-01
       -2   -1    0    0    0  501  0.00000000000E+00  0.00000000000E+00  0.78825401019E+02  0.78825401061E+02  0.25500000920E-02 0. -1.
        2   -1    0    0  501    0  0.00000000000E+00  0.00000000000E+00 -0.11423965402E+04  0.11423965402E+04  0.25500000920E-02 0.  1.
    10030    2    1    2    0    0  0.00000000000E+00  0.00000000000E+00 -0.10635711392E+04  0.12212219413E+04  0.60016619509E+03 0.  0.
        5    1    3    3  502    0 -0.60124853702E+02 -0.53068178640E+02  0.56539337936E+02  0.98234496738E+02  0.46999998093E+01 0. -1.
       -5    1    3    3    0  502  0.60124853702E+02  0.53068178640E+02 -0.11201104771E+04  0.11229874445E+04  0.46999998093E+01 0.  1.
</event>
<event>
 5   0  0.9496750E-04  0.6006425E+03  0.7818609E-02  0.9904074E-01
        3   -1    0    0  501    0  0.00000000000E+00  0.00000000000E+00  0.41285140967E+03  0.41285142202E+03  0.10100000352E+00 0.  1.
       -3   -1    0    0    0  501  0.00000000000E+00  0.00000000000E+00 -0.21846323460E+03  0.21846325795E+03  0.10100000352E+00 0. -1.
    10030    2    1    2    0    0  0.00000000000E+00  0.00000000000E+00  0.19438817507E+03  0.63131467997E+03  0.60064254140E+03 0.  0.
        5    1    3    3  502    0 -0.18026269755E+03  0.20349845521E+03  0.23123900389E+03  0.35693112546E+03  0.46999998093E+01 0.  1.
       -5    1    3    3    0  502  0.18026269755E+03 -0.20349845521E+03 -0.36850828824E+02  0.27438355451E+03  0.46999998093E+01 0. -1.
</event>
<event>
 5   0  0.2313168E-03  0.5994335E+03  0.7818609E-02  0.9906582E-01
        2   -1    0    0  501    0  0.00000000000E+00  0.00000000000E+00  0.64634930384E+03  0.64634930384E+03  0.25500000920E-02 0. -1.
       -2   -1    0    0    0  501  0.00000000000E+00  0.00000000000E+00 -0.13898076903E+03  0.13898076905E+03  0.25500000920E-02 0.  1.
    10030    2    1    2    0    0  0.00000000000E+00  0.00000000000E+00  0.50736853481E+03  0.78533007290E+03  0.59943347695E+03 0.  0.
        2    1    3    3  502    0  0.11691342288E+02 -0.47247098953E+02  0.64113708206E+03  0.64298190787E+03  0.25500000920E-02 0. -1.
       -2    1    3    3    0  502 -0.11691342288E+02  0.47247098953E+02 -0.13376854726E+03  0.14234816503E+03  0.25500000920E-02 0.  1.
</event>
<event>
 5   0  0.1392854E-03  0.6001223E+03  0.7818609E-02  0.9905152E-01
       -1   -1    0    0    0  501  0.00000000000E+00  0.00000000000E+00  0.89428724263E+02  0.89428724405E+02  0.50400001928E-02 0.  1.
        1   -1    0    0  501    0  0.00000000000E+00  0.00000000000E+00 -0.10067985196E+04  0.10067985196E+04  0.50400001928E-02 0. -1.
    10030    2    1    2    0    0  0.00000000000E+00  0.00000000000E+00 -0.91736979535E+03  0.10962272440E+04  0.60012234514E+03 0.  0.
        4    1    3    3  502    0 -0.26255051428E+03  0.56607867195E+02 -0.21430724848E+03  0.34360796386E+03  0.12699999809E+01 0.  1.
       -4    1    3    3    0  502  0.26255051428E+03 -0.56607867195E+02 -0.70306254687E+03  0.75261928018E+03  0.12699999809E+01 0. -1.
</event>
<event>
 5   0  0.2421210E-03  0.6001681E+03  0.7818609E-02  0.9905057E-01
       -2   -1    0    0    0  501  0.00000000000E+00  0.00000000000E+00  0.12622102612E+03  0.12622102614E+03  0.25500000920E-02 0.  1.
        2   -1    0    0  501    0  0.00000000000E+00  0.00000000000E+00 -0.71343443356E+03  0.71343443357E+03  0.25500000920E-02 0. -1.
    10030    2    1    2    0    0  0.00000000000E+00  0.00000000000E+00 -0.58721340745E+03  0.83965545971E+03  0.60016806407E+03 0.  0.
        1    1    3    3  502    0  0.44366605522E+02  0.77469126852E+02 -0.69442579822E+03  0.70014073625E+03  0.50400001928E-02 0. -1.
       -1    1    3    3    0  502 -0.44366605522E+02 -0.77469126852E+02  0.10721239077E+03  0.13951472346E+03  0.50400001928E-02 0.  1.
</event>
<event>
 5   0  0.2406307E-03  0.5998458E+03  0.7818609E-02  0.9905726E-01
        2   -1    0    0  501    0  0.00000000000E+00  0.00000000000E+00  0.14667210712E+04  0.14667210712E+04  0.25500000920E-02 0. -1.
       -2   -1    0    0    0  501  0.00000000000E+00  0.00000000000E+00 -0.61329825847E+02  0.61329825900E+02  0.25500000920E-02 0.  1.
    10030    2    1    2    0    0  0.00000000000E+00  0.00000000000E+00  0.14053912454E+04  0.15280508971E+04  0.59984580654E+03 0.  0.
        5    1    3    3  502    0  0.19620461973E+03 -0.49127343284E+02  0.12667140638E+04  0.12827690198E+04  0.46999998093E+01 0.  1.
       -5    1    3    3    0  502 -0.19620461973E+03  0.49127343284E+02  0.13867718153E+03  0.24528187731E+03  0.46999998093E+01 0. -1.
</event>
<event>
 5   0  0.2324616E-03  0.5994583E+03  0.7818609E-02  0.9906531E-01
        2   -1    0    0  501    0  0.00000000000E+00  0.00000000000E+00  0.57618784946E+03  0.57618784947E+03  0.25500000920E-02 0.  1.
       -2   -1    0    0    0  501  0.00000000000E+00  0.00000000000E+00 -0.15591714601E+03  0.15591714603E+03  0.25500000920E-02 0. -1.
    10030    2    1    2    0    0  0.00000000000E+00  0.00000000000E+00  0.42027070346E+03  0.73210499550E+03  0.59945830568E+03 0.  0.
        4    1    3    3  502    0 -0.17711181572E+03 -0.12684860015E+03  0.46154295865E+03  0.51037503682E+03  0.12699999809E+01 0.  1.
       -4    1    3    3    0  502  0.17711181572E+03  0.12684860015E+03 -0.41272255193E+02  0.22172995868E+03  0.12699999809E+01 0. -1.
</event>
<event>
 5   0  0.2346281E-03  0.5991811E+03  0.7818609E-02  0.9907106E-01
        2   -1    0    0  501    0  0.00000000000E+00  0.00000000000E+00  0.60486863951E+03  0.60486863952E+03  0.25500000920E-02 0. -1.
       -2   -1    0    0    0  501  0.00000000000E+00  0.00000000000E+00 -0.14838678374E+03  0.14838678377E+03  0.25500000920E-02 0.  1.
    10030    2    1    2    0    0  0.00000000000E+00  0.00000000000E+00  0.45648185577E+03  0.75325542328E+03  0.59918114795E+03 0.  0.
        3    1    3    3  502    0 -0.12326558610E+03 -0.17132049823E+03  0.49554059704E+03  0.53861452946E+03  0.10100000352E+00 0. -1.
       -3    1    3    3    0  502  0.12326558610E+03  0.17132049823E+03 -0.39058741267E+02  0.21464089382E+03  0.10100000352E+00 0.  1.
</event>
<event>
 5   0  0.2406307E-03  0.5999924E+03  0.7818609E-02  0.9905422E-01
        2   -1    0    0  501    0  0.00000000000E+00  0.00000000000E+00  0.11447958328E+04  0.11447958328E+04  0.25500000920E-02 0.  1.
       -2   -1    0    0    0  501  0.00000000000E+00  0.00000000000E+00 -0.78614653669E+02  0.78614653710E+02  0.25500000920E-02 0. -1.
    10030    2    1    2    0    0  0.00000000000E+00  0.00000000000E+00  0.10661811791E+04  0.12234104865E+04  0.59999242643E+03 0.  0.
        5    1    3    3  502    0  0.27407142903E+03 -0.12139647324E+03  0.51044104831E+03  0.59196655795E+03  0.46999998093E+01 0.  1.
       -5    1    3    3    0  502 -0.27407142903E+03  0.12139647324E+03  0.55574013081E+03  0.63144392856E+03  0.46999998093E+01 0. -1.
</event>
<event>
 5   0  0.1392854E-03  0.6000185E+03  0.7818609E-02  0.9905368E-01
       -1   -1    0    0    0  501  0.00000000000E+00  0.00000000000E+00  0.14969610205E+04  0.14969610205E+04  0.50400001928E-02 0.  1.
        1   -1    0    0  501    0  0.00000000000E+00  0.00000000000E+00 -0.60125507429E+02  0.60125507640E+02  0.50400001928E-02 0. -1.
    10030    2    1    2    0    0  0.00000000000E+00  0.00000000000E+00  0.14368355130E+04  0.15570865281E+04  0.60001847014E+03 0.  0.
        4    1    3    3  502    0  0.67687038131E+02  0.22316619448E+03  0.22864968569E+03  0.32659910771E+03  0.12699999809E+01 0. -1.
       -4    1    3    3    0  502 -0.67687038131E+02 -0.22316619448E+03  0.12081858273E+04  0.12304874204E+04  0.12699999809E+01 0.  1.
</event>
<event>
 5   0  0.1479385E-03  0.5997942E+03  0.7818609E-02  0.9905833E-01
       -1   -1    0    0    0  501  0.00000000000E+00  0.00000000000E+00  0.12726994222E+03  0.12726994232E+03  0.50400001928E-02 0.  1.
        1   -1    0    0  501    0  0.00000000000E+00  0.00000000000E+00 -0.70667333110E+03  0.70667333112E+03  0.50400001928E-02 0. -1.
    10030    2    1    2    0    0  0.00000000000E+00  0.00000000000E+00 -0.57940338888E+03  0.83394327344E+03  0.59979421160E+03 0.  0.
        3    1    3    3  502    0  0.27399747941E+03  0.10584406320E+03 -0.20557862913E+03  0.35852498852E+03  0.10100000352E+00 0.  1.
       -3    1    3    3    0  502 -0.27399747941E+03 -0.10584406320E+03 -0.37382475976E+03  0.47541828493E+03  0.10100000352E+00 0. -1.
</event>
<event>
 5   0  0.1418763E-03  0.6003722E+03  0.7818609E-02  0.9904634E-01
       -1   -1    0    0    0  501  0.00000000000E+00  0.00000000000E+00  0.32907993989E+03  0.32907993993E+03  0.50400001928E-02 0. -1.
        1   -1    0    0  501    0  0.00000000000E+00  0.00000000000E+00 -0.27382919845E+03  0.27382919850E+03  0.50400001928E-02 0.  1.
    10030    2    1    2    0    0  0.00000000000E+00  0.00000000000E+00  0.55250741437E+02  0.60290913843E+03  0.60037220519E+03 0.  0.
        5    1    3    3  502    0 -0.20476968608E+03  0.49557780562E+02 -0.18706060841E+03  0.28178069339E+03  0.46999998093E+01 0.  1.
       -5    1    3    3    0  502  0.20476968608E+03 -0.49557780562E+02  0.24231134984E+03  0.32112844504E+03  0.46999998093E+01 0. -1.
</event>
<event>
 5   0  0.2421210E-03  0.5998287E+03  0.7818609E-02  0.9905762E-01
       -2   -1    0    0    0  501  0.00000000000E+00  0.00000000000E+00  0.32218417803E+03  0.32218417804E+03  0.25500000920E-02 0.  1.
        2   -1    0    0  501    0  0.00000000000E+00  0.00000000000E+00 -0.27918384626E+03  0.27918384627E+03  0.25500000920E-02 0. -1.
    10030    2    1    2    0    0  0.00000000000E+00  0.00000000000E+00  0.43000331767E+02  0.60136802431E+03  0.59982870233E+03 0.  0.
        1    1    3    3  502    0  0.13813095062E+03  0.29514668447E+02 -0.24374890176E+03  0.28171759318E+03  0.50400001928E-02 0. -1.
       -1    1    3    3    0  502 -0.13813095062E+03 -0.29514668447E+02  0.28674923353E+03  0.31965043114E+03  0.50400001928E-02 0.  1.
</event>
<event>
 5   0  0.2406307E-03  0.5997439E+03  0.7818609E-02  0.9905938E-01
       -2   -1    0    0    0  501  0.00000000000E+00  0.00000000000E+00  0.34104560232E+02  0.34104560327E+02  0.25500000920E-02 0. -1.
        2   -1    0    0  501    0  0.00000000000E+00  0.00000000000E+00 -0.26366905955E+04  0.26366905955E+04  0.25500000920E-02 0.  1.
    10030    2    1    2    0    0  0.00000000000E+00  0.00000000000E+00 -0.26025860353E+04  0.26707951558E+04  0.59974385651E+03 0.  0.
        5    1    3    3  502    0  0.67244865309E+02  0.25963371217E+03 -0.70433562360E+03  0.75368580793E+03  0.46999998093E+01 0.  1.
       -5    1    3    3    0  502 -0.67244865309E+02 -0.25963371217E+03 -0.18982504117E+04  0.19171093479E+04  0.46999998093E+01 0. -1.
</event>
<event>
 5   0  0.1418763E-03  0.5997793E+03  0.7818609E-02  0.9905864E-01
       -1   -1    0    0    0  501  0.00000000000E+00  0.00000000000E+00  0.16656914718E+03  0.16656914725E+03  0.50400001928E-02 0. -1.
        1   -1    0    0  501    0  0.00000000000E+00  0.00000000000E+00 -0.53991869706E+03  0.53991869708E+03  0.50400001928E-02 0.  1.
    10030    2    1    2    0    0  0.00000000000E+00  0.00000000000E+00 -0.37334954988E+03  0.70648784434E+03  0.59977928257E+03 0.  0.
        5    1    3    3  502    0 -0.10040140018E+03 -0.21216031555E+03  0.33122873285E+02  0.23708997318E+03  0.46999998093E+01 0. -1.
       -5    1    3    3    0  502  0.10040140018E+03  0.21216031555E+03 -0.40647242317E+03  0.46939787115E+03  0.46999998093E+01 0.  1.
</event>
<event>
 5   0  0.1423430E-03  0.6000406E+03  0.7818609E-02  0.9905322E-01
       -1   -1    0    0    0  501  0.00000000000E+00  0.00000000000E+00  0.14814920166E+03  0.14814920175E+03  0.50400001928E-02 0. -1.
        1   -1    0    0  501    0  0.00000000000E+00  0.00000000000E+00 -0.60757783541E+03  0.60757783543E+03  0.50400001928E-02 0.  1.
    10030    2    1    2    0    0  0.00000000000E+00  0.00000000000E+00 -0.45942863375E+03  0.75572703718E+03  0.60004056965E+03 0.  0.
        1    1    3    3  502    0 -0.16460572081E+03 -0.28629352151E+02  0.84135125919E+02  0.18706523613E+03  0.50400001928E-02 0. -1.
       -1    1    3    3    0  502  0.16460572081E+03  0.28629352151E+02 -0.54356375967E+03  0.56866180105E+03  0.50400001928E-02 0.  1.
</event>
<event>
 5   0  0.9496750E-04  0.5999821E+03  0.7818609E-02  0.9905443E-01
        3   -1    0    0  501    0  0.00000000000E+00  0.00000000000E+00  0.16758508977E+03  0.16758512021E+03  0.10100000352E+00 0.  1.
       -3   -1    0    0    0  501  0.00000000000E+00  0.00000000000E+00 -0.53700848625E+03  0.53700849574E+03  0.10100000352E+00 0. -1.
    10030    2    1    2    0    0  0.00000000000E+00  0.00000000000E+00 -0.36942339648E+03  0.70459361595E+03  0.59998209788E+03 0.  0.
        5    1    3    3  502    0 -0.69394085486E+02 -0.14970487886E+03 -0.47887705770E+03  0.50652977824E+03  0.46999998093E+01 0. -1.
       -5    1    3    3    0  502  0.69394085486E+02  0.14970487886E+03  0.10945366123E+03  0.19806383771E+03  0.46999998093E+01 0.  1.
</event>
<event>
 5   0  0.2324616E-03  0.5999756E+03  0.7818609E-02  0.9905457E-01
        2   -1    0    0  501    0  0.00000000000E+00  0.00000000000E+00  0.46195384881E+03  0.46195384882E+03  0.25500000920E-02 0. -1.
       -2   -1    0    0    0  501  0.00000000000E+00  0.00000000000E+00 -0.19480882818E+03  0.19480882819E+03  0.25500000920E-02 0.  1.
    10030    2    1    2    0    0  0.00000000000E+00  0.00000000000E+00  0.26714502063E+03  0.65676267701E+03  0.59997562606E+03 0.  0.
        4    1    3    3  502    0 -0.28945715391E+03 -0.24020968620E+02  0.51447396764E+02  0.29497609804E+03  0.12699999809E+01 0.  1.
       -4    1    3    3    0  502  0.28945715391E+03  0.24020968620E+02  0.21569762387E+03  0.36178657897E+03  0.12699999809E+01 0. -1.
</event>
<event>
 5   0  0.1392854E-03  0.6007495E+03  0.7818609E-02  0.9903852E-01
       -1   -1    0    0    0  501  0.00000000000E+00  0.00000000000E+00  0.19598406181E+03  0.19598406188E+03  0.50400001928E-02 0.  1.
        1   -1    0    0  501    0  0.00000000000E+00  0.00000000000E+00 -0.46036906830E+03  0.46036906832E+03  0.50400001928E-02 0. -1.
    10030    2    1    2    0    0  0.00000000000E+00  0.00000000000E+00 -0.26438500648E+03  0.65635313020E+03  0.60074953173E+03 0.  0.
        4    1    3    3  502    0 -0.14807174005E+03 -0.16919642503E+03 -0.34980265043E+03  0.41583191026E+03  0.12699999809E+01 0. -1.
       -4    1    3    3    0  502  0.14807174005E+03  0.16919642503E+03  0.85417643948E+02  0.24052121994E+03  0.12699999809E+01 0.  1.
</event>
<event>
 5   0  0.2324616E-03  0.5999605E+03  0.7818609E-02  0.9905488E-01
        2   -1    0    0  501    0  0.00000000000E+00  0.00000000000E+00  0.98281889388E+03  0.98281889388E+03  0.25500000920E-02 0. -1.
       -2   -1    0    0    0  501  0.00000000000E+00  0.00000000000E+00 -0.91561288128E+02  0.91561288163E+02  0.25500000920E-02 0.  1.
    10030    2    1    2    0    0  0.00000000000E+00  0.00000000000E+00  0.89125760575E+03  0.10743801820E+04  0.59996054517E+03 0.  0.
        4    1    3    3  502    0  0.26326713455E+03 -0.70746120145E+02  0.66980880214E+03  0.72315976241E+03  0.12699999809E+01 0. -1.
       -4    1    3    3    0  502 -0.26326713455E+03  0.70746120145E+02  0.22144880362E+03  0.35122041964E+03  0.12699999809E+01 0.  1.
</event>
<event>
 5   0  0.2421210E-03  0.6002371E+03  0.7818609E-02  0.9904914E-01
       -2   -1    0    0    0  501  0.00000000000E+00  0.00000000000E+00  0.21510601581E+03  0.21510601582E+03  0.25500000920E-02 0. -1.
        2   -1    0    0  501    0  0.00000000000E+00  0.00000000000E+00 -0.41872902731E+03  0.41872902732E+03  0.25500000920E-02 0.  1.
    10030    2    1    2    0    0  0.00000000000E+00  0.00000000000E+00 -0.20362301151E+03  0.63383504314E+03  0.60023706242E+03 0.  0.
        1    1    3    3  502    0 -0.45408227098E+02  0.28157730967E+03 -0.20043887199E+03  0.34860210820E+03  0.50400001928E-02 0.  1.
       -1    1    3    3    0  502  0.45408227098E+02 -0.28157730967E+03 -0.31841395205E+01  0.28523293495E+03  0.50400001928E-02 0. -1.
</event>
<event>
 5   0  0.9496750E-04  0.6005837E+03  0.7818609E-02  0.9904196E-01
       -4   -1    0    0    0  501  0.00000000000E+00  0.00000000000E+00  0.21993064622E+03  0.21993431303E+03  0.12699999809E+01 0.  1.
        4   -1    0    0  501    0  0.00000000000E+00  0.00000000000E+00 -0.41000847605E+03  0.41001044295E+03  0.12699999809E+01 0. -1.
    10030    2    1    2    0    0  0.00000000000E+00  0.00000000000E+00 -0.19007782982E+03  0.62994475598E+03  0.60058372789E+03 0.  0.
        2    1    3    3  502    0  0.29499035826E+02  0.17213528353E+03  0.16118704737E+03  0.23765944794E+03  0.25500000920E-02 0.  1.
       -2    1    3    3    0  502 -0.29499035826E+02 -0.17213528353E+03 -0.35126487719E+03  0.39228530804E+03  0.25500000920E-02 0. -1.
</event>
<event>
 5   0  0.1423430E-03  0.6001459E+03  0.7818609E-02  0.9905103E-01
       -1   -1    0    0    0  501  0.00000000000E+00  0.00000000000E+00  0.69364569133E+03  0.69364569135E+03  0.50400001928E-02 0.  1.
        1   -1    0    0  501    0  0.00000000000E+00  0.00000000000E+00 -0.12981234300E+03  0.12981234310E+03  0.50400001928E-02 0. -1.
    10030    2    1    2    0    0  0.00000000000E+00  0.00000000000E+00  0.56383334833E+03  0.82345803445E+03  0.60014589043E+03 0.  0.
        1    1    3    3  502    0  0.18064567729E+03  0.20598361851E+03  0.44986072023E+03  0.52672267794E+03  0.50400001928E-02 0.  1.
       -1    1    3    3    0  502 -0.18064567729E+03 -0.20598361851E+03  0.11397262810E+03  0.29673535651E+03  0.50400001928E-02 0. -1.
</event>
<event>
 5   0  0.1418763E-03  0.5999867E+03  0.7818609E-02  0.9905434E-01
        1   -1    0    0  501    0  0.00000000000E+00  0.00000000000E+00  0.27493452059E+03  0.27493452063E+03  0.50400001928E-02 0. -1.
       -1   -1    0    0    0  501  0.00000000000E+00  0.00000000000E+00 -0.32733614380E+03  0.32733614384E+03  0.50400001928E-02 0.  1.
    10030    2    1    2    0    0  0.00000000000E+00  0.00000000000E+00 -0.52401623217E+02  0.60227066448E+03  0.59998668583E+03 0.  0.
        5    1    3    3  502    0  0.91809348484E+02  0.19734078968E+03  0.18098638281E+03  0.28310864434E+03  0.46999998093E+01 0. -1.
       -5    1    3    3    0  502 -0.91809348484E+02 -0.19734078968E+03 -0.23338800603E+03  0.31916202013E+03  0.46999998093E+01 0.  1.
</event>
<event>
 5   0  0.2324616E-03  0.5999471E+03  0.7818609E-02  0.9905516E-01
       -2   -1    0    0    0  501  0.00000000000E+00  0.00000000000E+00  0.39871066739E+02  0.39871066821E+02  0.25500000920E-02 0. -1.
        2   -1    0    0  501    0  0.00000000000E+00  0.00000000000E+00 -0.22568776065E+04  0.22568776065E+04  0.25500000920E-02 0.  1.
    10030    2    1    2    0    0  0.00000000000E+00  0.00000000000E+00 -0.22170065397E+04  0.22967486733E+04  0.59994705689E+03 0.  0.
        4    1    3    3  502    0  0.15878229928E+02 -0.27666344577E+03 -0.66887513397E+03  0.72400990198E+03  0.12699999809E+01 0. -1.
       -4    1    3    3    0  502 -0.15878229928E+02  0.27666344577E+03 -0.15481314058E+04  0.15727387713E+04  0.12699999809E+01 0.  1.
</event>
<event>
 5   0  0.9496750E-04  0.5978864E+03  0.7818609E-02  0.9909801E-01
       -3   -1    0    0    0  501  0.00000000000E+00  0.00000000000E+00  0.58264097042E+03  0.58264097918E+03  0.10100000352E+00 0.  1.
        3   -1    0    0  501    0  0.00000000000E+00  0.00000000000E+00 -0.15338264389E+03  0.15338267715E+03  0.10100000352E+00 0. -1.
    10030    2    1    2    0    0  0.00000000000E+00  0.00000000000E+00  0.42925832653E+03  0.73602365632E+03  0.59788637029E+03 0.  0.
        1    1    3    3  502    0  0.15790829178E+02  0.22930430440E+03 -0.20681079621E+02  0.23077591162E+03  0.50400001928E-02 0. -1.
       -1    1    3    3    0  502 -0.15790829178E+02 -0.22930430440E+03  0.44993940615E+03  0.50524774471E+03  0.50400001928E-02 0.  1.
</event>
<event>
 5   0  0.1392854E-03  0.6000441E+03  0.7818609E-02  0.9905315E-01
       -1   -1    0    0    0  501  0.00000000000E+00  0.00000000000E+00  0.10238859092E+03  0.10238859104E+03  0.50400001928E-02 0. -1.
        1   -1    0    0  501    0  0.00000000000E+00  0.00000000000E+00 -0.87913336767E+03  0.87913336768E+03  0.50400001928E-02 0.  1.
    10030    2    1    2    0    0  0.00000000000E+00  0.00000000000E+00 -0.77674477675E+03  0.98152195872E+03  0.60004408775E+03 0.  0.
        4    1    3    3  502    0  0.83303143179E+02  0.20604543830E+03 -0.71803776240E+03  0.75164750877E+03  0.12699999809E+01 0.  1.
       -4    1    3    3    0  502 -0.83303143179E+02 -0.20604543830E+03 -0.58707014354E+02  0.22987444995E+03  0.12699999809E+01 0. -1.
</event>
<event>
 5   0  0.2324616E-03  0.6008155E+03  0.7818609E-02  0.9903716E-01
       -2   -1    0    0    0  501  0.00000000000E+00  0.00000000000E+00  0.33577081599E+03  0.33577081600E+03  0.25500000920E-02 0. -1.
        2   -1    0    0  501    0  0.00000000000E+00  0.00000000000E+00 -0.26876906089E+03  0.26876906090E+03  0.25500000920E-02 0.  1.
    10030    2    1    2    0    0  0.00000000000E+00  0.00000000000E+00  0.67001755097E+02  0.60453987690E+03  0.60081546882E+03 0.  0.
        4    1    3    3  502    0 -0.26318620079E+03  0.13257293879E+03 -0.25175564107E+02  0.29576677013E+03  0.12699999809E+01 0.  1.
       -4    1    3    3    0  502  0.26318620079E+03 -0.13257293879E+03  0.92177319204E+02  0.30877310676E+03  0.12699999809E+01 0. -1.
</event>
<event>
 5   0  0.9496750E-04  0.6000149E+03  0.7818609E-02  0.9905375E-01
        4   -1    0    0  501    0  0.00000000000E+00  0.00000000000E+00  0.29761481044E+03  0.29761752014E+03  0.12699999809E+01 0.  1.
       -4   -1    0    0    0  501  0.00000000000E+00  0.00000000000E+00 -0.30241390527E+03  0.30241657197E+03  0.12699999809E+01 0. -1.
    10030    2    1    2    0    0  0.00000000000E+00  0.00000000000E+00 -0.47990948299E+01  0.60003409211E+03  0.60001490013E+03 0.  0.
        3    1    3    3  502    0 -0.18461771124E+03 -0.37718768333E+02  0.23105610468E+03  0.29814985913E+03  0.10100000352E+00 0.  1.
       -3    1    3    3    0  502  0.18461771124E+03  0.37718768333E+02 -0.23585519951E+03  0.30188423298E+03  0.10100000352E+00 0. -1.
</event>
<event>
 5   0  0.2421210E-03  0.6004233E+03  0.7818609E-02  0.9904528E-01
       -2   -1    0    0    0  501  0.00000000000E+00  0.00000000000E+00  0.65184415179E+02  0.65184415229E+02  0.25500000920E-02 0.  1.
        2   -1    0    0  501    0  0.00000000000E+00  0.00000000000E+00 -0.13826469548E+04  0.13826469548E+04  0.25500000920E-02 0. -1.
    10030    2    1    2    0    0  0.00000000000E+00  0.00000000000E+00 -0.13174625396E+04  0.14478313700E+04  0.60042329464E+03 0.  0.
        1    1    3    3  502    0 -0.74450610433E+02 -0.10354385302E+03 -0.33811809843E+01  0.12757607652E+03  0.50400001928E-02 0.  1.
       -1    1    3    3    0  502  0.74450610433E+02  0.10354385302E+03 -0.13140813586E+04  0.13202552935E+04  0.50400001928E-02 0. -1.
</event>
<event>
 5   0  0.1423430E-03  0.6002893E+03  0.7818609E-02  0.9904806E-01
        1   -1    0    0  501    0  0.00000000000E+00  0.00000000000E+00  0.13085686771E+04  0.13085686771E+04  0.50400001928E-02 0. -1.
       -1   -1    0    0    0  501  0.00000000000E+00  0.00000000000E+00 -0.68843775120E+02  0.68843775305E+02  0.50400001928E-02 0.  1.
    10030    2    1    2    0    0  0.00000000000E+00  0.00000000000E+00  0.12397249020E+04  0.13774124524E+04  0.60028928983E+03 0.  0.
        1    1    3    3  502    0  0.10791920143E+03 -0.19295956019E+03  0.15407457369E+03  0.26947897912E+03  0.50400001928E-02 0.  1.
       -1    1    3    3    0  502 -0.10791920143E+03  0.19295956019E+03  0.10856503283E+04  0.11079334733E+04  0.50400001928E-02 0. -1.
</event>
<event>
 5   0  0.1392854E-03  0.6002201E+03  0.7818609E-02  0.9904949E-01
       -1   -1    0    0    0  501  0.00000000000E+00  0.00000000000E+00  0.40565388583E+03  0.40565388587E+03  0.50400001928E-02 0. -1.
        1   -1    0    0  501    0  0.00000000000E+00  0.00000000000E+00 -0.22202684343E+03  0.22202684349E+03  0.50400001928E-02 0.  1.
    10030    2    1    2    0    0  0.00000000000E+00  0.00000000000E+00  0.18362704240E+03  0.62768072936E+03  0.60022013237E+03 0.  0.
        4    1    3    3  502    0 -0.27818668989E+03  0.53391222270E+02  0.19547471751E+03  0.34416628995E+03  0.12699999809E+01 0.  1.
       -4    1    3    3    0  502  0.27818668989E+03 -0.53391222270E+02 -0.11847675112E+02  0.28351443941E+03  0.12699999809E+01 0. -1.
</event>
<event>
 5   0  0.1479385E-03  0.5999830E+03  0.7818609E-02  0.9905441E-01
        1   -1    0    0  501    0  0.00000000000E+00  0.00000000000E+00  0.67149176011E+03  0.67149176013E+03  0.50400001928E-02 0.  1.
       -1   -1    0    0    0  501  0.00000000000E+00  0.00000000000E+00 -0.13402235302E+03  0.13402235311E+03  0.50400001928E-02 0. -1.
    10030    2    1    2    0    0  0.00000000000E+00  0.00000000000E+00  0.53746940710E+03  0.80551411325E+03  0.59998301899E+03 0.  0.
        3    1    3    3  502    0 -0.21874994008E+03 -0.19287748694E+03  0.36311242699E+03  0.46572943442E+03  0.10100000352E+00 0. -1.
       -3    1    3    3    0  502  0.21874994008E+03  0.19287748694E+03  0.17435698010E+03  0.33978467882E+03  0.10100000352E+00 0.  1.
</event>
<event>
 5   0  0.2346281E-03  0.5999711E+03  0.7818609E-02  0.9905466E-01
       -2   -1    0    0    0  501  0.00000000000E+00  0.00000000000E+00  0.11310610235E+03  0.11310610238E+03  0.25500000920E-02 0. -1.
        2   -1    0    0  501    0  0.00000000000E+00  0.00000000000E+00 -0.79563643526E+03  0.79563643526E+03  0.25500000920E-02 0.  1.
    10030    2    1    2    0    0  0.00000000000E+00  0.00000000000E+00 -0.68253033290E+03  0.90874253764E+03  0.59997111962E+03 0.  0.
        3    1    3    3  502    0  0.20397830358E+02  0.67880253982E+02 -0.78277156028E+03  0.78597399839E+03  0.10100000352E+00 0.  1.
       -3    1    3    3    0  502 -0.20397830358E+02 -0.67880253982E+02  0.10024122737E+03  0.12276853925E+03  0.10100000352E+00 0. -1.
</event>
<event>
 5   0  0.2313168E-03  0.6002499E+03  0.7818609E-02  0.9904888E-01
       -2   -1    0    0    0  501  0.00000000000E+00  0.00000000000E+00  0.16196375789E+03  0.16196375791E+03  0.25500000920E-02 0. -1.
        2   -1    0    0  501    0  0.00000000000E+00  0.00000000000E+00 -0.55614286545E+03  0.55614286546E+03  0.25500000920E-02 0.  1.
    10030    2    1    2    0    0  0.00000000000E+00  0.00000000000E+00 -0.39417910756E+03  0.71810662336E+03  0.60024990935E+03 0.  0.
        2    1    3    3  502    0 -0.24869891236E+03 -0.13609041517E+01  0.38894206047E+01  0.24873304700E+03  0.25500000920E-02 0. -1.
       -2    1    3    3    0  502  0.24869891236E+03  0.13609041517E+01 -0.39806852817E+03  0.46937357637E+03  0.25500000920E-02 0.  1.
</event>
<event>
 5   0  0.1416315E-03  0.6003463E+03  0.7818609E-02  0.9904688E-01
        1   -1    0    0  501    0  0.00000000000E+00  0.00000000000E+00  0.82142978673E+02  0.82142978827E+02  0.50400001928E-02 0.  1.
       -1   -1    0    0    0  501  0.00000000000E+00  0.00000000000E+00 -0.10969157612E+04  0.10969157612E+04  0.50400001928E-02 0. -1.
    10030    2    1    2    0    0  0.00000000000E+00  0.00000000000E+00 -0.10147727825E+04  0.11790587400E+04  0.60034632695E+03 0.  0.
        2    1    3    3  502    0 -0.24956437038E+03 -0.10494003754E+03 -0.25275827786E+03  0.37038025524E+03  0.25500000920E-02 0.  1.
       -2    1    3    3    0  502  0.24956437038E+03  0.10494003754E+03 -0.76201450462E+03  0.80867848475E+03  0.25500000920E-02 0. -1.
</event>
<event>
 5   0  0.2324616E-03  0.6000261E+03  0.7818609E-02  0.9905352E-01
       -2   -1    0    0    0  501  0.00000000000E+00  0.00000000000E+00  0.11448177826E+03  0.11448177828E+03  0.25500000920E-02 0. -1.
        2   -1    0    0  501    0  0.00000000000E+00  0.00000000000E+00 -0.78621974344E+03  0.78621974345E+03  0.25500000920E-02 0.  1.
    10030    2    1    2    0    0  0.00000000000E+00  0.00000000000E+00 -0.67173796519E+03  0.90070152173E+03  0.60002611391E+03 0.  0.
        4    1    3    3  502    0 -0.78165088853E+02  0.21984487601E+02  0.97669780740E+02  0.12702006842E+03  0.12699999809E+01 0. -1.
       -4    1    3    3    0  502  0.78165088853E+02 -0.21984487601E+02 -0.76940774593E+03  0.77368145332E+03  0.12699999809E+01 0.  1.
</event>
<event>
 5   0  0.2406307E-03  0.5999420E+03  0.7818609E-02  0.9905526E-01
        2   -1    0    0  501    0  0.00000000000E+00  0.00000000000E+00  0.21185258813E+04  0.21185258813E+04  0.25500000920E-02 0. -1.
       -2   -1    0    0    0  501  0.00000000000E+00  0.00000000000E+00 -0.42474155123E+02  0.42474155200E+02  0.25500000920E-02 0.  1.
    10030    2    1    2    0    0  0.00000000000E+00  0.00000000000E+00  0.20760517262E+04  0.21610000365E+04  0.59994198719E+03 0.  0.
        5    1    3    3  502    0 -0.29092200242E+02 -0.29358929524E+03  0.12326505902E+04  0.12674741015E+04  0.46999998093E+01 0.  1.
       -5    1    3    3    0  502  0.29092200242E+02  0.29358929524E+03  0.84340113596E+03  0.89352593501E+03  0.46999998093E+01 0. -1.
</event>
<event>
 5   0  0.1392854E-03  0.5999575E+03  0.7818609E-02  0.9905494E-01
        1   -1    0    0  501    0  0.00000000000E+00  0.00000000000E+00  0.11854945162E+03  0.11854945173E+03  0.50400001928E-02 0.  1.
       -1   -1    0    0    0  501  0.00000000000E+00  0.00000000000E+00 -0.75906929739E+03  0.75906929741E+03  0.50400001928E-02 0. -1.
    10030    2    1    2    0    0  0.00000000000E+00  0.00000000000E+00 -0.64051984577E+03  0.87761874914E+03  0.59995749517E+03 0.  0.
        4    1    3    3  502    0  0.24414467333E+02  0.27795943065E+03 -0.15916485726E+03  0.32123601291E+03  0.12699999809E+01 0.  1.
       -4    1    3    3    0  502 -0.24414467333E+02 -0.27795943065E+03 -0.48135498852E+03  0.55638273623E+03  0.12699999809E+01 0. -1.
</event>
<event>
 5   0  0.2421210E-03  0.5999901E+03  0.7818609E-02  0.9905427E-01
       -2   -1    0    0    0  501  0.00000000000E+00  0.00000000000E+00  0.11144331927E+03  0.11144331930E+03  0.25500000920E-02 0. -1.
        2   -1    0    0  501    0  0.00000000000E+00  0.00000000000E+00 -0.80755889343E+03  0.80755889343E+03  0.25500000920E-02 0.  1.
    10030    2    1    2    0    0  0.00000000000E+00  0.00000000000E+00 -0.69611557416E+03  0.91900221273E+03  0.59999014528E+03 0.  0.
        1    1    3    3  502    0  0.70049724872E+02 -0.18482983455E+03 -0.23964534992E+01  0.19767340416E+03  0.50400001928E-02 0. -1.
       -1    1    3    3    0  502 -0.70049724872E+02  0.18482983455E+03 -0.69371912066E+03  0.72132880858E+03  0.50400001928E-02 0.  1.
</event>
<event>
 5   0  0.1423430E-03  0.6001923E+03  0.7818609E-02  0.9905007E-01
        1   -1    0    0  501    0  0.00000000000E+00  0.00000000000E+00  0.85488001497E+03  0.85488001499E+03  0.50400001928E-02 0.  1.
       -1   -1    0    0    0  501  0.00000000000E+00  0.00000000000E+00 -0.10534541149E+03  0.10534541161E+03  0.50400001928E-02 0. -1.
    10030    2    1    2    0    0  0.00000000000E+00  0.00000000000E+00  0.74953460348E+03  0.96022542660E+03  0.60019225925E+03 0.  0.
        1    1    3    3  502    0  0.28743805968E+02 -0.19733256226E+02 -0.10209409755E+03  0.10788332848E+03  0.50400001928E-02 0. -1.
       -1    1    3    3    0  502 -0.28743805968E+02  0.19733256226E+02  0.85162870103E+03  0.85234209812E+03  0.50400001928E-02 0.  1.
</event>
<event>
 5   0  0.2421210E-03  0.5994700E+03  0.7818609E-02  0.9906506E-01
        2   -1    0    0  501    0  0.00000000000E+00  0.00000000000E+00  0.33581225944E+03  0.33581225945E+03  0.25500000920E-02 0.  1.
       -2   -1    0    0    0  501  0.00000000000E+00  0.00000000000E+00 -0.26753361817E+03  0.26753361819E+03  0.25500000920E-02 0. -1.
    10030    2    1    2    0    0  0.00000000000E+00  0.00000000000E+00  0.68278641264E+02  0.60334587763E+03  0.59946999525E+03 0.  0.
        1    1    3    3  502    0 -0.21750632151E+03  0.10778524619E+02  0.24142209027E+03  0.32513043872E+03  0.50400001928E-02 0.  1.
       -1    1    3    3    0  502  0.21750632151E+03 -0.10778524619E+02 -0.17314344900E+03  0.27821543891E+03  0.50400001928E-02 0. -1.
</event>
<event>
 5   0  0.1416315E-03  0.6002739E+03  0.7818609E-02  0.9904838E-01
       -1   -1    0    0    0  501  0.00000000000E+00  0.00000000000E+00  0.26451087512E+03  0.26451087517E+03  0.50400001928E-02 0.  1.
        1   -1    0    0  501    0  0.00000000000E+00  0.00000000000E+00 -0.34056142757E+03  0.34056142761E+03  0.50400001928E-02 0. -1.
    10030    2    1    2    0    0  0.00000000000E+00  0.00000000000E+00 -0.76050552456E+02  0.60507230278E+03  0.60027394168E+03 0.  0.
        2    1    3    3  502    0  0.22379609599E+03  0.12017612224E+03  0.12311254812E+03  0.28228300064E+03  0.25500000920E-02 0.  1.
       -2    1    3    3    0  502 -0.22379609599E+03 -0.12017612224E+03 -0.19916310057E+03  0.32278930214E+03  0.25500000920E-02 0. -1.
</event>
<event>
 5   0  0.2313168E-03  0.6017006E+03  0.7818609E-02  0.9901884E-01
        2   -1    0    0  501    0  0.00000000000E+00  0.00000000000E+00  0.25967058321E+04  0.25967058321E+04  0.25500000920E-02 0.  1.
       -2   -1    0    0    0  501  0.00000000000E+00  0.00000000000E+00 -0.34856042326E+02  0.34856042420E+02  0.25500000920E-02 0. -1.
    10030    2    1    2    0    0  0.00000000000E+00  0.00000000000E+00  0.25618497898E+04  0.26315618746E+04  0.60170055183E+03 0.  0.
        2    1    3    3  502    0 -0.22451921883E+03 -0.17207950926E+03  0.83296987934E+03  0.87969259235E+03  0.25500000920E-02 0.  1.
       -2    1    3    3    0  502  0.22451921883E+03  0.17207950926E+03  0.17288799105E+04  0.17518692822E+04  0.25500000920E-02 0. -1.
</event>
<event>
 5   0  0.2313168E-03  0.6000412E+03  0.7818609E-02  0.9905320E-01
       -2   -1    0    0    0  501  0.00000000000E+00  0.00000000000E+00  0.42512381738E+03  0.42512381739E+03  0.25500000920E-02 0. -1.
        2   -1    0    0  501    0  0.00000000000E+00  0.00000000000E+00 -0.21173213268E+03  0.21173213270E+03  0.25500000920E-02 0.  1.
    10030    2    1    2    0    0  0.00000000000E+00  0.00000000000E+00  0.21339168470E+03  0.63685595009E+03  0.60004124030E+03 0.  0.
        2    1    3    3  502    0  0.22376514394E+03  0.19580151963E+03  0.64197968199E+02  0.30418818823E+03  0.25500000920E-02 0.  1.
       -2    1    3    3    0  502 -0.22376514394E+03 -0.19580151963E+03  0.14919371650E+03  0.33266776186E+03  0.25500000920E-02 0. -1.
</event>
<event>
 5   0  0.1392854E-03  0.5997992E+03  0.7818609E-02  0.9905823E-01
       -1   -1    0    0    0  501  0.00000000000E+00  0.00000000000E+00  0.18417400222E+03  0.18417400229E+03  0.50400001928E-02 0.  1.
        1   -1    0    0  501    0  0.00000000000E+00  0.00000000000E+00 -0.48834125500E+03  0.48834125503E+03  0.50400001928E-02 0. -1.
    10030    2    1    2    0    0  0.00000000000E+00  0.00000000000E+00 -0.30416725278E+03  0.67251525732E+03  0.59979917777E+03 0.  0.
        4    1    3    3  502    0 -0.18833633304E+03  0.21820704680E+03 -0.59262911655E+02  0.29427639255E+03  0.12699999809E+01 0. -1.
       -4    1    3    3    0  502  0.18833633304E+03 -0.21820704680E+03 -0.24490434113E+03  0.37823886476E+03  0.12699999809E+01 0.  1.
</event>
<event>
 5   0  0.1418763E-03  0.5996191E+03  0.7818609E-02  0.9906197E-01
        1   -1    0    0  501    0  0.00000000000E+00  0.00000000000E+00  0.11245457291E+04  0.11245457292E+04  0.50400001928E-02 0.  1.
       -1   -1    0    0    0  501  0.00000000000E+00  0.00000000000E+00 -0.79930732796E+02  0.79930732955E+02  0.50400001928E-02 0. -1.
    10030    2    1    2    0    0  0.00000000000E+00  0.00000000000E+00  0.10446149963E+04  0.12044764621E+04  0.59961909341E+03 0.  0.
        5    1    3    3  502    0  0.16488762733E+03  0.19042757983E+03  0.84876931980E+03  0.88537113180E+03  0.46999998093E+01 0.  1.
       -5    1    3    3    0  502 -0.16488762733E+03 -0.19042757983E+03  0.19584567655E+03  0.31910533030E+03  0.46999998093E+01 0. -1.
</event>
<event>
 5   0  0.9496750E-04  0.6000102E+03  0.7818609E-02  0.9905385E-01
        4   -1    0    0  501    0  0.00000000000E+00  0.00000000000E+00  0.98663304589E+03  0.98663386326E+03  0.12699999809E+01 0.  1.
       -4   -1    0    0    0  501  0.00000000000E+00  0.00000000000E+00 -0.91217149782E+02  0.91225990344E+02  0.12699999809E+01 0. -1.
    10030    2    1    2    0    0  0.00000000000E+00  0.00000000000E+00  0.89541589610E+03  0.10778598536E+04  0.60001019743E+03 0.  0.
        1    1    3    3  502    0 -0.21543483534E+03  0.13845693407E+03  0.16698265196E+03  0.30572160039E+03  0.50400001928E-02 0. -1.
       -1    1    3    3    0  502  0.21543483534E+03 -0.13845693407E+03  0.72843324415E+03  0.77213825321E+03  0.50400001928E-02 0.  1.
</event>
<event>
 5   0  0.2346281E-03  0.5999597E+03  0.7818609E-02  0.9905490E-01
       -2   -1    0    0    0  501  0.00000000000E+00  0.00000000000E+00  0.68895108406E+03  0.68895108407E+03  0.25500000920E-02 0.  1.
        2   -1    0    0  501    0  0.00000000000E+00  0.00000000000E+00 -0.13061582034E+03  0.13061582037E+03  0.25500000920E-02 0. -1.
    10030    2    1    2    0    0  0.00000000000E+00  0.00000000000E+00  0.55833526372E+03  0.81956690443E+03  0.59995970209E+03 0.  0.
        3    1    3    3  502    0 -0.22828965661E+03  0.16906783825E+03  0.41081699106E+03  0.49947043114E+03  0.10100000352E+00 0.  1.
       -3    1    3    3    0  502  0.22828965661E+03 -0.16906783825E+03  0.14751827266E+03  0.32009647329E+03  0.10100000352E+00 0. -1.
</event>
<event>
 5   0  0.9496750E-04  0.6000207E+03  0.7818609E-02  0.9905363E-01
       -4   -1    0    0    0  501  0.00000000000E+00  0.00000000000E+00  0.11555299358E+03  0.11555997241E+03  0.12699999809E+01 0. -1.
        4   -1    0    0  501    0  0.00000000000E+00  0.00000000000E+00 -0.77888620184E+03  0.77888723723E+03  0.12699999809E+01 0.  1.
    10030    2    1    2    0    0  0.00000000000E+00  0.00000000000E+00 -0.66333320826E+03  0.89444720964E+03  0.60002072102E+03 0.  0.
        5    1    3    3  502    0  0.38951600442E+00 -0.10736673440E+03  0.85877677147E+02  0.13756755726E+03  0.46999998093E+01 0. -1.
       -5    1    3    3    0  502 -0.38951600442E+00  0.10736673440E+03 -0.74921088541E+03  0.75687965238E+03  0.46999998093E+01 0.  1.
</event>
<event>
 5   0  0.1423430E-03  0.5999418E+03  0.7818609E-02  0.9905527E-01
        1   -1    0    0  501    0  0.00000000000E+00  0.00000000000E+00  0.24701030718E+03  0.24701030723E+03  0.50400001928E-02 0.  1.
       -1   -1    0    0    0  501  0.00000000000E+00  0.00000000000E+00 -0.36428662971E+03  0.36428662974E+03  0.50400001928E-02 0. -1.
    10030    2    1    2    0    0  0.00000000000E+00  0.00000000000E+00 -0.11727632253E+03  0.61129693697E+03  0.59994183829E+03 0.  0.
        1    1    3    3  502    0 -0.29571723723E+03 -0.43293004478E+02 -0.32469710024E+02  0.30062809370E+03  0.50400001928E-02 0.  1.
       -1    1    3    3    0  502  0.29571723723E+03  0.43293004478E+02 -0.84806612502E+02  0.31066884327E+03  0.50400001928E-02 0. -1.
</event>
<event>
 5   0  0.2421210E-03  0.6003333E+03  0.7818609E-02  0.9904715E-01
        2   -1    0    0  501    0  0.00000000000E+00  0.00000000000E+00  0.15391935120E+03  0.15391935123E+03  0.25500000920E-02 0.  1.
       -2   -1    0    0    0  501  0.00000000000E+00  0.00000000000E+00 -0.58537165121E+03  0.58537165122E+03  0.25500000920E-02 0. -1.
    10030    2    1    2    0    0  0.00000000000E+00  0.00000000000E+00 -0.43145230001E+03  0.73929100245E+03  0.60033332334E+03 0.  0.
        1    1    3    3  502    0  0.19849983920E+03  0.19914951957E+03 -0.34510239434E+03  0.44514983984E+03  0.50400001928E-02 0.  1.
       -1    1    3    3    0  502 -0.19849983920E+03 -0.19914951957E+03 -0.86349905674E+02  0.29414116261E+03  0.50400001928E-02 0. -1.
</event>
<event>
 5   0  0.1418763E-03  0.5998442E+03  0.7818609E-02  0.9905729E-01
        1   -1    0    0  501    0  0.00000000000E+00  0.00000000000E+00  0.84045095161E+03  0.84045095162E+03  0.50400001928E-02 0.  1.
       -1   -1    0    0    0  501  0.00000000000E+00  0.00000000000E+00 -0.10702974739E+03  0.10702974750E+03  0.50400001928E-02 0. -1.
    10030    2    1    2    0    0  0.00000000000E+00  0.00000000000E+00  0.73342120422E+03  0.94748069913E+03  0.59984415677E+03 0.  0.
        5    1    3    3  502    0  0.56282545330E+02  0.26093348720E+03  0.15084309178E+03  0.30664268781E+03  0.46999998093E+01 0. -1.
       -5    1    3    3    0  502 -0.56282545330E+02 -0.26093348720E+03  0.58257811244E+03  0.64083801132E+03  0.46999998093E+01 0.  1.
</event>
<event>
 5   0  0.1418763E-03  0.6001424E+03  0.7818609E-02  0.9905111E-01
        1   -1    0    0  501    0  0.00000000000E+00  0.00000000000E+00  0.32512970696E+03  0.32512970700E+03  0.50400001928E-02 0. -1.
       -1   -1    0    0    0  501  0.00000000000E+00  0.00000000000E+00 -0.27694398647E+03  0.27694398652E+03  0.50400001928E-02 0.  1.
    10030    2    1    2    0    0  0.00000000000E+00  0.00000000000E+00  0.48185720489E+02  0.60207369352E+03  0.60014237375E+03 0.  0.
        5    1    3    3  502    0  0.66140290768E+02  0.28830347557E+03 -0.26340133171E+02  0.29700054664E+03  0.46999998093E+01 0. -1.
       -5    1    3    3    0  502 -0.66140290768E+02 -0.28830347557E+03  0.74525853660E+02  0.30507314688E+03  0.46999998093E+01 0.  1.
</event>
<event>
 5   0  0.2313168E-03  0.5998113E+03  0.7818609E-02  0.9905798E-01
        2   -1    0    0  501    0  0.00000000000E+00  0.00000000000E+00  0.72493738650E+03  0.72493738650E+03  0.25500000920E-02 0.  1.
       -2   -1    0    0    0  501  0.00000000000E+00  0.00000000000E+00 -0.12407055794E+03  0.12407055796E+03  0.25500000920E-02 0. -1.
    10030    2    1    2    0    0  0.00000000000E+00  0.00000000000E+00  0.60086682856E+03  0.84900794447E+03  0.59981125706E+03 0.  0.
        2    1    3    3  502    0 -0.25368333812E+03  0.68208428994E+02  0.95627964210E+02  0.27955738833E+03  0.25500000920E-02 0. -1.
       -2    1    3    3    0  502  0.25368333812E+03 -0.68208428994E+02  0.50523886435E+03  0.56945055614E+03  0.25500000920E-02 0.  1.
</event>
<event>
 5   0  0.2313168E-03  0.5999333E+03  0.7818609E-02  0.9905544E-01
        2   -1    0    0  501    0  0.00000000000E+00  0.00000000000E+00  0.10814456488E+04  0.10814456488E+04  0.25500000920E-02 0.  1.
       -2   -1    0    0    0  501  0.00000000000E+00  0.00000000000E+00 -0.83203437283E+02  0.83203437322E+02  0.25500000920E-02 0. -1.
    10030    2    1    2    0    0  0.00000000000E+00  0.00000000000E+00  0.99824221152E+03  0.11646490861E+04  0.59993331376E+03 0.  0.
        2    1    3    3  502    0  0.14376613707E+02 -0.18159865057E+03  0.96176632080E+03  0.97886628951E+03  0.25500000920E-02 0.  1.
       -2    1    3    3    0  502 -0.14376613707E+02  0.18159865057E+03  0.36475890723E+02  0.18578279662E+03  0.25500000920E-02 0. -1.
</event>
<event>
 5   0  0.1423430E-03  0.6003366E+03  0.7818609E-02  0.9904708E-01
        1   -1    0    0  501    0  0.00000000000E+00  0.00000000000E+00  0.69439717256E+03  0.69439717257E+03  0.50400001928E-02 0. -1.
       -1   -1    0    0    0  501  0.00000000000E+00  0.00000000000E+00 -0.12975426571E+03  0.12975426581E+03  0.50400001928E-02 0.  1.
    10030    2    1    2    0    0  0.00000000000E+00  0.00000000000E+00  0.56464290684E+03  0.82415143839E+03  0.60033655656E+03 0.  0.
        1    1    3    3  502    0  0.19316690848E+03 -0.95880517488E+02 -0.43126873777E+01  0.21569684157E+03  0.50400001928E-02 0.  1.
       -1    1    3    3    0  502 -0.19316690848E+03  0.95880517488E+02  0.56895559422E+03  0.60845459681E+03  0.50400001928E-02 0. -1.
</event>
<event>
 5   0  0.2406307E-03  0.5999575E+03  0.7818609E-02  0.9905494E-01
        2   -1    0    0  501    0  0.00000000000E+00  0.00000000000E+00  0.96089880686E+03  0.96089880687E+03  0.25500000920E-02 0. -1.
       -2   -1    0    0    0  501  0.00000000000E+00  0.00000000000E+00 -0.93649029790E+02  0.93649029825E+02  0.25500000920E-02 0.  1.
    10030    2    1    2    0    0  0.00000000000E+00  0.00000000000E+00  0.86724977707E+03  0.10545478367E+04  0.59995746852E+03 0.  0.
        5    1    3    3  502    0 -0.70072949832E+02  0.17130351314E+03  0.84849538662E+03  0.86845933873E+03  0.46999998093E+01 0. -1.
       -5    1    3    3    0  502  0.70072949832E+02 -0.17130351314E+03  0.18754390452E+02  0.18608849796E+03  0.46999998093E+01 0.  1.
</event>
<event>
 5   0  0.1392854E-03  0.6000692E+03  0.7818609E-02  0.9905263E-01
        1   -1    0    0  501    0  0.00000000000E+00  0.00000000000E+00  0.45893048112E+03  0.45893048115E+03  0.50400001928E-02 0.  1.
       -1   -1    0    0    0  501  0.00000000000E+00  0.00000000000E+00 -0.19615335017E+03  0.19615335023E+03  0.50400001928E-02 0. -1.
    10030    2    1    2    0    0  0.00000000000E+00  0.00000000000E+00  0.26277713095E+03  0.65508383138E+03  0.60006916734E+03 0.  0.
        4    1    3    3  502    0 -0.59702244723E+02 -0.27497680939E+03  0.24506252290E+03  0.37314053218E+03  0.12699999809E+01 0. -1.
       -4    1    3    3    0  502  0.59702244723E+02  0.27497680939E+03  0.17714608052E+02  0.28194329920E+03  0.12699999809E+01 0.  1.
</event>
<event>
 5   0  0.2313168E-03  0.5999860E+03  0.7818609E-02  0.9905435E-01
        2   -1    0    0  501    0  0.00000000000E+00  0.00000000000E+00  0.68549326572E+03  0.68549326572E+03  0.25500000920E-02 0.  1.
       -2   -1    0    0    0  501  0.00000000000E+00  0.00000000000E+00 -0.13128620887E+03  0.13128620889E+03  0.25500000920E-02 0. -1.
    10030    2    1    2    0    0  0.00000000000E+00  0.00000000000E+00  0.55420705685E+03  0.81677947461E+03  0.59998604007E+03 0.  0.
        2    1    3    3  502    0  0.14569550737E+03  0.22400214806E+02 -0.78584000746E+02  0.16704608846E+03  0.25500000920E-02 0. -1.
       -2    1    3    3    0  502 -0.14569550737E+03 -0.22400214806E+02  0.63279105760E+03  0.64973338615E+03  0.25500000920E-02 0.  1.
</event>
<event>
 5   0  0.1479385E-03  0.6001574E+03  0.7818609E-02  0.9905080E-01
       -1   -1    0    0    0  501  0.00000000000E+00  0.00000000000E+00  0.89751096385E+02  0.89751096527E+02  0.50400001928E-02 0.  1.
        1   -1    0    0  501    0  0.00000000000E+00  0.00000000000E+00 -0.10032994438E+04  0.10032994438E+04  0.50400001928E-02 0. -1.
    10030    2    1    2    0    0  0.00000000000E+00  0.00000000000E+00 -0.91354834745E+03  0.10930505404E+04  0.60015739659E+03 0.  0.
        3    1    3    3  502    0 -0.11255965778E+03  0.21673959890E+03 -0.13921659860E+03  0.28111741643E+03  0.10100000352E+00 0.  1.
       -3    1    3    3    0  502  0.11255965778E+03 -0.21673959890E+03 -0.77433174885E+03  0.81193312395E+03  0.10100000352E+00 0. -1.
</event>
<event>
 5   0  0.1418763E-03  0.5998477E+03  0.7818609E-02  0.9905722E-01
       -1   -1    0    0    0  501  0.00000000000E+00  0.00000000000E+00  0.30353317171E+03  0.30353317175E+03  0.50400001928E-02 0.  1.
        1   -1    0    0  501    0  0.00000000000E+00  0.00000000000E+00 -0.29635743309E+03  0.29635743313E+03  0.50400001928E-02 0. -1.
    10030    2    1    2    0    0  0.00000000000E+00  0.00000000000E+00  0.71757386201E+01  0.59989060488E+03  0.59984768616E+03 0.  0.
        5    1    3    3  502    0 -0.15635264568E+03 -0.83861158366E+02  0.24537650192E+03  0.30283751648E+03  0.46999998093E+01 0.  1.
       -5    1    3    3    0  502  0.15635264568E+03  0.83861158366E+02 -0.23820076330E+03  0.29705308840E+03  0.46999998093E+01 0. -1.
</event>
<event>
 5   0  0.9496750E-04  0.6000267E+03  0.7818609E-02  0.9905351E-01
        4   -1    0    0  501    0  0.00000000000E+00  0.00000000000E+00  0.16514115696E+03  0.16514604028E+03  0.12699999809E+01 0.  1.
       -4   -1    0    0    0  501  0.00000000000E+00  0.00000000000E+00 -0.54502314396E+03  0.54502462362E+03  0.12699999809E+01 0. -1.
    10030    2    1    2    0    0  0.00000000000E+00  0.00000000000E+00 -0.37988198701E+03  0.71017066391E+03  0.60002670593E+03 0.  0.
        5    1    3    3  502    0  0.10592635062E+03  0.17632413748E+03 -0.44836865407E+03  0.49332254476E+03  0.46999998093E+01 0. -1.
       -5    1    3    3    0  502 -0.10592635062E+03 -0.17632413748E+03  0.68486667066E+02  0.21684811915E+03  0.46999998093E+01 0.  1.
</event>
<event>
 5   0  0.1418763E-03  0.6000190E+03  0.7818609E-02  0.9905367E-01
       -1   -1    0    0    0  501  0.00000000000E+00  0.00000000000E+00  0.26723954769E+03  0.26723954774E+03  0.50400001928E-02 0. -1.
        1   -1    0    0  501    0  0.00000000000E+00  0.00000000000E+00 -0.33679788701E+03  0.33679788705E+03  0.50400001928E-02 0.  1.
    10030    2    1    2    0    0  0.00000000000E+00  0.00000000000E+00 -0.69558339316E+02  0.60403743479E+03  0.60001904974E+03 0.  0.
        5    1    3    3  502    0 -0.23427916914E+03  0.14794198957E+03  0.80925602287E+02  0.28869465613E+03  0.46999998093E+01 0. -1.
       -5    1    3    3    0  502  0.23427916914E+03 -0.14794198957E+03 -0.15048394160E+03  0.31534277866E+03  0.46999998093E+01 0.  1.
</event>
<event>
 5   0  0.2313168E-03  0.5997008E+03  0.7818609E-02  0.9906027E-01
       -2   -1    0    0    0  501  0.00000000000E+00  0.00000000000E+00  0.35777682401E+02  0.35777682492E+02  0.25500000920E-02 0.  1.
        2   -1    0    0  501    0  0.00000000000E+00  0.00000000000E+00 -0.25130266692E+04  0.25130266692E+04  0.25500000920E-02 0. -1.
    10030    2    1    2    0    0  0.00000000000E+00  0.00000000000E+00 -0.24772489868E+04  0.25488043517E+04  0.59970082593E+03 0.  0.
        2    1    3    3  502    0  0.14740328485E+03 -0.22701720310E+03 -0.69028024513E+03  0.74145219381E+03  0.25500000920E-02 0.  1.
       -2    1    3    3    0  502 -0.14740328485E+03  0.22701720310E+03 -0.17869687417E+04  0.18073521579E+04  0.25500000920E-02 0. -1.
</event>
<event>
 5   0  0.2313168E-03  0.5999509E+03  0.7818609E-02  0.9905508E-01
        2   -1    0    0  501    0  0.00000000000E+00  0.00000000000E+00  0.24139875534E+03  0.24139875536E+03  0.25500000920E-02 0. -1.
       -2   -1    0    0    0  501  0.00000000000E+00  0.00000000000E+00 -0.37276615139E+03  0.37276615140E+03  0.25500000920E-02 0.  1.
    10030    2    1    2    0    0  0.00000000000E+00  0.00000000000E+00 -0.13136739605E+03  0.61416490676E+03  0.59995094795E+03 0.  0.
        2    1    3    3  502    0 -0.14175741144E+03 -0.17088270989E+03 -0.27217841249E+03  0.35125083981E+03  0.25500000920E-02 0. -1.
       -2    1    3    3    0  502  0.14175741144E+03  0.17088270989E+03  0.14081101644E+03  0.26291406694E+03  0.25500000920E-02 0.  1.
</event>
<event>
 5   0  0.1416315E-03  0.6000737E+03  0.7818609E-02  0.9905253E-01
        1   -1    0    0  501    0  0.00000000000E+00  0.00000000000E+00  0.15833917053E+03  0.15833917061E+03  0.50400001928E-02 0. -1.
       -1   -1    0    0    0  501  0.00000000000E+00  0.00000000000E+00 -0.56853968566E+03  0.56853968569E+03  0.50400001928E-02 0.  1.
    10030    2    1    2    0    0  0.00000000000E+00  0.00000000000E+00 -0.41020051513E+03  0.72687885630E+03  0.60007366974E+03 0.  0.
        2    1    3    3  502    0  0.71485664051E+02  0.25716454983E+01 -0.55805972602E+03  0.56262551607E+03  0.25500000920E-02 0.  1.
       -2    1    3    3    0  502 -0.71485664051E+02 -0.25716454983E+01  0.14785921088E+03  0.16425334023E+03  0.25500000920E-02 0. -1.
</event>
<event>
 5   0  0.2324616E-03  0.6006519E+03  0.7818609E-02  0.9904054E-01
        2   -1    0    0  501    0  0.00000000000E+00  0.00000000000E+00  0.11333375710E+04  0.11333375710E+04  0.25500000920E-02 0. -1.
       -2   -1    0    0    0  501  0.00000000000E+00  0.00000000000E+00 -0.79584133148E+02  0.79584133189E+02  0.25500000920E-02 0.  1.
    10030    2    1    2    0    0  0.00000000000E+00  0.00000000000E+00  0.10537534379E+04  0.12129217042E+04  0.60065193975E+03 0.  0.
        4    1    3    3  502    0 -0.28023964574E+03  0.41939815941E+02  0.32594591568E+03  0.43189762682E+03  0.12699999809E+01 0.  1.
       -4    1    3    3    0  502  0.28023964574E+03 -0.41939815941E+02  0.72780752221E+03  0.78102407740E+03  0.12699999809E+01 0. -1.
</event>
<event>
 5   0  0.1418763E-03  0.5993326E+03  0.7818609E-02  0.9906792E-01
       -1   -1    0    0    0  501  0.00000000000E+00  0.00000000000E+00  0.20286841132E+03  0.20286841139E+03  0.50400001928E-02 0. -1.
        1   -1    0    0  501    0  0.00000000000E+00  0.00000000000E+00 -0.44265097698E+03  0.44265097701E+03  0.50400001928E-02 0.  1.
    10030    2    1    2    0    0  0.00000000000E+00  0.00000000000E+00 -0.23978256566E+03  0.64551938840E+03  0.59933263052E+03 0.  0.
        5    1    3    3  502    0  0.41583279305E+02  0.35675447926E+02  0.19738743399E+03  0.20490435768E+03  0.46999998093E+01 0. -1.
       -5    1    3    3    0  502 -0.41583279305E+02 -0.35675447926E+02 -0.43716999965E+03  0.44061503072E+03  0.46999998093E+01 0.  1.
</event>
<event>
 5   0  0.1418763E-03  0.6007244E+03  0.7818609E-02  0.9903904E-01
       -1   -1    0    0    0  501  0.00000000000E+00  0.00000000000E+00  0.12341717066E+03  0.12341717076E+03  0.50400001928E-02 0.  1.
        1   -1    0    0  501    0  0.00000000000E+00  0.00000000000E+00 -0.73099595026E+03  0.73099595028E+03  0.50400001928E-02 0. -1.
    10030    2    1    2    0    0  0.00000000000E+00  0.00000000000E+00 -0.60757877960E+03  0.85441312104E+03  0.60072440269E+03 0.  0.
        5    1    3    3  502    0 -0.27394120580E+03  0.93196977151E+02 -0.41815808524E+03  0.50853489068E+03  0.46999998093E+01 0. -1.
       -5    1    3    3    0  502  0.27394120580E+03 -0.93196977151E+02 -0.18942069436E+03  0.34587823036E+03  0.46999998093E+01 0.  1.
</event>
<event>
 5   0  0.1479385E-03  0.5998975E+03  0.7818609E-02  0.9905619E-01
       -1   -1    0    0    0  501  0.00000000000E+00  0.00000000000E+00  0.22395937797E+03  0.22395937802E+03  0.50400001928E-02 0.  1.
        1   -1    0    0  501    0  0.00000000000E+00  0.00000000000E+00 -0.40172125092E+03  0.40172125095E+03  0.50400001928E-02 0. -1.
    10030    2    1    2    0    0  0.00000000000E+00  0.00000000000E+00 -0.17776187295E+03  0.62568062897E+03  0.59989746290E+03 0.  0.
        3    1    3    3  502    0  0.51522710938E+02 -0.26807530205E+03 -0.21852235577E+03  0.34967268621E+03  0.10100000352E+00 0. -1.
       -3    1    3    3    0  502 -0.51522710938E+02  0.26807530205E+03  0.40760482815E+02  0.27600794277E+03  0.10100000352E+00 0.  1.
</event>
<event>
 5   0  0.2313168E-03  0.5999662E+03  0.7818609E-02  0.9905476E-01
        2   -1    0    0  501    0  0.00000000000E+00  0.00000000000E+00  0.21080296324E+03  0.21080296325E+03  0.25500000920E-02 0. -1.
       -2   -1    0    0    0  501  0.00000000000E+00  0.00000000000E+00 -0.42689088942E+03  0.42689088943E+03  0.25500000920E-02 0.  1.
    10030    2    1    2    0    0  0.00000000000E+00  0.00000000000E+00 -0.21608792619E+03  0.63769385268E+03  0.59996621397E+03 0.  0.
        2    1    3    3  502    0  0.69808209362E+02  0.87510830751E+02 -0.40385887943E+03  0.41908629910E+03  0.25500000920E-02 0.  1.
       -2    1    3    3    0  502 -0.69808209362E+02 -0.87510830751E+02  0.18777095324E+03  0.21860755358E+03  0.25500000920E-02 0. -1.
</event>
<event>
 5   0  0.1392854E-03  0.6004181E+03  0.7818609E-02  0.9904539E-01
        1   -1    0    0  501    0  0.00000000000E+00  0.00000000000E+00  0.12075844581E+03  0.12075844592E+03  0.50400001928E-02 0.  1.
       -1   -1    0    0    0  501  0.00000000000E+00  0.00000000000E+00 -0.74632862547E+03  0.74632862549E+03  0.50400001928E-02 0. -1.
    10030    2    1    2    0    0  0.00000000000E+00  0.00000000000E+00 -0.62557017966E+03  0.86708707141E+03  0.60041813741E+03 0.  0.
        4    1    3    3  502    0 -0.27933331338E+03 -0.77449204155E+02 -0.20000911070E+03  0.35217997736E+03  0.12699999809E+01 0.  1.
       -4    1    3    3    0  502  0.27933331338E+03  0.77449204155E+02 -0.42556106896E+03  0.51490709405E+03  0.12699999809E+01 0. -1.
</event>
<event>
 5   0  0.2313168E-03  0.5998670E+03  0.7818609E-02  0.9905682E-01
       -2   -1    0    0    0  501  0.00000000000E+00  0.00000000000E+00  0.55213024934E+03  0.55213024935E+03  0.25500000920E-02 0. -1.
        2   -1    0    0  501    0  0.00000000000E+00  0.00000000000E+00 -0.16293276486E+03  0.16293276487E+03  0.25500000920E-02 0.  1.
    10030    2    1    2    0    0  0.00000000000E+00  0.00000000000E+00  0.38919748449E+03  0.71506301422E+03  0.59986701224E+03 0.  0.
        2    1    3    3  502    0  0.14688177875E+03 -0.14142131453E+03  0.45680833791E+03  0.50024804119E+03  0.25500000920E-02 0. -1.
       -2    1    3    3    0  502 -0.14688177875E+03  0.14142131453E+03 -0.67610853417E+02  0.21481497303E+03  0.25500000920E-02 0.  1.
</event>
<event>
 5   0  0.2313168E-03  0.6001935E+03  0.7818609E-02  0.9905005E-01
       -2   -1    0    0    0  501  0.00000000000E+00  0.00000000000E+00  0.55135651764E+02  0.55135651823E+02  0.25500000920E-02 0. -1.
        2   -1    0    0  501    0  0.00000000000E+00  0.00000000000E+00 -0.16333907946E+04  0.16333907946E+04  0.25500000920E-02 0.  1.
    10030    2    1    2    0    0  0.00000000000E+00  0.00000000000E+00 -0.15782551428E+04  0.16885264464E+04  0.60019352244E+03 0.  0.
        2    1    3    3  502    0 -0.44913958826E+02  0.28123624335E+03 -0.10552336183E+04  0.10929908863E+04  0.25500000920E-02 0.  1.
       -2    1    3    3    0  502  0.44913958826E+02 -0.28123624335E+03 -0.52302152449E+03  0.59553556012E+03  0.25500000920E-02 0. -1.
</event>
<event>
 5   0  0.1479385E-03  0.5998421E+03  0.7818609E-02  0.9905734E-01
       -1   -1    0    0    0  501  0.00000000000E+00  0.00000000000E+00  0.11357119630E+03  0.11357119641E+03  0.50400001928E-02 0. -1.
        1   -1    0    0  501    0  0.00000000000E+00  0.00000000000E+00 -0.79203750809E+03  0.79203750811E+03  0.50400001928E-02 0.  1.
    10030    2    1    2    0    0  0.00000000000E+00  0.00000000000E+00 -0.67846631179E+03  0.90560870452E+03  0.59984213713E+03 0.  0.
        3    1    3    3  502    0 -0.50699058942E+02  0.17941762772E+03 -0.69391580426E+03  0.71852643189E+03  0.10100000352E+00 0.  1.
       -3    1    3    3    0  502  0.50699058942E+02 -0.17941762772E+03  0.15449492471E+02  0.18708227264E+03  0.10100000352E+00 0. -1.
</event>
<event>
 5   0  0.1423430E-03  0.6000537E+03  0.7818609E-02  0.9905295E-01
        1   -1    0    0  501    0  0.00000000000E+00  0.00000000000E+00  0.11929519610E+04  0.11929519610E+04  0.50400001928E-02 0.  1.
       -1   -1    0    0    0  501  0.00000000000E+00  0.00000000000E+00 -0.75456609318E+02  0.75456609486E+02  0.50400001928E-02 0. -1.
    10030    2    1    2    0    0  0.00000000000E+00  0.00000000000E+00  0.11174953517E+04  0.12684085705E+04  0.60005369817E+03 0.  0.
        1    1    3    3  502    0  0.37020409774E+02  0.21550884911E+03  0.99299102645E+03  0.10167820580E+04  0.50400001928E-02 0.  1.
       -1    1    3    3    0  502 -0.37020409774E+02 -0.21550884911E+03  0.12450432527E+03  0.25162651256E+03  0.50400001928E-02 0. -1.
</event>
<event>
 5   0  0.1479385E-03  0.5999854E+03  0.7818609E-02  0.9905436E-01
       -1   -1    0    0    0  501  0.00000000000E+00  0.00000000000E+00  0.60980858234E+03  0.60980858236E+03  0.50400001928E-02 0.  1.
        1   -1    0    0  501    0  0.00000000000E+00  0.00000000000E+00 -0.14758009986E+03  0.14758009994E+03  0.50400001928E-02 0. -1.
    10030    2    1    2    0    0  0.00000000000E+00  0.00000000000E+00  0.46222848248E+03  0.75738868230E+03  0.59998537154E+03 0.  0.
        3    1    3    3  502    0 -0.16039139155E+03  0.22389804372E+03  0.81007277662E+02  0.28708521679E+03  0.10100000352E+00 0. -1.
       -3    1    3    3    0  502  0.16039139155E+03 -0.22389804372E+03  0.38122120482E+03  0.47030346551E+03  0.10100000352E+00 0.  1.
</event>
<event>
 5   0  0.1418763E-03  0.6009541E+03  0.7818609E-02  0.9903429E-01
       -1   -1    0    0    0  501  0.00000000000E+00  0.00000000000E+00  0.24244113157E+03  0.24244113162E+03  0.50400001928E-02 0.  1.
        1   -1    0    0  501    0  0.00000000000E+00  0.00000000000E+00 -0.37240570028E+03  0.37240570031E+03  0.50400001928E-02 0. -1.
    10030    2    1    2    0    0  0.00000000000E+00  0.00000000000E+00 -0.12996456871E+03  0.61484683193E+03  0.60095410608E+03 0.  0.
        5    1    3    3  502    0 -0.21601534643E+03  0.19602189988E+03 -0.13859810984E+03  0.32298411907E+03  0.46999998093E+01 0.  1.
       -5    1    3    3    0  502  0.21601534643E+03 -0.19602189988E+03  0.86335411219E+01  0.29186271286E+03  0.46999998093E+01 0. -1.
</event>
<event>
 5   0  0.1392854E-03  0.6001321E+03  0.7818609E-02  0.9905132E-01
        1   -1    0    0  501    0  0.00000000000E+00  0.00000000000E+00  0.88047555545E+03  0.88047555546E+03  0.50400001928E-02 0. -1.
       -1   -1    0    0    0  501  0.00000000000E+00  0.00000000000E+00 -0.10226251562E+03  0.10226251574E+03  0.50400001928E-02 0.  1.
    10030    2    1    2    0    0  0.00000000000E+00  0.00000000000E+00  0.77821303983E+03  0.98273807121E+03  0.60013213648E+03 0.  0.
        4    1    3    3  502    0 -0.13161596207E+03  0.12944891874E+03  0.77647381702E+03  0.79811840315E+03  0.12699999809E+01 0. -1.
       -4    1    3    3    0  502  0.13161596207E+03 -0.12944891874E+03  0.17392228091E+01  0.18461966805E+03  0.12699999809E+01 0.  1.
</event>
<event>
 5   0  0.1392854E-03  0.6006683E+03  0.7818609E-02  0.9904020E-01
       -1   -1    0    0    0  501  0.00000000000E+00  0.00000000000E+00  0.37346621103E+03  0.37346621106E+03  0.50400001928E-02 0. -1.
        1   -1    0    0  501    0  0.00000000000E+00  0.00000000000E+00 -0.24152281671E+03  0.24152281677E+03  0.50400001928E-02 0.  1.
    10030    2    1    2    0    0  0.00000000000E+00  0.00000000000E+00  0.13194339431E+03  0.61498902783E+03  0.60066833198E+03 0.  0.
        4    1    3    3  502    0  0.11855486990E+03  0.14747595327E+03  0.30475857817E+03  0.35872526792E+03  0.12699999809E+01 0. -1.
       -4    1    3    3    0  502 -0.11855486990E+03 -0.14747595327E+03 -0.17281518386E+03  0.25626375991E+03  0.12699999809E+01 0.  1.
</event>
<event>
 5   0  0.2421210E-03  0.5999870E+03  0.7818609E-02  0.9905433E-01
       -2   -1    0    0    0  501  0.00000000000E+00  0.00000000000E+00  0.81881661348E+02  0.81881661388E+02  0.25500000920E-02 0.  1.
        2   -1    0    0  501    0  0.00000000000E+00  0.00000000000E+00 -0.10990994579E+04  0.10990994579E+04  0.25500000920E-02 0. -1.
    10030    2    1    2    0    0  0.00000000000E+00  0.00000000000E+00 -0.10172177965E+04  0.11809811193E+04  0.59998696527E+03 0.  0.
        1    1    3    3  502    0  0.14971716418E+03 -0.60827534164E+02 -0.11116378636E+02  0.16198392532E+03  0.50400001928E-02 0.  1.
       -1    1    3    3    0  502 -0.14971716418E+03  0.60827534164E+02 -0.10061014179E+04  0.10189971939E+04  0.50400001928E-02 0. -1.
</event>
<event>
 5   0  0.2346281E-03  0.6000261E+03  0.7818609E-02  0.9905352E-01
       -2   -1    0    0    0  501  0.00000000000E+00  0.00000000000E+00  0.10721130596E+03  0.10721130599E+03  0.25500000920E-02 0. -1.
        2   -1    0    0  501    0  0.00000000000E+00  0.00000000000E+00 -0.83953683635E+03  0.83953683635E+03  0.25500000920E-02 0.  1.
    10030    2    1    2    0    0  0.00000000000E+00  0.00000000000E+00 -0.73232553038E+03  0.94674814234E+03  0.60002613491E+03 0.  0.
        3    1    3    3  502    0 -0.18595277604E+03 -0.37055524735E+02 -0.73301180514E+03  0.75713794219E+03  0.10100000352E+00 0.  1.
       -3    1    3    3    0  502  0.18595277604E+03  0.37055524735E+02  0.68627475117E+00  0.18961020016E+03  0.10100000352E+00 0. -1.
</event>
<event>
 5   0  0.1418763E-03  0.5999510E+03  0.7818609E-02  0.9905508E-01
       -1   -1    0    0    0  501  0.00000000000E+00  0.00000000000E+00  0.10299201761E+03  0.10299201773E+03  0.50400001928E-02 0. -1.
        1   -1    0    0  501    0  0.00000000000E+00  0.00000000000E+00 -0.87371138200E+03  0.87371138201E+03  0.50400001928E-02 0.  1.
    10030    2    1    2    0    0  0.00000000000E+00  0.00000000000E+00 -0.77071936439E+03  0.97670339974E+03  0.59995099169E+03 0.  0.
        5    1    3    3  502    0  0.73937175798E+02  0.37635802102E+02  0.83880608006E+02  0.11807288411E+03  0.46999998093E+01 0. -1.
       -5    1    3    3    0  502 -0.73937175798E+02 -0.37635802102E+02 -0.85459997239E+03  0.85863051563E+03  0.46999998093E+01 0.  1.
</event>
<event>
 5   0  0.2313168E-03  0.5999629E+03  0.7818609E-02  0.9905483E-01
        2   -1    0    0  501    0  0.00000000000E+00  0.00000000000E+00  0.14509174036E+04  0.14509174036E+04  0.25500000920E-02 0. -1.
       -2   -1    0    0    0  501  0.00000000000E+00  0.00000000000E+00 -0.62022051136E+02  0.62022051189E+02  0.25500000920E-02 0.  1.
    10030    2    1    2    0    0  0.00000000000E+00  0.00000000000E+00  0.13888953525E+04  0.15129394548E+04  0.59996291034E+03 0.  0.
        2    1    3    3  502    0  0.54228775565E+02  0.13212892444E+03  0.29219320418E+02  0.14578265146E+03  0.25500000920E-02 0.  1.
       -2    1    3    3    0  502 -0.54228775565E+02 -0.13212892444E+03  0.13596760321E+04  0.13671568034E+04  0.25500000920E-02 0. -1.
</event>
<event>
 5   0  0.2324616E-03  0.6001037E+03  0.7818609E-02  0.9905191E-01
        2   -1    0    0  501    0  0.00000000000E+00  0.00000000000E+00  0.22756429970E+03  0.22756429971E+03  0.25500000920E-02 0. -1.
       -2   -1    0    0    0  501  0.00000000000E+00  0.00000000000E+00 -0.39562934705E+03  0.39562934706E+03  0.25500000920E-02 0.  1.
    10030    2    1    2    0    0  0.00000000000E+00  0.00000000000E+00 -0.16806504735E+03  0.62319364677E+03  0.60010370873E+03 0.  0.
        4    1    3    3  502    0 -0.21806991062E+03 -0.16497543748E+03  0.44244017484E+02  0.27700275607E+03  0.12699999809E+01 0. -1.
       -4    1    3    3    0  502  0.21806991062E+03  0.16497543748E+03 -0.21230906484E+03  0.34619089070E+03  0.12699999809E+01 0.  1.
</event>
<event>
 5   0  0.1392854E-03  0.6000658E+03  0.7818609E-02  0.9905270E-01
        1   -1    0    0  501    0  0.00000000000E+00  0.00000000000E+00  0.35928246162E+03  0.35928246165E+03  0.50400001928E-02 0. -1.
       -1   -1    0    0    0  501  0.00000000000E+00  0.00000000000E+00 -0.25055422634E+03  0.25055422639E+03  0.50400001928E-02 0.  1.
    10030    2    1    2    0    0  0.00000000000E+00  0.00000000000E+00  0.10872823528E+03  0.60983668805E+03  0.60006579384E+03 0.  0.
        4    1    3    3  502    0 -0.11247742788E+02 -0.91152827633E+02  0.34464198141E+03  0.35667219958E+03  0.12699999809E+01 0. -1.
       -4    1    3    3    0  502  0.11247742788E+02  0.91152827633E+02 -0.23591374614E+03  0.25316448846E+03  0.12699999809E+01 0.  1.
</event>
<event>
 5   0  0.2406307E-03  0.6000747E+03  0.7818609E-02  0.9905251E-01
       -2   -1    0    0    0  501  0.00000000000E+00  0.00000000000E+00  0.14010506702E+03  0.14010506704E+03  0.25500000920E-02 0. -1.
        2   -1    0    0  501    0  0.00000000000E+00  0.00000000000E+00 -0.64253509924E+03  0.64253509924E+03  0.25500000920E-02 0.  1.
    10030    2    1    2    0    0  0.00000000000E+00  0.00000000000E+00 -0.50243003222E+03  0.78264016628E+03  0.60007473919E+03 0.  0.
        5    1    3    3  502    0  0.16641169677E+02  0.31215462430E+02 -0.63975750760E+03  0.64075197398E+03  0.46999998093E+01 0.  1.
       -5    1    3    3    0  502 -0.16641169677E+02 -0.31215462430E+02  0.13732747538E+03  0.14188819231E+03  0.46999998093E+01 0. -1.
</event>
<event>
 5   0  0.2421210E-03  0.5967260E+03  0.7818609E-02  0.9912222E-01
        2   -1    0    0  501    0  0.00000000000E+00  0.00000000000E+00  0.93465159472E+03  0.93465159472E+03  0.25500000920E-02 0.  1.
       -2   -1    0    0    0  501  0.00000000000E+00  0.00000000000E+00 -0.95244563209E+02  0.95244563243E+02  0.25500000920E-02 0. -1.
    10030    2    1    2    0    0  0.00000000000E+00  0.00000000000E+00  0.83940703151E+03  0.10298961580E+04  0.59672601053E+03 0.  0.
        1    1    3    3  502    0  0.15830195956E+03  0.14547281720E+03  0.77675711305E+03  0.80596120480E+03  0.50400001928E-02 0.  1.
       -1    1    3    3    0  502 -0.15830195956E+03 -0.14547281720E+03  0.62649918465E+02  0.22393495317E+03  0.50400001928E-02 0. -1.
</event>
<event>
 5   0  0.1392854E-03  0.5997077E+03  0.7818609E-02  0.9906013E-01
       -1   -1    0    0    0  501  0.00000000000E+00  0.00000000000E+00  0.33127396663E+03  0.33127396667E+03  0.50400001928E-02 0. -1.
        1   -1    0    0  501    0  0.00000000000E+00  0.00000000000E+00 -0.27141383027E+03  0.27141383032E+03  0.50400001928E-02 0.  1.
    10030    2    1    2    0    0  0.00000000000E+00  0.00000000000E+00  0.59860136360E+02  0.60268779699E+03  0.59970771608E+03 0.  0.
        4    1    3    3  502    0 -0.20624005008E+03 -0.27345392108E+02  0.24693826084E+03  0.32289757864E+03  0.12699999809E+01 0. -1.
       -4    1    3    3    0  502  0.20624005008E+03  0.27345392108E+02 -0.18707812448E+03  0.27979021835E+03  0.12699999809E+01 0.  1.
</event>
<event>
 5   0  0.9496750E-04  0.6001115E+03  0.7818609E-02  0.9905175E-01
        3   -1    0    0  501    0  0.00000000000E+00  0.00000000000E+00  0.67798200019E+03  0.67798200771E+03  0.10100000352E+00 0.  1.
       -3   -1    0    0    0  501  0.00000000000E+00  0.00000000000E+00 -0.13279622300E+03  0.13279626140E+03  0.10100000352E+00 0. -1.
    10030    2    1    2    0    0  0.00000000000E+00  0.00000000000E+00  0.54518577719E+03  0.81077826911E+03  0.60011154798E+03 0.  0.
        4    1    3    3  502    0 -0.44795595792E+02  0.16219507147E+02 -0.12765007936E+03  0.13625664561E+03  0.12699999809E+01 0. -1.
       -4    1    3    3    0  502  0.44795595792E+02 -0.16219507147E+02  0.67283585655E+03  0.67452162350E+03  0.12699999809E+01 0.  1.
</event>
<event>
 5   0  0.1423430E-03  0.5999400E+03  0.7818609E-02  0.9905531E-01
        1   -1    0    0  501    0  0.00000000000E+00  0.00000000000E+00  0.51678173263E+03  0.51678173265E+03  0.50400001928E-02 0. -1.
       -1   -1    0    0    0  501  0.00000000000E+00  0.00000000000E+00 -0.17411991164E+03  0.17411991172E+03  0.50400001928E-02 0.  1.
    10030    2    1    2    0    0  0.00000000000E+00  0.00000000000E+00  0.34266182098E+03  0.69090164437E+03  0.59993996252E+03 0.  0.
        1    1    3    3  502    0  0.68433085258E+01  0.18906161354E+03  0.43941526956E+03  0.47841081063E+03  0.50400001928E-02 0. -1.
       -1    1    3    3    0  502 -0.68433085258E+01 -0.18906161354E+03 -0.96753448574E+02  0.21249083374E+03  0.50400001928E-02 0.  1.
</event>
<event>
 5   0  0.2324616E-03  0.6002030E+03  0.7818609E-02  0.9904985E-01
       -2   -1    0    0    0  501  0.00000000000E+00  0.00000000000E+00  0.17497718809E+03  0.17497718811E+03  0.25500000920E-02 0. -1.
        2   -1    0    0  501    0  0.00000000000E+00  0.00000000000E+00 -0.51470088211E+03  0.51470088211E+03  0.25500000920E-02 0.  1.
    10030    2    1    2    0    0  0.00000000000E+00  0.00000000000E+00 -0.33972369401E+03  0.68967807022E+03  0.60020300922E+03 0.  0.
        4    1    3    3  502    0 -0.23989885873E+03  0.14408928109E+02 -0.37637655720E+03  0.44656467095E+03  0.12699999809E+01 0.  1.
       -4    1    3    3    0  502  0.23989885873E+03 -0.14408928109E+02  0.36652863187E+02  0.24311339928E+03  0.12699999809E+01 0. -1.
</event>
<event>
 5   0  0.2346281E-03  0.6023615E+03  0.7818609E-02  0.9900519E-01
       -2   -1    0    0    0  501  0.00000000000E+00  0.00000000000E+00  0.59080995567E+02  0.59080995622E+02  0.25500000920E-02 0. -1.
        2   -1    0    0  501    0  0.00000000000E+00  0.00000000000E+00 -0.15353471913E+04  0.15353471913E+04  0.25500000920E-02 0.  1.
    10030    2    1    2    0    0  0.00000000000E+00  0.00000000000E+00 -0.14762661958E+04  0.15944281870E+04  0.60236148832E+03 0.  0.
        3    1    3    3  502    0  0.12790547100E+03  0.26915275826E+03 -0.85371820854E+03  0.90423327000E+03  0.10100000352E+00 0. -1.
       -3    1    3    3    0  502 -0.12790547100E+03 -0.26915275826E+03 -0.62254798724E+03  0.69019491696E+03  0.10100000352E+00 0.  1.
</event>
<event>
 5   0  0.2313168E-03  0.6000142E+03  0.7818609E-02  0.9905377E-01
        2   -1    0    0  501    0  0.00000000000E+00  0.00000000000E+00  0.47894140319E+03  0.47894140320E+03  0.25500000920E-02 0.  1.
       -2   -1    0    0    0  501  0.00000000000E+00  0.00000000000E+00 -0.18792331544E+03  0.18792331545E+03  0.25500000920E-02 0. -1.
    10030    2    1    2    0    0  0.00000000000E+00  0.00000000000E+00  0.29101808776E+03  0.66686471865E+03  0.60001418782E+03 0.  0.
        2    1    3    3  502    0 -0.19737532286E+03 -0.17555887417E+03  0.30357365911E+03  0.40241136029E+03  0.25500000920E-02 0.  1.
       -2    1    3    3    0  502  0.19737532286E+03  0.17555887417E+03 -0.12555571356E+02  0.26445335837E+03  0.25500000920E-02 0. -1.
</event>
<event>
 5   0  0.2313168E-03  0.5999008E+03  0.7818609E-02  0.9905612E-01
       -2   -1    0    0    0  501  0.00000000000E+00  0.00000000000E+00  0.26495977950E+03  0.26495977951E+03  0.25500000920E-02 0. -1.
        2   -1    0    0  501    0  0.00000000000E+00  0.00000000000E+00 -0.33956188867E+03  0.33956188868E+03  0.25500000920E-02 0.  1.
    10030    2    1    2    0    0  0.00000000000E+00  0.00000000000E+00 -0.74602109175E+02  0.60452166819E+03  0.59990080232E+03 0.  0.
        2    1    3    3  502    0  0.23225836307E+03  0.30755698200E+02  0.15143922421E+03  0.27896899259E+03  0.25500000920E-02 0. -1.
       -2    1    3    3    0  502 -0.23225836307E+03 -0.30755698200E+02 -0.22604133338E+03  0.32555267560E+03  0.25500000920E-02 0.  1.
</event>
<event>
 5   0  0.2324616E-03  0.5998267E+03  0.7818609E-02  0.9905766E-01
       -2   -1    0    0    0  501  0.00000000000E+00  0.00000000000E+00  0.91249690519E+02  0.91249690555E+02  0.25500000920E-02 0. -1.
        2   -1    0    0  501    0  0.00000000000E+00  0.00000000000E+00 -0.98573489423E+03  0.98573489424E+03  0.25500000920E-02 0.  1.
    10030    2    1    2    0    0  0.00000000000E+00  0.00000000000E+00 -0.89448520371E+03  0.10769845848E+04  0.59982665514E+03 0.  0.
        4    1    3    3  502    0  0.11479119305E+03  0.24343222144E+03 -0.20965248532E+03  0.34116277924E+03  0.12699999809E+01 0. -1.
       -4    1    3    3    0  502 -0.11479119305E+03 -0.24343222144E+03 -0.68483271839E+03  0.73582180555E+03  0.12699999809E+01 0.  1.
</event>
<event>
 5   0  0.2406307E-03  0.5983487E+03  0.7818609E-02  0.9908838E-01
        2   -1    0    0  501    0  0.00000000000E+00  0.00000000000E+00  0.49760538700E+03  0.49760538701E+03  0.25500000920E-02 0. -1.
       -2   -1    0    0    0  501  0.00000000000E+00  0.00000000000E+00 -0.17987206005E+03  0.17987206006E+03  0.25500000920E-02 0.  1.
    10030    2    1    2    0    0  0.00000000000E+00  0.00000000000E+00  0.31773332696E+03  0.67747744707E+03  0.59834874800E+03 0.  0.
        5    1    3    3  502    0  0.14705748929E+03  0.24040546357E+03  0.27244458585E+03  0.39200616631E+03  0.46999998093E+01 0. -1.
       -5    1    3    3    0  502 -0.14705748929E+03 -0.24040546357E+03  0.45288741109E+02  0.28547128076E+03  0.46999998093E+01 0.  1.
</event>
<event>
 5   0  0.2406307E-03  0.5993652E+03  0.7818609E-02  0.9906724E-01
        2   -1    0    0  501    0  0.00000000000E+00  0.00000000000E+00  0.21290697986E+04  0.21290697986E+04  0.25500000920E-02 0.  1.
       -2   -1    0    0    0  501  0.00000000000E+00  0.00000000000E+00 -0.42182586849E+02  0.42182586926E+02  0.25500000920E-02 0. -1.
    10030    2    1    2    0    0  0.00000000000E+00  0.00000000000E+00  0.20868872117E+04  0.21712523855E+04  0.59936523680E+03 0.  0.
        5    1    3    3  502    0  0.29568296824E+03 -0.47201387407E+02  0.10849365490E+04  0.11255069054E+04  0.46999998093E+01 0. -1.
       -5    1    3    3    0  502 -0.29568296824E+03  0.47201387407E+02  0.10019506627E+04  0.10457454801E+04  0.46999998093E+01 0.  1.
</event>
<event>
 5   0  0.2346281E-03  0.6006187E+03  0.7818609E-02  0.9904123E-01
        2   -1    0    0  501    0  0.00000000000E+00  0.00000000000E+00  0.17466727262E+03  0.17466727264E+03  0.25500000920E-02 0.  1.
       -2   -1    0    0    0  501  0.00000000000E+00  0.00000000000E+00 -0.51632857162E+03  0.51632857162E+03  0.25500000920E-02 0. -1.
    10030    2    1    2    0    0  0.00000000000E+00  0.00000000000E+00 -0.34166129900E+03  0.69099584426E+03  0.60061869231E+03 0.  0.
        3    1    3    3  502    0 -0.48389481406E+01 -0.17296888796E+03 -0.45321045915E+03  0.48511996672E+03  0.10100000352E+00 0. -1.
       -3    1    3    3    0  502  0.48389481406E+01  0.17296888796E+03  0.11154916015E+03  0.20587587754E+03  0.10100000352E+00 0.  1.
</event>
<event>
 5   0  0.1392854E-03  0.6001076E+03  0.7818609E-02  0.9905183E-01
       -1   -1    0    0    0  501  0.00000000000E+00  0.00000000000E+00  0.33562248603E+03  0.33562248607E+03  0.50400001928E-02 0. -1.
        1   -1    0    0  501    0  0.00000000000E+00  0.00000000000E+00 -0.26825458100E+03  0.26825458105E+03  0.50400001928E-02 0.  1.
    10030    2    1    2    0    0  0.00000000000E+00  0.00000000000E+00  0.67367905029E+02  0.60387706712E+03  0.60010755500E+03 0.  0.
        4    1    3    3  502    0 -0.27552038937E+03 -0.86168448504E+02 -0.48647885677E+02  0.29275367830E+03  0.12699999809E+01 0.  1.
       -4    1    3    3    0  502  0.27552038937E+03  0.86168448504E+02  0.11601579071E+03  0.31112338882E+03  0.12699999809E+01 0. -1.
</event>
<event>
 5   0  0.1423430E-03  0.6000476E+03  0.7818609E-02  0.9905307E-01
       -1   -1    0    0    0  501  0.00000000000E+00  0.00000000000E+00  0.24405277181E+03  0.24405277186E+03  0.50400001928E-02 0.  1.
        1   -1    0    0  501    0  0.00000000000E+00  0.00000000000E+00 -0.36883123332E+03  0.36883123335E+03  0.50400001928E-02 0. -1.
    10030    2    1    2    0    0  0.00000000000E+00  0.00000000000E+00 -0.12477846151E+03  0.61288400521E+03  0.60004761426E+03 0.  0.
        1    1    3    3  502    0  0.52769483857E+02 -0.21526651156E+03  0.14414931030E+03  0.26439234692E+03  0.50400001928E-02 0.  1.
       -1    1    3    3    0  502 -0.52769483857E+02  0.21526651156E+03 -0.26892777181E+03  0.34849165829E+03  0.50400001928E-02 0. -1.
</event>
<event>
 5   0  0.2313168E-03  0.6002052E+03  0.7818609E-02  0.9904980E-01
        2   -1    0    0  501    0  0.00000000000E+00  0.00000000000E+00  0.30867323017E+03  0.30867323018E+03  0.25500000920E-02 0. -1.
       -2   -1    0    0    0  501  0.00000000000E+00  0.00000000000E+00 -0.29176993983E+03  0.29176993984E+03  0.25500000920E-02 0.  1.
    10030    2    1    2    0    0  0.00000000000E+00  0.00000000000E+00  0.16903290344E+02  0.60044317002E+03  0.60020519758E+03 0.  0.
        2    1    3    3  502    0  0.16905468873E+03  0.15114547278E+03 -0.18818958203E+03  0.29468586752E+03  0.25500000920E-02 0.  1.
       -2    1    3    3    0  502 -0.16905468873E+03 -0.15114547278E+03  0.20509287238E+03  0.30575730250E+03  0.25500000920E-02 0. -1.
</event>
<event>
 5   0  0.2324616E-03  0.5998928E+03  0.7818609E-02  0.9905628E-01
        2   -1    0    0  501    0  0.00000000000E+00  0.00000000000E+00  0.32663748910E+03  0.32663748911E+03  0.25500000920E-02 0.  1.
       -2   -1    0    0    0  501  0.00000000000E+00  0.00000000000E+00 -0.27543638647E+03  0.27543638648E+03  0.25500000920E-02 0. -1.
    10030    2    1    2    0    0  0.00000000000E+00  0.00000000000E+00  0.51201102628E+02  0.60207387559E+03  0.59989282272E+03 0.  0.
        4    1    3    3  502    0 -0.25856479306E+03  0.12212438689E+03 -0.65261018759E+02  0.29330995816E+03  0.12699999809E+01 0. -1.
       -4    1    3    3    0  502  0.25856479306E+03 -0.12212438689E+03  0.11646212139E+03  0.30876391743E+03  0.12699999809E+01 0.  1.
</event>
<event>
 5   0  0.1418763E-03  0.6003493E+03  0.7818609E-02  0.9904682E-01
        1   -1    0    0  501    0  0.00000000000E+00  0.00000000000E+00  0.25857790810E+03  0.25857790815E+03  0.50400001928E-02 0. -1.
       -1   -1    0    0    0  501  0.00000000000E+00  0.00000000000E+00 -0.34846295762E+03  0.34846295766E+03  0.50400001928E-02 0.  1.
    10030    2    1    2    0    0  0.00000000000E+00  0.00000000000E+00 -0.89885049522E+02  0.60704086580E+03  0.60034930717E+03 0.  0.
        5    1    3    3  502    0 -0.58606297630E+02 -0.13370870540E+03 -0.31010586403E+03  0.34278339068E+03  0.46999998093E+01 0.  1.
       -5    1    3    3    0  502  0.58606297630E+02  0.13370870540E+03  0.22022081450E+03  0.26425747513E+03  0.46999998093E+01 0. -1.
</event>
<event>
 5   0  0.1418763E-03  0.6000391E+03  0.7818609E-02  0.9905325E-01
       -1   -1    0    0    0  501  0.00000000000E+00  0.00000000000E+00  0.21173259735E+03  0.21173259741E+03  0.50400001928E-02 0.  1.
        1   -1    0    0  501    0  0.00000000000E+00  0.00000000000E+00 -0.42511991619E+03  0.42511991622E+03  0.50400001928E-02 0. -1.
    10030    2    1    2    0    0  0.00000000000E+00  0.00000000000E+00 -0.21338731884E+03  0.63685251364E+03  0.60003914563E+03 0.  0.
        5    1    3    3  502    0 -0.91379950922E+02  0.72602073868E+02  0.18660888988E+03  0.22015068553E+03  0.46999998093E+01 0.  1.
       -5    1    3    3    0  502  0.91379950922E+02 -0.72602073868E+02 -0.39999620872E+03  0.41670182810E+03  0.46999998093E+01 0. -1.
</event>
<event>
 5   0  0.2324616E-03  0.6009569E+03  0.7818609E-02  0.9903423E-01
       -2   -1    0    0    0  501  0.00000000000E+00  0.00000000000E+00  0.83100847404E+02  0.83100847443E+02  0.25500000920E-02 0.  1.
        2   -1    0    0  501    0  0.00000000000E+00  0.00000000000E+00 -0.10864786312E+04  0.10864786312E+04  0.25500000920E-02 0. -1.
    10030    2    1    2    0    0  0.00000000000E+00  0.00000000000E+00 -0.10033777838E+04  0.11695794786E+04  0.60095688684E+03 0.  0.
        4    1    3    3  502    0  0.58844022538E+02  0.14281276157E+03 -0.10032924780E+04  0.10151135470E+04  0.12699999809E+01 0. -1.
       -4    1    3    3    0  502 -0.58844022538E+02 -0.14281276157E+03 -0.85305704738E-01  0.15446593162E+03  0.12699999809E+01 0.  1.
</event>
<event>
 5   0  0.9496750E-04  0.6001591E+03  0.7818609E-02  0.9905076E-01
       -3   -1    0    0    0  501  0.00000000000E+00  0.00000000000E+00  0.16446114652E+03  0.16446117754E+03  0.10100000352E+00 0.  1.
        3   -1    0    0  501    0  0.00000000000E+00  0.00000000000E+00 -0.54753191144E+03  0.54753192075E+03  0.10100000352E+00 0. -1.
    10030    2    1    2    0    0  0.00000000000E+00  0.00000000000E+00 -0.38307076491E+03  0.71199309829E+03  0.60015911314E+03 0.  0.
        5    1    3    3  502    0  0.22437342638E+03 -0.17401164002E+03 -0.76502153191E+02  0.29410568640E+03  0.46999998093E+01 0.  1.
       -5    1    3    3    0  502 -0.22437342638E+03  0.17401164002E+03 -0.30656861172E+03  0.41788741190E+03  0.46999998093E+01 0. -1.
</event>
<event>
 5   0  0.1418763E-03  0.6000047E+03  0.7818609E-02  0.9905396E-01
        1   -1    0    0  501    0  0.00000000000E+00  0.00000000000E+00  0.14253618537E+03  0.14253618546E+03  0.50400001928E-02 0.  1.
       -1   -1    0    0    0  501  0.00000000000E+00  0.00000000000E+00 -0.63142858458E+03  0.63142858460E+03  0.50400001928E-02 0. -1.
    10030    2    1    2    0    0  0.00000000000E+00  0.00000000000E+00 -0.48889239921E+03  0.77396477006E+03  0.60000473939E+03 0.  0.
        5    1    3    3  502    0 -0.53305958037E+02 -0.28056896324E+03 -0.36280300828E+03  0.46174514736E+03  0.46999998093E+01 0. -1.
       -5    1    3    3    0  502  0.53305958037E+02  0.28056896324E+03 -0.12608939093E+03  0.31221962270E+03  0.46999998093E+01 0.  1.
</event>
<event>
 5   0  0.1392854E-03  0.6002479E+03  0.7818609E-02  0.9904892E-01
       -1   -1    0    0    0  501  0.00000000000E+00  0.00000000000E+00  0.53049342154E+02  0.53049342393E+02  0.50400001928E-02 0.  1.
        1   -1    0    0  501    0  0.00000000000E+00  0.00000000000E+00 -0.16979357085E+04  0.16979357085E+04  0.50400001928E-02 0. -1.
    10030    2    1    2    0    0  0.00000000000E+00  0.00000000000E+00 -0.16448863664E+04  0.17509850509E+04  0.60024785738E+03 0.  0.
        4    1    3    3  502    0  0.17394374906E+03  0.15873037733E+03 -0.27966595551E+03  0.36560418501E+03  0.12699999809E+01 0.  1.
       -4    1    3    3    0  502 -0.17394374906E+03 -0.15873037733E+03 -0.13652204109E+04  0.13853808659E+04  0.12699999809E+01 0. -1.
</event>
<event>
 5   0  0.1392854E-03  0.5999406E+03  0.7818609E-02  0.9905529E-01
        1   -1    0    0  501    0  0.00000000000E+00  0.00000000000E+00  0.24610224465E+03  0.24610224470E+03  0.50400001928E-02 0. -1.
       -1   -1    0    0    0  501  0.00000000000E+00  0.00000000000E+00 -0.36562923725E+03  0.36562923728E+03  0.50400001928E-02 0.  1.
    10030    2    1    2    0    0  0.00000000000E+00  0.00000000000E+00 -0.11952699260E+03  0.61173148199E+03  0.59994058381E+03 0.  0.
        4    1    3    3  502    0 -0.13713187378E+03 -0.23428450956E+03 -0.18988893817E+03  0.33129111665E+03  0.12699999809E+01 0.  1.
       -4    1    3    3    0  502  0.13713187378E+03  0.23428450956E+03  0.70361945576E+02  0.28044036534E+03  0.12699999809E+01 0. -1.
</event>
<event>
 5   0  0.1423430E-03  0.6000222E+03  0.7818609E-02  0.9905360E-01
       -1   -1    0    0    0  501  0.00000000000E+00  0.00000000000E+00  0.14203275169E+03  0.14203275178E+03  0.50400001928E-02 0.  1.
        1   -1    0    0  501    0  0.00000000000E+00  0.00000000000E+00 -0.63370354789E+03  0.63370354791E+03  0.50400001928E-02 0. -1.
    10030    2    1    2    0    0  0.00000000000E+00  0.00000000000E+00 -0.49167079620E+03  0.77573629969E+03  0.60002219528E+03 0.  0.
        1    1    3    3  502    0  0.13752999911E+03  0.24813732623E+03 -0.37197918110E+03  0.46781956407E+03  0.50400001928E-02 0. -1.
       -1    1    3    3    0  502 -0.13752999911E+03 -0.24813732623E+03 -0.11969161510E+03  0.30791673562E+03  0.50400001928E-02 0.  1.
</event>
<event>
 5   0  0.1423430E-03  0.6000705E+03  0.7818609E-02  0.9905260E-01
       -1   -1    0    0    0  501  0.00000000000E+00  0.00000000000E+00  0.42440870041E+03  0.42440870044E+03  0.50400001928E-02 0.  1.
        1   -1    0    0  501    0  0.00000000000E+00  0.00000000000E+00 -0.21210959260E+03  0.21210959266E+03  0.50400001928E-02 0. -1.
    10030    2    1    2    0    0  0.00000000000E+00  0.00000000000E+00  0.21229910781E+03  0.63651829310E+03  0.60007051775E+03 0.  0.
        1    1    3    3  502    0  0.22780595584E+03  0.14766016121E+03  0.24166735566E+03  0.36345864626E+03  0.50400001928E-02 0. -1.
       -1    1    3    3    0  502 -0.22780595584E+03 -0.14766016121E+03 -0.29368247848E+02  0.27305964684E+03  0.50400001928E-02 0.  1.
</event>
<event>
 5   0  0.9496750E-04  0.5999571E+03  0.7818609E-02  0.9905495E-01
        4   -1    0    0  501    0  0.00000000000E+00  0.00000000000E+00  0.14296055801E+03  0.14296619896E+03  0.12699999809E+01 0. -1.
       -4   -1    0    0    0  501  0.00000000000E+00  0.00000000000E+00 -0.62943558393E+03  0.62943686515E+03  0.12699999809E+01 0.  1.
    10030    2    1    2    0    0  0.00000000000E+00  0.00000000000E+00 -0.48647502592E+03  0.77240306412E+03  0.59995711731E+03 0.  0.
        1    1    3    3  502    0  0.13556106486E+03  0.26662449238E+03 -0.27264377133E+03  0.40472218658E+03  0.50400001928E-02 0.  1.
       -1    1    3    3    0  502 -0.13556106486E+03 -0.26662449238E+03 -0.21383125459E+03  0.36768087753E+03  0.50400001928E-02 0. -1.
</event>
<event>
 5   0  0.1418763E-03  0.5995942E+03  0.7818609E-02  0.9906248E-01
        1   -1    0    0  501    0  0.00000000000E+00  0.00000000000E+00  0.52891327140E+03  0.52891327143E+03  0.50400001928E-02 0.  1.
       -1   -1    0    0    0  501  0.00000000000E+00  0.00000000000E+00 -0.16993011520E+03  0.16993011527E+03  0.50400001928E-02 0. -1.
    10030    2    1    2    0    0  0.00000000000E+00  0.00000000000E+00  0.35898315620E+03  0.69884338670E+03  0.59959417334E+03 0.  0.
        5    1    3    3  502    0 -0.13003337868E+03 -0.12822851211E+02  0.49393153261E+03  0.51094378751E+03  0.46999998093E+01 0.  1.
       -5    1    3    3    0  502  0.13003337868E+03  0.12822851211E+02 -0.13494837641E+03  0.18789959920E+03  0.46999998093E+01 0. -1.
</event>
<event>
 5   0  0.2346281E-03  0.6013361E+03  0.7818609E-02  0.9902638E-01
        2   -1    0    0  501    0  0.00000000000E+00  0.00000000000E+00  0.51583404891E+03  0.51583404892E+03  0.25500000920E-02 0.  1.
       -2   -1    0    0    0  501  0.00000000000E+00  0.00000000000E+00 -0.17525262048E+03  0.17525262050E+03  0.25500000920E-02 0. -1.
    10030    2    1    2    0    0  0.00000000000E+00  0.00000000000E+00  0.34058142843E+03  0.69108666942E+03  0.60133607513E+03 0.  0.
        3    1    3    3  502    0 -0.20064869497E+02  0.41198932456E+02  0.51179709656E+03  0.51384455750E+03  0.10100000352E+00 0.  1.
       -3    1    3    3    0  502  0.20064869497E+02 -0.41198932456E+02 -0.17121566813E+03  0.17724211192E+03  0.10100000352E+00 0. -1.
</event>
<event>
 5   0  0.1479385E-03  0.6003515E+03  0.7818609E-02  0.9904677E-01
       -1   -1    0    0    0  501  0.00000000000E+00  0.00000000000E+00  0.77426421446E+02  0.77426421610E+02  0.50400001928E-02 0. -1.
        1   -1    0    0  501    0  0.00000000000E+00  0.00000000000E+00 -0.11637560762E+04  0.11637560762E+04  0.50400001928E-02 0.  1.
    10030    2    1    2    0    0  0.00000000000E+00  0.00000000000E+00 -0.10863296547E+04  0.12411824978E+04  0.60035145881E+03 0.  0.
        3    1    3    3  502    0  0.14818403986E+03  0.24883032486E+03 -0.70635299566E+03  0.76341967811E+03  0.10100000352E+00 0.  1.
       -3    1    3    3    0  502 -0.14818403986E+03 -0.24883032486E+03 -0.37997665907E+03  0.47776281969E+03  0.10100000352E+00 0. -1.
</event>
<event>
 5   0  0.9496750E-04  0.6001145E+03  0.7818609E-02  0.9905169E-01
       -3   -1    0    0    0  501  0.00000000000E+00  0.00000000000E+00  0.28867096858E+03  0.28867098625E+03  0.10100000352E+00 0.  1.
        3   -1    0    0  501    0  0.00000000000E+00  0.00000000000E+00 -0.31189258491E+03  0.31189260127E+03  0.10100000352E+00 0. -1.
    10030    2    1    2    0    0  0.00000000000E+00  0.00000000000E+00 -0.23221616334E+02  0.60056358751E+03  0.60011447173E+03 0.  0.
        3    1    3    3  502    0 -0.15584319765E+03 -0.21774819340E+03  0.12388977134E+03  0.29504247766E+03  0.10100000352E+00 0.  1.
       -3    1    3    3    0  502  0.15584319765E+03  0.21774819340E+03 -0.14711138767E+03  0.30552110985E+03  0.10100000352E+00 0. -1.
</event>
<event>
 5   0  0.9496750E-04  0.6000542E+03  0.7818609E-02  0.9905294E-01
        4   -1    0    0  501    0  0.00000000000E+00  0.00000000000E+00  0.16645552106E+03  0.16646036583E+03  0.12699999809E+01 0.  1.
       -4   -1    0    0    0  501  0.00000000000E+00  0.00000000000E+00 -0.54076922157E+03  0.54077071287E+03  0.12699999809E+01 0. -1.
    10030    2    1    2    0    0  0.00000000000E+00  0.00000000000E+00 -0.37431370051E+03  0.70723107870E+03  0.60005420779E+03 0.  0.
        3    1    3    3  502    0  0.19605320164E+03 -0.21411859479E+03 -0.27639437561E+03  0.40084596989E+03  0.10100000352E+00 0. -1.
       -3    1    3    3    0  502 -0.19605320164E+03  0.21411859479E+03 -0.97919324901E+02  0.30638510881E+03  0.10100000352E+00 0.  1.
</event>
<event>
 5   0  0.2406307E-03  0.6004322E+03  0.7818609E-02  0.9904510E-01
        2   -1    0    0  501    0  0.00000000000E+00  0.00000000000E+00  0.10733201484E+04  0.10733201484E+04  0.25500000920E-02 0. -1.
       -2   -1    0    0    0  501  0.00000000000E+00  0.00000000000E+00 -0.83972812716E+02  0.83972812755E+02  0.25500000920E-02 0.  1.
    10030    2    1    2    0    0  0.00000000000E+00  0.00000000000E+00  0.98934733572E+03  0.11572929612E+04  0.60043221710E+03 0.  0.
        5    1    3    3  502    0  0.13801149236E+03 -0.13743456084E+03  0.93492316013E+03  0.95500724389E+03  0.46999998093E+01 0. -1.
       -5    1    3    3    0  502 -0.13801149236E+03  0.13743456084E+03  0.54424175583E+02  0.20228571730E+03  0.46999998093E+01 0.  1.
</event>
<event>
 5   0  0.2346281E-03  0.6001499E+03  0.7818609E-02  0.9905095E-01
       -2   -1    0    0    0  501  0.00000000000E+00  0.00000000000E+00  0.10018613426E+03  0.10018613430E+03  0.25500000920E-02 0.  1.
        2   -1    0    0  501    0  0.00000000000E+00  0.00000000000E+00 -0.89877692653E+03  0.89877692653E+03  0.25500000920E-02 0. -1.
    10030    2    1    2    0    0  0.00000000000E+00  0.00000000000E+00 -0.79859079226E+03  0.99896306083E+03  0.60014993410E+03 0.  0.
        3    1    3    3  502    0 -0.26452181839E+03  0.14096263027E+03 -0.42299483618E+03  0.51842733066E+03  0.10100000352E+00 0.  1.
       -3    1    3    3    0  502  0.26452181839E+03 -0.14096263027E+03 -0.37559595608E+03  0.48053573016E+03  0.10100000352E+00 0. -1.
</event>
<event>
 5   0  0.1423430E-03  0.6003993E+03  0.7818609E-02  0.9904578E-01
        1   -1    0    0  501    0  0.00000000000E+00  0.00000000000E+00  0.19966381224E+03  0.19966381230E+03  0.50400001928E-02 0.  1.
       -1   -1    0    0    0  501  0.00000000000E+00  0.00000000000E+00 -0.45135788483E+03  0.45135788485E+03  0.50400001928E-02 0. -1.
    10030    2    1    2    0    0  0.00000000000E+00  0.00000000000E+00 -0.25169407259E+03  0.65102169715E+03  0.60039932044E+03 0.  0.
        1    1    3    3  502    0  0.39495963822E+02 -0.23046863733E+03 -0.32998666528E+03  0.40443407774E+03  0.50400001928E-02 0. -1.
       -1    1    3    3    0  502 -0.39495963822E+02  0.23046863733E+03  0.78292592686E+02  0.24658761941E+03  0.50400001928E-02 0.  1.
</event>
<event>
 5   0  0.2324616E-03  0.6002938E+03  0.7818609E-02  0.9904797E-01
       -2   -1    0    0    0  501  0.00000000000E+00  0.00000000000E+00  0.48603011724E+02  0.48603011791E+02  0.25500000920E-02 0. -1.
        2   -1    0    0  501    0  0.00000000000E+00  0.00000000000E+00 -0.18535512325E+04  0.18535512325E+04  0.25500000920E-02 0.  1.
    10030    2    1    2    0    0  0.00000000000E+00  0.00000000000E+00 -0.18049482208E+04  0.19021542443E+04  0.60029383589E+03 0.  0.
        4    1    3    3  502    0 -0.26366116205E+03  0.10139673914E+03 -0.58107221765E+03  0.64609987007E+03  0.12699999809E+01 0. -1.
       -4    1    3    3    0  502  0.26366116205E+03 -0.10139673914E+03 -0.12238760031E+04  0.12560543742E+04  0.12699999809E+01 0.  1.
</event>
<event>
 5   0  0.2421210E-03  0.5999959E+03  0.7818609E-02  0.9905415E-01
       -2   -1    0    0    0  501  0.00000000000E+00  0.00000000000E+00  0.15616475800E+03  0.15616475802E+03  0.25500000920E-02 0. -1.
        2   -1    0    0  501    0  0.00000000000E+00  0.00000000000E+00 -0.57630648333E+03  0.57630648334E+03  0.25500000920E-02 0.  1.
    10030    2    1    2    0    0  0.00000000000E+00  0.00000000000E+00 -0.42014172533E+03  0.73247124135E+03  0.59999587502E+03 0.  0.
        1    1    3    3  502    0  0.25700149736E+03 -0.13907394703E+03 -0.29293596877E+03  0.41376661805E+03  0.50400001928E-02 0.  1.
       -1    1    3    3    0  502 -0.25700149736E+03  0.13907394703E+03 -0.12720575656E+03  0.31870462330E+03  0.50400001928E-02 0. -1.
</event>
<event>
 5   0  0.2346281E-03  0.6001307E+03  0.7818609E-02  0.9905135E-01
       -2   -1    0    0    0  501  0.00000000000E+00  0.00000000000E+00  0.26248898545E+03  0.26248898547E+03  0.25500000920E-02 0.  1.
        2   -1    0    0  501    0  0.00000000000E+00  0.00000000000E+00 -0.34302087778E+03  0.34302087778E+03  0.25500000920E-02 0. -1.
    10030    2    1    2    0    0  0.00000000000E+00  0.00000000000E+00 -0.80531892322E+02  0.60550986325E+03  0.60013065978E+03 0.  0.
        3    1    3    3  502    0 -0.15087317314E+03 -0.25681962051E+03 -0.36062622117E+01  0.29787924933E+03  0.10100000352E+00 0.  1.
       -3    1    3    3    0  502  0.15087317314E+03  0.25681962051E+03 -0.76925630110E+02  0.30763061392E+03  0.10100000352E+00 0. -1.
</event>
<event>
 5   0  0.1418763E-03  0.5997570E+03  0.7818609E-02  0.9905910E-01
        1   -1    0    0  501    0  0.00000000000E+00  0.00000000000E+00  0.43435388707E+03  0.43435388710E+03  0.50400001928E-02 0.  1.
       -1   -1    0    0    0  501  0.00000000000E+00  0.00000000000E+00 -0.20703649155E+03  0.20703649161E+03  0.50400001928E-02 0. -1.
    10030    2    1    2    0    0  0.00000000000E+00  0.00000000000E+00  0.22731739553E+03  0.64139037871E+03  0.59975696711E+03 0.  0.
        5    1    3    3  502    0 -0.10741012801E+03 -0.17404476606E+03  0.34814288190E+03  0.40379954483E+03  0.46999998093E+01 0.  1.
       -5    1    3    3    0  502  0.10741012801E+03  0.17404476606E+03 -0.12082548637E+03  0.23759083388E+03  0.46999998093E+01 0. -1.
</event>
<event>
 5   0  0.1416315E-03  0.6005377E+03  0.7818609E-02  0.9904291E-01
        1   -1    0    0  501    0  0.00000000000E+00  0.00000000000E+00  0.23629049317E+04  0.23629049317E+04  0.50400001928E-02 0.  1.
       -1   -1    0    0    0  501  0.00000000000E+00  0.00000000000E+00 -0.38157008319E+02  0.38157008652E+02  0.50400001928E-02 0. -1.
    10030    2    1    2    0    0  0.00000000000E+00  0.00000000000E+00  0.23247479234E+04  0.24010619404E+04  0.60053770420E+03 0.  0.
        2    1    3    3  502    0 -0.99721204871E+02  0.24289887199E+03  0.17447548953E+04  0.17644018322E+04  0.25500000920E-02 0.  1.
       -2    1    3    3    0  502  0.99721204871E+02 -0.24289887199E+03  0.57999302809E+03  0.63666010819E+03  0.25500000920E-02 0. -1.
</event>
<event>
 5   0  0.1423430E-03  0.6004229E+03  0.7818609E-02  0.9904529E-01
       -1   -1    0    0    0  501  0.00000000000E+00  0.00000000000E+00  0.24020643371E+03  0.24020643376E+03  0.50400001928E-02 0.  1.
        1   -1    0    0  501    0  0.00000000000E+00  0.00000000000E+00 -0.37520613400E+03  0.37520613403E+03  0.50400001928E-02 0. -1.
    10030    2    1    2    0    0  0.00000000000E+00  0.00000000000E+00 -0.13499970029E+03  0.61541256780E+03  0.60042294220E+03 0.  0.
        1    1    3    3  502    0 -0.25323054892E+03 -0.11273769782E+03  0.50666794336E+02  0.28178471124E+03  0.50400001928E-02 0.  1.
       -1    1    3    3    0  502  0.25323054892E+03  0.11273769782E+03 -0.18566649463E+03  0.33362785655E+03  0.50400001928E-02 0. -1.
</event>
<event>
 5   0  0.2313168E-03  0.6000034E+03  0.7818609E-02  0.9905399E-01
       -2   -1    0    0    0  501  0.00000000000E+00  0.00000000000E+00  0.40493446627E+03  0.40493446628E+03  0.25500000920E-02 0. -1.
        2   -1    0    0  501    0  0.00000000000E+00  0.00000000000E+00 -0.22226070859E+03  0.22226070860E+03  0.25500000920E-02 0.  1.
    10030    2    1    2    0    0  0.00000000000E+00  0.00000000000E+00  0.18267375768E+03  0.62719517488E+03  0.60000340470E+03 0.  0.
        2    1    3    3  502    0  0.10903407076E+03  0.81539339385E+02 -0.18810560855E+03  0.23220855374E+03  0.25500000920E-02 0.  1.
       -2    1    3    3    0  502 -0.10903407076E+03 -0.81539339385E+02  0.37077936623E+03  0.39498662115E+03  0.25500000920E-02 0. -1.
</event>
<event>
 5   0  0.2324616E-03  0.5999898E+03  0.7818609E-02  0.9905427E-01
        2   -1    0    0  501    0  0.00000000000E+00  0.00000000000E+00  0.77368820226E+03  0.77368820226E+03  0.25500000920E-02 0. -1.
       -2   -1    0    0    0  501  0.00000000000E+00  0.00000000000E+00 -0.11632196775E+03  0.11632196777E+03  0.25500000920E-02 0.  1.
    10030    2    1    2    0    0  0.00000000000E+00  0.00000000000E+00  0.65736623451E+03  0.89001017003E+03  0.59998978032E+03 0.  0.
        4    1    3    3  502    0  0.82690731533E+02  0.13881102151E+03  0.70362536668E+03  0.72193942011E+03  0.12699999809E+01 0. -1.
       -4    1    3    3    0  502 -0.82690731533E+02 -0.13881102151E+03 -0.46259132165E+02  0.16807074993E+03  0.12699999809E+01 0.  1.
</event>
<event>
 5   0  0.1416315E-03  0.5981228E+03  0.7818609E-02  0.9909308E-01
        1   -1    0    0  501    0  0.00000000000E+00  0.00000000000E+00  0.12444103504E+04  0.12444103504E+04  0.50400001928E-02 0.  1.
       -1   -1    0    0    0  501  0.00000000000E+00  0.00000000000E+00 -0.71871559766E+02  0.71871559943E+02  0.50400001928E-02 0. -1.
    10030    2    1    2    0    0  0.00000000000E+00  0.00000000000E+00  0.11725387906E+04  0.13162819103E+04  0.59812277333E+03 0.  0.
        2    1    3    3  502    0  0.25263644896E+03 -0.15598977585E+03  0.66499523858E+03  0.72826962922E+03  0.25500000920E-02 0. -1.
       -2    1    3    3    0  502 -0.25263644896E+03  0.15598977585E+03  0.50754355201E+03  0.58801228109E+03  0.25500000920E-02 0.  1.
</event>
<event>
 5   0  0.9496750E-04  0.6039110E+03  0.7818609E-02  0.9897325E-01
       -3   -1    0    0    0  501  0.00000000000E+00  0.00000000000E+00  0.13762326741E+03  0.13762330447E+03  0.10100000352E+00 0.  1.
        3   -1    0    0  501    0  0.00000000000E+00  0.00000000000E+00 -0.66251233237E+03  0.66251234007E+03  0.10100000352E+00 0. -1.
    10030    2    1    2    0    0  0.00000000000E+00  0.00000000000E+00 -0.52488906496E+03  0.80013564454E+03  0.60391101923E+03 0.  0.
        4    1    3    3  502    0 -0.14810888211E+03 -0.25264132421E+03 -0.35991094960E+03  0.46400580191E+03  0.12699999809E+01 0. -1.
       -4    1    3    3    0  502  0.14810888211E+03  0.25264132421E+03 -0.16497811536E+03  0.33612984263E+03  0.12699999809E+01 0.  1.
</event>
<event>
 5   0  0.1479385E-03  0.6000530E+03  0.7818609E-02  0.9905296E-01
       -1   -1    0    0    0  501  0.00000000000E+00  0.00000000000E+00  0.25648244914E+03  0.25648244919E+03  0.50400001928E-02 0.  1.
        1   -1    0    0  501    0  0.00000000000E+00  0.00000000000E+00 -0.35096314895E+03  0.35096314899E+03  0.50400001928E-02 0. -1.
    10030    2    1    2    0    0  0.00000000000E+00  0.00000000000E+00 -0.94480699805E+02  0.60744559818E+03  0.60005295776E+03 0.  0.
        3    1    3    3  502    0  0.21294258778E+03  0.73653412038E+02  0.15330764012E+03  0.27253002315E+03  0.10100000352E+00 0.  1.
       -3    1    3    3    0  502 -0.21294258778E+03 -0.73653412038E+02 -0.24778833993E+03  0.33491557503E+03  0.10100000352E+00 0. -1.
</event>
<event>
 5   0  0.1416315E-03  0.5998041E+03  0.7818609E-02  0.9905813E-01
       -1   -1    0    0    0  501  0.00000000000E+00  0.00000000000E+00  0.20270340265E+03  0.20270340272E+03  0.50400001928E-02 0.  1.
        1   -1    0    0  501    0  0.00000000000E+00  0.00000000000E+00 -0.44370852981E+03  0.44370852984E+03  0.50400001928E-02 0. -1.
    10030    2    1    2    0    0  0.00000000000E+00  0.00000000000E+00 -0.24100512715E+03  0.64641193255E+03  0.59980406403E+03 0.  0.
        2    1    3    3  502    0 -0.26622165347E+03 -0.10553947834E+03 -0.21646480109E+03  0.35898406703E+03  0.25500000920E-02 0. -1.
       -2    1    3    3    0  502  0.26622165347E+03  0.10553947834E+03 -0.24540326063E+02  0.28742786552E+03  0.25500000920E-02 0.  1.
</event>
<event>
 5   0  0.1418763E-03  0.5994878E+03  0.7818609E-02  0.9906469E-01
        1   -1    0    0  501    0  0.00000000000E+00  0.00000000000E+00  0.44905868690E+03  0.44905868693E+03  0.50400001928E-02 0.  1.
       -1   -1    0    0    0  501  0.00000000000E+00  0.00000000000E+00 -0.20007721878E+03  0.20007721885E+03  0.50400001928E-02 0. -1.
    10030    2    1    2    0    0  0.00000000000E+00  0.00000000000E+00  0.24898146812E+03  0.64913590578E+03  0.59948782532E+03 0.  0.
        5    1    3    3  502    0  0.61887468240E+02  0.18091392852E+03  0.37439510073E+03  0.42042084833E+03  0.46999998093E+01 0.  1.
       -5    1    3    3    0  502 -0.61887468240E+02 -0.18091392852E+03 -0.12541363262E+03  0.22871505745E+03  0.46999998093E+01 0. -1.
</event>
<event>
 5   0  0.2313168E-03  0.6000306E+03  0.7818609E-02  0.9905343E-01
       -2   -1    0    0    0  501  0.00000000000E+00  0.00000000000E+00  0.10842824153E+03  0.10842824156E+03  0.25500000920E-02 0. -1.
        2   -1    0    0  501    0  0.00000000000E+00  0.00000000000E+00 -0.83012668368E+03  0.83012668368E+03  0.25500000920E-02 0.  1.
    10030    2    1    2    0    0  0.00000000000E+00  0.00000000000E+00 -0.72169844215E+03  0.93855492524E+03  0.60003058780E+03 0.  0.
        2    1    3    3  502    0 -0.11928563997E+03 -0.19642295333E+03 -0.66252948020E+03  0.70125341542E+03  0.25500000920E-02 0.  1.
       -2    1    3    3    0  502  0.11928563997E+03  0.19642295333E+03 -0.59168961946E+02  0.23730150982E+03  0.25500000920E-02 0. -1.
</event>
<event>
 5   0  0.2346281E-03  0.5998392E+03  0.7818609E-02  0.9905740E-01
        2   -1    0    0  501    0  0.00000000000E+00  0.00000000000E+00  0.44280017299E+03  0.44280017300E+03  0.25500000920E-02 0. -1.
       -2   -1    0    0    0  501  0.00000000000E+00  0.00000000000E+00 -0.20314305502E+03  0.20314305504E+03  0.25500000920E-02 0.  1.
    10030    2    1    2    0    0  0.00000000000E+00  0.00000000000E+00  0.23965711797E+03  0.64594322803E+03  0.59983924484E+03 0.  0.
        3    1    3    3  502    0  0.48163587160E+01 -0.18829583332E+03  0.37116248942E+03  0.41622124154E+03  0.10100000352E+00 0. -1.
       -3    1    3    3    0  502 -0.48163587160E+01  0.18829583332E+03 -0.13150537145E+03  0.22972198649E+03  0.10100000352E+00 0.  1.
</event>
<event>
 5   0  0.2313168E-03  0.5999862E+03  0.7818609E-02  0.9905435E-01
        2   -1    0    0  501    0  0.00000000000E+00  0.00000000000E+00  0.42379133881E+03  0.42379133882E+03  0.25500000920E-02 0.  1.
       -2   -1    0    0    0  501  0.00000000000E+00  0.00000000000E+00 -0.21235887191E+03  0.21235887193E+03  0.25500000920E-02 0. -1.
    10030    2    1    2    0    0  0.00000000000E+00  0.00000000000E+00  0.21143246690E+03  0.63615021074E+03  0.59998616865E+03 0.  0.
        2    1    3    3  502    0 -0.11611715945E+03  0.26206056956E+03  0.19957848581E+03  0.34927139711E+03  0.25500000920E-02 0.  1.
       -2    1    3    3    0  502  0.11611715945E+03 -0.26206056956E+03  0.11853981089E+02  0.28687881363E+03  0.25500000920E-02 0. -1.
</event>
<event>
 5   0  0.1479385E-03  0.5999858E+03  0.7818609E-02  0.9905436E-01
       -1   -1    0    0    0  501  0.00000000000E+00  0.00000000000E+00  0.64536808670E+02  0.64536808867E+02  0.50400001928E-02 0. -1.
        1   -1    0    0  501    0  0.00000000000E+00  0.00000000000E+00 -0.13944868630E+04  0.13944868630E+04  0.50400001928E-02 0.  1.
    10030    2    1    2    0    0  0.00000000000E+00  0.00000000000E+00 -0.13299500543E+04  0.14590236719E+04  0.59998577324E+03 0.  0.
        3    1    3    3  502    0 -0.24890737488E+03  0.19682401759E+02 -0.26058913507E+03  0.36090024345E+03  0.10100000352E+00 0. -1.
       -3    1    3    3    0  502  0.24890737488E+03 -0.19682401759E+02 -0.10693609193E+04  0.10981234284E+04  0.10100000352E+00 0.  1.
</event>
<event>
 5   0  0.1479385E-03  0.5999375E+03  0.7818609E-02  0.9905536E-01
       -1   -1    0    0    0  501  0.00000000000E+00  0.00000000000E+00  0.93854767493E+02  0.93854767628E+02  0.50400001928E-02 0. -1.
        1   -1    0    0  501    0  0.00000000000E+00  0.00000000000E+00 -0.95872861562E+03  0.95872861564E+03  0.50400001928E-02 0.  1.
    10030    2    1    2    0    0  0.00000000000E+00  0.00000000000E+00 -0.86487384813E+03  0.10525833833E+04  0.59993750137E+03 0.  0.
        3    1    3    3  502    0  0.14529665664E+02  0.10648068399E+03  0.58920053513E+02  0.12255949639E+03  0.10100000352E+00 0. -1.
       -3    1    3    3    0  502 -0.14529665664E+02 -0.10648068399E+03 -0.92379390164E+03  0.93002388688E+03  0.10100000352E+00 0.  1.
</event>
<event>
 5   0  0.2406307E-03  0.5972872E+03  0.7818609E-02  0.9911050E-01
        2   -1    0    0  501    0  0.00000000000E+00  0.00000000000E+00  0.46393799051E+03  0.46393799051E+03  0.25500000920E-02 0.  1.
       -2   -1    0    0    0  501  0.00000000000E+00  0.00000000000E+00 -0.19224120729E+03  0.19224120730E+03  0.25500000920E-02 0. -1.
    10030    2    1    2    0    0  0.00000000000E+00  0.00000000000E+00  0.27169678322E+03  0.65617919781E+03  0.59728719862E+03 0.  0.
        5    1    3    3  502    0 -0.63463277438E+01  0.45435043225E+02  0.46000270230E+03  0.46230854973E+03  0.46999998093E+01 0.  1.
       -5    1    3    3    0  502  0.63463277438E+01 -0.45435043225E+02 -0.18830591908E+03  0.19387064808E+03  0.46999998093E+01 0. -1.
</event>
<event>
 5   0  0.1479385E-03  0.6000023E+03  0.7818609E-02  0.9905401E-01
       -1   -1    0    0    0  501  0.00000000000E+00  0.00000000000E+00  0.21275170941E+03  0.21275170947E+03  0.50400001928E-02 0.  1.
        1   -1    0    0  501    0  0.00000000000E+00  0.00000000000E+00 -0.42303154422E+03  0.42303154425E+03  0.50400001928E-02 0. -1.
    10030    2    1    2    0    0  0.00000000000E+00  0.00000000000E+00 -0.21027983481E+03  0.63578325372E+03  0.60000228064E+03 0.  0.
        3    1    3    3  502    0  0.27330902014E+02  0.23391004646E+03  0.91791952378E+02  0.25275810721E+03  0.10100000352E+00 0. -1.
       -3    1    3    3    0  502 -0.27330902014E+02 -0.23391004646E+03 -0.30207178719E+03  0.38302514651E+03  0.10100000352E+00 0.  1.
</event>
<event>
 5   0  0.1416315E-03  0.6000491E+03  0.7818609E-02  0.9905304E-01
        1   -1    0    0  501    0  0.00000000000E+00  0.00000000000E+00  0.54836559486E+02  0.54836559718E+02  0.50400001928E-02 0.  1.
       -1   -1    0    0    0  501  0.00000000000E+00  0.00000000000E+00 -0.16415097086E+04  0.16415097086E+04  0.50400001928E-02 0. -1.
    10030    2    1    2    0    0  0.00000000000E+00  0.00000000000E+00 -0.15866731491E+04  0.16963462683E+04  0.60004914794E+03 0.  0.
        2    1    3    3  502    0 -0.12191388580E+03 -0.15376966327E+03 -0.15174405074E+03  0.24806120583E+03  0.25500000920E-02 0.  1.
       -2    1    3    3    0  502  0.12191388580E+03  0.15376966327E+03 -0.14349290984E+04  0.14482850625E+04  0.25500000920E-02 0. -1.
</event>
<event>
 5   0  0.2406307E-03  0.6001379E+03  0.7818609E-02  0.9905120E-01
       -2   -1    0    0    0  501  0.00000000000E+00  0.00000000000E+00  0.10285593715E+04  0.10285593715E+04  0.25500000920E-02 0. -1.
        2   -1    0    0  501    0  0.00000000000E+00  0.00000000000E+00 -0.87541243983E+02  0.87541244021E+02  0.25500000920E-02 0.  1.
    10030    2    1    2    0    0  0.00000000000E+00  0.00000000000E+00  0.94101812750E+03  0.11161006155E+04  0.60013787387E+03 0.  0.
        5    1    3    3  502    0 -0.14445762528E+02 -0.16357814858E+02 -0.85994792500E+02  0.88845103958E+02  0.46999998093E+01 0.  1.
       -5    1    3    3    0  502  0.14445762528E+02  0.16357814858E+02  0.10270129200E+04  0.10272555115E+04  0.46999998093E+01 0. -1.
</event>
<event>
 5   0  0.1423430E-03  0.6002426E+03  0.7818609E-02  0.9904903E-01
       -1   -1    0    0    0  501  0.00000000000E+00  0.00000000000E+00  0.64772108435E+02  0.64772108631E+02  0.50400001928E-02 0.  1.
        1   -1    0    0  501    0  0.00000000000E+00  0.00000000000E+00 -0.13906109047E+04  0.13906109048E+04  0.50400001928E-02 0. -1.
    10030    2    1    2    0    0  0.00000000000E+00  0.00000000000E+00 -0.13258387963E+04  0.14553830134E+04  0.60024261916E+03 0.  0.
        1    1    3    3  502    0 -0.21400842605E+03 -0.18501494196E+03 -0.41993691450E+03  0.50633698992E+03  0.50400001928E-02 0.  1.
       -1    1    3    3    0  502  0.21400842605E+03  0.18501494196E+03 -0.90590188181E+03  0.94904602347E+03  0.50400001928E-02 0. -1.
</event>
<event>
 5   0  0.2346281E-03  0.5999083E+03  0.7818609E-02  0.9905596E-01
       -2   -1    0    0    0  501  0.00000000000E+00  0.00000000000E+00  0.11337470290E+03  0.11337470293E+03  0.25500000920E-02 0. -1.
        2   -1    0    0  501    0  0.00000000000E+00  0.00000000000E+00 -0.79358519192E+03  0.79358519192E+03  0.25500000920E-02 0.  1.
    10030    2    1    2    0    0  0.00000000000E+00  0.00000000000E+00 -0.68021048902E+03  0.90695989485E+03  0.59990827757E+03 0.  0.
        3    1    3    3  502    0 -0.94618557709E+02 -0.10278892549E+03  0.61183332777E+02  0.15251768775E+03  0.10100000352E+00 0. -1.
       -3    1    3    3    0  502  0.94618557709E+02  0.10278892549E+03 -0.74139382179E+03  0.75444220710E+03  0.10100000352E+00 0.  1.
</event>
<event>
 5   0  0.2421210E-03  0.5983396E+03  0.7818609E-02  0.9908857E-01
       -2   -1    0    0    0  501  0.00000000000E+00  0.00000000000E+00  0.24247575623E+03  0.24247575625E+03  0.25500000920E-02 0. -1.
        2   -1    0    0  501    0  0.00000000000E+00  0.00000000000E+00 -0.36911967712E+03  0.36911967713E+03  0.25500000920E-02 0.  1.
    10030    2    1    2    0    0  0.00000000000E+00  0.00000000000E+00 -0.12664392089E+03  0.61159543338E+03  0.59833961212E+03 0.  0.
        1    1    3    3  502    0  0.35598181300E+02 -0.18402395570E+03  0.17501875897E+03  0.25644417092E+03  0.50400001928E-02 0. -1.
       -1    1    3    3    0  502 -0.35598181300E+02  0.18402395570E+03 -0.30166267986E+03  0.35515126246E+03  0.50400001928E-02 0.  1.
</event>
<event>
 5   0  0.2346281E-03  0.6001933E+03  0.7818609E-02  0.9905005E-01
        2   -1    0    0  501    0  0.00000000000E+00  0.00000000000E+00  0.64707679539E+03  0.64707679539E+03  0.25500000920E-02 0.  1.
       -2   -1    0    0    0  501  0.00000000000E+00  0.00000000000E+00 -0.13917669317E+03  0.13917669319E+03  0.25500000920E-02 0. -1.
    10030    2    1    2    0    0  0.00000000000E+00  0.00000000000E+00  0.50790010222E+03  0.78625348858E+03  0.60019333091E+03 0.  0.
        3    1    3    3  502    0  0.16584254016E+03  0.14493970794E+03 -0.13067526021E+02  0.22064006323E+03  0.10100000352E+00 0. -1.
       -3    1    3    3    0  502 -0.16584254016E+03 -0.14493970794E+03  0.52096762824E+03  0.56561342535E+03  0.10100000352E+00 0.  1.
</event>
<event>
 5   0  0.9496750E-04  0.5998824E+03  0.7818609E-02  0.9905650E-01
        4   -1    0    0  501    0  0.00000000000E+00  0.00000000000E+00  0.24124538135E+03  0.24124872419E+03  0.12699999809E+01 0. -1.
       -4   -1    0    0    0  501  0.00000000000E+00  0.00000000000E+00 -0.37291084282E+03  0.37291300540E+03  0.12699999809E+01 0.  1.
    10030    2    1    2    0    0  0.00000000000E+00  0.00000000000E+00 -0.13166546147E+03  0.61416172959E+03  0.59988235209E+03 0.  0.
        1    1    3    3  502    0  0.12286391746E+03  0.22645126088E+03  0.91410286451E+02  0.27337073044E+03  0.50400001928E-02 0. -1.
       -1    1    3    3    0  502 -0.12286391746E+03 -0.22645126088E+03 -0.22307574792E+03  0.34079099915E+03  0.50400001928E-02 0.  1.
</event>
<event>
 5   0  0.2324616E-03  0.6000391E+03  0.7818609E-02  0.9905325E-01
       -2   -1    0    0    0  501  0.00000000000E+00  0.00000000000E+00  0.15614260310E+03  0.15614260312E+03  0.25500000920E-02 0. -1.
        2   -1    0    0  501    0  0.00000000000E+00  0.00000000000E+00 -0.57647128109E+03  0.57647128109E+03  0.25500000920E-02 0.  1.
    10030    2    1    2    0    0  0.00000000000E+00  0.00000000000E+00 -0.42032867799E+03  0.73261388421E+03  0.60003908689E+03 0.  0.
        4    1    3    3  502    0 -0.45227858678E+02  0.28762395410E+03 -0.29852064038E+03  0.41700034029E+03  0.12699999809E+01 0.  1.
       -4    1    3    3    0  502  0.45227858678E+02 -0.28762395410E+03 -0.12180803761E+03  0.31561354391E+03  0.12699999809E+01 0. -1.
</event>
<event>
 5   0  0.1479385E-03  0.6000522E+03  0.7818609E-02  0.9905298E-01
       -1   -1    0    0    0  501  0.00000000000E+00  0.00000000000E+00  0.13742699144E+03  0.13742699154E+03  0.50400001928E-02 0.  1.
        1   -1    0    0  501    0  0.00000000000E+00  0.00000000000E+00 -0.65500718887E+03  0.65500718889E+03  0.50400001928E-02 0. -1.
    10030    2    1    2    0    0  0.00000000000E+00  0.00000000000E+00 -0.51758019743E+03  0.79243418043E+03  0.60005222234E+03 0.  0.
        3    1    3    3  502    0  0.17896226094E+03  0.26397387615E+01 -0.57678323352E+03  0.60391503354E+03  0.10100000352E+00 0. -1.
       -3    1    3    3    0  502 -0.17896226094E+03 -0.26397387615E+01  0.59203036095E+02  0.18851914689E+03  0.10100000352E+00 0.  1.
</event>
<event>
 5   0  0.9496750E-04  0.6002898E+03  0.7818609E-02  0.9904805E-01
       -4   -1    0    0    0  501  0.00000000000E+00  0.00000000000E+00  0.21916445533E+03  0.21916813496E+03  0.12699999809E+01 0. -1.
        4   -1    0    0  501    0  0.00000000000E+00  0.00000000000E+00 -0.41103926298E+03  0.41104122495E+03  0.12699999809E+01 0.  1.
    10030    2    1    2    0    0  0.00000000000E+00  0.00000000000E+00 -0.19187480765E+03  0.63020935991E+03  0.60028984292E+03 0.  0.
        4    1    3    3  502    0  0.56817014879E+02 -0.16117943971E+03  0.16309576796E+03  0.23623892014E+03  0.12699999809E+01 0. -1.
       -4    1    3    3    0  502 -0.56817014879E+02  0.16117943971E+03 -0.35497057561E+03  0.39397043977E+03  0.12699999809E+01 0.  1.
</event>
<event>
 5   0  0.9496750E-04  0.6000102E+03  0.7818609E-02  0.9905385E-01
        3   -1    0    0  501    0  0.00000000000E+00  0.00000000000E+00  0.96420490499E+03  0.96420491028E+03  0.10100000352E+00 0. -1.
       -3   -1    0    0    0  501  0.00000000000E+00  0.00000000000E+00 -0.93344293253E+02  0.93344347894E+02  0.10100000352E+00 0.  1.
    10030    2    1    2    0    0  0.00000000000E+00  0.00000000000E+00  0.87086061173E+03  0.10575492582E+04  0.60001019024E+03 0.  0.
        2    1    3    3  502    0  0.96029549959E+02 -0.32334710947E+02 -0.62271011564E+02  0.11893227857E+03  0.25500000920E-02 0.  1.
       -2    1    3    3    0  502 -0.96029549959E+02  0.32334710947E+02  0.93313162330E+03  0.93861697960E+03  0.25500000920E-02 0. -1.
</event>
<event>
 5   0  0.9496750E-04  0.6001379E+03  0.7818609E-02  0.9905120E-01
       -3   -1    0    0    0  501  0.00000000000E+00  0.00000000000E+00  0.44554764853E+03  0.44554765998E+03  0.10100000352E+00 0.  1.
        3   -1    0    0  501    0  0.00000000000E+00  0.00000000000E+00 -0.20209144115E+03  0.20209146639E+03  0.10100000352E+00 0. -1.
    10030    2    1    2    0    0  0.00000000000E+00  0.00000000000E+00  0.24345620738E+03  0.64763912637E+03  0.60013791173E+03 0.  0.
        4    1    3    3  502    0 -0.10802086456E+00 -0.13431181172E+03  0.41129475116E+03  0.43267153785E+03  0.12699999809E+01 0.  1.
       -4    1    3    3    0  502  0.10802086456E+00  0.13431181172E+03 -0.16783854378E+03  0.21496758852E+03  0.12699999809E+01 0. -1.
</event>
<event>
 5   0  0.1418763E-03  0.5989099E+03  0.7818609E-02  0.9907670E-01
       -1   -1    0    0    0  501  0.00000000000E+00  0.00000000000E+00  0.34020711939E+03  0.34020711942E+03  0.50400001928E-02 0.  1.
        1   -1    0    0  501    0  0.00000000000E+00  0.00000000000E+00 -0.26358431785E+03  0.26358431790E+03  0.50400001928E-02 0. -1.
    10030    2    1    2    0    0  0.00000000000E+00  0.00000000000E+00  0.76622801538E+02  0.60379143732E+03  0.59890988142E+03 0.  0.
        5    1    3    3  502    0  0.27443292556E+03  0.82119804112E+02 -0.49542898029E+02  0.29074676542E+03  0.46999998093E+01 0. -1.
       -5    1    3    3    0  502 -0.27443292556E+03 -0.82119804112E+02  0.12616569957E+03  0.31304467190E+03  0.46999998093E+01 0.  1.
</event>
<event>
 5   0  0.9496750E-04  0.5996908E+03  0.7818609E-02  0.9906048E-01
       -4   -1    0    0    0  501  0.00000000000E+00  0.00000000000E+00  0.53655118098E+02  0.53670146246E+02  0.12699999809E+01 0. -1.
        4   -1    0    0  501    0  0.00000000000E+00  0.00000000000E+00 -0.16754013295E+04  0.16754018109E+04  0.12699999809E+01 0.  1.
    10030    2    1    2    0    0  0.00000000000E+00  0.00000000000E+00 -0.16217462114E+04  0.17290719571E+04  0.59969080251E+03 0.  0.
        3    1    3    3  502    0  0.28200436209E+03  0.10173846213E+03 -0.82668635954E+03  0.87936768315E+03  0.10100000352E+00 0.  1.
       -3    1    3    3    0  502 -0.28200436209E+03 -0.10173846213E+03 -0.79505985187E+03  0.84970427396E+03  0.10100000352E+00 0. -1.
</event>
<event>
 5   0  0.1479385E-03  0.5999804E+03  0.7818609E-02  0.9905447E-01
        1   -1    0    0  501    0  0.00000000000E+00  0.00000000000E+00  0.13517832474E+04  0.13517832474E+04  0.50400001928E-02 0. -1.
       -1   -1    0    0    0  501  0.00000000000E+00  0.00000000000E+00 -0.66574375695E+02  0.66574375886E+02  0.50400001928E-02 0.  1.
    10030    2    1    2    0    0  0.00000000000E+00  0.00000000000E+00  0.12852088717E+04  0.14183576233E+04  0.59998041938E+03 0.  0.
        3    1    3    3  502    0  0.23116433505E+03 -0.19119845516E+03  0.64393471003E+03  0.71038420593E+03  0.10100000352E+00 0.  1.
       -3    1    3    3    0  502 -0.23116433505E+03  0.19119845516E+03  0.64127416163E+03  0.70797341732E+03  0.10100000352E+00 0. -1.
</event>
<event>
 5   0  0.1479385E-03  0.6002194E+03  0.7818609E-02  0.9904951E-01
        1   -1    0    0  501    0  0.00000000000E+00  0.00000000000E+00  0.27866731506E+03  0.27866731511E+03  0.50400001928E-02 0. -1.
       -1   -1    0    0    0  501  0.00000000000E+00  0.00000000000E+00 -0.32320197895E+03  0.32320197899E+03  0.50400001928E-02 0.  1.
    10030    2    1    2    0    0  0.00000000000E+00  0.00000000000E+00 -0.44534663889E+02  0.60186929409E+03  0.60021938563E+03 0.  0.
        3    1    3    3  502    0 -0.92479846307E+02  0.12491805664E+03 -0.27970007724E+03  0.31998310308E+03  0.10100000352E+00 0.  1.
       -3    1    3    3    0  502  0.92479846307E+02 -0.12491805664E+03  0.23516541335E+03  0.28188619101E+03  0.10100000352E+00 0. -1.
</event>
<event>
 5   0  0.2406307E-03  0.5999482E+03  0.7818609E-02  0.9905514E-01
       -2   -1    0    0    0  501  0.00000000000E+00  0.00000000000E+00  0.42889976753E+03  0.42889976754E+03  0.25500000920E-02 0. -1.
        2   -1    0    0  501    0  0.00000000000E+00  0.00000000000E+00 -0.20980298173E+03  0.20980298174E+03  0.25500000920E-02 0.  1.
    10030    2    1    2    0    0  0.00000000000E+00  0.00000000000E+00  0.21909678581E+03  0.63870274928E+03  0.59994816475E+03 0.  0.
        5    1    3    3  502    0 -0.11291188082E+03  0.60065570638E+01  0.40530164805E+03  0.42080480923E+03  0.46999998093E+01 0. -1.
       -5    1    3    3    0  502  0.11291188082E+03 -0.60065570638E+01 -0.18620486224E+03  0.21789794005E+03  0.46999998093E+01 0.  1.
</event>
<event>
 5   0  0.1423430E-03  0.6002728E+03  0.7818609E-02  0.9904840E-01
        1   -1    0    0  501    0  0.00000000000E+00  0.00000000000E+00  0.12103624617E+04  0.12103624617E+04  0.50400001928E-02 0.  1.
       -1   -1    0    0    0  501  0.00000000000E+00  0.00000000000E+00 -0.74425517316E+02  0.74425517487E+02  0.50400001928E-02 0. -1.
    10030    2    1    2    0    0  0.00000000000E+00  0.00000000000E+00  0.11359369444E+04  0.12847879792E+04  0.60027277955E+03 0.  0.
        1    1    3    3  502    0 -0.50768647570E+02 -0.83045574668E+02  0.11756435538E+04  0.11796659648E+04  0.50400001928E-02 0.  1.
       -1    1    3    3    0  502  0.50768647570E+02  0.83045574668E+02 -0.39706609389E+02  0.10512201436E+03  0.50400001928E-02 0. -1.
</event>
<event>
 5   0  0.1418763E-03  0.6000155E+03  0.7818609E-02  0.9905374E-01
       -1   -1    0    0    0  501  0.00000000000E+00  0.00000000000E+00  0.16309598370E+03  0.16309598378E+03  0.50400001928E-02 0.  1.
        1   -1    0    0  501    0  0.00000000000E+00  0.00000000000E+00 -0.55185082432E+03  0.55185082434E+03  0.50400001928E-02 0. -1.
    10030    2    1    2    0    0  0.00000000000E+00  0.00000000000E+00 -0.38875484061E+03  0.71494680812E+03  0.60001551009E+03 0.  0.
        5    1    3    3  502    0  0.12805144425E+03 -0.16267744520E+03  0.64277372100E+02  0.21682895128E+03  0.46999998093E+01 0.  1.
       -5    1    3    3    0  502 -0.12805144425E+03  0.16267744520E+03 -0.45303221271E+03  0.49811785684E+03  0.46999998093E+01 0. -1.
</event>
<event>
 5   0  0.1392854E-03  0.5999137E+03  0.7818609E-02  0.9905585E-01
        1   -1    0    0  501    0  0.00000000000E+00  0.00000000000E+00  0.18141551668E+03  0.18141551675E+03  0.50400001928E-02 0.  1.
       -1   -1    0    0    0  501  0.00000000000E+00  0.00000000000E+00 -0.49595594208E+03  0.49595594211E+03  0.50400001928E-02 0. -1.
    10030    2    1    2    0    0  0.00000000000E+00  0.00000000000E+00 -0.31454042540E+03  0.67737145886E+03  0.59991367218E+03 0.  0.
        4    1    3    3  502    0  0.19085221838E+03  0.12441771770E+03  0.63032089829E+02  0.23638738331E+03  0.12699999809E+01 0.  1.
       -4    1    3    3    0  502 -0.19085221838E+03 -0.12441771770E+03 -0.37757251523E+03  0.44098407556E+03  0.12699999809E+01 0. -1.
</event>
<event>
 5   0  0.1416315E-03  0.5999866E+03  0.7818609E-02  0.9905434E-01
        1   -1    0    0  501    0  0.00000000000E+00  0.00000000000E+00  0.29377184358E+03  0.29377184362E+03  0.50400001928E-02 0.  1.
       -1   -1    0    0    0  501  0.00000000000E+00  0.00000000000E+00 -0.30634650893E+03  0.30634650897E+03  0.50400001928E-02 0. -1.
    10030    2    1    2    0    0  0.00000000000E+00  0.00000000000E+00 -0.12574665350E+02  0.60011835260E+03  0.59998659561E+03 0.  0.
        2    1    3    3  502    0 -0.24092416047E+03 -0.14590522362E+03  0.96998083194E+02  0.29789497063E+03  0.25500000920E-02 0.  1.
       -2    1    3    3    0  502  0.24092416047E+03  0.14590522362E+03 -0.10957274854E+03  0.30222338197E+03  0.25500000920E-02 0. -1.
</event>
<event>
 5   0  0.2313168E-03  0.5998043E+03  0.7818609E-02  0.9905812E-01
       -2   -1    0    0    0  501  0.00000000000E+00  0.00000000000E+00  0.16108255568E+03  0.16108255570E+03  0.25500000920E-02 0.  1.
        2   -1    0    0  501    0  0.00000000000E+00  0.00000000000E+00 -0.55835530932E+03  0.55835530933E+03  0.25500000920E-02 0. -1.
    10030    2    1    2    0    0  0.00000000000E+00  0.00000000000E+00 -0.39727275364E+03  0.71943786503E+03  0.59980430214E+03 0.  0.
        2    1    3    3  502    0 -0.18043038008E+03  0.18755428787E+03 -0.19883202230E+02  0.26101163708E+03  0.25500000920E-02 0.  1.
       -2    1    3    3    0  502  0.18043038008E+03 -0.18755428787E+03 -0.37738955141E+03  0.45842622795E+03  0.25500000920E-02 0. -1.
</event>
<event>
 5   0  0.2346281E-03  0.6000523E+03  0.7818609E-02  0.9905298E-01
       -2   -1    0    0    0  501  0.00000000000E+00  0.00000000000E+00  0.22436354725E+03  0.22436354727E+03  0.25500000920E-02 0.  1.
        2   -1    0    0  501    0  0.00000000000E+00  0.00000000000E+00 -0.40120463399E+03  0.40120463400E+03  0.25500000920E-02 0. -1.
    10030    2    1    2    0    0  0.00000000000E+00  0.00000000000E+00 -0.17684108674E+03  0.62556818126E+03  0.60005231393E+03 0.  0.
        3    1    3    3  502    0  0.17995971172E+03  0.23438058674E+03 -0.14255074323E+03  0.32808608913E+03  0.10100000352E+00 0.  1.
       -3    1    3    3    0  502 -0.17995971172E+03 -0.23438058674E+03 -0.34290343508E+02  0.29748209214E+03  0.10100000352E+00 0. -1.
</event>
<event>
 5   0  0.2324616E-03  0.6000680E+03  0.7818609E-02  0.9905265E-01
        2   -1    0    0  501    0  0.00000000000E+00  0.00000000000E+00  0.17273753233E+04  0.17273753233E+04  0.25500000920E-02 0. -1.
       -2   -1    0    0    0  501  0.00000000000E+00  0.00000000000E+00 -0.52113971476E+02  0.52113971539E+02  0.25500000920E-02 0.  1.
    10030    2    1    2    0    0  0.00000000000E+00  0.00000000000E+00  0.16752613518E+04  0.17794892948E+04  0.60006795743E+03 0.  0.
        4    1    3    3  502    0 -0.14270236106E+03  0.14540514885E+03  0.14907916430E+04  0.15046487819E+04  0.12699999809E+01 0. -1.
       -4    1    3    3    0  502  0.14270236106E+03 -0.14540514885E+03  0.18446970878E+03  0.27484051288E+03  0.12699999809E+01 0.  1.
</event>
<event>
 5   0  0.1479385E-03  0.6009831E+03  0.7818609E-02  0.9903369E-01
       -1   -1    0    0    0  501  0.00000000000E+00  0.00000000000E+00  0.12505297348E+03  0.12505297358E+03  0.50400001928E-02 0.  1.
        1   -1    0    0  501    0  0.00000000000E+00  0.00000000000E+00 -0.72205535186E+03  0.72205535188E+03  0.50400001928E-02 0. -1.
    10030    2    1    2    0    0  0.00000000000E+00  0.00000000000E+00 -0.59700237838E+03  0.84710832546E+03  0.60098309067E+03 0.  0.
        3    1    3    3  502    0  0.20685892464E+03  0.14015813999E+03 -0.63229797424E+02  0.25774587561E+03  0.10100000352E+00 0.  1.
       -3    1    3    3    0  502 -0.20685892464E+03 -0.14015813999E+03 -0.53377258095E+03  0.58936244985E+03  0.10100000352E+00 0. -1.
</event>
<event>
 5   0  0.2421210E-03  0.5993825E+03  0.7818609E-02  0.9906688E-01
        2   -1    0    0  501    0  0.00000000000E+00  0.00000000000E+00  0.11429303611E+04  0.11429303611E+04  0.25500000920E-02 0.  1.
       -2   -1    0    0    0  501  0.00000000000E+00  0.00000000000E+00 -0.78582945323E+02  0.78582945365E+02  0.25500000920E-02 0. -1.
    10030    2    1    2    0    0  0.00000000000E+00  0.00000000000E+00  0.10643474158E+04  0.12215133064E+04  0.59938246254E+03 0.  0.
        1    1    3    3  502    0 -0.35165648695E+02  0.49288634978E+01  0.11386279803E+04  0.11391815457E+04  0.50400001928E-02 0.  1.
       -1    1    3    3    0  502  0.35165648695E+02 -0.49288634978E+01 -0.74280564505E+02  0.82331760774E+02  0.50400001928E-02 0. -1.
</event>
<event>
 5   0  0.2406307E-03  0.5999744E+03  0.7818609E-02  0.9905459E-01
        2   -1    0    0  501    0  0.00000000000E+00  0.00000000000E+00  0.86434749813E+03  0.86434749813E+03  0.25500000920E-02 0. -1.
       -2   -1    0    0    0  501  0.00000000000E+00  0.00000000000E+00 -0.10411591316E+03  0.10411591319E+03  0.25500000920E-02 0.  1.
    10030    2    1    2    0    0  0.00000000000E+00  0.00000000000E+00  0.76023158497E+03  0.96846341132E+03  0.59997442969E+03 0.  0.
        5    1    3    3  502    0  0.37083593410E+02  0.56371214657E+02  0.85187835959E+03  0.85455938137E+03  0.46999998093E+01 0. -1.
       -5    1    3    3    0  502 -0.37083593410E+02 -0.56371214657E+02 -0.91646774625E+02  0.11390402995E+03  0.46999998093E+01 0.  1.
</event>
<event>
 5   0  0.1392854E-03  0.6000362E+03  0.7818609E-02  0.9905331E-01
       -1   -1    0    0    0  501  0.00000000000E+00  0.00000000000E+00  0.16316246587E+03  0.16316246595E+03  0.50400001928E-02 0.  1.
        1   -1    0    0  501    0  0.00000000000E+00  0.00000000000E+00 -0.55166402315E+03  0.55166402317E+03  0.50400001928E-02 0. -1.
    10030    2    1    2    0    0  0.00000000000E+00  0.00000000000E+00 -0.38850155728E+03  0.71482648912E+03  0.60003620686E+03 0.  0.
        4    1    3    3  502    0  0.20336823761E+03 -0.20817801810E+03 -0.10742002720E+03  0.31022153767E+03  0.12699999809E+01 0.  1.
       -4    1    3    3    0  502 -0.20336823761E+03  0.20817801810E+03 -0.28108153008E+03  0.40460495145E+03  0.12699999809E+01 0. -1.
</event>
<event>
 5   0  0.1416315E-03  0.6000001E+03  0.7818609E-02  0.9905406E-01
        1   -1    0    0  501    0  0.00000000000E+00  0.00000000000E+00  0.51057326192E+03  0.51057326195E+03  0.50400001928E-02 0.  1.
       -1   -1    0    0    0  501  0.00000000000E+00  0.00000000000E+00 -0.17627253593E+03  0.17627253601E+03  0.50400001928E-02 0. -1.
    10030    2    1    2    0    0  0.00000000000E+00  0.00000000000E+00  0.33430072599E+03  0.68684579795E+03  0.60000014564E+03 0.  0.
        2    1    3    3  502    0  0.10944801579E+03 -0.11521184037E+03 -0.12413528122E+03  0.20164871528E+03  0.25500000920E-02 0. -1.
       -2    1    3    3    0  502 -0.10944801579E+03  0.11521184037E+03  0.45843600721E+03  0.48519708268E+03  0.25500000920E-02 0.  1.
</event>
<event>
 5   0  0.1416315E-03  0.6002804E+03  0.7818609E-02  0.9904824E-01
        1   -1    0    0  501    0  0.00000000000E+00  0.00000000000E+00  0.51808334268E+03  0.51808334271E+03  0.50400001928E-02 0.  1.
       -1   -1    0    0    0  501  0.00000000000E+00  0.00000000000E+00 -0.17387965515E+03  0.17387965522E+03  0.50400001928E-02 0. -1.
    10030    2    1    2    0    0  0.00000000000E+00  0.00000000000E+00  0.34420368754E+03  0.69196299793E+03  0.60028044445E+03 0.  0.
        2    1    3    3  502    0 -0.10447974015E+03 -0.57345253916E+02 -0.14543297982E+03  0.18802990686E+03  0.25500000920E-02 0. -1.
       -2    1    3    3    0  502  0.10447974015E+03  0.57345253916E+02  0.48963666735E+03  0.50393309107E+03  0.25500000920E-02 0.  1.
</event>
<event>
 5   0  0.1479385E-03  0.5997342E+03  0.7818609E-02  0.9905958E-01
        1   -1    0    0  501    0  0.00000000000E+00  0.00000000000E+00  0.13080606548E+04  0.13080606549E+04  0.50400001928E-02 0.  1.
       -1   -1    0    0    0  501  0.00000000000E+00  0.00000000000E+00 -0.68743206439E+02  0.68743206624E+02  0.50400001928E-02 0. -1.
    10030    2    1    2    0    0  0.00000000000E+00  0.00000000000E+00  0.12393174484E+04  0.13768038615E+04  0.59973422035E+03 0.  0.
        3    1    3    3  502    0  0.25263075276E+03  0.50307624023E+02  0.97208355131E+03  0.10056339270E+04  0.10100000352E+00 0.  1.
       -3    1    3    3    0  502 -0.25263075276E+03 -0.50307624023E+02  0.26723389709E+03  0.37116993444E+03  0.10100000352E+00 0. -1.
</event>
<event>
 5   0  0.1416315E-03  0.5996258E+03  0.7818609E-02  0.9906183E-01
       -1   -1    0    0    0  501  0.00000000000E+00  0.00000000000E+00  0.15461869373E+04  0.15461869373E+04  0.50400001928E-02 0. -1.
        1   -1    0    0  501    0  0.00000000000E+00  0.00000000000E+00 -0.58135125398E+02  0.58135125616E+02  0.50400001928E-02 0.  1.
    10030    2    1    2    0    0  0.00000000000E+00  0.00000000000E+00  0.14880518119E+04  0.16043220629E+04  0.59962578887E+03 0.  0.
        2    1    3    3  502    0  0.23805082057E+03  0.29412634741E+02  0.12252844296E+04  0.12485412407E+04  0.25500000920E-02 0. -1.
       -2    1    3    3    0  502 -0.23805082057E+03 -0.29412634741E+02  0.26276738225E+03  0.35578082219E+03  0.25500000920E-02 0.  1.
</event>
<event>
 5   0  0.2313168E-03  0.6020066E+03  0.7818609E-02  0.9901252E-01
       -2   -1    0    0    0  501  0.00000000000E+00  0.00000000000E+00  0.15571997316E+03  0.15571997318E+03  0.25500000920E-02 0.  1.
        2   -1    0    0  501    0  0.00000000000E+00  0.00000000000E+00 -0.58183282702E+03  0.58183282702E+03  0.25500000920E-02 0. -1.
    10030    2    1    2    0    0  0.00000000000E+00  0.00000000000E+00 -0.42611285385E+03  0.73755280020E+03  0.60200661862E+03 0.  0.
        2    1    3    3  502    0  0.89102773535E+02 -0.15007760640E+03 -0.51350836264E+03  0.54235913443E+03  0.25500000920E-02 0. -1.
       -2    1    3    3    0  502 -0.89102773535E+02  0.15007760640E+03  0.87395508783E+02  0.19519366577E+03  0.25500000920E-02 0.  1.
</event>
<event>
 5   0  0.2313168E-03  0.6002544E+03  0.7818609E-02  0.9904878E-01
        2   -1    0    0  501    0  0.00000000000E+00  0.00000000000E+00  0.14352943271E+04  0.14352943271E+04  0.25500000920E-02 0. -1.
       -2   -1    0    0    0  501  0.00000000000E+00  0.00000000000E+00 -0.62758084117E+02  0.62758084169E+02  0.25500000920E-02 0.  1.
    10030    2    1    2    0    0  0.00000000000E+00  0.00000000000E+00  0.13725362430E+04  0.14980524113E+04  0.60025435327E+03 0.  0.
        2    1    3    3  502    0 -0.20873635220E+03  0.18484724441E+03  0.40906657035E+03  0.49505032823E+03  0.25500000920E-02 0.  1.
       -2    1    3    3    0  502  0.20873635220E+03 -0.18484724441E+03  0.96346967267E+03  0.10030020831E+04  0.25500000920E-02 0. -1.
</event>
<event>
 5   0  0.2346281E-03  0.5998047E+03  0.7818609E-02  0.9905811E-01
       -2   -1    0    0    0  501  0.00000000000E+00  0.00000000000E+00  0.47609332069E+02  0.47609332138E+02  0.25500000920E-02 0.  1.
        2   -1    0    0  501    0  0.00000000000E+00  0.00000000000E+00 -0.18891550437E+04  0.18891550437E+04  0.25500000920E-02 0. -1.
    10030    2    1    2    0    0  0.00000000000E+00  0.00000000000E+00 -0.18415457116E+04  0.19367643758E+04  0.59980466778E+03 0.  0.
        3    1    3    3  502    0 -0.20528615347E+03 -0.19928251878E+03 -0.12111213989E+04  0.12444560982E+04  0.10100000352E+00 0. -1.
       -3    1    3    3    0  502  0.20528615347E+03  0.19928251878E+03 -0.63042431268E+03  0.69230827766E+03  0.10100000352E+00 0.  1.
</event>
<event>
 5   0  0.9496750E-04  0.5997763E+03  0.7818609E-02  0.9905870E-01
       -3   -1    0    0    0  501  0.00000000000E+00  0.00000000000E+00  0.11851478917E+03  0.11851483220E+03  0.10100000352E+00 0.  1.
        3   -1    0    0  501    0  0.00000000000E+00  0.00000000000E+00 -0.75883247646E+03  0.75883248318E+03  0.10100000352E+00 0. -1.
    10030    2    1    2    0    0  0.00000000000E+00  0.00000000000E+00 -0.64031768729E+03  0.87734731538E+03  0.59977626758E+03 0.  0.
        4    1    3    3  502    0 -0.56464882709E+02  0.17166480745E+03 -0.67023437382E+03  0.69417059708E+03  0.12699999809E+01 0. -1.
       -4    1    3    3    0  502  0.56464882709E+02 -0.17166480745E+03  0.29916686527E+02  0.18317671831E+03  0.12699999809E+01 0.  1.
</event>
<event>
 5   0  0.1392854E-03  0.5999933E+03  0.7818609E-02  0.9905420E-01
       -1   -1    0    0    0  501  0.00000000000E+00  0.00000000000E+00  0.58843569509E+02  0.58843569725E+02  0.50400001928E-02 0. -1.
        1   -1    0    0  501    0  0.00000000000E+00  0.00000000000E+00 -0.15294446495E+04  0.15294446495E+04  0.50400001928E-02 0.  1.
    10030    2    1    2    0    0  0.00000000000E+00  0.00000000000E+00 -0.14706010800E+04  0.15882882193E+04  0.59999327571E+03 0.  0.
        4    1    3    3  502    0  0.36553210067E+02  0.27391366088E+03 -0.42623158954E+03  0.50797619196E+03  0.12699999809E+01 0. -1.
       -4    1    3    3    0  502 -0.36553210067E+02 -0.27391366088E+03 -0.10443694905E+04  0.10803120273E+04  0.12699999809E+01 0.  1.
</event>
<event>
 5   0  0.1416315E-03  0.6002219E+03  0.7818609E-02  0.9904946E-01
        1   -1    0    0  501    0  0.00000000000E+00  0.00000000000E+00  0.11127148738E+04  0.11127148738E+04  0.50400001928E-02 0. -1.
       -1   -1    0    0    0  501  0.00000000000E+00  0.00000000000E+00 -0.80943101184E+02  0.80943101341E+02  0.50400001928E-02 0.  1.
    10030    2    1    2    0    0  0.00000000000E+00  0.00000000000E+00  0.10317717726E+04  0.11936579752E+04  0.60022193469E+03 0.  0.
        2    1    3    3  502    0  0.24840476151E+03  0.24229889476E+02  0.84731586504E+03  0.88330979177E+03  0.25500000920E-02 0. -1.
       -2    1    3    3    0  502 -0.24840476151E+03 -0.24229889476E+02  0.18445590758E+03  0.31034818338E+03  0.25500000920E-02 0.  1.
</event>
<event>
 5   0  0.9496750E-04  0.5999497E+03  0.7818609E-02  0.9905510E-01
       -3   -1    0    0    0  501  0.00000000000E+00  0.00000000000E+00  0.10758905191E+04  0.10758905239E+04  0.10100000352E+00 0. -1.
        3   -1    0    0  501    0  0.00000000000E+00  0.00000000000E+00 -0.83637566200E+02  0.83637627183E+02  0.10100000352E+00 0.  1.
    10030    2    1    2    0    0  0.00000000000E+00  0.00000000000E+00  0.99225295293E+03  0.11595281511E+04  0.59994967330E+03 0.  0.
        1    1    3    3  502    0 -0.13800412995E+03  0.18835343887E+03  0.86008563225E+03  0.89121796024E+03  0.50400001928E-02 0. -1.
       -1    1    3    3    0  502  0.13800412995E+03 -0.18835343887E+03  0.13216732068E+03  0.26831019082E+03  0.50400001928E-02 0.  1.
</event>
<event>
 5   0  0.1416315E-03  0.5999377E+03  0.7818609E-02  0.9905535E-01
       -1   -1    0    0    0  501  0.00000000000E+00  0.00000000000E+00  0.12055175588E+03  0.12055175599E+03  0.50400001928E-02 0. -1.
        1   -1    0    0  501    0  0.00000000000E+00  0.00000000000E+00 -0.74641234375E+03  0.74641234377E+03  0.50400001928E-02 0.  1.
    10030    2    1    2    0    0  0.00000000000E+00  0.00000000000E+00 -0.62586058786E+03  0.86696409975E+03  0.59993772578E+03 0.  0.
        2    1    3    3  502    0  0.19194634158E+03 -0.20129431697E+03 -0.15060016714E+03  0.31629608034E+03  0.25500000920E-02 0. -1.
       -2    1    3    3    0  502 -0.19194634158E+03  0.20129431697E+03 -0.47526042073E+03  0.55066801941E+03  0.25500000920E-02 0.  1.
</event>
<event>
 5   0  0.2346281E-03  0.6000996E+03  0.7818609E-02  0.9905199E-01
        2   -1    0    0  501    0  0.00000000000E+00  0.00000000000E+00  0.91119970818E+03  0.91119970819E+03  0.25500000920E-02 0.  1.
       -2   -1    0    0    0  501  0.00000000000E+00  0.00000000000E+00 -0.98803678843E+02  0.98803678876E+02  0.25500000920E-02 0. -1.
    10030    2    1    2    0    0  0.00000000000E+00  0.00000000000E+00  0.81239602934E+03  0.10100033871E+04  0.60009960289E+03 0.  0.
        3    1    3    3  502    0  0.29404108623E+03  0.59707669594E+02  0.40984949742E+03  0.50793876298E+03  0.10100000352E+00 0.  1.
       -3    1    3    3    0  502 -0.29404108623E+03 -0.59707669594E+02  0.40254653192E+03  0.50206462409E+03  0.10100000352E+00 0. -1.
</event>
<event>
 5   0  0.2313168E-03  0.6000371E+03  0.7818609E-02  0.9905329E-01
        2   -1    0    0  501    0  0.00000000000E+00  0.00000000000E+00  0.42295756601E+03  0.42295756602E+03  0.25500000920E-02 0.  1.
       -2   -1    0    0    0  501  0.00000000000E+00  0.00000000000E+00 -0.21281360285E+03  0.21281360286E+03  0.25500000920E-02 0. -1.
    10030    2    1    2    0    0  0.00000000000E+00  0.00000000000E+00  0.21014396316E+03  0.63577116888E+03  0.60003707713E+03 0.  0.
        2    1    3    3  502    0 -0.26361205712E+03 -0.10962669990E+03  0.73757035887E+01  0.28559364664E+03  0.25500000920E-02 0. -1.
       -2    1    3    3    0  502  0.26361205712E+03  0.10962669990E+03  0.20276825957E+03  0.35017752224E+03  0.25500000920E-02 0.  1.
</event>
<event>
 5   0  0.2313168E-03  0.5999586E+03  0.7818609E-02  0.9905492E-01
       -2   -1    0    0    0  501  0.00000000000E+00  0.00000000000E+00  0.15521254671E+03  0.15521254673E+03  0.25500000920E-02 0.  1.
        2   -1    0    0  501    0  0.00000000000E+00  0.00000000000E+00 -0.57977008776E+03  0.57977008777E+03  0.25500000920E-02 0. -1.
    10030    2    1    2    0    0  0.00000000000E+00  0.00000000000E+00 -0.42455754105E+03  0.73498263450E+03  0.59995863803E+03 0.  0.
        2    1    3    3  502    0 -0.39324175941E+02  0.22218789215E+02 -0.57558059772E+03  0.57735005836E+03  0.25500000920E-02 0. -1.
       -2    1    3    3    0  502  0.39324175941E+02 -0.22218789215E+02  0.15102305667E+03  0.15763257614E+03  0.25500000920E-02 0.  1.
</event>
<event>
 5   0  0.1416315E-03  0.6000853E+03  0.7818609E-02  0.9905229E-01
       -1   -1    0    0    0  501  0.00000000000E+00  0.00000000000E+00  0.11655758899E+04  0.11655758899E+04  0.50400001928E-02 0.  1.
        1   -1    0    0  501    0  0.00000000000E+00  0.00000000000E+00 -0.77237002346E+02  0.77237002510E+02  0.50400001928E-02 0. -1.
    10030    2    1    2    0    0  0.00000000000E+00  0.00000000000E+00  0.10883388875E+04  0.12428128924E+04  0.60008528677E+03 0.  0.
        2    1    3    3  502    0 -0.50633413593E+02 -0.27644070838E+03  0.32653676092E+03  0.43082416838E+03  0.25500000920E-02 0. -1.
       -2    1    3    3    0  502  0.50633413593E+02  0.27644070838E+03  0.76180212661E+03  0.81198872402E+03  0.25500000920E-02 0.  1.
</event>
<event>
 5   0  0.1418763E-03  0.5998928E+03  0.7818609E-02  0.9905629E-01
       -1   -1    0    0    0  501  0.00000000000E+00  0.00000000000E+00  0.11245622172E+03  0.11245622183E+03  0.50400001928E-02 0.  1.
        1   -1    0    0  501    0  0.00000000000E+00  0.00000000000E+00 -0.80002540448E+03  0.80002540450E+03  0.50400001928E-02 0. -1.
    10030    2    1    2    0    0  0.00000000000E+00  0.00000000000E+00 -0.68756918276E+03  0.91248162633E+03  0.59989277150E+03 0.  0.
        5    1    3    3  502    0 -0.39552066608E+02 -0.12347915599E+03  0.67564918119E+02  0.14628252150E+03  0.46999998093E+01 0.  1.
       -5    1    3    3    0  502  0.39552066608E+02  0.12347915599E+03 -0.75513410088E+03  0.76619910483E+03  0.46999998093E+01 0. -1.
</event>
<event>
 5   0  0.9496750E-04  0.6000952E+03  0.7818609E-02  0.9905208E-01
        3   -1    0    0  501    0  0.00000000000E+00  0.00000000000E+00  0.23351565681E+03  0.23351567865E+03  0.10100000352E+00 0. -1.
       -3   -1    0    0    0  501  0.00000000000E+00  0.00000000000E+00 -0.38553545356E+03  0.38553546679E+03  0.10100000352E+00 0.  1.
    10030    2    1    2    0    0  0.00000000000E+00  0.00000000000E+00 -0.15201979675E+03  0.61905114544E+03  0.60009524416E+03 0.  0.
        5    1    3    3  502    0 -0.29997632757E+03  0.44869801260E+01 -0.76778707968E+02  0.30971436855E+03  0.46999998093E+01 0.  1.
       -5    1    3    3    0  502  0.29997632757E+03 -0.44869801260E+01 -0.75241088782E+02  0.30933677688E+03  0.46999998093E+01 0. -1.
</event>
<event>
 5   0  0.2421210E-03  0.5983848E+03  0.7818609E-02  0.9908763E-01
       -2   -1    0    0    0  501  0.00000000000E+00  0.00000000000E+00  0.25934311655E+03  0.25934311656E+03  0.25500000920E-02 0.  1.
        2   -1    0    0  501    0  0.00000000000E+00  0.00000000000E+00 -0.34516468630E+03  0.34516468631E+03  0.25500000920E-02 0. -1.
    10030    2    1    2    0    0  0.00000000000E+00  0.00000000000E+00 -0.85821569750E+02  0.60450780287E+03  0.59838477746E+03 0.  0.
        1    1    3    3  502    0 -0.25172682766E+03  0.12649535783E+03  0.58860379735E+02  0.28780551705E+03  0.50400001928E-02 0.  1.
       -1    1    3    3    0  502  0.25172682766E+03 -0.12649535783E+03 -0.14468194948E+03  0.31670228583E+03  0.50400001928E-02 0. -1.
</event>
<event>
 5   0  0.2346281E-03  0.5961777E+03  0.7818609E-02  0.9913368E-01
       -2   -1    0    0    0  501  0.00000000000E+00  0.00000000000E+00  0.18221851280E+03  0.18221851282E+03  0.25500000920E-02 0.  1.
        2   -1    0    0  501    0  0.00000000000E+00  0.00000000000E+00 -0.48763965219E+03  0.48763965220E+03  0.25500000920E-02 0. -1.
    10030    2    1    2    0    0  0.00000000000E+00  0.00000000000E+00 -0.30542113939E+03  0.66985816502E+03  0.59617773260E+03 0.  0.
        3    1    3    3  502    0  0.83769186383E+02  0.21522854495E+03 -0.36445954736E+03  0.43147581046E+03  0.10100000352E+00 0. -1.
       -3    1    3    3    0  502 -0.83769186383E+02 -0.21522854495E+03  0.59038407970E+02  0.23838235456E+03  0.10100000352E+00 0.  1.
</event>
<event>
 5   0  0.9496750E-04  0.5981752E+03  0.7818609E-02  0.9909199E-01
       -4   -1    0    0    0  501  0.00000000000E+00  0.00000000000E+00  0.25565588946E+03  0.25565904387E+03  0.12699999809E+01 0.  1.
        4   -1    0    0  501    0  0.00000000000E+00  0.00000000000E+00 -0.34989121400E+03  0.34989351885E+03  0.12699999809E+01 0. -1.
    10030    2    1    2    0    0  0.00000000000E+00  0.00000000000E+00 -0.94235324544E+02  0.60555256272E+03  0.59817523338E+03 0.  0.
        1    1    3    3  502    0  0.27582954073E+03  0.11354939264E+03 -0.24984757167E+02  0.29933198664E+03  0.50400001928E-02 0. -1.
       -1    1    3    3    0  502 -0.27582954073E+03 -0.11354939264E+03 -0.69250567377E+02  0.30622057608E+03  0.50400001928E-02 0.  1.
</event>
<event>
 5   0  0.2346281E-03  0.5998348E+03  0.7818609E-02  0.9905749E-01
        2   -1    0    0  501    0  0.00000000000E+00  0.00000000000E+00  0.37402190718E+03  0.37402190719E+03  0.25500000920E-02 0.  1.
       -2   -1    0    0    0  501  0.00000000000E+00  0.00000000000E+00 -0.24049512886E+03  0.24049512887E+03  0.25500000920E-02 0. -1.
    10030    2    1    2    0    0  0.00000000000E+00  0.00000000000E+00  0.13352677832E+03  0.61451703606E+03  0.59983479982E+03 0.  0.
        3    1    3    3  502    0  0.83628184097E+02  0.25312928649E+03  0.20753984735E+03  0.33784746158E+03  0.10100000352E+00 0.  1.
       -3    1    3    3    0  502 -0.83628184097E+02 -0.25312928649E+03 -0.74013069024E+02  0.27666957448E+03  0.10100000352E+00 0. -1.
</event>
<event>
 5   0  0.2313168E-03  0.5988529E+03  0.7818609E-02  0.9907789E-01
        2   -1    0    0  501    0  0.00000000000E+00  0.00000000000E+00  0.26936978119E+04  0.26936978119E+04  0.25500000920E-02 0. -1.
       -2   -1    0    0    0  501  0.00000000000E+00  0.00000000000E+00 -0.33283684015E+02  0.33283684113E+02  0.25500000920E-02 0.  1.
    10030    2    1    2    0    0  0.00000000000E+00  0.00000000000E+00  0.26604141279E+04  0.27269814960E+04  0.59885285985E+03 0.  0.
        2    1    3    3  502    0 -0.22639590312E+03 -0.16850025465E+03  0.17857736898E+04  0.18079367002E+04  0.25500000920E-02 0. -1.
       -2    1    3    3    0  502  0.22639590312E+03  0.16850025465E+03  0.87464043814E+03  0.91904479586E+03  0.25500000920E-02 0.  1.
</event>
<event>
 5   0  0.2406307E-03  0.6001722E+03  0.7818609E-02  0.9905049E-01
        2   -1    0    0  501    0  0.00000000000E+00  0.00000000000E+00  0.10681059326E+04  0.10681059326E+04  0.25500000920E-02 0. -1.
       -2   -1    0    0    0  501  0.00000000000E+00  0.00000000000E+00 -0.84309677517E+02  0.84309677556E+02  0.25500000920E-02 0.  1.
    10030    2    1    2    0    0  0.00000000000E+00  0.00000000000E+00  0.98379625504E+03  0.11524156101E+04  0.60017219780E+03 0.  0.
        5    1    3    3  502    0 -0.49528571686E+02  0.15005606696E+03  0.98166476810E+03  0.99431268200E+03  0.46999998093E+01 0. -1.
       -5    1    3    3    0  502  0.49528571686E+02 -0.15005606696E+03  0.21314869374E+01  0.15810292812E+03  0.46999998093E+01 0.  1.
</event>
<event>
 5   0  0.1479385E-03  0.5977525E+03  0.7818609E-02  0.9910080E-01
        1   -1    0    0  501    0  0.00000000000E+00  0.00000000000E+00  0.97652942092E+03  0.97652942093E+03  0.50400001928E-02 0.  1.
       -1   -1    0    0    0  501  0.00000000000E+00  0.00000000000E+00 -0.91473960275E+02  0.91473960414E+02  0.50400001928E-02 0. -1.
    10030    2    1    2    0    0  0.00000000000E+00  0.00000000000E+00  0.88505546064E+03  0.10680033813E+04  0.59775250242E+03 0.  0.
        3    1    3    3  502    0  0.16745712678E+03 -0.58841487309E+01  0.34068866300E+00  0.16756085099E+03  0.10100000352E+00 0. -1.
       -3    1    3    3    0  502 -0.16745712678E+03  0.58841487309E+01  0.88471477198E+03  0.90044253036E+03  0.10100000352E+00 0.  1.
</event>
<event>
 5   0  0.1418763E-03  0.6002041E+03  0.7818609E-02  0.9904983E-01
        1   -1    0    0  501    0  0.00000000000E+00  0.00000000000E+00  0.26293502471E+03  0.26293502476E+03  0.50400001928E-02 0. -1.
       -1   -1    0    0    0  501  0.00000000000E+00  0.00000000000E+00 -0.34252285125E+03  0.34252285128E+03  0.50400001928E-02 0.  1.
    10030    2    1    2    0    0  0.00000000000E+00  0.00000000000E+00 -0.79587826533E+02  0.60545787605E+03  0.60020414655E+03 0.  0.
        5    1    3    3  502    0  0.52910772531E+02 -0.21409971560E+03 -0.24504712935E+03  0.32970960506E+03  0.46999998093E+01 0.  1.
       -5    1    3    3    0  502 -0.52910772531E+02  0.21409971560E+03  0.16545930281E+03  0.27574827099E+03  0.46999998093E+01 0. -1.
</event>
<event>
 5   0  0.2421210E-03  0.6000754E+03  0.7818609E-02  0.9905250E-01
        2   -1    0    0  501    0  0.00000000000E+00  0.00000000000E+00  0.59358168404E+03  0.59358168404E+03  0.25500000920E-02 0. -1.
       -2   -1    0    0    0  501  0.00000000000E+00  0.00000000000E+00 -0.15166002808E+03  0.15166002810E+03  0.25500000920E-02 0.  1.
    10030    2    1    2    0    0  0.00000000000E+00  0.00000000000E+00  0.44192165596E+03  0.74524171215E+03  0.60007537819E+03 0.  0.
        1    1    3    3  502    0  0.24577824956E+03 -0.14389778557E+03  0.33818255704E+03  0.44213229079E+03  0.50400001928E-02 0. -1.
       -1    1    3    3    0  502 -0.24577824956E+03  0.14389778557E+03  0.10373909892E+03  0.30310942136E+03  0.50400001928E-02 0.  1.
</event>
<event>
 5   0  0.1416315E-03  0.6000293E+03  0.7818609E-02  0.9905345E-01
        1   -1    0    0  501    0  0.00000000000E+00  0.00000000000E+00  0.35144685926E+03  0.35144685929E+03  0.50400001928E-02 0.  1.
       -1   -1    0    0    0  501  0.00000000000E+00  0.00000000000E+00 -0.25610927810E+03  0.25610927815E+03  0.50400001928E-02 0. -1.
    10030    2    1    2    0    0  0.00000000000E+00  0.00000000000E+00  0.95337581154E+02  0.60755613745E+03  0.60002933742E+03 0.  0.
        2    1    3    3  502    0 -0.68628165028E+02  0.30324847766E+02  0.34179389367E+03  0.34993211797E+03  0.25500000920E-02 0.  1.
       -2    1    3    3    0  502  0.68628165028E+02 -0.30324847766E+02 -0.24645631252E+03  0.25762401948E+03  0.25500000920E-02 0. -1.
</event>
<event>
 5   0  0.2313168E-03  0.6001198E+03  0.7818609E-02  0.9905158E-01
       -2   -1    0    0    0  501  0.00000000000E+00  0.00000000000E+00  0.14867110449E+03  0.14867110451E+03  0.25500000920E-02 0.  1.
        2   -1    0    0  501    0  0.00000000000E+00  0.00000000000E+00 -0.60560481388E+03  0.60560481389E+03  0.25500000920E-02 0. -1.
    10030    2    1    2    0    0  0.00000000000E+00  0.00000000000E+00 -0.45693370940E+03  0.75427591840E+03  0.60011977662E+03 0.  0.
        2    1    3    3  502    0  0.14262633574E+03 -0.19907927023E+03 -0.44638570709E+03  0.50915128104E+03  0.25500000920E-02 0. -1.
       -2    1    3    3    0  502 -0.14262633574E+03  0.19907927023E+03 -0.10548002310E+02  0.24512463736E+03  0.25500000920E-02 0.  1.
</event>
<event>
 5   0  0.1423430E-03  0.5999418E+03  0.7818609E-02  0.9905527E-01
       -1   -1    0    0    0  501  0.00000000000E+00  0.00000000000E+00  0.55607577853E+03  0.55607577856E+03  0.50400001928E-02 0. -1.
        1   -1    0    0  501    0  0.00000000000E+00  0.00000000000E+00 -0.16181707127E+03  0.16181707135E+03  0.50400001928E-02 0.  1.
    10030    2    1    2    0    0  0.00000000000E+00  0.00000000000E+00  0.39425870726E+03  0.71789284991E+03  0.59994184360E+03 0.  0.
        1    1    3    3  502    0 -0.25644894671E+03 -0.93247901254E+02  0.34620778299E+03  0.44081862754E+03  0.50400001928E-02 0. -1.
       -1    1    3    3    0  502  0.25644894671E+03  0.93247901254E+02  0.48050924269E+02  0.27707422237E+03  0.50400001928E-02 0.  1.
</event>
<event>
 5   0  0.2324616E-03  0.6000504E+03  0.7818609E-02  0.9905302E-01
       -2   -1    0    0    0  501  0.00000000000E+00  0.00000000000E+00  0.12341483025E+03  0.12341483027E+03  0.25500000920E-02 0.  1.
        2   -1    0    0  501    0  0.00000000000E+00  0.00000000000E+00 -0.72937034565E+03  0.72937034566E+03  0.25500000920E-02 0. -1.
    10030    2    1    2    0    0  0.00000000000E+00  0.00000000000E+00 -0.60595551541E+03  0.85278517593E+03  0.60005038924E+03 0.  0.
        4    1    3    3  502    0  0.21187850386E+02  0.16168060992E+03  0.54936168978E+02  0.17207306643E+03  0.12699999809E+01 0.  1.
       -4    1    3    3    0  502 -0.21187850386E+02 -0.16168060992E+03 -0.66089168439E+03  0.68071210950E+03  0.12699999809E+01 0. -1.
</event>
<event>
 5   0  0.1392854E-03  0.6002222E+03  0.7818609E-02  0.9904945E-01
        1   -1    0    0  501    0  0.00000000000E+00  0.00000000000E+00  0.22388835358E+03  0.22388835364E+03  0.50400001928E-02 0. -1.
       -1   -1    0    0    0  501  0.00000000000E+00  0.00000000000E+00 -0.40228392627E+03  0.40228392630E+03  0.50400001928E-02 0.  1.
    10030    2    1    2    0    0  0.00000000000E+00  0.00000000000E+00 -0.17839557269E+03  0.62617227994E+03  0.60022224534E+03 0.  0.
        4    1    3    3  502    0 -0.78891978458E+02  0.16186457456E+03 -0.33966302503E+03  0.38444332253E+03  0.12699999809E+01 0.  1.
       -4    1    3    3    0  502  0.78891978458E+02 -0.16186457456E+03  0.16126745235E+03  0.24172895741E+03  0.12699999809E+01 0. -1.
</event>
<event>
 5   0  0.2406307E-03  0.5981814E+03  0.7818609E-02  0.9909186E-01
        2   -1    0    0  501    0  0.00000000000E+00  0.00000000000E+00  0.25594308439E+04  0.25594308439E+04  0.25500000920E-02 0. -1.
       -2   -1    0    0    0  501  0.00000000000E+00  0.00000000000E+00 -0.34951229397E+02  0.34951229490E+02  0.25500000920E-02 0.  1.
    10030    2    1    2    0    0  0.00000000000E+00  0.00000000000E+00  0.25244796145E+04  0.25943820734E+04  0.59818142623E+03 0.  0.
        5    1    3    3  502    0  0.23824138404E+02 -0.16524607377E+02  0.25531603742E+04  0.25533293244E+04  0.46999998093E+01 0. -1.
       -5    1    3    3    0  502 -0.23824138404E+02  0.16524607377E+02 -0.28680759761E+02  0.41052748974E+02  0.46999998093E+01 0.  1.
</event>
<event>
 5   0  0.1416315E-03  0.6001961E+03  0.7818609E-02  0.9904999E-01
       -1   -1    0    0    0  501  0.00000000000E+00  0.00000000000E+00  0.14078885532E+03  0.14078885541E+03  0.50400001928E-02 0.  1.
        1   -1    0    0  501    0  0.00000000000E+00  0.00000000000E+00 -0.63967310860E+03  0.63967310862E+03  0.50400001928E-02 0. -1.
    10030    2    1    2    0    0  0.00000000000E+00  0.00000000000E+00 -0.49888425328E+03  0.78046196403E+03  0.60019611722E+03 0.  0.
        2    1    3    3  502    0 -0.13268479001E+03 -0.12972413236E+03 -0.55612852320E+03  0.58627002170E+03  0.25500000920E-02 0. -1.
       -2    1    3    3    0  502  0.13268479001E+03  0.12972413236E+03  0.57244269927E+02  0.19419194233E+03  0.25500000920E-02 0.  1.
</event>
<event>
 5   0  0.1479385E-03  0.6003152E+03  0.7818609E-02  0.9904752E-01
        1   -1    0    0  501    0  0.00000000000E+00  0.00000000000E+00  0.22436192420E+03  0.22436192425E+03  0.50400001928E-02 0. -1.
       -1   -1    0    0    0  501  0.00000000000E+00  0.00000000000E+00 -0.40155910106E+03  0.40155910109E+03  0.50400001928E-02 0.  1.
    10030    2    1    2    0    0  0.00000000000E+00  0.00000000000E+00 -0.17719717686E+03  0.62592102535E+03  0.60031515930E+03 0.  0.
        3    1    3    3  502    0  0.24660978138E+03 -0.75897234443E+02  0.71297730200E+02  0.26769413704E+03  0.10100000352E+00 0. -1.
       -3    1    3    3    0  502 -0.24660978138E+03  0.75897234443E+02 -0.24849490707E+03  0.35822688831E+03  0.10100000352E+00 0.  1.
</event>
<event>
 5   0  0.2421210E-03  0.5997773E+03  0.7818609E-02  0.9905868E-01
       -2   -1    0    0    0  501  0.00000000000E+00  0.00000000000E+00  0.74051727093E+02  0.74051727137E+02  0.25500000920E-02 0.  1.
        2   -1    0    0  501    0  0.00000000000E+00  0.00000000000E+00 -0.12144646910E+04  0.12144646910E+04  0.25500000920E-02 0. -1.
    10030    2    1    2    0    0  0.00000000000E+00  0.00000000000E+00 -0.11404129639E+04  0.12885164181E+04  0.59977731831E+03 0.  0.
        1    1    3    3  502    0  0.23579729175E+03 -0.81856630683E+02 -0.21309095956E+03  0.32818992650E+03  0.50400001928E-02 0.  1.
       -1    1    3    3    0  502 -0.23579729175E+03  0.81856630683E+02 -0.92732200433E+03  0.96032649162E+03  0.50400001928E-02 0. -1.
</event>
<event>
 5   0  0.1479385E-03  0.5999866E+03  0.7818609E-02  0.9905434E-01
       -1   -1    0    0    0  501  0.00000000000E+00  0.00000000000E+00  0.55711141710E+03  0.55711141712E+03  0.50400001928E-02 0. -1.
        1   -1    0    0  501    0  0.00000000000E+00  0.00000000000E+00 -0.16154037107E+03  0.16154037115E+03  0.50400001928E-02 0.  1.
    10030    2    1    2    0    0  0.00000000000E+00  0.00000000000E+00  0.39557104603E+03  0.71865178827E+03  0.59998661679E+03 0.  0.
        3    1    3    3  502    0 -0.15261419505E+03 -0.17603273590E+02 -0.11084911004E+03  0.18944261181E+03  0.10100000352E+00 0.  1.
       -3    1    3    3    0  502  0.15261419505E+03  0.17603273590E+02  0.50642015608E+03  0.52920917646E+03  0.10100000352E+00 0. -1.
</event>
<event>
 5   0  0.2421210E-03  0.6008621E+03  0.7818609E-02  0.9903619E-01
        2   -1    0    0  501    0  0.00000000000E+00  0.00000000000E+00  0.14672189805E+04  0.14672189805E+04  0.25500000920E-02 0.  1.
       -2   -1    0    0    0  501  0.00000000000E+00  0.00000000000E+00 -0.61516943190E+02  0.61516943243E+02  0.25500000920E-02 0. -1.
    10030    2    1    2    0    0  0.00000000000E+00  0.00000000000E+00  0.14057020373E+04  0.15287359237E+04  0.60086213630E+03 0.  0.
        1    1    3    3  502    0 -0.24839313088E+03  0.16188129073E+03  0.57940628377E+03  0.65085815770E+03  0.50400001928E-02 0. -1.
       -1    1    3    3    0  502  0.24839313088E+03 -0.16188129073E+03  0.82629575351E+03  0.87787776600E+03  0.50400001928E-02 0.  1.
</event>
<event>
 5   0  0.1479385E-03  0.6000703E+03  0.7818609E-02  0.9905260E-01
        1   -1    0    0  501    0  0.00000000000E+00  0.00000000000E+00  0.42369809431E+03  0.42369809434E+03  0.50400001928E-02 0.  1.
       -1   -1    0    0    0  501  0.00000000000E+00  0.00000000000E+00 -0.21246516504E+03  0.21246516510E+03  0.50400001928E-02 0. -1.
    10030    2    1    2    0    0  0.00000000000E+00  0.00000000000E+00  0.21123292928E+03  0.63616325944E+03  0.60007028109E+03 0.  0.
        3    1    3    3  502    0  0.19621118844E+03  0.22436605356E+03  0.69166505457E+02  0.30597871190E+03  0.10100000352E+00 0.  1.
       -3    1    3    3    0  502 -0.19621118844E+03 -0.22436605356E+03  0.14206642382E+03  0.33018454754E+03  0.10100000352E+00 0. -1.
</event>
<event>
 5   0  0.1418763E-03  0.5999886E+03  0.7818609E-02  0.9905430E-01
        1   -1    0    0  501    0  0.00000000000E+00  0.00000000000E+00  0.59128883108E+03  0.59128883111E+03  0.50400001928E-02 0. -1.
       -1   -1    0    0    0  501  0.00000000000E+00  0.00000000000E+00 -0.15220411522E+03  0.15220411531E+03  0.50400001928E-02 0.  1.
    10030    2    1    2    0    0  0.00000000000E+00  0.00000000000E+00  0.43908471586E+03  0.74349294641E+03  0.59998864461E+03 0.  0.
        5    1    3    3  502    0  0.90405058048E+01  0.10499301232E+03 -0.12846437769E+03  0.16622409487E+03  0.46999998093E+01 0.  1.
       -5    1    3    3    0  502 -0.90405058048E+01 -0.10499301232E+03  0.56754909355E+03  0.57726885155E+03  0.46999998093E+01 0. -1.
</event>
<event>
 5   0  0.2324616E-03  0.5996107E+03  0.7818609E-02  0.9906214E-01
        2   -1    0    0  501    0  0.00000000000E+00  0.00000000000E+00  0.44254627840E+03  0.44254627841E+03  0.25500000920E-02 0. -1.
       -2   -1    0    0    0  501  0.00000000000E+00  0.00000000000E+00 -0.20310477595E+03  0.20310477596E+03  0.25500000920E-02 0.  1.
    10030    2    1    2    0    0  0.00000000000E+00  0.00000000000E+00  0.23944150246E+03  0.64565105437E+03  0.59961074950E+03 0.  0.
        4    1    3    3  502    0  0.27116568672E+02  0.25164075124E+03 -0.53314307607E+02  0.25865499082E+03  0.12699999809E+01 0.  1.
       -4    1    3    3    0  502 -0.27116568672E+02 -0.25164075124E+03  0.29275581006E+03  0.38699606355E+03  0.12699999809E+01 0. -1.
</event>
<event>
 5   0  0.2313168E-03  0.5999626E+03  0.7818609E-02  0.9905484E-01
        2   -1    0    0  501    0  0.00000000000E+00  0.00000000000E+00  0.57905585711E+03  0.57905585712E+03  0.25500000920E-02 0. -1.
       -2   -1    0    0    0  501  0.00000000000E+00  0.00000000000E+00 -0.15540606402E+03  0.15540606404E+03  0.25500000920E-02 0.  1.
    10030    2    1    2    0    0  0.00000000000E+00  0.00000000000E+00  0.42364979310E+03  0.73446192116E+03  0.59996263753E+03 0.  0.
        2    1    3    3  502    0 -0.34467934569E+02 -0.17561793265E+03 -0.82892570336E+02  0.19723304745E+03  0.25500000920E-02 0.  1.
       -2    1    3    3    0  502  0.34467934569E+02  0.17561793265E+03  0.50654236343E+03  0.53722887371E+03  0.25500000920E-02 0. -1.
</event>
<event>
 5   0  0.1392854E-03  0.5996644E+03  0.7818609E-02  0.9906103E-01
       -1   -1    0    0    0  501  0.00000000000E+00  0.00000000000E+00  0.19324667861E+03  0.19324667867E+03  0.50400001928E-02 0.  1.
        1   -1    0    0  501    0  0.00000000000E+00  0.00000000000E+00 -0.46520507461E+03  0.46520507464E+03  0.50400001928E-02 0. -1.
    10030    2    1    2    0    0  0.00000000000E+00  0.00000000000E+00 -0.27195839600E+03  0.65845175332E+03  0.59966435803E+03 0.  0.
        4    1    3    3  502    0 -0.78769281587E+02  0.10388124092E+03 -0.43245201472E+03  0.45167717440E+03  0.12699999809E+01 0. -1.
       -4    1    3    3    0  502  0.78769281587E+02 -0.10388124092E+03  0.16049361872E+03  0.20677457891E+03  0.12699999809E+01 0.  1.
</event>
<event>
 5   0  0.9496750E-04  0.6000313E+03  0.7818609E-02  0.9905341E-01
        3   -1    0    0  501    0  0.00000000000E+00  0.00000000000E+00  0.20736245948E+03  0.20736248407E+03  0.10100000352E+00 0. -1.
       -3   -1    0    0    0  501  0.00000000000E+00  0.00000000000E+00 -0.43406786693E+03  0.43406787868E+03  0.10100000352E+00 0.  1.
    10030    2    1    2    0    0  0.00000000000E+00  0.00000000000E+00 -0.22670540746E+03  0.64143036275E+03  0.60003130626E+03 0.  0.
        2    1    3    3  502    0 -0.30099514271E+02  0.70415146754E+02 -0.42344435016E+03  0.43031313173E+03  0.25500000920E-02 0.  1.
       -2    1    3    3    0  502  0.30099514271E+02 -0.70415146754E+02  0.19673894270E+03  0.21111723102E+03  0.25500000920E-02 0. -1.
</event>
<event>
 5   0  0.2406307E-03  0.6001080E+03  0.7818609E-02  0.9905182E-01
        2   -1    0    0  501    0  0.00000000000E+00  0.00000000000E+00  0.53893682997E+03  0.53893682998E+03  0.25500000920E-02 0. -1.
       -2   -1    0    0    0  501  0.00000000000E+00  0.00000000000E+00 -0.16705555595E+03  0.16705555597E+03  0.25500000920E-02 0.  1.
    10030    2    1    2    0    0  0.00000000000E+00  0.00000000000E+00  0.37188127403E+03  0.70599238595E+03  0.60010796282E+03 0.  0.
        5    1    3    3  502    0  0.24109945004E+03  0.51373694854E+01 -0.24030301660E+02  0.24239406505E+03  0.46999998093E+01 0.  1.
       -5    1    3    3    0  502 -0.24109945004E+03 -0.51373694854E+01  0.39591157569E+03  0.46359832090E+03  0.46999998093E+01 0. -1.
</event>
<event>
 5   0  0.1392854E-03  0.6000708E+03  0.7818609E-02  0.9905259E-01
        1   -1    0    0  501    0  0.00000000000E+00  0.00000000000E+00  0.92136976951E+03  0.92136976952E+03  0.50400001928E-02 0.  1.
       -1   -1    0    0    0  501  0.00000000000E+00  0.00000000000E+00 -0.97703718861E+02  0.97703718991E+02  0.50400001928E-02 0. -1.
    10030    2    1    2    0    0  0.00000000000E+00  0.00000000000E+00  0.82366605065E+03  0.10190734885E+04  0.60007083915E+03 0.  0.
        4    1    3    3  502    0 -0.45994919392E+02 -0.26045721176E+03  0.65239943695E+03  0.70397452369E+03  0.12699999809E+01 0.  1.
       -4    1    3    3    0  502  0.45994919392E+02  0.26045721176E+03  0.17126661370E+03  0.31509896483E+03  0.12699999809E+01 0. -1.
</event>
<event>
 5   0  0.2324616E-03  0.6005252E+03  0.7818609E-02  0.9904317E-01
       -2   -1    0    0    0  501  0.00000000000E+00  0.00000000000E+00  0.24020718866E+03  0.24020718867E+03  0.25500000920E-02 0. -1.
        2   -1    0    0  501    0  0.00000000000E+00  0.00000000000E+00 -0.37533271807E+03  0.37533271807E+03  0.25500000920E-02 0.  1.
    10030    2    1    2    0    0  0.00000000000E+00  0.00000000000E+00 -0.13512552941E+03  0.61553990674E+03  0.60052516025E+03 0.  0.
        4    1    3    3  502    0  0.26505530683E+03 -0.55704209356E+02  0.65287745045E+02  0.27860613269E+03  0.12699999809E+01 0. -1.
       -4    1    3    3    0  502 -0.26505530683E+03  0.55704209356E+02 -0.20041327445E+03  0.33693377405E+03  0.12699999809E+01 0.  1.
</event>
<event>
 5   0  0.1416315E-03  0.5986849E+03  0.7818609E-02  0.9908138E-01
        1   -1    0    0  501    0  0.00000000000E+00  0.00000000000E+00  0.55320527973E+03  0.55320527975E+03  0.50400001928E-02 0. -1.
       -1   -1    0    0    0  501  0.00000000000E+00  0.00000000000E+00 -0.16197587489E+03  0.16197587497E+03  0.50400001928E-02 0.  1.
    10030    2    1    2    0    0  0.00000000000E+00  0.00000000000E+00  0.39122940483E+03  0.71518115472E+03  0.59868492286E+03 0.  0.
        2    1    3    3  502    0 -0.44667781581E+02  0.13820781868E+03  0.50828922663E+03  0.52863460894E+03  0.25500000920E-02 0. -1.
       -2    1    3    3    0  502  0.44667781581E+02 -0.13820781868E+03 -0.11705982180E+03  0.18654654578E+03  0.25500000920E-02 0.  1.
</event>
<event>
 5   0  0.1416315E-03  0.5999386E+03  0.7818609E-02  0.9905533E-01
       -1   -1    0    0    0  501  0.00000000000E+00  0.00000000000E+00  0.74376782368E+02  0.74376782539E+02  0.50400001928E-02 0. -1.
        1   -1    0    0  501    0  0.00000000000E+00  0.00000000000E+00 -0.12098074488E+04  0.12098074488E+04  0.50400001928E-02 0.  1.
    10030    2    1    2    0    0  0.00000000000E+00  0.00000000000E+00 -0.11354306665E+04  0.12841842314E+04  0.59993861501E+03 0.  0.
        2    1    3    3  502    0  0.59235009018E+02  0.26906834158E+03 -0.82166352830E+03  0.86662420488E+03  0.25500000920E-02 0.  1.
       -2    1    3    3    0  502 -0.59235009018E+02 -0.26906834158E+03 -0.31376713817E+03  0.41756002651E+03  0.25500000920E-02 0. -1.
</event>
<event>
 5   0  0.2313168E-03  0.6000228E+03  0.7818609E-02  0.9905359E-01
        2   -1    0    0  501    0  0.00000000000E+00  0.00000000000E+00  0.13468653136E+04  0.13468653136E+04  0.25500000920E-02 0. -1.
       -2   -1    0    0    0  501  0.00000000000E+00  0.00000000000E+00 -0.66826894132E+02  0.66826894180E+02  0.25500000920E-02 0.  1.
    10030    2    1    2    0    0  0.00000000000E+00  0.00000000000E+00  0.12800384195E+04  0.14136922078E+04  0.60002275209E+03 0.  0.
        2    1    3    3  502    0  0.35937003388E+02 -0.17340536842E+03  0.12105854951E+04  0.12234697098E+04  0.25500000920E-02 0. -1.
       -2    1    3    3    0  502 -0.35937003388E+02  0.17340536842E+03  0.69452924395E+02  0.19022249794E+03  0.25500000920E-02 0.  1.
</event>
<event>
 5   0  0.1418763E-03  0.6024114E+03  0.7818609E-02  0.9900416E-01
        1   -1    0    0  501    0  0.00000000000E+00  0.00000000000E+00  0.30905116862E+03  0.30905116866E+03  0.50400001928E-02 0.  1.
       -1   -1    0    0    0  501  0.00000000000E+00  0.00000000000E+00 -0.29355934628E+03  0.29355934632E+03  0.50400001928E-02 0. -1.
    10030    2    1    2    0    0  0.00000000000E+00  0.00000000000E+00  0.15491822341E+02  0.60261051498E+03  0.60241135132E+03 0.  0.
        5    1    3    3  502    0  0.24147010608E+03 -0.17418073689E+03  0.53104345122E+02  0.30247132543E+03  0.46999998093E+01 0.  1.
       -5    1    3    3    0  502 -0.24147010608E+03  0.17418073689E+03 -0.37612522781E+02  0.30013918955E+03  0.46999998093E+01 0. -1.
</event>
<event>
 5   0  0.1392854E-03  0.6001380E+03  0.7818609E-02  0.9905120E-01
        1   -1    0    0  501    0  0.00000000000E+00  0.00000000000E+00  0.24565059352E+03  0.24565059357E+03  0.50400001928E-02 0. -1.
       -1   -1    0    0    0  501  0.00000000000E+00  0.00000000000E+00 -0.36654258073E+03  0.36654258076E+03  0.50400001928E-02 0.  1.
    10030    2    1    2    0    0  0.00000000000E+00  0.00000000000E+00 -0.12089198721E+03  0.61219317434E+03  0.60013799258E+03 0.  0.
        4    1    3    3  502    0 -0.29118860553E+03 -0.48425182185E+02 -0.11541713110E+03  0.31695193533E+03  0.12699999809E+01 0.  1.
       -4    1    3    3    0  502  0.29118860553E+03  0.48425182185E+02 -0.54748561029E+01  0.29524123900E+03  0.12699999809E+01 0. -1.
</event>
<event>
 5   0  0.1418763E-03  0.5998732E+03  0.7818609E-02  0.9905669E-01
        1   -1    0    0  501    0  0.00000000000E+00  0.00000000000E+00  0.67264658786E+03  0.67264658788E+03  0.50400001928E-02 0.  1.
       -1   -1    0    0    0  501  0.00000000000E+00  0.00000000000E+00 -0.13374329841E+03  0.13374329851E+03  0.50400001928E-02 0. -1.
    10030    2    1    2    0    0  0.00000000000E+00  0.00000000000E+00  0.53890328944E+03  0.80638988638E+03  0.59987323118E+03 0.  0.
        5    1    3    3  502    0 -0.29241217007E+03  0.65882329418E+02  0.25638215696E+03  0.39446071914E+03  0.46999998093E+01 0. -1.
       -5    1    3    3    0  502  0.29241217007E+03 -0.65882329418E+02  0.28252113248E+03  0.41192916725E+03  0.46999998093E+01 0.  1.
</event>
<event>
 5   0  0.2313168E-03  0.5997676E+03  0.7818609E-02  0.9905888E-01
        2   -1    0    0  501    0  0.00000000000E+00  0.00000000000E+00  0.73295089718E+03  0.73295089718E+03  0.25500000920E-02 0.  1.
       -2   -1    0    0    0  501  0.00000000000E+00  0.00000000000E+00 -0.12269620029E+03  0.12269620031E+03  0.25500000920E-02 0. -1.
    10030    2    1    2    0    0  0.00000000000E+00  0.00000000000E+00  0.61025469689E+03  0.85564709749E+03  0.59976758863E+03 0.  0.
        2    1    3    3  502    0  0.27035327745E+03 -0.78767717537E+00  0.49025314318E+03  0.55985682050E+03  0.25500000920E-02 0.  1.
       -2    1    3    3    0  502 -0.27035327745E+03  0.78767717537E+00  0.12000155371E+03  0.29579027699E+03  0.25500000920E-02 0. -1.
</event>
<event>
 5   0  0.2313168E-03  0.6002693E+03  0.7818609E-02  0.9904847E-01
        2   -1    0    0  501    0  0.00000000000E+00  0.00000000000E+00  0.68322561853E+03  0.68322561853E+03  0.25500000920E-02 0. -1.
       -2   -1    0    0    0  501  0.00000000000E+00  0.00000000000E+00 -0.13184636192E+03  0.13184636194E+03  0.25500000920E-02 0.  1.
    10030    2    1    2    0    0  0.00000000000E+00  0.00000000000E+00  0.55137925661E+03  0.81507198047E+03  0.60026931350E+03 0.  0.
        2    1    3    3  502    0  0.18854503762E+03 -0.88973286059E+02  0.56885605114E+03  0.60585698293E+03  0.25500000920E-02 0. -1.
       -2    1    3    3    0  502 -0.18854503762E+03  0.88973286059E+02 -0.17476794527E+02  0.20921499754E+03  0.25500000920E-02 0.  1.
</event>
<event>
 5   0  0.1392854E-03  0.6002544E+03  0.7818609E-02  0.9904878E-01
       -1   -1    0    0    0  501  0.00000000000E+00  0.00000000000E+00  0.12283247065E+03  0.12283247075E+03  0.50400001928E-02 0.  1.
        1   -1    0    0  501    0  0.00000000000E+00  0.00000000000E+00 -0.73332672025E+03  0.73332672027E+03  0.50400001928E-02 0. -1.
    10030    2    1    2    0    0  0.00000000000E+00  0.00000000000E+00 -0.61049424961E+03  0.85615919102E+03  0.60025438904E+03 0.  0.
        4    1    3    3  502    0 -0.25229659469E+03  0.15813775221E+03 -0.35887398745E+03  0.46631885243E+03  0.12699999809E+01 0. -1.
       -4    1    3    3    0  502  0.25229659469E+03 -0.15813775221E+03 -0.25162026215E+03  0.38984033859E+03  0.12699999809E+01 0.  1.
</event>
<event>
 5   0  0.2346281E-03  0.6001853E+03  0.7818609E-02  0.9905022E-01
       -2   -1    0    0    0  501  0.00000000000E+00  0.00000000000E+00  0.14227511275E+03  0.14227511278E+03  0.25500000920E-02 0.  1.
        2   -1    0    0  501    0  0.00000000000E+00  0.00000000000E+00 -0.63296807243E+03  0.63296807243E+03  0.25500000920E-02 0. -1.
    10030    2    1    2    0    0  0.00000000000E+00  0.00000000000E+00 -0.49069295967E+03  0.77524318521E+03  0.60018531767E+03 0.  0.
        3    1    3    3  502    0  0.48898555050E+02  0.20191618275E+03 -0.52505969804E+03  0.56466707913E+03  0.10100000352E+00 0. -1.
       -3    1    3    3    0  502 -0.48898555050E+02 -0.20191618275E+03  0.34366738369E+02  0.21057610608E+03  0.10100000352E+00 0.  1.
</event>
<event>
 5   0  0.2346281E-03  0.5997574E+03  0.7818609E-02  0.9905910E-01
        2   -1    0    0  501    0  0.00000000000E+00  0.00000000000E+00  0.89888619326E+02  0.89888619363E+02  0.25500000920E-02 0. -1.
       -2   -1    0    0    0  501  0.00000000000E+00  0.00000000000E+00 -0.10004295198E+04  0.10004295198E+04  0.25500000920E-02 0.  1.
    10030    2    1    2    0    0  0.00000000000E+00  0.00000000000E+00 -0.91054090046E+03  0.10903181392E+04  0.59975737857E+03 0.  0.
        3    1    3    3  502    0 -0.17626709726E+02  0.75630744242E+02  0.71291628344E+02  0.10541924323E+03  0.10100000352E+00 0. -1.
       -3    1    3    3    0  502  0.17626709726E+02 -0.75630744242E+02 -0.98183252880E+03  0.98489889592E+03  0.10100000352E+00 0.  1.
</event>
<event>
 5   0  0.2324616E-03  0.6000466E+03  0.7818609E-02  0.9905309E-01
        2   -1    0    0  501    0  0.00000000000E+00  0.00000000000E+00  0.15778818748E+04  0.15778818748E+04  0.25500000920E-02 0.  1.
       -2   -1    0    0    0  501  0.00000000000E+00  0.00000000000E+00 -0.57047354303E+02  0.57047354360E+02  0.25500000920E-02 0. -1.
    10030    2    1    2    0    0  0.00000000000E+00  0.00000000000E+00  0.15208345205E+04  0.16349292292E+04  0.60004661955E+03 0.  0.
        4    1    3    3  502    0  0.27809726031E+03 -0.47084511658E+02  0.10390450935E+04  0.10766482047E+04  0.12699999809E+01 0.  1.
       -4    1    3    3    0  502 -0.27809726031E+03  0.47084511658E+02  0.48178942703E+03  0.55828102451E+03  0.12699999809E+01 0. -1.
</event>
<event>
 5   0  0.1392854E-03  0.5997598E+03  0.7818609E-02  0.9905905E-01
       -1   -1    0    0    0  501  0.00000000000E+00  0.00000000000E+00  0.95623764638E+02  0.95623764771E+02  0.50400001928E-02 0. -1.
        1   -1    0    0  501    0  0.00000000000E+00  0.00000000000E+00 -0.94043521358E+03  0.94043521359E+03  0.50400001928E-02 0.  1.
    10030    2    1    2    0    0  0.00000000000E+00  0.00000000000E+00 -0.84481144894E+03  0.10360589784E+04  0.59975980391E+03 0.  0.
        4    1    3    3  502    0  0.69215864955E+02 -0.10472579060E+03  0.48046419695E+02  0.13441874320E+03  0.12699999809E+01 0. -1.
       -4    1    3    3    0  502 -0.69215864955E+02  0.10472579060E+03 -0.89285786864E+03  0.90164023516E+03  0.12699999809E+01 0.  1.
</event>
<event>
 5   0  0.1392854E-03  0.6001618E+03  0.7818609E-02  0.9905070E-01
       -1   -1    0    0    0  501  0.00000000000E+00  0.00000000000E+00  0.12601983734E+03  0.12601983744E+03  0.50400001928E-02 0. -1.
        1   -1    0    0  501    0  0.00000000000E+00  0.00000000000E+00 -0.71455847693E+03  0.71455847694E+03  0.50400001928E-02 0.  1.
    10030    2    1    2    0    0  0.00000000000E+00  0.00000000000E+00 -0.58853863958E+03  0.84057831439E+03  0.60016178847E+03 0.  0.
        4    1    3    3  502    0 -0.16961098088E+02 -0.17073741360E+03 -0.63907528483E+03  0.66170822560E+03  0.12699999809E+01 0.  1.
       -4    1    3    3    0  502  0.16961098088E+02  0.17073741360E+03  0.50536645245E+02  0.17887008879E+03  0.12699999809E+01 0. -1.
</event>
<event>
 5   0  0.2406307E-03  0.6001222E+03  0.7818609E-02  0.9905153E-01
       -2   -1    0    0    0  501  0.00000000000E+00  0.00000000000E+00  0.17857097163E+03  0.17857097165E+03  0.25500000920E-02 0. -1.
        2   -1    0    0  501    0  0.00000000000E+00  0.00000000000E+00 -0.50420664734E+03  0.50420664735E+03  0.25500000920E-02 0.  1.
    10030    2    1    2    0    0  0.00000000000E+00  0.00000000000E+00 -0.32563567571E+03  0.68277761900E+03  0.60012222398E+03 0.  0.
        5    1    3    3  502    0 -0.21765123532E+03  0.11411548812E+03 -0.35862716929E+03  0.43477573692E+03  0.46999998093E+01 0.  1.
       -5    1    3    3    0  502  0.21765123532E+03 -0.11411548812E+03  0.32991493580E+02  0.24800188208E+03  0.46999998093E+01 0. -1.
</event>
<event>
 5   0  0.1392854E-03  0.6001883E+03  0.7818609E-02  0.9905016E-01
        1   -1    0    0  501    0  0.00000000000E+00  0.00000000000E+00  0.40818589399E+03  0.40818589402E+03  0.50400001928E-02 0.  1.
       -1   -1    0    0    0  501  0.00000000000E+00  0.00000000000E+00 -0.22062617247E+03  0.22062617253E+03  0.50400001928E-02 0. -1.
    10030    2    1    2    0    0  0.00000000000E+00  0.00000000000E+00  0.18755972152E+03  0.62881206655E+03  0.60018827538E+03 0.  0.
        4    1    3    3  502    0 -0.10399088359E+01 -0.15800560643E+03  0.36107059761E+03  0.39413251888E+03  0.12699999809E+01 0.  1.
       -4    1    3    3    0  502  0.10399088359E+01  0.15800560643E+03 -0.17351087609E+03  0.23467954767E+03  0.12699999809E+01 0. -1.
</event>
<event>
 5   0  0.2346281E-03  0.6000708E+03  0.7818609E-02  0.9905259E-01
       -2   -1    0    0    0  501  0.00000000000E+00  0.00000000000E+00  0.42073225411E+02  0.42073225488E+02  0.25500000920E-02 0. -1.
        2   -1    0    0  501    0  0.00000000000E+00  0.00000000000E+00 -0.21396326630E+04  0.21396326630E+04  0.25500000920E-02 0.  1.
    10030    2    1    2    0    0  0.00000000000E+00  0.00000000000E+00 -0.20975594376E+04  0.21817058885E+04  0.60007082053E+03 0.  0.
        3    1    3    3  502    0 -0.20882513628E+03  0.19375490106E+03 -0.13912419908E+04  0.14201067517E+04  0.10100000352E+00 0.  1.
       -3    1    3    3    0  502  0.20882513628E+03 -0.19375490106E+03 -0.70631744682E+03  0.76159913676E+03  0.10100000352E+00 0. -1.
</event>
<event>
 5   0  0.2346281E-03  0.6001266E+03  0.7818609E-02  0.9905144E-01
       -2   -1    0    0    0  501  0.00000000000E+00  0.00000000000E+00  0.11323313244E+03  0.11323313246E+03  0.25500000920E-02 0. -1.
        2   -1    0    0  501    0  0.00000000000E+00  0.00000000000E+00 -0.79515572032E+03  0.79515572032E+03  0.25500000920E-02 0.  1.
    10030    2    1    2    0    0  0.00000000000E+00  0.00000000000E+00 -0.68192258788E+03  0.90838885278E+03  0.60012656332E+03 0.  0.
        3    1    3    3  502    0 -0.10340647038E+03 -0.16412745045E+03 -0.68747834478E+03  0.71432289817E+03  0.10100000352E+00 0.  1.
       -3    1    3    3    0  502  0.10340647038E+03  0.16412745045E+03  0.55557568962E+01  0.19406595462E+03  0.10100000352E+00 0. -1.
</event>
<event>
 5   0  0.1392854E-03  0.5999203E+03  0.7818609E-02  0.9905571E-01
       -1   -1    0    0    0  501  0.00000000000E+00  0.00000000000E+00  0.94909573708E+02  0.94909573842E+02  0.50400001928E-02 0.  1.
        1   -1    0    0  501    0  0.00000000000E+00  0.00000000000E+00 -0.94801906268E+03  0.94801906269E+03  0.50400001928E-02 0. -1.
    10030    2    1    2    0    0  0.00000000000E+00  0.00000000000E+00 -0.85310948897E+03  0.10429286365E+04  0.59992027864E+03 0.  0.
        4    1    3    3  502    0  0.90589258788E+02 -0.26434969305E+03 -0.23701397917E+03  0.36642108734E+03  0.12699999809E+01 0.  1.
       -4    1    3    3    0  502 -0.90589258788E+02  0.26434969305E+03 -0.61609550980E+03  0.67650754919E+03  0.12699999809E+01 0. -1.
</event>
<event>
 5   0  0.1479385E-03  0.5997674E+03  0.7818609E-02  0.9905889E-01
        1   -1    0    0  501    0  0.00000000000E+00  0.00000000000E+00  0.53166636815E+03  0.53166636818E+03  0.50400001928E-02 0.  1.
       -1   -1    0    0    0  501  0.00000000000E+00  0.00000000000E+00 -0.16914787831E+03  0.16914787838E+03  0.50400001928E-02 0. -1.
    10030    2    1    2    0    0  0.00000000000E+00  0.00000000000E+00  0.36251848984E+03  0.70081424656E+03  0.59976741550E+03 0.  0.
        3    1    3    3  502    0  0.53047321692E+02 -0.81321915800E+02 -0.15027314718E+03  0.17891143421E+03  0.10100000352E+00 0. -1.
       -3    1    3    3    0  502 -0.53047321692E+02  0.81321915800E+02  0.51279163702E+03  0.52190281234E+03  0.10100000352E+00 0.  1.
</event>
<event>
 5   0  0.1392854E-03  0.6005401E+03  0.7818609E-02  0.9904286E-01
        1   -1    0    0  501    0  0.00000000000E+00  0.00000000000E+00  0.40713120820E+03  0.40713120824E+03  0.50400001928E-02 0. -1.
       -1   -1    0    0    0  501  0.00000000000E+00  0.00000000000E+00 -0.22145711508E+03  0.22145711514E+03  0.50400001928E-02 0.  1.
    10030    2    1    2    0    0  0.00000000000E+00  0.00000000000E+00  0.18567409312E+03  0.62858832338E+03  0.60054009977E+03 0.  0.
        4    1    3    3  502    0  0.41866103813E+02  0.21245797268E+03 -0.12489100120E+03  0.24998107105E+03  0.12699999809E+01 0.  1.
       -4    1    3    3    0  502 -0.41866103813E+02 -0.21245797268E+03  0.31056509432E+03  0.37860725232E+03  0.12699999809E+01 0. -1.
</event>
<event>
 5   0  0.2406307E-03  0.5999701E+03  0.7818609E-02  0.9905468E-01
       -2   -1    0    0    0  501  0.00000000000E+00  0.00000000000E+00  0.84341236461E+02  0.84341236499E+02  0.25500000920E-02 0.  1.
        2   -1    0    0  501    0  0.00000000000E+00  0.00000000000E+00 -0.10669872672E+04  0.10669872672E+04  0.25500000920E-02 0. -1.
    10030    2    1    2    0    0  0.00000000000E+00  0.00000000000E+00 -0.98264603070E+03  0.11513285037E+04  0.59997008400E+03 0.  0.
        5    1    3    3  502    0 -0.28341975488E+02  0.19305067526E+03 -0.54162202013E+02  0.20255237574E+03  0.46999998093E+01 0.  1.
       -5    1    3    3    0  502  0.28341975488E+02 -0.19305067526E+03 -0.92848382869E+03  0.94877612792E+03  0.46999998093E+01 0. -1.
</event>
<event>
 5   0  0.1392854E-03  0.6001567E+03  0.7818609E-02  0.9905081E-01
        1   -1    0    0  501    0  0.00000000000E+00  0.00000000000E+00  0.63813341273E+03  0.63813341275E+03  0.50400001928E-02 0. -1.
       -1   -1    0    0    0  501  0.00000000000E+00  0.00000000000E+00 -0.14111002103E+03  0.14111002112E+03  0.50400001928E-02 0.  1.
    10030    2    1    2    0    0  0.00000000000E+00  0.00000000000E+00  0.49702339170E+03  0.77924343387E+03  0.60015671065E+03 0.  0.
        4    1    3    3  502    0 -0.25127730714E+03  0.57429447036E+02  0.49018218442E+02  0.26237916287E+03  0.12699999809E+01 0.  1.
       -4    1    3    3    0  502  0.25127730714E+03 -0.57429447036E+02  0.44800517326E+03  0.51686427100E+03  0.12699999809E+01 0. -1.
</event>
<event>
 5   0  0.1418763E-03  0.6000439E+03  0.7818609E-02  0.9905315E-01
       -1   -1    0    0    0  501  0.00000000000E+00  0.00000000000E+00  0.15997722527E+03  0.15997722535E+03  0.50400001928E-02 0.  1.
        1   -1    0    0  501    0  0.00000000000E+00  0.00000000000E+00 -0.56266243361E+03  0.56266243363E+03  0.50400001928E-02 0. -1.
    10030    2    1    2    0    0  0.00000000000E+00  0.00000000000E+00 -0.40268520834E+03  0.72263965898E+03  0.60004391482E+03 0.  0.
        5    1    3    3  502    0  0.21821788024E+03  0.36872638739E+02 -0.44523407590E+03  0.49722641431E+03  0.46999998093E+01 0. -1.
       -5    1    3    3    0  502 -0.21821788024E+03 -0.36872638739E+02  0.42548867559E+02  0.22541324467E+03  0.46999998093E+01 0.  1.
</event>
<event>
 5   0  0.1416315E-03  0.5999350E+03  0.7818609E-02  0.9905541E-01
       -1   -1    0    0    0  501  0.00000000000E+00  0.00000000000E+00  0.27486887580E+03  0.27486887585E+03  0.50400001928E-02 0.  1.
        1   -1    0    0  501    0  0.00000000000E+00  0.00000000000E+00 -0.32735789020E+03  0.32735789024E+03  0.50400001928E-02 0. -1.
    10030    2    1    2    0    0  0.00000000000E+00  0.00000000000E+00 -0.52489014395E+02  0.60222676608E+03  0.59993498077E+03 0.  0.
        2    1    3    3  502    0  0.16312497242E+03  0.25172823549E+03 -0.28158124702E+02  0.30128017054E+03  0.25500000920E-02 0. -1.
       -2    1    3    3    0  502 -0.16312497242E+03 -0.25172823549E+03 -0.24330889693E+02  0.30094659554E+03  0.25500000920E-02 0.  1.
</event>
<event>
 5   0  0.1418763E-03  0.6003958E+03  0.7818609E-02  0.9904585E-01
        1   -1    0    0  501    0  0.00000000000E+00  0.00000000000E+00  0.79166721458E+03  0.79166721460E+03  0.50400001928E-02 0. -1.
       -1   -1    0    0    0  501  0.00000000000E+00  0.00000000000E+00 -0.11383415042E+03  0.11383415054E+03  0.50400001928E-02 0.  1.
    10030    2    1    2    0    0  0.00000000000E+00  0.00000000000E+00  0.67783306415E+03  0.90550136513E+03  0.60039575231E+03 0.  0.
        5    1    3    3  502    0  0.18605399103E+03  0.18056175058E+03  0.11079781521E+03  0.28198737419E+03  0.46999998093E+01 0.  1.
       -5    1    3    3    0  502 -0.18605399103E+03 -0.18056175058E+03  0.56703524895E+03  0.62351399094E+03  0.46999998093E+01 0. -1.
</event>
<event>
 5   0  0.2313168E-03  0.5998349E+03  0.7818609E-02  0.9905749E-01
       -2   -1    0    0    0  501  0.00000000000E+00  0.00000000000E+00  0.59961524929E+03  0.59961524929E+03  0.25500000920E-02 0.  1.
        2   -1    0    0  501    0  0.00000000000E+00  0.00000000000E+00 -0.15001367591E+03  0.15001367593E+03  0.25500000920E-02 0. -1.
    10030    2    1    2    0    0  0.00000000000E+00  0.00000000000E+00  0.44960157338E+03  0.74962892523E+03  0.59983493626E+03 0.  0.
        2    1    3    3  502    0 -0.95059645235E+02  0.28165329509E+03  0.17503765710E+03  0.34496825390E+03  0.25500000920E-02 0.  1.
       -2    1    3    3    0  502  0.95059645235E+02 -0.28165329509E+03  0.27456391627E+03  0.40466067132E+03  0.25500000920E-02 0. -1.
</event>
<event>
 5   0  0.2324616E-03  0.6003373E+03  0.7818609E-02  0.9904706E-01
        2   -1    0    0  501    0  0.00000000000E+00  0.00000000000E+00  0.57120728641E+03  0.57120728642E+03  0.25500000920E-02 0. -1.
       -2   -1    0    0    0  501  0.00000000000E+00  0.00000000000E+00 -0.15773823763E+03  0.15773823765E+03  0.25500000920E-02 0.  1.
    10030    2    1    2    0    0  0.00000000000E+00  0.00000000000E+00  0.41346904878E+03  0.72894552407E+03  0.60033734080E+03 0.  0.
        4    1    3    3  502    0 -0.11515309833E+03  0.86111299559E+02  0.52666472561E+03  0.54594206476E+03  0.12699999809E+01 0. -1.
       -4    1    3    3    0  502  0.11515309833E+03 -0.86111299559E+02 -0.11319567683E+03  0.18300345931E+03  0.12699999809E+01 0.  1.
</event>
<event>
 5   0  0.2346281E-03  0.5998727E+03  0.7818609E-02  0.9905670E-01
       -2   -1    0    0    0  501  0.00000000000E+00  0.00000000000E+00  0.12704072875E+03  0.12704072877E+03  0.25500000920E-02 0. -1.
        2   -1    0    0  501    0  0.00000000000E+00  0.00000000000E+00 -0.70813363168E+03  0.70813363168E+03  0.25500000920E-02 0.  1.
    10030    2    1    2    0    0  0.00000000000E+00  0.00000000000E+00 -0.58109290293E+03  0.83517436045E+03  0.59987269526E+03 0.  0.
        3    1    3    3  502    0  0.65474712903E+02 -0.55276467242E+01 -0.69798987750E+03  0.70107586765E+03  0.10100000352E+00 0.  1.
       -3    1    3    3    0  502 -0.65474712903E+02  0.55276467242E+01  0.11689697457E+03  0.13409849280E+03  0.10100000352E+00 0. -1.
</event>
<event>
 5   0  0.1392854E-03  0.5989545E+03  0.7818609E-02  0.9907577E-01
        1   -1    0    0  501    0  0.00000000000E+00  0.00000000000E+00  0.13996088605E+04  0.13996088605E+04  0.50400001928E-02 0. -1.
       -1   -1    0    0    0  501  0.00000000000E+00  0.00000000000E+00 -0.64079786026E+02  0.64079786224E+02  0.50400001928E-02 0.  1.
    10030    2    1    2    0    0  0.00000000000E+00  0.00000000000E+00  0.13355290744E+04  0.14636886467E+04  0.59895454402E+03 0.  0.
        4    1    3    3  502    0 -0.22642221516E+03 -0.12781947408E+03  0.10308895831E+04  0.10631743897E+04  0.12699999809E+01 0. -1.
       -4    1    3    3    0  502  0.22642221516E+03  0.12781947408E+03  0.30463949133E+03  0.40051425699E+03  0.12699999809E+01 0.  1.
</event>
<event>
 5   0  0.1479385E-03  0.5998974E+03  0.7818609E-02  0.9905619E-01
        1   -1    0    0  501    0  0.00000000000E+00  0.00000000000E+00  0.84265555740E+03  0.84265555742E+03  0.50400001928E-02 0.  1.
       -1   -1    0    0    0  501  0.00000000000E+00  0.00000000000E+00 -0.10676869098E+03  0.10676869110E+03  0.50400001928E-02 0. -1.
    10030    2    1    2    0    0  0.00000000000E+00  0.00000000000E+00  0.73588686642E+03  0.94942424851E+03  0.59989742748E+03 0.  0.
        3    1    3    3  502    0 -0.90474327982E+02 -0.27573694032E+03  0.48798214102E+03  0.56775262609E+03  0.10100000352E+00 0.  1.
       -3    1    3    3    0  502  0.90474327982E+02  0.27573694032E+03  0.24790472541E+03  0.38167162242E+03  0.10100000352E+00 0. -1.
</event>
<event>
 5   0  0.1418763E-03  0.5999339E+03  0.7818609E-02  0.9905543E-01
       -1   -1    0    0    0  501  0.00000000000E+00  0.00000000000E+00  0.12500734489E+03  0.12500734499E+03  0.50400001928E-02 0. -1.
        1   -1    0    0  501    0  0.00000000000E+00  0.00000000000E+00 -0.71979902635E+03  0.71979902637E+03  0.50400001928E-02 0.  1.
    10030    2    1    2    0    0  0.00000000000E+00  0.00000000000E+00 -0.59479168147E+03  0.84480637136E+03  0.59993388031E+03 0.  0.
        5    1    3    3  502    0  0.81283501977E+02  0.26436361469E+02 -0.70223355559E+03  0.70743193700E+03  0.46999998093E+01 0.  1.
       -5    1    3    3    0  502 -0.81283501977E+02 -0.26436361469E+02  0.10744187412E+03  0.13737443435E+03  0.46999998093E+01 0. -1.
</event>
<event>
 5   0  0.1418763E-03  0.6000192E+03  0.7818609E-02  0.9905366E-01
        1   -1    0    0  501    0  0.00000000000E+00  0.00000000000E+00  0.90853858404E+02  0.90853858544E+02  0.50400001928E-02 0. -1.
       -1   -1    0    0    0  501  0.00000000000E+00  0.00000000000E+00 -0.99066538663E+03  0.99066538665E+03  0.50400001928E-02 0.  1.
    10030    2    1    2    0    0  0.00000000000E+00  0.00000000000E+00 -0.89981152823E+03  0.10815192452E+04  0.60001924251E+03 0.  0.
        5    1    3    3  502    0 -0.20628443910E+02  0.13850341839E+03 -0.92807114851E+03  0.93858770304E+03  0.46999998093E+01 0.  1.
       -5    1    3    3    0  502  0.20628443910E+02 -0.13850341839E+03  0.28259620281E+02  0.14293154215E+03  0.46999998093E+01 0. -1.
</event>
<event>
 5   0  0.2313168E-03  0.5999586E+03  0.7818609E-02  0.9905492E-01
        2   -1    0    0  501    0  0.00000000000E+00  0.00000000000E+00  0.16638536908E+04  0.16638536908E+04  0.25500000920E-02 0.  1.
       -2   -1    0    0    0  501  0.00000000000E+00  0.00000000000E+00 -0.54083828139E+02  0.54083828199E+02  0.25500000920E-02 0. -1.
    10030    2    1    2    0    0  0.00000000000E+00  0.00000000000E+00  0.16097698627E+04  0.17179375190E+04  0.59995858896E+03 0.  0.
        2    1    3    3  502    0  0.35904135284E+01  0.22676718911E+03  0.13671042454E+04  0.13857886805E+04  0.25500000920E-02 0.  1.
       -2    1    3    3    0  502 -0.35904135284E+01 -0.22676718911E+03  0.24266561724E+03  0.33214883851E+03  0.25500000920E-02 0. -1.
</event>
<event>
 5   0  0.2313168E-03  0.6001477E+03  0.7818609E-02  0.9905100E-01
       -2   -1    0    0    0  501  0.00000000000E+00  0.00000000000E+00  0.77780974769E+02  0.77780974811E+02  0.25500000920E-02 0. -1.
        2   -1    0    0  501    0  0.00000000000E+00  0.00000000000E+00 -0.11576648678E+04  0.11576648678E+04  0.25500000920E-02 0.  1.
    10030    2    1    2    0    0  0.00000000000E+00  0.00000000000E+00 -0.10798838930E+04  0.12354458426E+04  0.60014765482E+03 0.  0.
        2    1    3    3  502    0  0.60325010753E+02  0.21482598040E+03 -0.12691776686E+03  0.25670494411E+03  0.25500000920E-02 0. -1.
       -2    1    3    3    0  502 -0.60325010753E+02 -0.21482598040E+03 -0.95296612612E+03  0.97874089846E+03  0.25500000920E-02 0.  1.
</event>
<event>
 5   0  0.1423430E-03  0.6000493E+03  0.7818609E-02  0.9905304E-01
       -1   -1    0    0    0  501  0.00000000000E+00  0.00000000000E+00  0.29642154027E+03  0.29642154031E+03  0.50400001928E-02 0.  1.
        1   -1    0    0  501    0  0.00000000000E+00  0.00000000000E+00 -0.30367153482E+03  0.30367153486E+03  0.50400001928E-02 0. -1.
    10030    2    1    2    0    0  0.00000000000E+00  0.00000000000E+00 -0.72499945484E+01  0.60009307517E+03  0.60004927835E+03 0.  0.
        1    1    3    3  502    0  0.15513561762E+03  0.24511458993E+03 -0.80224073339E+02  0.30097196550E+03  0.50400001928E-02 0. -1.
       -1    1    3    3    0  502 -0.15513561762E+03 -0.24511458993E+03  0.72974078790E+02  0.29912110967E+03  0.50400001928E-02 0.  1.
</event>
<event>
 5   0  0.1392854E-03  0.5999028E+03  0.7818609E-02  0.9905608E-01
        1   -1    0    0  501    0  0.00000000000E+00  0.00000000000E+00  0.14514147747E+04  0.14514147747E+04  0.50400001928E-02 0. -1.
       -1   -1    0    0    0  501  0.00000000000E+00  0.00000000000E+00 -0.61988365402E+02  0.61988365607E+02  0.50400001928E-02 0.  1.
    10030    2    1    2    0    0  0.00000000000E+00  0.00000000000E+00  0.13894264093E+04  0.15134031403E+04  0.59990275733E+03 0.  0.
        4    1    3    3  502    0  0.26937820121E+02 -0.27547062466E+03  0.98630074577E+03  0.10244025016E+04  0.12699999809E+01 0. -1.
       -4    1    3    3    0  502 -0.26937820121E+02  0.27547062466E+03  0.40312566350E+03  0.48900063873E+03  0.12699999809E+01 0.  1.
</event>
<event>
 5   0  0.2421210E-03  0.5974536E+03  0.7818609E-02  0.9910703E-01
        2   -1    0    0  501    0  0.00000000000E+00  0.00000000000E+00  0.40025205383E+03  0.40025205384E+03  0.25500000920E-02 0. -1.
       -2   -1    0    0    0  501  0.00000000000E+00  0.00000000000E+00 -0.22295377989E+03  0.22295377990E+03  0.25500000920E-02 0.  1.
    10030    2    1    2    0    0  0.00000000000E+00  0.00000000000E+00  0.17729827394E+03  0.62320583374E+03  0.59745362436E+03 0.  0.
        1    1    3    3  502    0  0.19299499002E+03 -0.37047685641E+02  0.32333140537E+03  0.37836859662E+03  0.50400001928E-02 0. -1.
       -1    1    3    3    0  502 -0.19299499002E+03  0.37047685641E+02 -0.14603313143E+03  0.24483723712E+03  0.50400001928E-02 0.  1.
</event>
<event>
 5   0  0.2406307E-03  0.6011720E+03  0.7818609E-02  0.9902977E-01
       -2   -1    0    0    0  501  0.00000000000E+00  0.00000000000E+00  0.39111002638E+02  0.39111002721E+02  0.25500000920E-02 0.  1.
        2   -1    0    0  501    0  0.00000000000E+00  0.00000000000E+00 -0.23101416435E+04  0.23101416435E+04  0.25500000920E-02 0. -1.
    10030    2    1    2    0    0  0.00000000000E+00  0.00000000000E+00 -0.22710306408E+04  0.23492526462E+04  0.60117204197E+03 0.  0.
        5    1    3    3  502    0 -0.17285007737E+03 -0.44358917206E+02 -0.19046875370E+03  0.26104654550E+03  0.46999998093E+01 0.  1.
       -5    1    3    3    0  502  0.17285007737E+03  0.44358917206E+02 -0.20805618871E+04  0.20882061007E+04  0.46999998093E+01 0. -1.
</event>
<event>
 5   0  0.1416315E-03  0.6000421E+03  0.7818609E-02  0.9905319E-01
        1   -1    0    0  501    0  0.00000000000E+00  0.00000000000E+00  0.18310773359E+04  0.18310773359E+04  0.50400001928E-02 0. -1.
       -1   -1    0    0    0  501  0.00000000000E+00  0.00000000000E+00 -0.49158288993E+02  0.49158289251E+02  0.50400001928E-02 0.  1.
    10030    2    1    2    0    0  0.00000000000E+00  0.00000000000E+00  0.17819190469E+04  0.18802356252E+04  0.60004209551E+03 0.  0.
        2    1    3    3  502    0  0.16326252451E+03 -0.13322519563E+03  0.22175949703E+03  0.30590992006E+03  0.25500000920E-02 0.  1.
       -2    1    3    3    0  502 -0.16326252451E+03  0.13322519563E+03  0.15601595499E+04  0.15743257051E+04  0.25500000920E-02 0. -1.
</event>
<event>
 5   0  0.1416315E-03  0.6000498E+03  0.7818609E-02  0.9905303E-01
       -1   -1    0    0    0  501  0.00000000000E+00  0.00000000000E+00  0.91013337151E+02  0.91013337291E+02  0.50400001928E-02 0. -1.
        1   -1    0    0  501    0  0.00000000000E+00  0.00000000000E+00 -0.98903016483E+03  0.98903016485E+03  0.50400001928E-02 0.  1.
    10030    2    1    2    0    0  0.00000000000E+00  0.00000000000E+00 -0.89801682768E+03  0.10800435021E+04  0.60004978436E+03 0.  0.
        2    1    3    3  502    0  0.48768323967E+01  0.18562565419E+03 -0.24843741883E+02  0.18734427801E+03  0.25500000920E-02 0. -1.
       -2    1    3    3    0  502 -0.48768323967E+01 -0.18562565419E+03 -0.87317308580E+03  0.89269922413E+03  0.25500000920E-02 0.  1.
</event>
<event>
 5   0  0.1479385E-03  0.6001637E+03  0.7818609E-02  0.9905067E-01
       -1   -1    0    0    0  501  0.00000000000E+00  0.00000000000E+00  0.85847583518E+03  0.85847583519E+03  0.50400001928E-02 0. -1.
        1   -1    0    0  501    0  0.00000000000E+00  0.00000000000E+00 -0.10489417368E+03  0.10489417380E+03  0.50400001928E-02 0.  1.
    10030    2    1    2    0    0  0.00000000000E+00  0.00000000000E+00  0.75358166150E+03  0.96337000899E+03  0.60016368907E+03 0.  0.
        3    1    3    3  502    0  0.20039703394E+02  0.99735883689E+01 -0.10355215196E+03  0.10594395005E+03  0.10100000352E+00 0.  1.
       -3    1    3    3    0  502 -0.20039703394E+02 -0.99735883689E+01  0.85713381346E+03  0.85742605894E+03  0.10100000352E+00 0. -1.
</event>
<event>
 5   0  0.2346281E-03  0.5997604E+03  0.7818609E-02  0.9905903E-01
       -2   -1    0    0    0  501  0.00000000000E+00  0.00000000000E+00  0.88299760528E+02  0.88299760565E+02  0.25500000920E-02 0. -1.
        2   -1    0    0  501    0  0.00000000000E+00  0.00000000000E+00 -0.10184415214E+04  0.10184415214E+04  0.25500000920E-02 0.  1.
    10030    2    1    2    0    0  0.00000000000E+00  0.00000000000E+00 -0.93014176088E+03  0.11067412820E+04  0.59976042709E+03 0.  0.
        3    1    3    3  502    0 -0.26796321926E+03  0.85649904396E+02 -0.27340820373E+03  0.39229102599E+03  0.10100000352E+00 0. -1.
       -3    1    3    3    0  502  0.26796321926E+03 -0.85649904396E+02 -0.65673355714E+03  0.71445025599E+03  0.10100000352E+00 0.  1.
</event>
<event>
 5   0  0.1479385E-03  0.5997951E+03  0.7818609E-02  0.9905831E-01
        1   -1    0    0  501    0  0.00000000000E+00  0.00000000000E+00  0.50102061482E+03  0.50102061484E+03  0.50400001928E-02 0. -1.
       -1   -1    0    0    0  501  0.00000000000E+00  0.00000000000E+00 -0.17951066383E+03  0.17951066390E+03  0.50400001928E-02 0.  1.
    10030    2    1    2    0    0  0.00000000000E+00  0.00000000000E+00  0.32150995098E+03  0.68053127875E+03  0.59979510899E+03 0.  0.
        3    1    3    3  502    0 -0.21027520624E+03  0.25490962012E+02 -0.80126718284E+02  0.22646357916E+03  0.10100000352E+00 0.  1.
       -3    1    3    3    0  502  0.21027520624E+03 -0.25490962012E+02  0.40163666927E+03  0.45406769958E+03  0.10100000352E+00 0. -1.
</event>
<event>
 5   0  0.1416315E-03  0.5994581E+03  0.7818609E-02  0.9906531E-01
       -1   -1    0    0    0  501  0.00000000000E+00  0.00000000000E+00  0.20160997746E+03  0.20160997753E+03  0.50400001928E-02 0.  1.
        1   -1    0    0  501    0  0.00000000000E+00  0.00000000000E+00 -0.44560048966E+03  0.44560048969E+03  0.50400001928E-02 0. -1.
    10030    2    1    2    0    0  0.00000000000E+00  0.00000000000E+00 -0.24399051219E+03  0.64721046721E+03  0.59945810432E+03 0.  0.
        2    1    3    3  502    0  0.24874935171E+02  0.18040084136E+02  0.19990491327E+03  0.20225276609E+03  0.25500000920E-02 0.  1.
       -2    1    3    3    0  502 -0.24874935171E+02 -0.18040084136E+02 -0.44389542546E+03  0.44495770112E+03  0.25500000920E-02 0. -1.
</event>
<event>
 5   0  0.2346281E-03  0.6000666E+03  0.7818609E-02  0.9905268E-01
       -2   -1    0    0    0  501  0.00000000000E+00  0.00000000000E+00  0.88861234025E+02  0.88861234061E+02  0.25500000920E-02 0.  1.
        2   -1    0    0  501    0  0.00000000000E+00  0.00000000000E+00 -0.10130397941E+04  0.10130397941E+04  0.25500000920E-02 0. -1.
    10030    2    1    2    0    0  0.00000000000E+00  0.00000000000E+00 -0.92417856006E+03  0.11019010282E+04  0.60006655044E+03 0.  0.
        3    1    3    3  502    0 -0.16130663003E+03  0.23734124707E+03 -0.30127674851E+03  0.41607497623E+03  0.10100000352E+00 0.  1.
       -3    1    3    3    0  502  0.16130663003E+03 -0.23734124707E+03 -0.62290181155E+03  0.68582605192E+03  0.10100000352E+00 0. -1.
</event>
<event>
 5   0  0.2406307E-03  0.5997983E+03  0.7818609E-02  0.9905825E-01
        2   -1    0    0  501    0  0.00000000000E+00  0.00000000000E+00  0.13537728229E+04  0.13537728229E+04  0.25500000920E-02 0. -1.
       -2   -1    0    0    0  501  0.00000000000E+00  0.00000000000E+00 -0.66436173848E+02  0.66436173897E+02  0.25500000920E-02 0.  1.
    10030    2    1    2    0    0  0.00000000000E+00  0.00000000000E+00  0.12873366490E+04  0.14202089968E+04  0.59979825491E+03 0.  0.
        5    1    3    3  502    0 -0.95173175997E+02 -0.23963839110E+03  0.28120829201E+03  0.38155561247E+03  0.46999998093E+01 0.  1.
       -5    1    3    3    0  502  0.95173175997E+02  0.23963839110E+03  0.10061283570E+04  0.10386533843E+04  0.46999998093E+01 0. -1.
</event>
<event>
 5   0  0.2406307E-03  0.6005805E+03  0.7818609E-02  0.9904202E-01
        2   -1    0    0  501    0  0.00000000000E+00  0.00000000000E+00  0.85130792906E+03  0.85130792906E+03  0.25500000920E-02 0.  1.
       -2   -1    0    0    0  501  0.00000000000E+00  0.00000000000E+00 -0.10592433455E+03  0.10592433458E+03  0.25500000920E-02 0. -1.
    10030    2    1    2    0    0  0.00000000000E+00  0.00000000000E+00  0.74538359451E+03  0.95723226364E+03  0.60058047221E+03 0.  0.
        5    1    3    3  502    0  0.12263520310E+03  0.74980777984E+02 -0.47462908897E+02  0.15144744245E+03  0.46999998093E+01 0. -1.
       -5    1    3    3    0  502 -0.12263520310E+03 -0.74980777984E+02  0.79284650340E+03  0.80578482119E+03  0.46999998093E+01 0.  1.
</event>
<event>
 5   0  0.2406307E-03  0.6016416E+03  0.7818609E-02  0.9902006E-01
       -2   -1    0    0    0  501  0.00000000000E+00  0.00000000000E+00  0.13904099861E+04  0.13904099861E+04  0.25500000920E-02 0.  1.
        2   -1    0    0  501    0  0.00000000000E+00  0.00000000000E+00 -0.65083801809E+02  0.65083801859E+02  0.25500000920E-02 0. -1.
    10030    2    1    2    0    0  0.00000000000E+00  0.00000000000E+00  0.13253261843E+04  0.14554937879E+04  0.60164164751E+03 0.  0.
        5    1    3    3  502    0  0.17153457492E+03  0.30631509018E+01  0.12603464102E+04  0.12719782455E+04  0.46999998093E+01 0.  1.
       -5    1    3    3    0  502 -0.17153457492E+03 -0.30631509018E+01  0.64979774075E+02  0.18351554246E+03  0.46999998093E+01 0. -1.
</event>
<event>
 5   0  0.2313168E-03  0.5984356E+03  0.7818609E-02  0.9908657E-01
        2   -1    0    0  501    0  0.00000000000E+00  0.00000000000E+00  0.31695395426E+03  0.31695395427E+03  0.25500000920E-02 0. -1.
       -2   -1    0    0    0  501  0.00000000000E+00  0.00000000000E+00 -0.28247417406E+03  0.28247417407E+03  0.25500000920E-02 0.  1.
    10030    2    1    2    0    0  0.00000000000E+00  0.00000000000E+00  0.34479780196E+02  0.59942812834E+03  0.59843564884E+03 0.  0.
        2    1    3    3  502    0  0.79014048811E+02 -0.36970670206E+02 -0.26945368689E+03  0.28322312714E+03  0.25500000920E-02 0.  1.
       -2    1    3    3    0  502 -0.79014048811E+02  0.36970670206E+02  0.30393346708E+03  0.31620500120E+03  0.25500000920E-02 0. -1.
</event>
<event>
 5   0  0.2324616E-03  0.5989243E+03  0.7818609E-02  0.9907640E-01
       -2   -1    0    0    0  501  0.00000000000E+00  0.00000000000E+00  0.48387597549E+02  0.48387597616E+02  0.25500000920E-02 0.  1.
        2   -1    0    0  501    0  0.00000000000E+00  0.00000000000E+00 -0.18533173511E+04  0.18533173511E+04  0.25500000920E-02 0. -1.
    10030    2    1    2    0    0  0.00000000000E+00  0.00000000000E+00 -0.18049297536E+04  0.19017049487E+04  0.59892428297E+03 0.  0.
        4    1    3    3  502    0 -0.74467793141E+02  0.22118493441E+03 -0.14982508186E+04  0.15163196746E+04  0.12699999809E+01 0. -1.
       -4    1    3    3    0  502  0.74467793141E+02 -0.22118493441E+03 -0.30667893500E+03  0.38538527411E+03  0.12699999809E+01 0.  1.
</event>
<event>
 5   0  0.2346281E-03  0.6001206E+03  0.7818609E-02  0.9905156E-01
       -2   -1    0    0    0  501  0.00000000000E+00  0.00000000000E+00  0.41248679031E+03  0.41248679032E+03  0.25500000920E-02 0. -1.
        2   -1    0    0  501    0  0.00000000000E+00  0.00000000000E+00 -0.21827653500E+03  0.21827653501E+03  0.25500000920E-02 0.  1.
    10030    2    1    2    0    0  0.00000000000E+00  0.00000000000E+00  0.19421025532E+03  0.63076332533E+03  0.60012061231E+03 0.  0.
        3    1    3    3  502    0  0.14625706842E+03 -0.13355597052E+03 -0.13981027595E+03  0.24243607567E+03  0.10100000352E+00 0.  1.
       -3    1    3    3    0  502 -0.14625706842E+03  0.13355597052E+03  0.33402053127E+03  0.38832724966E+03  0.10100000352E+00 0. -1.
</event>
<event>
 5   0  0.2406307E-03  0.5998844E+03  0.7818609E-02  0.9905646E-01
       -2   -1    0    0    0  501  0.00000000000E+00  0.00000000000E+00  0.56213649464E+03  0.56213649465E+03  0.25500000920E-02 0. -1.
        2   -1    0    0  501    0  0.00000000000E+00  0.00000000000E+00 -0.16004180229E+03  0.16004180231E+03  0.25500000920E-02 0.  1.
    10030    2    1    2    0    0  0.00000000000E+00  0.00000000000E+00  0.40209469236E+03  0.72217829696E+03  0.59988444802E+03 0.  0.
        5    1    3    3  502    0 -0.86758523775E+02  0.10115363552E+03  0.52449033993E+03  0.54117585507E+03  0.46999998093E+01 0. -1.
       -5    1    3    3    0  502  0.86758523775E+02 -0.10115363552E+03 -0.12239564757E+03  0.18100244189E+03  0.46999998093E+01 0.  1.
</event>
<event>
 5   0  0.2324616E-03  0.5998082E+03  0.7818609E-02  0.9905804E-01
       -2   -1    0    0    0  501  0.00000000000E+00  0.00000000000E+00  0.90911877474E+02  0.90911877510E+02  0.25500000920E-02 0.  1.
        2   -1    0    0  501    0  0.00000000000E+00  0.00000000000E+00 -0.98933678538E+03  0.98933678539E+03  0.25500000920E-02 0. -1.
    10030    2    1    2    0    0  0.00000000000E+00  0.00000000000E+00 -0.89842490791E+03  0.10802486629E+04  0.59980818479E+03 0.  0.
        4    1    3    3  502    0  0.87691788430E+02 -0.24175642866E+03 -0.72708388816E+03  0.77122539758E+03  0.12699999809E+01 0. -1.
       -4    1    3    3    0  502 -0.87691788430E+02  0.24175642866E+03 -0.17134101975E+03  0.30902326531E+03  0.12699999809E+01 0.  1.
</event>
<event>
 5   0  0.1418763E-03  0.5999194E+03  0.7818609E-02  0.9905573E-01
        1   -1    0    0  501    0  0.00000000000E+00  0.00000000000E+00  0.13922977846E+04  0.13922977846E+04  0.50400001928E-02 0.  1.
       -1   -1    0    0    0  501  0.00000000000E+00  0.00000000000E+00 -0.64623975289E+02  0.64623975486E+02  0.50400001928E-02 0. -1.
    10030    2    1    2    0    0  0.00000000000E+00  0.00000000000E+00  0.13276738094E+04  0.14569217601E+04  0.59991938718E+03 0.  0.
        5    1    3    3  502    0  0.10965827028E+03  0.98908733096E+02  0.29875159459E+02  0.15073980521E+03  0.46999998093E+01 0. -1.
       -5    1    3    3    0  502 -0.10965827028E+03 -0.98908733096E+02  0.12977986499E+04  0.13061819549E+04  0.46999998093E+01 0.  1.
</event>
<event>
 5   0  0.2421210E-03  0.5996987E+03  0.7818609E-02  0.9906031E-01
       -2   -1    0    0    0  501  0.00000000000E+00  0.00000000000E+00  0.74791864473E+02  0.74791864517E+02  0.25500000920E-02 0. -1.
        2   -1    0    0  501    0  0.00000000000E+00  0.00000000000E+00 -0.12021313078E+04  0.12021313078E+04  0.25500000920E-02 0.  1.
    10030    2    1    2    0    0  0.00000000000E+00  0.00000000000E+00 -0.11273394434E+04  0.12769231724E+04  0.59969873064E+03 0.  0.
        1    1    3    3  502    0 -0.46159038879E+02  0.28279705014E+03 -0.37555928076E+03  0.47238713131E+03  0.50400001928E-02 0. -1.
       -1    1    3    3    0  502  0.46159038879E+02 -0.28279705014E+03 -0.75178016260E+03  0.80453604105E+03  0.50400001928E-02 0.  1.
</event>
<event>
 5   0  0.1416315E-03  0.5997237E+03  0.7818609E-02  0.9905979E-01
       -1   -1    0    0    0  501  0.00000000000E+00  0.00000000000E+00  0.64864036686E+02  0.64864036882E+02  0.50400001928E-02 0. -1.
        1   -1    0    0  501    0  0.00000000000E+00  0.00000000000E+00 -0.13862401248E+04  0.13862401248E+04  0.50400001928E-02 0.  1.
    10030    2    1    2    0    0  0.00000000000E+00  0.00000000000E+00 -0.13213760881E+04  0.14511041617E+04  0.59972370458E+03 0.  0.
        2    1    3    3  502    0  0.12937723425E+03  0.57494652585E+01 -0.62907544849E+01  0.12965762103E+03  0.25500000920E-02 0. -1.
       -2    1    3    3    0  502 -0.12937723425E+03 -0.57494652585E+01 -0.13150853336E+04  0.13214465407E+04  0.25500000920E-02 0.  1.
</event>
<event>
 5   0  0.2346281E-03  0.5977290E+03  0.7818609E-02  0.9910129E-01
        2   -1    0    0  501    0  0.00000000000E+00  0.00000000000E+00  0.73148836175E+03  0.73148836176E+03  0.25500000920E-02 0. -1.
       -2   -1    0    0    0  501  0.00000000000E+00  0.00000000000E+00 -0.12210719027E+03  0.12210719030E+03  0.25500000920E-02 0.  1.
    10030    2    1    2    0    0  0.00000000000E+00  0.00000000000E+00  0.60938117148E+03  0.85359555206E+03  0.59772899740E+03 0.  0.
        3    1    3    3  502    0  0.10564710204E+03  0.26164112248E+03  0.16402376045E+03  0.32637584368E+03  0.10100000352E+00 0. -1.
       -3    1    3    3    0  502 -0.10564710204E+03 -0.26164112248E+03  0.44535741103E+03  0.52721970838E+03  0.10100000352E+00 0.  1.
</event>
<event>
 5   0  0.1392854E-03  0.5997371E+03  0.7818609E-02  0.9905952E-01
       -1   -1    0    0    0  501  0.00000000000E+00  0.00000000000E+00  0.32567081223E+03  0.32567081227E+03  0.50400001928E-02 0. -1.
        1   -1    0    0  501    0  0.00000000000E+00  0.00000000000E+00 -0.27611052117E+03  0.27611052122E+03  0.50400001928E-02 0.  1.
    10030    2    1    2    0    0  0.00000000000E+00  0.00000000000E+00  0.49560291055E+02  0.60178133348E+03  0.59973706812E+03 0.  0.
        4    1    3    3  502    0  0.16214349928E+03  0.58798562956E+01 -0.22825880991E+03  0.28005139576E+03  0.12699999809E+01 0.  1.
       -4    1    3    3    0  502 -0.16214349928E+03 -0.58798562956E+01  0.27781910096E+03  0.32172993772E+03  0.12699999809E+01 0. -1.
</event>
<event>
 5   0  0.1423430E-03  0.5999251E+03  0.7818609E-02  0.9905561E-01
        1   -1    0    0  501    0  0.00000000000E+00  0.00000000000E+00  0.15618428976E+03  0.15618428984E+03  0.50400001928E-02 0.  1.
       -1   -1    0    0    0  501  0.00000000000E+00  0.00000000000E+00 -0.57609844514E+03  0.57609844516E+03  0.50400001928E-02 0. -1.
    10030    2    1    2    0    0  0.00000000000E+00  0.00000000000E+00 -0.41991415539E+03  0.73228273500E+03  0.59992508373E+03 0.  0.
        1    1    3    3  502    0 -0.19282775781E+03 -0.10567186126E+02 -0.49012494815E+03  0.52679851407E+03  0.50400001928E-02 0. -1.
       -1    1    3    3    0  502  0.19282775781E+03  0.10567186126E+02  0.70210792763E+02  0.20548422093E+03  0.50400001928E-02 0.  1.
</event>
<event>
 5   0  0.1418763E-03  0.5997745E+03  0.7818609E-02  0.9905874E-01
        1   -1    0    0  501    0  0.00000000000E+00  0.00000000000E+00  0.12256733499E+03  0.12256733510E+03  0.50400001928E-02 0. -1.
       -1   -1    0    0    0  501  0.00000000000E+00  0.00000000000E+00 -0.73373834890E+03  0.73373834892E+03  0.50400001928E-02 0.  1.
    10030    2    1    2    0    0  0.00000000000E+00  0.00000000000E+00 -0.61117101391E+03  0.85630568402E+03  0.59977447115E+03 0.  0.
        5    1    3    3  502    0  0.12098501883E+02 -0.11393924159E+03  0.90026827746E+02  0.14579246974E+03  0.46999998093E+01 0. -1.
       -5    1    3    3    0  502 -0.12098501883E+02  0.11393924159E+03 -0.70119784165E+03  0.71051321427E+03  0.46999998093E+01 0.  1.
</event>
<event>
 5   0  0.2324616E-03  0.5984722E+03  0.7818609E-02  0.9908581E-01
       -2   -1    0    0    0  501  0.00000000000E+00  0.00000000000E+00  0.18855483812E+03  0.18855483814E+03  0.25500000920E-02 0. -1.
        2   -1    0    0  501    0  0.00000000000E+00  0.00000000000E+00 -0.47488700550E+03  0.47488700551E+03  0.25500000920E-02 0.  1.
    10030    2    1    2    0    0  0.00000000000E+00  0.00000000000E+00 -0.28633216738E+03  0.66344184365E+03  0.59847219637E+03 0.  0.
        4    1    3    3  502    0  0.35914258988E+02  0.20089420079E+02 -0.47173227137E+03  0.47352546663E+03  0.12699999809E+01 0.  1.
       -4    1    3    3    0  502 -0.35914258988E+02 -0.20089420079E+02  0.18540010399E+03  0.18991637702E+03  0.12699999809E+01 0. -1.
</event>
<event>
 5   0  0.1416315E-03  0.5995014E+03  0.7818609E-02  0.9906441E-01
       -1   -1    0    0    0  501  0.00000000000E+00  0.00000000000E+00  0.16114064706E+03  0.16114064714E+03  0.50400001928E-02 0.  1.
        1   -1    0    0  501    0  0.00000000000E+00  0.00000000000E+00 -0.55759049117E+03  0.55759049120E+03  0.50400001928E-02 0. -1.
    10030    2    1    2    0    0  0.00000000000E+00  0.00000000000E+00 -0.39644984411E+03  0.71873113834E+03  0.59950143480E+03 0.  0.
        2    1    3    3  502    0  0.17653996771E+03 -0.14317394063E+02 -0.48814396311E+03  0.51928400390E+03  0.25500000920E-02 0. -1.
       -2    1    3    3    0  502 -0.17653996771E+03  0.14317394063E+02  0.91694119003E+02  0.19944713444E+03  0.25500000920E-02 0.  1.
</event>
<event>
 5   0  0.2313168E-03  0.5999984E+03  0.7818609E-02  0.9905409E-01
       -2   -1    0    0    0  501  0.00000000000E+00  0.00000000000E+00  0.49409626592E+02  0.49409626657E+02  0.25500000920E-02 0.  1.
        2   -1    0    0  501    0  0.00000000000E+00  0.00000000000E+00 -0.18214974727E+04  0.18214974727E+04  0.25500000920E-02 0. -1.
    10030    2    1    2    0    0  0.00000000000E+00  0.00000000000E+00 -0.17720878461E+04  0.18709070993E+04  0.59999836675E+03 0.  0.
        2    1    3    3  502    0 -0.13024711184E+03  0.25372109125E+03 -0.11762331954E+04  0.12103153441E+04  0.25500000920E-02 0. -1.
       -2    1    3    3    0  502  0.13024711184E+03 -0.25372109125E+03 -0.59585465069E+03  0.66059175521E+03  0.25500000920E-02 0.  1.
</event>
<event>
 5   0  0.9496750E-04  0.5988164E+03  0.7818609E-02  0.9907865E-01
       -3   -1    0    0    0  501  0.00000000000E+00  0.00000000000E+00  0.10413164162E+03  0.10413169061E+03  0.10100000352E+00 0. -1.
        3   -1    0    0  501    0  0.00000000000E+00  0.00000000000E+00 -0.86088385274E+03  0.86088385867E+03  0.10100000352E+00 0.  1.
    10030    2    1    2    0    0  0.00000000000E+00  0.00000000000E+00 -0.75675221112E+03  0.96501554927E+03  0.59881641703E+03 0.  0.
        1    1    3    3  502    0 -0.10887224574E+03 -0.19725314120E+03 -0.60599286211E+02  0.23331146804E+03  0.50400001928E-02 0. -1.
       -1    1    3    3    0  502  0.10887224574E+03  0.19725314120E+03 -0.69615292491E+03  0.73170408123E+03  0.50400001928E-02 0.  1.
</event>
<event>
 5   0  0.9496750E-04  0.5997564E+03  0.7818609E-02  0.9905912E-01
        3   -1    0    0  501    0  0.00000000000E+00  0.00000000000E+00  0.67763992470E+03  0.67763993223E+03  0.10100000352E+00 0.  1.
       -3   -1    0    0    0  501  0.00000000000E+00  0.00000000000E+00 -0.13270605477E+03  0.13270609320E+03  0.10100000352E+00 0. -1.
    10030    2    1    2    0    0  0.00000000000E+00  0.00000000000E+00  0.54493386993E+03  0.81034602543E+03  0.59975641583E+03 0.  0.
        5    1    3    3  502    0  0.13561735434E+03  0.22321396736E+03  0.73487389027E+02  0.27136512003E+03  0.46999998093E+01 0. -1.
       -5    1    3    3    0  502 -0.13561735434E+03 -0.22321396736E+03  0.47144648091E+03  0.53898090540E+03  0.46999998093E+01 0.  1.
</event>
<event>
 5   0  0.2421210E-03  0.6000901E+03  0.7818609E-02  0.9905219E-01
       -2   -1    0    0    0  501  0.00000000000E+00  0.00000000000E+00  0.51986870666E+02  0.51986870729E+02  0.25500000920E-02 0. -1.
        2   -1    0    0  501    0  0.00000000000E+00  0.00000000000E+00 -0.17317263434E+04  0.17317263434E+04  0.25500000920E-02 0.  1.
    10030    2    1    2    0    0  0.00000000000E+00  0.00000000000E+00 -0.16797394728E+04  0.17837132142E+04  0.60009010491E+03 0.  0.
        1    1    3    3  502    0 -0.14527652820E+03  0.24963414500E+03 -0.10814327429E+04  0.11193387572E+04  0.50400001928E-02 0.  1.
       -1    1    3    3    0  502  0.14527652820E+03 -0.24963414500E+03 -0.59830672988E+03  0.66437445695E+03  0.50400001928E-02 0. -1.
</event>
<event>
 5   0  0.2406307E-03  0.5996503E+03  0.7818609E-02  0.9906132E-01
       -2   -1    0    0    0  501  0.00000000000E+00  0.00000000000E+00  0.16281564001E+03  0.16281564003E+03  0.25500000920E-02 0.  1.
        2   -1    0    0  501    0  0.00000000000E+00  0.00000000000E+00 -0.55212831921E+03  0.55212831922E+03  0.25500000920E-02 0. -1.
    10030    2    1    2    0    0  0.00000000000E+00  0.00000000000E+00 -0.38931267920E+03  0.71494395924E+03  0.59965031700E+03 0.  0.
        5    1    3    3  502    0  0.54449603759E+02 -0.24782984164E+03 -0.38500390022E+03  0.46112306702E+03  0.46999998093E+01 0. -1.
       -5    1    3    3    0  502 -0.54449603759E+02  0.24782984164E+03 -0.43087789792E+01  0.25382089222E+03  0.46999998093E+01 0.  1.
</event>
<event>
 5   0  0.1416315E-03  0.6002548E+03  0.7818609E-02  0.9904878E-01
       -1   -1    0    0    0  501  0.00000000000E+00  0.00000000000E+00  0.61971140598E+02  0.61971140803E+02  0.50400001928E-02 0. -1.
        1   -1    0    0  501    0  0.00000000000E+00  0.00000000000E+00 -0.14535224327E+04  0.14535224327E+04  0.50400001928E-02 0.  1.
    10030    2    1    2    0    0  0.00000000000E+00  0.00000000000E+00 -0.13915512921E+04  0.15154935735E+04  0.60025475658E+03 0.  0.
        2    1    3    3  502    0 -0.24180895707E+03 -0.20625074609E+02 -0.24996246245E+03  0.34839373999E+03  0.25500000920E-02 0. -1.
       -2    1    3    3    0  502  0.24180895707E+03  0.20625074609E+02 -0.11415888296E+04  0.11670998335E+04  0.25500000920E-02 0.  1.
</event>
<event>
 5   0  0.1392854E-03  0.6000931E+03  0.7818609E-02  0.9905213E-01
       -1   -1    0    0    0  501  0.00000000000E+00  0.00000000000E+00  0.46301832522E+03  0.46301832525E+03  0.50400001928E-02 0. -1.
        1   -1    0    0  501    0  0.00000000000E+00  0.00000000000E+00 -0.19443706628E+03  0.19443706634E+03  0.50400001928E-02 0.  1.
    10030    2    1    2    0    0  0.00000000000E+00  0.00000000000E+00  0.26858125895E+03  0.65745539159E+03  0.60009307551E+03 0.  0.
        4    1    3    3  502    0  0.10046684207E+03  0.16689620724E+03 -0.11573032882E+03  0.22659005330E+03  0.12699999809E+01 0.  1.
       -4    1    3    3    0  502 -0.10046684207E+03 -0.16689620724E+03  0.38431158777E+03  0.43086533829E+03  0.12699999809E+01 0. -1.
</event>
<event>
 5   0  0.2324616E-03  0.6000588E+03  0.7818609E-02  0.9905284E-01
       -2   -1    0    0    0  501  0.00000000000E+00  0.00000000000E+00  0.50223132622E+02  0.50223132687E+02  0.25500000920E-02 0.  1.
        2   -1    0    0  501    0  0.00000000000E+00  0.00000000000E+00 -0.17923540847E+04  0.17923540847E+04  0.25500000920E-02 0. -1.
    10030    2    1    2    0    0  0.00000000000E+00  0.00000000000E+00 -0.17421309521E+04  0.18425772174E+04  0.60005878699E+03 0.  0.
        4    1    3    3  502    0  0.17092011380E+03 -0.58094037151E+02 -0.16069193085E+04  0.16170281010E+04  0.12699999809E+01 0. -1.
       -4    1    3    3    0  502 -0.17092011380E+03  0.58094037151E+02 -0.13521164359E+03  0.22554911641E+03  0.12699999809E+01 0.  1.
</event>
<event>
 5   0  0.2346281E-03  0.5999889E+03  0.7818609E-02  0.9905429E-01
        2   -1    0    0  501    0  0.00000000000E+00  0.00000000000E+00  0.52569389393E+03  0.52569389394E+03  0.25500000920E-02 0.  1.
       -2   -1    0    0    0  501  0.00000000000E+00  0.00000000000E+00 -0.17119596234E+03  0.17119596236E+03  0.25500000920E-02 0. -1.
    10030    2    1    2    0    0  0.00000000000E+00  0.00000000000E+00  0.35449793159E+03  0.69688985630E+03  0.59998890682E+03 0.  0.
        3    1    3    3  502    0  0.64409335625E+02 -0.21156857772E+02 -0.16218171506E+03  0.17578138140E+03  0.10100000352E+00 0. -1.
       -3    1    3    3    0  502 -0.64409335625E+02  0.21156857772E+02  0.51667964665E+03  0.52110847490E+03  0.10100000352E+00 0.  1.
</event>
<event>
 5   0  0.1423430E-03  0.6000784E+03  0.7818609E-02  0.9905243E-01
        1   -1    0    0  501    0  0.00000000000E+00  0.00000000000E+00  0.11194251386E+03  0.11194251397E+03  0.50400001928E-02 0. -1.
       -1   -1    0    0    0  501  0.00000000000E+00  0.00000000000E+00 -0.80419429724E+03  0.80419429725E+03  0.50400001928E-02 0.  1.
    10030    2    1    2    0    0  0.00000000000E+00  0.00000000000E+00 -0.69225178338E+03  0.91613681122E+03  0.60007843261E+03 0.  0.
        1    1    3    3  502    0  0.29538326106E+02  0.39163990170E+01 -0.80192986612E+03  0.80248324661E+03  0.50400001928E-02 0.  1.
       -1    1    3    3    0  502 -0.29538326106E+02 -0.39163990170E+01  0.10967808274E+03  0.11365356461E+03  0.50400001928E-02 0. -1.
</event>
<event>
 5   0  0.1423430E-03  0.6003794E+03  0.7818609E-02  0.9904619E-01
        1   -1    0    0  501    0  0.00000000000E+00  0.00000000000E+00  0.20556369229E+03  0.20556369235E+03  0.50400001928E-02 0.  1.
       -1   -1    0    0    0  501  0.00000000000E+00  0.00000000000E+00 -0.43837441053E+03  0.43837441056E+03  0.50400001928E-02 0. -1.
    10030    2    1    2    0    0  0.00000000000E+00  0.00000000000E+00 -0.23281071824E+03  0.64393810292E+03  0.60037942158E+03 0.  0.
        1    1    3    3  502    0  0.58803064043E+02 -0.10580369177E+03 -0.41103839996E+03  0.42849129257E+03  0.50400001928E-02 0. -1.
       -1    1    3    3    0  502 -0.58803064043E+02  0.10580369177E+03  0.17822768172E+03  0.21544681035E+03  0.50400001928E-02 0.  1.
</event>
<event>
 5   0  0.1416315E-03  0.5998074E+03  0.7818609E-02  0.9905806E-01
       -1   -1    0    0    0  501  0.00000000000E+00  0.00000000000E+00  0.16925160922E+03  0.16925160930E+03  0.50400001928E-02 0.  1.
        1   -1    0    0  501    0  0.00000000000E+00  0.00000000000E+00 -0.53141136880E+03  0.53141136882E+03  0.50400001928E-02 0. -1.
    10030    2    1    2    0    0  0.00000000000E+00  0.00000000000E+00 -0.36215975958E+03  0.70066297812E+03  0.59980740030E+03 0.  0.
        2    1    3    3  502    0  0.23819827369E+03  0.23269372963E+02  0.30036073265E+02  0.24120955000E+03  0.25500000920E-02 0.  1.
       -2    1    3    3    0  502 -0.23819827369E+03 -0.23269372963E+02 -0.39219583284E+03  0.45945342812E+03  0.25500000920E-02 0. -1.
</event>
<event>
 5   0  0.1416315E-03  0.6000508E+03  0.7818609E-02  0.9905301E-01
       -1   -1    0    0    0  501  0.00000000000E+00  0.00000000000E+00  0.12171601706E+04  0.12171601706E+04  0.50400001928E-02 0. -1.
        1   -1    0    0  501    0  0.00000000000E+00  0.00000000000E+00 -0.73955131929E+02  0.73955132101E+02  0.50400001928E-02 0.  1.
    10030    2    1    2    0    0  0.00000000000E+00  0.00000000000E+00  0.11432050387E+04  0.12911153028E+04  0.60005080157E+03 0.  0.
        2    1    3    3  502    0  0.74805222678E+02 -0.21840306034E+03  0.15929094747E+03  0.28048052349E+03  0.25500000920E-02 0.  1.
       -2    1    3    3    0  502 -0.74805222678E+02  0.21840306034E+03  0.98391409124E+03  0.10106347793E+04  0.25500000920E-02 0. -1.
</event>
<event>
 5   0  0.2406307E-03  0.5999848E+03  0.7818609E-02  0.9905438E-01
        2   -1    0    0  501    0  0.00000000000E+00  0.00000000000E+00  0.50381822912E+03  0.50381822913E+03  0.25500000920E-02 0. -1.
       -2   -1    0    0    0  501  0.00000000000E+00  0.00000000000E+00 -0.17862680865E+03  0.17862680867E+03  0.25500000920E-02 0.  1.
    10030    2    1    2    0    0  0.00000000000E+00  0.00000000000E+00  0.32519142047E+03  0.68244503780E+03  0.59998480786E+03 0.  0.
        5    1    3    3  502    0 -0.71336541442E+02  0.16760809453E+03  0.43365913416E+03  0.47038676654E+03  0.46999998093E+01 0. -1.
       -5    1    3    3    0  502  0.71336541442E+02 -0.16760809453E+03 -0.10846771369E+03  0.21205827126E+03  0.46999998093E+01 0.  1.
</event>
<event>
 5   0  0.1418763E-03  0.6007764E+03  0.7818609E-02  0.9903797E-01
        1   -1    0    0  501    0  0.00000000000E+00  0.00000000000E+00  0.10491202251E+04  0.10491202251E+04  0.50400001928E-02 0. -1.
       -1   -1    0    0    0  501  0.00000000000E+00  0.00000000000E+00 -0.86008317174E+02  0.86008317321E+02  0.50400001928E-02 0.  1.
    10030    2    1    2    0    0  0.00000000000E+00  0.00000000000E+00  0.96311190794E+03  0.11351285425E+04  0.60077638158E+03 0.  0.
        5    1    3    3  502    0 -0.21905554774E+03 -0.15426467160E+02  0.94393653650E+02  0.23907229186E+03  0.46999998093E+01 0.  1.
       -5    1    3    3    0  502  0.21905554774E+03  0.15426467160E+02  0.86871825429E+03  0.89605625059E+03  0.46999998093E+01 0. -1.
</event>
<event>
 5   0  0.1479385E-03  0.5999406E+03  0.7818609E-02  0.9905529E-01
       -1   -1    0    0    0  501  0.00000000000E+00  0.00000000000E+00  0.29301048469E+03  0.29301048473E+03  0.50400001928E-02 0. -1.
        1   -1    0    0  501    0  0.00000000000E+00  0.00000000000E+00 -0.30709543789E+03  0.30709543793E+03  0.50400001928E-02 0.  1.
    10030    2    1    2    0    0  0.00000000000E+00  0.00000000000E+00 -0.14084953199E+02  0.60010592266E+03  0.59994060749E+03 0.  0.
        3    1    3    3  502    0 -0.25860704115E+03  0.83427785634E+02  0.12005305539E+03  0.29706993025E+03  0.10100000352E+00 0. -1.
       -3    1    3    3    0  502  0.25860704115E+03 -0.83427785634E+02 -0.13413800859E+03  0.30303599241E+03  0.10100000352E+00 0.  1.
</event>
<event>
 5   0  0.1479385E-03  0.5997301E+03  0.7818609E-02  0.9905966E-01
        1   -1    0    0  501    0  0.00000000000E+00  0.00000000000E+00  0.14706074269E+04  0.14706074269E+04  0.50400001928E-02 0. -1.
       -1   -1    0    0    0  501  0.00000000000E+00  0.00000000000E+00 -0.61144148861E+02  0.61144149069E+02  0.50400001928E-02 0.  1.
    10030    2    1    2    0    0  0.00000000000E+00  0.00000000000E+00  0.14094632780E+04  0.15317515760E+04  0.59973007125E+03 0.  0.
        3    1    3    3  502    0 -0.20961089146E+02  0.27233262840E+03  0.10208031573E+04  0.10567135487E+04  0.10100000352E+00 0. -1.
       -3    1    3    3    0  502  0.20961089146E+02 -0.27233262840E+03  0.38866012070E+03  0.47503802729E+03  0.10100000352E+00 0.  1.
</event>
<event>
 5   0  0.1392854E-03  0.5999716E+03  0.7818609E-02  0.9905465E-01
        1   -1    0    0  501    0  0.00000000000E+00  0.00000000000E+00  0.78394731228E+02  0.78394731390E+02  0.50400001928E-02 0.  1.
       -1   -1    0    0    0  501  0.00000000000E+00  0.00000000000E+00 -0.11479277474E+04  0.11479277474E+04  0.50400001928E-02 0. -1.
    10030    2    1    2    0    0  0.00000000000E+00  0.00000000000E+00 -0.10695330162E+04  0.12263224788E+04  0.59997162377E+03 0.  0.
        4    1    3    3  502    0 -0.14280160554E+03  0.28192889658E+02  0.13717952212E+01  0.14557002540E+03  0.12699999809E+01 0.  1.
       -4    1    3    3    0  502  0.14280160554E+03 -0.28192889658E+02 -0.10709048114E+04  0.10807524534E+04  0.12699999809E+01 0. -1.
</event>
<event>
 5   0  0.2313168E-03  0.5999607E+03  0.7818609E-02  0.9905488E-01
        2   -1    0    0  501    0  0.00000000000E+00  0.00000000000E+00  0.19155691922E+03  0.19155691923E+03  0.25500000920E-02 0. -1.
       -2   -1    0    0    0  501  0.00000000000E+00  0.00000000000E+00 -0.46977273141E+03  0.46977273142E+03  0.25500000920E-02 0.  1.
    10030    2    1    2    0    0  0.00000000000E+00  0.00000000000E+00 -0.27821581220E+03  0.66132965065E+03  0.59996072261E+03 0.  0.
        2    1    3    3  502    0 -0.87637532859E+02 -0.22016703185E+03 -0.34186410732E+03  0.41596265092E+03  0.25500000920E-02 0.  1.
       -2    1    3    3    0  502  0.87637532859E+02  0.22016703185E+03  0.63648295121E+02  0.24536699974E+03  0.25500000920E-02 0. -1.
</event>
<event>
 5   0  0.2421210E-03  0.5998939E+03  0.7818609E-02  0.9905626E-01
        2   -1    0    0  501    0  0.00000000000E+00  0.00000000000E+00  0.82996939138E+03  0.82996939138E+03  0.25500000920E-02 0.  1.
       -2   -1    0    0    0  501  0.00000000000E+00  0.00000000000E+00 -0.10839938617E+03  0.10839938620E+03  0.25500000920E-02 0. -1.
    10030    2    1    2    0    0  0.00000000000E+00  0.00000000000E+00  0.72157000520E+03  0.93836877758E+03  0.59989389922E+03 0.  0.
        1    1    3    3  502    0 -0.91521858447E+02  0.13624503670E+03 -0.31923263093E+02  0.16720662473E+03  0.50400001928E-02 0. -1.
       -1    1    3    3    0  502  0.91521858447E+02 -0.13624503670E+03  0.75349326830E+03  0.77116215285E+03  0.50400001928E-02 0.  1.
</event>
<event>
 5   0  0.1418763E-03  0.6000942E+03  0.7818609E-02  0.9905211E-01
       -1   -1    0    0    0  501  0.00000000000E+00  0.00000000000E+00  0.13776003941E+03  0.13776003950E+03  0.50400001928E-02 0.  1.
        1   -1    0    0  501    0  0.00000000000E+00  0.00000000000E+00 -0.65351510272E+03  0.65351510274E+03  0.50400001928E-02 0. -1.
    10030    2    1    2    0    0  0.00000000000E+00  0.00000000000E+00 -0.51575506331E+03  0.79127514224E+03  0.60009421376E+03 0.  0.
        5    1    3    3  502    0 -0.85491800336E+01 -0.99320048367E+02  0.11523449146E+03  0.15244224647E+03  0.46999998093E+01 0.  1.
       -5    1    3    3    0  502  0.85491800336E+01  0.99320048367E+02 -0.63098955478E+03  0.63883289577E+03  0.46999998093E+01 0. -1.
</event>
<event>
 5   0  0.1416315E-03  0.6006332E+03  0.7818609E-02  0.9904093E-01
       -1   -1    0    0    0  501  0.00000000000E+00  0.00000000000E+00  0.36525998795E+03  0.36525998798E+03  0.50400001928E-02 0.  1.
        1   -1    0    0  501    0  0.00000000000E+00  0.00000000000E+00 -0.24692020177E+03  0.24692020182E+03  0.50400001928E-02 0. -1.
    10030    2    1    2    0    0  0.00000000000E+00  0.00000000000E+00  0.11833978618E+03  0.61218018980E+03  0.60063323234E+03 0.  0.
        2    1    3    3  502    0  0.12181724611E+03 -0.61414210832E+02  0.33185567533E+03  0.35880264212E+03  0.25500000920E-02 0.  1.
       -2    1    3    3    0  502 -0.12181724611E+03  0.61414210832E+02 -0.21351588915E+03  0.25337754768E+03  0.25500000920E-02 0. -1.
</event>
<event>
 5   0  0.1479385E-03  0.5996876E+03  0.7818609E-02  0.9906054E-01
        1   -1    0    0  501    0  0.00000000000E+00  0.00000000000E+00  0.21372727651E+04  0.21372727651E+04  0.50400001928E-02 0. -1.
       -1   -1    0    0    0  501  0.00000000000E+00  0.00000000000E+00 -0.42065905368E+02  0.42065905670E+02  0.50400001928E-02 0.  1.
    10030    2    1    2    0    0  0.00000000000E+00  0.00000000000E+00  0.20952068598E+04  0.21793386708E+04  0.59968763275E+03 0.  0.
        3    1    3    3  502    0  0.32432303763E+02 -0.24480148097E+02 -0.32013572775E+02  0.51730175150E+02  0.10100000352E+00 0.  1.
       -3    1    3    3    0  502 -0.32432303763E+02  0.24480148097E+02  0.21272204325E+04  0.21276084957E+04  0.10100000352E+00 0. -1.
</event>
<event>
 5   0  0.2313168E-03  0.5999252E+03  0.7818609E-02  0.9905561E-01
       -2   -1    0    0    0  501  0.00000000000E+00  0.00000000000E+00  0.48393587758E+02  0.48393587825E+02  0.25500000920E-02 0. -1.
        2   -1    0    0  501    0  0.00000000000E+00  0.00000000000E+00 -0.18592868432E+04  0.18592868432E+04  0.25500000920E-02 0.  1.
    10030    2    1    2    0    0  0.00000000000E+00  0.00000000000E+00 -0.18108932554E+04  0.19076804310E+04  0.59992519893E+03 0.  0.
        2    1    3    3  502    0  0.23457216874E+03 -0.17620184336E+03 -0.11041911464E+04  0.11425013259E+04  0.25500000920E-02 0.  1.
       -2    1    3    3    0  502 -0.23457216874E+03  0.17620184336E+03 -0.70670210903E+03  0.76517910508E+03  0.25500000920E-02 0. -1.
</event>
<event>
 5   0  0.2421210E-03  0.6000919E+03  0.7818609E-02  0.9905216E-01
        2   -1    0    0  501    0  0.00000000000E+00  0.00000000000E+00  0.36170817061E+03  0.36170817062E+03  0.25500000920E-02 0.  1.
       -2   -1    0    0    0  501  0.00000000000E+00  0.00000000000E+00 -0.24889555866E+03  0.24889555867E+03  0.25500000920E-02 0. -1.
    10030    2    1    2    0    0  0.00000000000E+00  0.00000000000E+00  0.11281261196E+03  0.61060372929E+03  0.60009185031E+03 0.  0.
        1    1    3    3  502    0  0.30142527211E+02  0.51611217245E+02 -0.24277706631E+03  0.25002598593E+03  0.50400001928E-02 0. -1.
       -1    1    3    3    0  502 -0.30142527211E+02 -0.51611217245E+02  0.35558967826E+03  0.36057774336E+03  0.50400001928E-02 0.  1.
</event>
<event>
 5   0  0.1423430E-03  0.6001636E+03  0.7818609E-02  0.9905067E-01
       -1   -1    0    0    0  501  0.00000000000E+00  0.00000000000E+00  0.13549355256E+03  0.13549355266E+03  0.50400001928E-02 0.  1.
        1   -1    0    0  501    0  0.00000000000E+00  0.00000000000E+00 -0.66460048159E+03  0.66460048161E+03  0.50400001928E-02 0. -1.
    10030    2    1    2    0    0  0.00000000000E+00  0.00000000000E+00 -0.52910692903E+03  0.80009403427E+03  0.60016357881E+03 0.  0.
        1    1    3    3  502    0 -0.58099784632E+02  0.25002025710E+03 -0.47178226593E+03  0.53708865228E+03  0.50400001928E-02 0. -1.
       -1    1    3    3    0  502  0.58099784632E+02 -0.25002025710E+03 -0.57324663098E+02  0.26300538199E+03  0.50400001928E-02 0.  1.
</event>
<event>
 5   0  0.2313168E-03  0.6001359E+03  0.7818609E-02  0.9905124E-01
        2   -1    0    0  501    0  0.00000000000E+00  0.00000000000E+00  0.11474030008E+04  0.11474030008E+04  0.25500000920E-02 0. -1.
       -2   -1    0    0    0  501  0.00000000000E+00  0.00000000000E+00 -0.78473532990E+02  0.78473533032E+02  0.25500000920E-02 0.  1.
    10030    2    1    2    0    0  0.00000000000E+00  0.00000000000E+00  0.10689294678E+04  0.12258765338E+04  0.60013587550E+03 0.  0.
        2    1    3    3  502    0  0.10959912156E+03 -0.21908400623E+03  0.18048204395E+03  0.30427543021E+03  0.25500000920E-02 0.  1.
       -2    1    3    3    0  502 -0.10959912156E+03  0.21908400623E+03  0.88844742387E+03  0.92160110364E+03  0.25500000920E-02 0. -1.
</event>
<event>
 5   0  0.1416315E-03  0.6001844E+03  0.7818609E-02  0.9905024E-01
       -1   -1    0    0    0  501  0.00000000000E+00  0.00000000000E+00  0.20970913807E+03  0.20970913813E+03  0.50400001928E-02 0. -1.
        1   -1    0    0  501    0  0.00000000000E+00  0.00000000000E+00 -0.42942970786E+03  0.42942970789E+03  0.50400001928E-02 0.  1.
    10030    2    1    2    0    0  0.00000000000E+00  0.00000000000E+00 -0.21972056979E+03  0.63913884602E+03  0.60018441808E+03 0.  0.
        2    1    3    3  502    0 -0.22820559040E+03  0.17454489282E+03 -0.17565452730E+02  0.28784067856E+03  0.25500000920E-02 0. -1.
       -2    1    3    3    0  502  0.22820559040E+03 -0.17454489282E+03 -0.20215511706E+03  0.35129816746E+03  0.25500000920E-02 0.  1.
</event>
<event>
 5   0  0.9496750E-04  0.6001624E+03  0.7818609E-02  0.9905069E-01
        3   -1    0    0  501    0  0.00000000000E+00  0.00000000000E+00  0.25729807476E+03  0.25729809458E+03  0.10100000352E+00 0.  1.
       -3   -1    0    0    0  501  0.00000000000E+00  0.00000000000E+00 -0.34997822735E+03  0.34997824192E+03  0.10100000352E+00 0. -1.
    10030    2    1    2    0    0  0.00000000000E+00  0.00000000000E+00 -0.92680152586E+02  0.60727633650E+03  0.60016242651E+03 0.  0.
        2    1    3    3  502    0  0.19012907501E+01 -0.14331305002E+03 -0.31310592621E+03  0.34435093473E+03  0.25500000920E-02 0. -1.
       -2    1    3    3    0  502 -0.19012907501E+01  0.14331305002E+03  0.22042577363E+03  0.26292540177E+03  0.25500000920E-02 0.  1.
</event>
<event>
 5   0  0.1423430E-03  0.6001727E+03  0.7818609E-02  0.9905048E-01
        1   -1    0    0  501    0  0.00000000000E+00  0.00000000000E+00  0.66609763922E+03  0.66609763924E+03  0.50400001928E-02 0. -1.
       -1   -1    0    0    0  501  0.00000000000E+00  0.00000000000E+00 -0.13519310549E+03  0.13519310559E+03  0.50400001928E-02 0.  1.
    10030    2    1    2    0    0  0.00000000000E+00  0.00000000000E+00  0.53090453373E+03  0.80129074482E+03  0.60017266999E+03 0.  0.
        1    1    3    3  502    0 -0.18613903652E+03 -0.20815959786E+03  0.11875122763E+03  0.30344688693E+03  0.50400001928E-02 0.  1.
       -1    1    3    3    0  502  0.18613903652E+03  0.20815959786E+03  0.41215330609E+03  0.49784385790E+03  0.50400001928E-02 0. -1.
</event>
<event>
 5   0  0.2406307E-03  0.6000380E+03  0.7818609E-02  0.9905327E-01
       -2   -1    0    0    0  501  0.00000000000E+00  0.00000000000E+00  0.37886151051E+03  0.37886151052E+03  0.25500000920E-02 0.  1.
        2   -1    0    0  501    0  0.00000000000E+00  0.00000000000E+00 -0.23758387910E+03  0.23758387911E+03  0.25500000920E-02 0. -1.
    10030    2    1    2    0    0  0.00000000000E+00  0.00000000000E+00  0.14127763141E+03  0.61644538963E+03  0.60003795652E+03 0.  0.
        5    1    3    3  502    0  0.10865685250E+03  0.11708921935E+03  0.33149741815E+03  0.36800655581E+03  0.46999998093E+01 0.  1.
       -5    1    3    3    0  502 -0.10865685250E+03 -0.11708921935E+03 -0.19021978674E+03  0.24843883382E+03  0.46999998093E+01 0. -1.
</event>
<event>
 5   0  0.2313168E-03  0.5999240E+03  0.7818609E-02  0.9905564E-01
       -2   -1    0    0    0  501  0.00000000000E+00  0.00000000000E+00  0.82306582486E+02  0.82306582526E+02  0.25500000920E-02 0. -1.
        2   -1    0    0  501    0  0.00000000000E+00  0.00000000000E+00 -0.10931958087E+04  0.10931958087E+04  0.25500000920E-02 0.  1.
    10030    2    1    2    0    0  0.00000000000E+00  0.00000000000E+00 -0.10108892262E+04  0.11755023912E+04  0.59992403193E+03 0.  0.
        2    1    3    3  502    0  0.16959178167E+03 -0.22652430383E+03 -0.70042970244E+03  0.75543126802E+03  0.25500000920E-02 0.  1.
       -2    1    3    3    0  502 -0.16959178167E+03  0.22652430383E+03 -0.31045952372E+03  0.42007112316E+03  0.25500000920E-02 0. -1.
</event>
<event>
 5   0  0.1418763E-03  0.6000208E+03  0.7818609E-02  0.9905363E-01
        1   -1    0    0  501    0  0.00000000000E+00  0.00000000000E+00  0.38635131619E+03  0.38635131623E+03  0.50400001928E-02 0.  1.
       -1   -1    0    0    0  501  0.00000000000E+00  0.00000000000E+00 -0.23296472239E+03  0.23296472245E+03  0.50400001928E-02 0. -1.
    10030    2    1    2    0    0  0.00000000000E+00  0.00000000000E+00  0.15338659380E+03  0.61931603867E+03  0.60002075681E+03 0.  0.
        5    1    3    3  502    0  0.22745732632E+02 -0.29187517944E+03  0.14418448080E+03  0.32637362520E+03  0.46999998093E+01 0.  1.
       -5    1    3    3    0  502 -0.22745732632E+02  0.29187517944E+03  0.92021130059E+01  0.29294241347E+03  0.46999998093E+01 0. -1.
</event>
<event>
 5   0  0.9496750E-04  0.5998756E+03  0.7818609E-02  0.9905664E-01
       -3   -1    0    0    0  501  0.00000000000E+00  0.00000000000E+00  0.18215072902E+04  0.18215072930E+04  0.10100000352E+00 0.  1.
        3   -1    0    0  501    0  0.00000000000E+00  0.00000000000E+00 -0.49389081553E+02  0.49389184825E+02  0.10100000352E+00 0. -1.
    10030    2    1    2    0    0  0.00000000000E+00  0.00000000000E+00  0.17721182086E+04  0.18708964778E+04  0.59987555819E+03 0.  0.
        3    1    3    3  502    0  0.17595093155E+03  0.24286129000E+03  0.87132306515E+03  0.92149022271E+03  0.10100000352E+00 0. -1.
       -3    1    3    3    0  502 -0.17595093155E+03 -0.24286129000E+03  0.90079514347E+03  0.94940625508E+03  0.10100000352E+00 0.  1.
</event>
<event>
 5   0  0.1418763E-03  0.5985030E+03  0.7818609E-02  0.9908517E-01
        1   -1    0    0  501    0  0.00000000000E+00  0.00000000000E+00  0.19684969721E+03  0.19684969728E+03  0.50400001928E-02 0. -1.
       -1   -1    0    0    0  501  0.00000000000E+00  0.00000000000E+00 -0.45492298713E+03  0.45492298716E+03  0.50400001928E-02 0.  1.
    10030    2    1    2    0    0  0.00000000000E+00  0.00000000000E+00 -0.25807328991E+03  0.65177268443E+03  0.59850297343E+03 0.  0.
        5    1    3    3  502    0  0.17416797091E+03 -0.36654274727E+02 -0.39096744581E+03  0.42959940832E+03  0.46999998093E+01 0.  1.
       -5    1    3    3    0  502 -0.17416797091E+03  0.36654274727E+02  0.13289415590E+03  0.22217327611E+03  0.46999998093E+01 0. -1.
</event>
<event>
 5   0  0.1416315E-03  0.5995492E+03  0.7818609E-02  0.9906342E-01
       -1   -1    0    0    0  501  0.00000000000E+00  0.00000000000E+00  0.80391122539E+02  0.80391122697E+02  0.50400001928E-02 0. -1.
        1   -1    0    0  501    0  0.00000000000E+00  0.00000000000E+00 -0.11178449402E+04  0.11178449402E+04  0.50400001928E-02 0.  1.
    10030    2    1    2    0    0  0.00000000000E+00  0.00000000000E+00 -0.10374538176E+04  0.11982360629E+04  0.59954919620E+03 0.  0.
        2    1    3    3  502    0  0.23791771504E+02 -0.54162075314E+02 -0.11060634622E+04  0.11076443297E+04  0.25500000920E-02 0.  1.
       -2    1    3    3    0  502 -0.23791771504E+02  0.54162075314E+02  0.68609644520E+02  0.90591733184E+02  0.25500000920E-02 0. -1.
</event>
<event>
 5   0  0.1423430E-03  0.5999391E+03  0.7818609E-02  0.9905532E-01
        1   -1    0    0  501    0  0.00000000000E+00  0.00000000000E+00  0.11253233256E+03  0.11253233267E+03  0.50400001928E-02 0. -1.
       -1   -1    0    0    0  501  0.00000000000E+00  0.00000000000E+00 -0.79960770923E+03  0.79960770925E+03  0.50400001928E-02 0.  1.
    10030    2    1    2    0    0  0.00000000000E+00  0.00000000000E+00 -0.68707537667E+03  0.91214004192E+03  0.59993906594E+03 0.  0.
        1    1    3    3  502    0  0.21512553462E+03 -0.87537652676E+02 -0.54904628611E+02  0.23865530489E+03  0.50400001928E-02 0. -1.
       -1    1    3    3    0  502 -0.21512553462E+03  0.87537652676E+02 -0.63217074806E+03  0.67348473703E+03  0.50400001928E-02 0.  1.
</event>
<event>
 5   0  0.2313168E-03  0.5999036E+03  0.7818609E-02  0.9905606E-01
        2   -1    0    0  501    0  0.00000000000E+00  0.00000000000E+00  0.86799232684E+03  0.86799232684E+03  0.25500000920E-02 0. -1.
       -2   -1    0    0    0  501  0.00000000000E+00  0.00000000000E+00 -0.10365422419E+03  0.10365422422E+03  0.25500000920E-02 0.  1.
    10030    2    1    2    0    0  0.00000000000E+00  0.00000000000E+00  0.76433810265E+03  0.97164655106E+03  0.59990356311E+03 0.  0.
        2    1    3    3  502    0  0.95718164134E+02 -0.23686845315E+03  0.12760516039E+03  0.28557259674E+03  0.25500000920E-02 0.  1.
       -2    1    3    3    0  502 -0.95718164134E+02  0.23686845315E+03  0.63673294226E+03  0.68607395433E+03  0.25500000920E-02 0. -1.
</event>
<event>
 5   0  0.1423430E-03  0.6004538E+03  0.7818609E-02  0.9904465E-01
        1   -1    0    0  501    0  0.00000000000E+00  0.00000000000E+00  0.12136998717E+03  0.12136998728E+03  0.50400001928E-02 0.  1.
       -1   -1    0    0    0  501  0.00000000000E+00  0.00000000000E+00 -0.74265638346E+03  0.74265638348E+03  0.50400001928E-02 0. -1.
    10030    2    1    2    0    0  0.00000000000E+00  0.00000000000E+00 -0.62128639629E+03  0.86402637076E+03  0.60045381434E+03 0.  0.
        1    1    3    3  502    0  0.17494757797E+03 -0.18350472109E+03 -0.54202241546E+03  0.59838861670E+03  0.50400001928E-02 0. -1.
       -1    1    3    3    0  502 -0.17494757797E+03  0.18350472109E+03 -0.79263980827E+02  0.26563775406E+03  0.50400001928E-02 0.  1.
</event>
<event>
 5   0  0.9496750E-04  0.6002199E+03  0.7818609E-02  0.9904950E-01
        3   -1    0    0  501    0  0.00000000000E+00  0.00000000000E+00  0.23946196409E+03  0.23946198539E+03  0.10100000352E+00 0.  1.
       -3   -1    0    0    0  501  0.00000000000E+00  0.00000000000E+00 -0.37611807471E+03  0.37611808828E+03  0.10100000352E+00 0. -1.
    10030    2    1    2    0    0  0.00000000000E+00  0.00000000000E+00 -0.13665611062E+03  0.61558007367E+03  0.60021990514E+03 0.  0.
        4    1    3    3  502    0 -0.13344375693E+03 -0.20711879355E+03 -0.24405742196E+03  0.34680119525E+03  0.12699999809E+01 0. -1.
       -4    1    3    3    0  502  0.13344375693E+03  0.20711879355E+03  0.10740131134E+03  0.26877887842E+03  0.12699999809E+01 0.  1.
</event>
<event>
 5   0  0.9496750E-04  0.6010534E+03  0.7818609E-02  0.9903223E-01
       -3   -1    0    0    0  501  0.00000000000E+00  0.00000000000E+00  0.45565420841E+03  0.45565421961E+03  0.10100000352E+00 0.  1.
        3   -1    0    0  501    0  0.00000000000E+00  0.00000000000E+00 -0.19821236491E+03  0.19821239064E+03  0.10100000352E+00 0. -1.
    10030    2    1    2    0    0  0.00000000000E+00  0.00000000000E+00  0.25744184351E+03  0.65386661025E+03  0.60105344289E+03 0.  0.
        5    1    3    3  502    0 -0.10948837757E+03 -0.15968400437E+03 -0.12126987233E+03  0.22850636317E+03  0.46999998093E+01 0. -1.
       -5    1    3    3    0  502  0.10948837757E+03  0.15968400437E+03  0.37871171584E+03  0.42536024707E+03  0.46999998093E+01 0.  1.
</event>
<event>
 5   0  0.2406307E-03  0.6000714E+03  0.7818609E-02  0.9905258E-01
       -2   -1    0    0    0  501  0.00000000000E+00  0.00000000000E+00  0.18011324292E+03  0.18011324293E+03  0.25500000920E-02 0.  1.
        2   -1    0    0  501    0  0.00000000000E+00  0.00000000000E+00 -0.49980463104E+03  0.49980463104E+03  0.25500000920E-02 0. -1.
    10030    2    1    2    0    0  0.00000000000E+00  0.00000000000E+00 -0.31969138812E+03  0.67991787398E+03  0.60007143884E+03 0.  0.
        5    1    3    3  502    0 -0.16301268827E+03 -0.13502338630E+03  0.81032882472E+02  0.22669995462E+03  0.46999998093E+01 0.  1.
       -5    1    3    3    0  502  0.16301268827E+03  0.13502338630E+03 -0.40072427059E+03  0.45321791936E+03  0.46999998093E+01 0. -1.
</event>
<event>
 5   0  0.1479385E-03  0.5998675E+03  0.7818609E-02  0.9905681E-01
        1   -1    0    0  501    0  0.00000000000E+00  0.00000000000E+00  0.15184497734E+04  0.15184497734E+04  0.50400001928E-02 0.  1.
       -1   -1    0    0    0  501  0.00000000000E+00  0.00000000000E+00 -0.59244798245E+02  0.59244798459E+02  0.50400001928E-02 0. -1.
    10030    2    1    2    0    0  0.00000000000E+00  0.00000000000E+00  0.14592049752E+04  0.15776945719E+04  0.59986748753E+03 0.  0.
        3    1    3    3  502    0 -0.21608628288E+03  0.20800441692E+03  0.72681741592E+03  0.78627138151E+03  0.10100000352E+00 0.  1.
       -3    1    3    3    0  502  0.21608628288E+03 -0.20800441692E+03  0.73238755927E+03  0.79142319039E+03  0.10100000352E+00 0. -1.
</event>
<event>
 5   0  0.1418763E-03  0.5994510E+03  0.7818609E-02  0.9906546E-01
       -1   -1    0    0    0  501  0.00000000000E+00  0.00000000000E+00  0.68532935872E+03  0.68532935874E+03  0.50400001928E-02 0.  1.
        1   -1    0    0  501    0  0.00000000000E+00  0.00000000000E+00 -0.13108351307E+03  0.13108351317E+03  0.50400001928E-02 0. -1.
    10030    2    1    2    0    0  0.00000000000E+00  0.00000000000E+00  0.55424584565E+03  0.81641287191E+03  0.59945101551E+03 0.  0.
        5    1    3    3  502    0  0.16521969950E+03  0.24923268088E+03  0.24992472828E+03  0.38974214312E+03  0.46999998093E+01 0.  1.
       -5    1    3    3    0  502 -0.16521969950E+03 -0.24923268088E+03  0.30432111737E+03  0.42667072878E+03  0.46999998093E+01 0. -1.
</event>
<event>
 5   0  0.1418763E-03  0.6001189E+03  0.7818609E-02  0.9905159E-01
       -1   -1    0    0    0  501  0.00000000000E+00  0.00000000000E+00  0.13744952317E+03  0.13744952326E+03  0.50400001928E-02 0. -1.
        1   -1    0    0  501    0  0.00000000000E+00  0.00000000000E+00 -0.65504546014E+03  0.65504546016E+03  0.50400001928E-02 0.  1.
    10030    2    1    2    0    0  0.00000000000E+00  0.00000000000E+00 -0.51759593697E+03  0.79249498342E+03  0.60011894219E+03 0.  0.
        5    1    3    3  502    0 -0.12693035319E+02  0.27027446576E+03 -0.87612041652E+02  0.28444219067E+03  0.46999998093E+01 0. -1.
       -5    1    3    3    0  502  0.12693035319E+02 -0.27027446576E+03 -0.42998389532E+03  0.50805279275E+03  0.46999998093E+01 0.  1.
</event>
<event>
 5   0  0.2313168E-03  0.6002910E+03  0.7818609E-02  0.9904802E-01
       -2   -1    0    0    0  501  0.00000000000E+00  0.00000000000E+00  0.37462310887E+03  0.37462310887E+03  0.25500000920E-02 0.  1.
        2   -1    0    0  501    0  0.00000000000E+00  0.00000000000E+00 -0.24047458203E+03  0.24047458204E+03  0.25500000920E-02 0. -1.
    10030    2    1    2    0    0  0.00000000000E+00  0.00000000000E+00  0.13414852684E+03  0.61509769092E+03  0.60029104784E+03 0.  0.
        2    1    3    3  502    0  0.57784851841E+02  0.39390918390E+02 -0.23200986489E+03  0.24232067796E+03  0.25500000920E-02 0. -1.
       -2    1    3    3    0  502 -0.57784851841E+02 -0.39390918390E+02  0.36615839172E+03  0.37277701296E+03  0.25500000920E-02 0.  1.
</event>
<event>
 5   0  0.1418763E-03  0.5998181E+03  0.7818609E-02  0.9905784E-01
       -1   -1    0    0    0  501  0.00000000000E+00  0.00000000000E+00  0.21907606757E+03  0.21907606763E+03  0.50400001928E-02 0.  1.
        1   -1    0    0  501    0  0.00000000000E+00  0.00000000000E+00 -0.41056710369E+03  0.41056710372E+03  0.50400001928E-02 0. -1.
    10030    2    1    2    0    0  0.00000000000E+00  0.00000000000E+00 -0.19149103612E+03  0.62964317135E+03  0.59981806101E+03 0.  0.
        5    1    3    3  502    0 -0.16355487791E+03  0.39607728894E+02 -0.35628929609E+03  0.39405979595E+03  0.46999998093E+01 0. -1.
       -5    1    3    3    0  502  0.16355487791E+03 -0.39607728894E+02  0.16479825997E+03  0.23558337540E+03  0.46999998093E+01 0.  1.
</event>
<event>
 5   0  0.1423430E-03  0.5998781E+03  0.7818609E-02  0.9905659E-01
        1   -1    0    0  501    0  0.00000000000E+00  0.00000000000E+00  0.95569099503E+03  0.95569099504E+03  0.50400001928E-02 0.  1.
       -1   -1    0    0    0  501  0.00000000000E+00  0.00000000000E+00 -0.94134435291E+02  0.94134435426E+02  0.50400001928E-02 0. -1.
    10030    2    1    2    0    0  0.00000000000E+00  0.00000000000E+00  0.86155655974E+03  0.10498254305E+04  0.59987809498E+03 0.  0.
        1    1    3    3  502    0 -0.72104042287E+02  0.18867760774E+03  0.81882408095E+03  0.84336890394E+03  0.50400001928E-02 0.  1.
       -1    1    3    3    0  502  0.72104042287E+02 -0.18867760774E+03  0.42732478792E+02  0.20645652653E+03  0.50400001928E-02 0. -1.
</event>
<event>
 5   0  0.2313168E-03  0.6044216E+03  0.7818609E-02  0.9896275E-01
       -2   -1    0    0    0  501  0.00000000000E+00  0.00000000000E+00  0.14953946456E+03  0.14953946458E+03  0.25500000920E-02 0. -1.
        2   -1    0    0  501    0  0.00000000000E+00  0.00000000000E+00 -0.61075101647E+03  0.61075101648E+03  0.25500000920E-02 0.  1.
    10030    2    1    2    0    0  0.00000000000E+00  0.00000000000E+00 -0.46121155191E+03  0.76029048106E+03  0.60442164089E+03 0.  0.
        2    1    3    3  502    0  0.27924425236E+03 -0.84264438995E+02 -0.13113345990E+03  0.31980280247E+03  0.25500000920E-02 0.  1.
       -2    1    3    3    0  502 -0.27924425236E+03  0.84264438995E+02 -0.33007809201E+03  0.44048767859E+03  0.25500000920E-02 0. -1.
</event>
<event>
 5   0  0.9496750E-04  0.5999342E+03  0.7818609E-02  0.9905543E-01
        4   -1    0    0  501    0  0.00000000000E+00  0.00000000000E+00  0.60492952411E+03  0.60493085724E+03  0.12699999809E+01 0.  1.
       -4   -1    0    0    0  501  0.00000000000E+00  0.00000000000E+00 -0.14874080364E+03  0.14874622539E+03  0.12699999809E+01 0. -1.
    10030    2    1    2    0    0  0.00000000000E+00  0.00000000000E+00  0.45618872047E+03  0.75367708263E+03  0.59993415989E+03 0.  0.
        1    1    3    3  502    0 -0.12391185775E+03 -0.20452133559E+03  0.45560389289E+03  0.51454643371E+03  0.50400001928E-02 0.  1.
       -1    1    3    3    0  502  0.12391185775E+03  0.20452133559E+03  0.58482757529E+00  0.23913064892E+03  0.50400001928E-02 0. -1.
</event>
<event>
 5   0  0.1416315E-03  0.6000177E+03  0.7818609E-02  0.9905369E-01
        1   -1    0    0  501    0  0.00000000000E+00  0.00000000000E+00  0.27746547493E+03  0.27746547498E+03  0.50400001928E-02 0.  1.
       -1   -1    0    0    0  501  0.00000000000E+00  0.00000000000E+00 -0.32438382063E+03  0.32438382067E+03  0.50400001928E-02 0. -1.
    10030    2    1    2    0    0  0.00000000000E+00  0.00000000000E+00 -0.46918345704E+02  0.60184929565E+03  0.60001770266E+03 0.  0.
        2    1    3    3  502    0 -0.58591884569E+02  0.29421489060E+03 -0.26615217454E+02  0.30117068349E+03  0.25500000920E-02 0.  1.
       -2    1    3    3    0  502  0.58591884569E+02 -0.29421489060E+03 -0.20303128250E+02  0.30067861216E+03  0.25500000920E-02 0. -1.
</event>
<event>
 5   0  0.1416315E-03  0.6001667E+03  0.7818609E-02  0.9905060E-01
        1   -1    0    0  501    0  0.00000000000E+00  0.00000000000E+00  0.54992073626E+03  0.54992073629E+03  0.50400001928E-02 0.  1.
       -1   -1    0    0    0  501  0.00000000000E+00  0.00000000000E+00 -0.16375089323E+03  0.16375089331E+03  0.50400001928E-02 0. -1.
    10030    2    1    2    0    0  0.00000000000E+00  0.00000000000E+00  0.38616984304E+03  0.71367162959E+03  0.60016668286E+03 0.  0.
        2    1    3    3  502    0  0.54980982702E+01  0.18465795880E+03 -0.88114791119E+02  0.20467781329E+03  0.25500000920E-02 0. -1.
       -2    1    3    3    0  502 -0.54980982702E+01 -0.18465795880E+03  0.47428463415E+03  0.50899381630E+03  0.25500000920E-02 0.  1.
</event>
<event>
 5   0  0.1392854E-03  0.5999013E+03  0.7818609E-02  0.9905611E-01
        1   -1    0    0  501    0  0.00000000000E+00  0.00000000000E+00  0.46204453455E+03  0.46204453458E+03  0.50400001928E-02 0.  1.
       -1   -1    0    0    0  501  0.00000000000E+00  0.00000000000E+00 -0.19472232566E+03  0.19472232572E+03  0.50400001928E-02 0. -1.
    10030    2    1    2    0    0  0.00000000000E+00  0.00000000000E+00  0.26732220889E+03  0.65676686030E+03  0.59990127973E+03 0.  0.
        4    1    3    3  502    0 -0.90226809717E+02 -0.21730463882E+03 -0.70001290940E+02  0.24548722345E+03  0.12699999809E+01 0. -1.
       -4    1    3    3    0  502  0.90226809717E+02  0.21730463882E+03  0.33732349983E+03  0.41127963685E+03  0.12699999809E+01 0.  1.
</event>
<event>
 5   0  0.1418763E-03  0.5999985E+03  0.7818609E-02  0.9905409E-01
       -1   -1    0    0    0  501  0.00000000000E+00  0.00000000000E+00  0.51830202574E+03  0.51830202576E+03  0.50400001928E-02 0.  1.
        1   -1    0    0  501    0  0.00000000000E+00  0.00000000000E+00 -0.17364303800E+03  0.17364303808E+03  0.50400001928E-02 0. -1.
    10030    2    1    2    0    0  0.00000000000E+00  0.00000000000E+00  0.34465898774E+03  0.69194506384E+03  0.59999846129E+03 0.  0.
        5    1    3    3  502    0  0.19332683231E+03 -0.27107512014E+02 -0.90315169134E+02  0.21514878822E+03  0.46999998093E+01 0. -1.
       -5    1    3    3    0  502 -0.19332683231E+03  0.27107512014E+02  0.43497415687E+03  0.47679627562E+03  0.46999998093E+01 0.  1.
</event>
<event>
 5   0  0.1479385E-03  0.6001678E+03  0.7818609E-02  0.9905058E-01
       -1   -1    0    0    0  501  0.00000000000E+00  0.00000000000E+00  0.16197225154E+03  0.16197225161E+03  0.50400001928E-02 0. -1.
        1   -1    0    0  501    0  0.00000000000E+00  0.00000000000E+00 -0.55596165511E+03  0.55596165513E+03  0.50400001928E-02 0.  1.
    10030    2    1    2    0    0  0.00000000000E+00  0.00000000000E+00 -0.39398940357E+03  0.71793390674E+03  0.60016784679E+03 0.  0.
        3    1    3    3  502    0  0.42234205653E+01 -0.39641292448E+02 -0.55277988862E+03  0.55421555807E+03  0.10100000352E+00 0.  1.
       -3    1    3    3    0  502 -0.42234205653E+01  0.39641292448E+02  0.15879048505E+03  0.16371834867E+03  0.10100000352E+00 0. -1.
</event>
<event>
 5   0  0.2406307E-03  0.6006041E+03  0.7818609E-02  0.9904154E-01
        2   -1    0    0  501    0  0.00000000000E+00  0.00000000000E+00  0.36585806797E+03  0.36585806798E+03  0.25500000920E-02 0.  1.
       -2   -1    0    0    0  501  0.00000000000E+00  0.00000000000E+00 -0.24649261610E+03  0.24649261612E+03  0.25500000920E-02 0. -1.
    10030    2    1    2    0    0  0.00000000000E+00  0.00000000000E+00  0.11936545186E+03  0.61235068409E+03  0.60060407026E+03 0.  0.
        5    1    3    3  502    0  0.24505517240E+03  0.11527195458E+03 -0.72544007147E+02  0.28040039943E+03  0.46999998093E+01 0. -1.
       -5    1    3    3    0  502 -0.24505517240E+03 -0.11527195458E+03  0.19190945901E+03  0.33195028466E+03  0.46999998093E+01 0.  1.
</event>
<event>
 5   0  0.1418763E-03  0.5998090E+03  0.7818609E-02  0.9905802E-01
        1   -1    0    0  501    0  0.00000000000E+00  0.00000000000E+00  0.33796488963E+03  0.33796488967E+03  0.50400001928E-02 0.  1.
       -1   -1    0    0    0  501  0.00000000000E+00  0.00000000000E+00 -0.26613036562E+03  0.26613036566E+03  0.50400001928E-02 0. -1.
    10030    2    1    2    0    0  0.00000000000E+00  0.00000000000E+00  0.71834524014E+02  0.60409525533E+03  0.59980903517E+03 0.  0.
        5    1    3    3  502    0 -0.18959452106E+03 -0.23002061655E+03  0.68785779376E+02  0.30595610779E+03  0.46999998093E+01 0. -1.
       -5    1    3    3    0  502  0.18959452106E+03  0.23002061655E+03  0.30487446380E+01  0.29813914754E+03  0.46999998093E+01 0.  1.
</event>
<event>
 5   0  0.2421210E-03  0.5996365E+03  0.7818609E-02  0.9906160E-01
        2   -1    0    0  501    0  0.00000000000E+00  0.00000000000E+00  0.17229566905E+04  0.17229566905E+04  0.25500000920E-02 0. -1.
       -2   -1    0    0    0  501  0.00000000000E+00  0.00000000000E+00 -0.52172521576E+02  0.52172521638E+02  0.25500000920E-02 0.  1.
    10030    2    1    2    0    0  0.00000000000E+00  0.00000000000E+00  0.16707841689E+04  0.17751292122E+04  0.59963654047E+03 0.  0.
        1    1    3    3  502    0  0.12551197900E+03 -0.26451396599E+03  0.10265600504E+04  0.10674954015E+04  0.50400001928E-02 0. -1.
       -1    1    3    3    0  502 -0.12551197900E+03  0.26451396599E+03  0.64422411852E+03  0.70763381065E+03  0.50400001928E-02 0.  1.
</event>
<event>
 5   0  0.1479385E-03  0.6000589E+03  0.7818609E-02  0.9905284E-01
       -1   -1    0    0    0  501  0.00000000000E+00  0.00000000000E+00  0.38650907717E+03  0.38650907720E+03  0.50400001928E-02 0.  1.
        1   -1    0    0  501    0  0.00000000000E+00  0.00000000000E+00 -0.23289927228E+03  0.23289927233E+03  0.50400001928E-02 0. -1.
    10030    2    1    2    0    0  0.00000000000E+00  0.00000000000E+00  0.15360980489E+03  0.61940834953E+03  0.60005893987E+03 0.  0.
        3    1    3    3  502    0 -0.22971141590E+03  0.12610065960E+03  0.22762927377E+03  0.34710777494E+03  0.10100000352E+00 0.  1.
       -3    1    3    3    0  502  0.22971141590E+03 -0.12610065960E+03 -0.74019468882E+02  0.27230057459E+03  0.10100000352E+00 0. -1.
</event>
<event>
 5   0  0.1416315E-03  0.6002055E+03  0.7818609E-02  0.9904980E-01
       -1   -1    0    0    0  501  0.00000000000E+00  0.00000000000E+00  0.27999427097E+03  0.27999427102E+03  0.50400001928E-02 0.  1.
        1   -1    0    0  501    0  0.00000000000E+00  0.00000000000E+00 -0.32165538520E+03  0.32165538524E+03  0.50400001928E-02 0. -1.
    10030    2    1    2    0    0  0.00000000000E+00  0.00000000000E+00 -0.41661114228E+02  0.60164965625E+03  0.60020551516E+03 0.  0.
        2    1    3    3  502    0  0.43777682790E+02  0.21816690364E+03  0.18102023332E+03  0.28684770913E+03  0.25500000920E-02 0.  1.
       -2    1    3    3    0  502 -0.43777682790E+02 -0.21816690364E+03 -0.22268134755E+03  0.31480194712E+03  0.25500000920E-02 0. -1.
</event>
<event>
 5   0  0.9496750E-04  0.5995295E+03  0.7818609E-02  0.9906383E-01
        3   -1    0    0  501    0  0.00000000000E+00  0.00000000000E+00  0.68224254557E+03  0.68224255304E+03  0.10100000352E+00 0. -1.
       -3   -1    0    0    0  501  0.00000000000E+00  0.00000000000E+00 -0.13171106125E+03  0.13171109998E+03  0.10100000352E+00 0.  1.
    10030    2    1    2    0    0  0.00000000000E+00  0.00000000000E+00  0.55053148432E+03  0.81395365302E+03  0.59952951057E+03 0.  0.
        2    1    3    3  502    0  0.24074338303E+02  0.45406135280E+02 -0.12568518422E+03  0.13578680504E+03  0.25500000920E-02 0.  1.
       -2    1    3    3    0  502 -0.24074338303E+02 -0.45406135280E+02  0.67621666853E+03  0.67816684798E+03  0.25500000920E-02 0. -1.
</event>
<event>
 5   0  0.2421210E-03  0.5989326E+03  0.7818609E-02  0.9907623E-01
        2   -1    0    0  501    0  0.00000000000E+00  0.00000000000E+00  0.67463567155E+03  0.67463567156E+03  0.25500000920E-02 0.  1.
       -2   -1    0    0    0  501  0.00000000000E+00  0.00000000000E+00 -0.13293110188E+03  0.13293110191E+03  0.25500000920E-02 0. -1.
    10030    2    1    2    0    0  0.00000000000E+00  0.00000000000E+00  0.54170456967E+03  0.80756677347E+03  0.59893259454E+03 0.  0.
        1    1    3    3  502    0  0.47437828783E+02  0.21691138863E+03 -0.91479789321E-01  0.22203807447E+03  0.50400001928E-02 0. -1.
       -1    1    3    3    0  502 -0.47437828783E+02 -0.21691138863E+03  0.54179604946E+03  0.58552869900E+03  0.50400001928E-02 0.  1.
</event>
<event>
 5   0  0.2346281E-03  0.6000795E+03  0.7818609E-02  0.9905241E-01
        2   -1    0    0  501    0  0.00000000000E+00  0.00000000000E+00  0.14375069531E+04  0.14375069531E+04  0.25500000920E-02 0. -1.
       -2   -1    0    0    0  501  0.00000000000E+00  0.00000000000E+00 -0.62624980195E+02  0.62624980247E+02  0.25500000920E-02 0.  1.
    10030    2    1    2    0    0  0.00000000000E+00  0.00000000000E+00  0.13748819729E+04  0.15001319334E+04  0.60007947643E+03 0.  0.
        3    1    3    3  502    0 -0.16783352129E+03  0.15592708370E+03  0.20306544221E+03  0.30613221052E+03  0.10100000352E+00 0.  1.
       -3    1    3    3    0  502  0.16783352129E+03 -0.15592708370E+03  0.11718165307E+04  0.11939997228E+04  0.10100000352E+00 0. -1.
</event>
<event>
 5   0  0.2421210E-03  0.6006678E+03  0.7818609E-02  0.9904022E-01
        2   -1    0    0  501    0  0.00000000000E+00  0.00000000000E+00  0.36794835361E+03  0.36794835362E+03  0.25500000920E-02 0.  1.
       -2   -1    0    0    0  501  0.00000000000E+00  0.00000000000E+00 -0.24514428953E+03  0.24514428955E+03  0.25500000920E-02 0. -1.
    10030    2    1    2    0    0  0.00000000000E+00  0.00000000000E+00  0.12280406408E+03  0.61309264316E+03  0.60066775421E+03 0.  0.
        1    1    3    3  502    0 -0.24020077405E+03 -0.17960632880E+03  0.77397588183E+02  0.30975027342E+03  0.50400001928E-02 0.  1.
       -1    1    3    3    0  502  0.24020077405E+03  0.17960632880E+03  0.45406475892E+02  0.30334236974E+03  0.50400001928E-02 0. -1.
</event>
<event>
 5   0  0.2346281E-03  0.6001113E+03  0.7818609E-02  0.9905175E-01
       -2   -1    0    0    0  501  0.00000000000E+00  0.00000000000E+00  0.10048239877E+03  0.10048239881E+03  0.25500000920E-02 0.  1.
        2   -1    0    0  501    0  0.00000000000E+00  0.00000000000E+00 -0.89601163051E+03  0.89601163051E+03  0.25500000920E-02 0. -1.
    10030    2    1    2    0    0  0.00000000000E+00  0.00000000000E+00 -0.79552923174E+03  0.99649402932E+03  0.60011131628E+03 0.  0.
        3    1    3    3  502    0  0.22589255821E+03 -0.18867248288E+03 -0.49471132657E+03  0.57564230255E+03  0.10100000352E+00 0. -1.
       -3    1    3    3    0  502 -0.22589255821E+03  0.18867248288E+03 -0.30081790517E+03  0.42085172677E+03  0.10100000352E+00 0.  1.
</event>
<event>
 5   0  0.2313168E-03  0.6000892E+03  0.7818609E-02  0.9905221E-01
       -2   -1    0    0    0  501  0.00000000000E+00  0.00000000000E+00  0.21878261117E+03  0.21878261119E+03  0.25500000920E-02 0. -1.
        2   -1    0    0  501    0  0.00000000000E+00  0.00000000000E+00 -0.41148957966E+03  0.41148957967E+03  0.25500000920E-02 0.  1.
    10030    2    1    2    0    0  0.00000000000E+00  0.00000000000E+00 -0.19270696849E+03  0.63027219086E+03  0.60008920909E+03 0.  0.
        2    1    3    3  502    0  0.27571651023E+03  0.11484161692E+03 -0.66303709109E+02  0.30594831727E+03  0.25500000920E-02 0.  1.
       -2    1    3    3    0  502 -0.27571651023E+03 -0.11484161692E+03 -0.12640325938E+03  0.32432387359E+03  0.25500000920E-02 0. -1.
</event>
<event>
 5   0  0.2421210E-03  0.5999829E+03  0.7818609E-02  0.9905442E-01
       -2   -1    0    0    0  501  0.00000000000E+00  0.00000000000E+00  0.75469839442E+03  0.75469839442E+03  0.25500000920E-02 0. -1.
        2   -1    0    0  501    0  0.00000000000E+00  0.00000000000E+00 -0.11924614417E+03  0.11924614420E+03  0.25500000920E-02 0.  1.
    10030    2    1    2    0    0  0.00000000000E+00  0.00000000000E+00  0.63545225025E+03  0.87394453862E+03  0.59998291162E+03 0.  0.
        1    1    3    3  502    0  0.16032410355E+03 -0.48504492680E+01 -0.51541123835E+02  0.16847502043E+03  0.50400001928E-02 0.  1.
       -1    1    3    3    0  502 -0.16032410355E+03  0.48504492680E+01  0.68699337408E+03  0.70546951819E+03  0.50400001928E-02 0. -1.
</event>
<event>
 5   0  0.1418763E-03  0.6001788E+03  0.7818609E-02  0.9905035E-01
       -1   -1    0    0    0  501  0.00000000000E+00  0.00000000000E+00  0.10012456189E+03  0.10012456201E+03  0.50400001928E-02 0. -1.
        1   -1    0    0  501    0  0.00000000000E+00  0.00000000000E+00 -0.89941608977E+03  0.89941608979E+03  0.50400001928E-02 0.  1.
    10030    2    1    2    0    0  0.00000000000E+00  0.00000000000E+00 -0.79929152789E+03  0.99954065180E+03  0.60017878007E+03 0.  0.
        5    1    3    3  502    0  0.25897976055E+03  0.11704507241E+03 -0.23937283331E+03  0.37160665855E+03  0.46999998093E+01 0. -1.
       -5    1    3    3    0  502 -0.25897976055E+03 -0.11704507241E+03 -0.55991869458E+03  0.62793399326E+03  0.46999998093E+01 0.  1.
</event>
<event>
 5   0  0.1479385E-03  0.6001860E+03  0.7818609E-02  0.9905020E-01
        1   -1    0    0  501    0  0.00000000000E+00  0.00000000000E+00  0.29516335668E+04  0.29516335668E+04  0.50400001928E-02 0.  1.
       -1   -1    0    0    0  501  0.00000000000E+00  0.00000000000E+00 -0.30510492406E+02  0.30510492822E+02  0.50400001928E-02 0. -1.
    10030    2    1    2    0    0  0.00000000000E+00  0.00000000000E+00  0.29211230744E+04  0.29821440596E+04  0.60018595169E+03 0.  0.
        3    1    3    3  502    0 -0.14329863696E+02  0.29970838871E+03  0.14855638726E+04  0.15155627645E+04  0.10100000352E+00 0.  1.
       -3    1    3    3    0  502  0.14329863696E+02 -0.29970838871E+03  0.14355592018E+04  0.14665812951E+04  0.10100000352E+00 0. -1.
</event>
<event>
 5   0  0.2313168E-03  0.6003630E+03  0.7818609E-02  0.9904653E-01
       -2   -1    0    0    0  501  0.00000000000E+00  0.00000000000E+00  0.70306942009E+02  0.70306942056E+02  0.25500000920E-02 0.  1.
        2   -1    0    0  501    0  0.00000000000E+00  0.00000000000E+00 -0.12816503926E+04  0.12816503926E+04  0.25500000920E-02 0. -1.
    10030    2    1    2    0    0  0.00000000000E+00  0.00000000000E+00 -0.12113434506E+04  0.13519573347E+04  0.60036295643E+03 0.  0.
        2    1    3    3  502    0  0.27965723858E+02 -0.36936484059E+02 -0.12735509977E+04  0.12743933966E+04  0.25500000920E-02 0. -1.
       -2    1    3    3    0  502 -0.27965723858E+02  0.36936484059E+02  0.62207547097E+02  0.77563938064E+02  0.25500000920E-02 0.  1.
</event>
<event>
 5   0  0.1479385E-03  0.6000217E+03  0.7818609E-02  0.9905361E-01
       -1   -1    0    0    0  501  0.00000000000E+00  0.00000000000E+00  0.12528138212E+03  0.12528138223E+03  0.50400001928E-02 0.  1.
        1   -1    0    0  501    0  0.00000000000E+00  0.00000000000E+00 -0.71843473999E+03  0.71843474001E+03  0.50400001928E-02 0. -1.
    10030    2    1    2    0    0  0.00000000000E+00  0.00000000000E+00 -0.59315335787E+03  0.84371612224E+03  0.60002165709E+03 0.  0.
        3    1    3    3  502    0 -0.18956416208E+03 -0.23047449485E+03 -0.33999491452E+03  0.45238215750E+03  0.10100000352E+00 0. -1.
       -3    1    3    3    0  502  0.18956416208E+03  0.23047449485E+03 -0.25315844335E+03  0.39133396474E+03  0.10100000352E+00 0.  1.
</event>
<event>
 5   0  0.1479385E-03  0.6000738E+03  0.7818609E-02  0.9905253E-01
        1   -1    0    0  501    0  0.00000000000E+00  0.00000000000E+00  0.19174984465E+03  0.19174984472E+03  0.50400001928E-02 0. -1.
       -1   -1    0    0    0  501  0.00000000000E+00  0.00000000000E+00 -0.46947696745E+03  0.46947696748E+03  0.50400001928E-02 0.  1.
    10030    2    1    2    0    0  0.00000000000E+00  0.00000000000E+00 -0.27772712280E+03  0.66122681220E+03  0.60007378082E+03 0.  0.
        3    1    3    3  502    0 -0.17588841033E+03 -0.24157768400E+03 -0.16854595798E+03  0.34308054513E+03  0.10100000352E+00 0.  1.
       -3    1    3    3    0  502  0.17588841033E+03  0.24157768400E+03 -0.10918116482E+03  0.31814626707E+03  0.10100000352E+00 0. -1.
</event>
<event>
 5   0  0.2406307E-03  0.5997397E+03  0.7818609E-02  0.9905946E-01
       -2   -1    0    0    0  501  0.00000000000E+00  0.00000000000E+00  0.51388979887E+02  0.51388979951E+02  0.25500000920E-02 0.  1.
        2   -1    0    0  501    0  0.00000000000E+00  0.00000000000E+00 -0.17498289339E+04  0.17498289339E+04  0.25500000920E-02 0. -1.
    10030    2    1    2    0    0  0.00000000000E+00  0.00000000000E+00 -0.16984399540E+04  0.18012179138E+04  0.59973969002E+03 0.  0.
        5    1    3    3  502    0 -0.23406383677E+03  0.14549268933E+03 -0.49454898034E+03  0.56617557903E+03  0.46999998093E+01 0.  1.
       -5    1    3    3    0  502  0.23406383677E+03 -0.14549268933E+03 -0.12038909736E+04  0.12350423348E+04  0.46999998093E+01 0. -1.
</event>
<event>
 5   0  0.2346281E-03  0.5981973E+03  0.7818609E-02  0.9909153E-01
        2   -1    0    0  501    0  0.00000000000E+00  0.00000000000E+00  0.37066715858E+03  0.37066715859E+03  0.25500000920E-02 0. -1.
       -2   -1    0    0    0  501  0.00000000000E+00  0.00000000000E+00 -0.24134859649E+03  0.24134859650E+03  0.25500000920E-02 0.  1.
    10030    2    1    2    0    0  0.00000000000E+00  0.00000000000E+00  0.12931856209E+03  0.61201575510E+03  0.59819728684E+03 0.  0.
        3    1    3    3  502    0 -0.25428209057E+03 -0.14373018260E+03  0.13050626111E+03  0.31992130495E+03  0.10100000352E+00 0. -1.
       -3    1    3    3    0  502  0.25428209057E+03  0.14373018260E+03 -0.11876990182E+01  0.29209445014E+03  0.10100000352E+00 0.  1.
</event>
<event>
 5   0  0.1418763E-03  0.5997135E+03  0.7818609E-02  0.9906001E-01
       -1   -1    0    0    0  501  0.00000000000E+00  0.00000000000E+00  0.13636053747E+03  0.13636053756E+03  0.50400001928E-02 0.  1.
        1   -1    0    0  501    0  0.00000000000E+00  0.00000000000E+00 -0.65938472571E+03  0.65938472573E+03  0.50400001928E-02 0. -1.
    10030    2    1    2    0    0  0.00000000000E+00  0.00000000000E+00 -0.52302418824E+03  0.79574526329E+03  0.59971345038E+03 0.  0.
        5    1    3    3  502    0  0.25214766560E+03 -0.12509599113E+03 -0.12448678370E+03  0.30780919670E+03  0.46999998093E+01 0.  1.
       -5    1    3    3    0  502 -0.25214766560E+03  0.12509599113E+03 -0.39853740454E+03  0.48793606659E+03  0.46999998093E+01 0. -1.
</event>
<event>
 5   0  0.2313168E-03  0.6000148E+03  0.7818609E-02  0.9905375E-01
        2   -1    0    0  501    0  0.00000000000E+00  0.00000000000E+00  0.31660244430E+03  0.31660244431E+03  0.25500000920E-02 0.  1.
       -2   -1    0    0    0  501  0.00000000000E+00  0.00000000000E+00 -0.28428222367E+03  0.28428222368E+03  0.25500000920E-02 0. -1.
    10030    2    1    2    0    0  0.00000000000E+00  0.00000000000E+00  0.32320220634E+02  0.60088466799E+03  0.60001482278E+03 0.  0.
        2    1    3    3  502    0 -0.28366810975E+03 -0.96695358332E+02  0.24706894338E+01  0.29970601116E+03  0.25500000920E-02 0. -1.
       -2    1    3    3    0  502  0.28366810975E+03  0.96695358332E+02  0.29849531200E+02  0.30117865683E+03  0.25500000920E-02 0.  1.
</event>
<event>
 5   0  0.1423430E-03  0.6002171E+03  0.7818609E-02  0.9904956E-01
        1   -1    0    0  501    0  0.00000000000E+00  0.00000000000E+00  0.24069866896E+04  0.24069866896E+04  0.50400001928E-02 0. -1.
       -1   -1    0    0    0  501  0.00000000000E+00  0.00000000000E+00 -0.37418210667E+02  0.37418211007E+02  0.50400001928E-02 0.  1.
    10030    2    1    2    0    0  0.00000000000E+00  0.00000000000E+00  0.23695684789E+04  0.24444049006E+04  0.60021707888E+03 0.  0.
        1    1    3    3  502    0  0.80698375109E+02 -0.13332876391E+03  0.22292631531E+04  0.22347042294E+04  0.50400001928E-02 0. -1.
       -1    1    3    3    0  502 -0.80698375109E+02  0.13332876391E+03  0.14030532584E+03  0.20970067123E+03  0.50400001928E-02 0.  1.
</event>
<event>
 5   0  0.1418763E-03  0.5999347E+03  0.7818609E-02  0.9905542E-01
        1   -1    0    0  501    0  0.00000000000E+00  0.00000000000E+00  0.14850096898E+04  0.14850096898E+04  0.50400001928E-02 0. -1.
       -1   -1    0    0    0  501  0.00000000000E+00  0.00000000000E+00 -0.60592477227E+02  0.60592477437E+02  0.50400001928E-02 0.  1.
    10030    2    1    2    0    0  0.00000000000E+00  0.00000000000E+00  0.14244172125E+04  0.15456021672E+04  0.59993471637E+03 0.  0.
        5    1    3    3  502    0 -0.14313215782E+02 -0.24457623274E+03  0.26645993280E+03  0.36200191650E+03  0.46999998093E+01 0.  1.
       -5    1    3    3    0  502  0.14313215782E+02  0.24457623274E+03  0.11579572797E+04  0.11836002507E+04  0.46999998093E+01 0. -1.
</event>
<event>
 5   0  0.2421210E-03  0.6000995E+03  0.7818609E-02  0.9905200E-01
       -2   -1    0    0    0  501  0.00000000000E+00  0.00000000000E+00  0.10026595669E+03  0.10026595672E+03  0.25500000920E-02 0.  1.
        2   -1    0    0  501    0  0.00000000000E+00  0.00000000000E+00 -0.89791060518E+03  0.89791060518E+03  0.25500000920E-02 0. -1.
    10030    2    1    2    0    0  0.00000000000E+00  0.00000000000E+00 -0.79764464849E+03  0.99817656191E+03  0.60009954464E+03 0.  0.
        1    1    3    3  502    0  0.28017409310E+03  0.93041644980E+00 -0.57744087158E+03  0.64182267669E+03  0.50400001928E-02 0.  1.
       -1    1    3    3    0  502 -0.28017409310E+03 -0.93041644980E+00 -0.22020377691E+03  0.35635388522E+03  0.50400001928E-02 0. -1.
</event>
<event>
 5   0  0.1416315E-03  0.6000685E+03  0.7818609E-02  0.9905264E-01
        1   -1    0    0  501    0  0.00000000000E+00  0.00000000000E+00  0.20706208363E+03  0.20706208369E+03  0.50400001928E-02 0. -1.
       -1   -1    0    0    0  501  0.00000000000E+00  0.00000000000E+00 -0.43475149817E+03  0.43475149819E+03  0.50400001928E-02 0.  1.
    10030    2    1    2    0    0  0.00000000000E+00  0.00000000000E+00 -0.22768941453E+03  0.64181358189E+03  0.60006849976E+03 0.  0.
        2    1    3    3  502    0  0.19974189367E+02 -0.57334931202E+02  0.20042298115E+03  0.20941736785E+03  0.25500000920E-02 0. -1.
       -2    1    3    3    0  502 -0.19974189367E+02  0.57334931202E+02 -0.42811239568E+03  0.43239621404E+03  0.25500000920E-02 0.  1.
</event>
<event>
 5   0  0.1479385E-03  0.6031267E+03  0.7818609E-02  0.9898940E-01
       -1   -1    0    0    0  501  0.00000000000E+00  0.00000000000E+00  0.41064452740E+03  0.41064452743E+03  0.50400001928E-02 0. -1.
        1   -1    0    0  501    0  0.00000000000E+00  0.00000000000E+00 -0.22145787661E+03  0.22145787666E+03  0.50400001928E-02 0.  1.
    10030    2    1    2    0    0  0.00000000000E+00  0.00000000000E+00  0.18918665079E+03  0.63210240409E+03  0.60312673662E+03 0.  0.
        3    1    3    3  502    0 -0.17293113136E+03  0.14442083435E+03  0.30466741242E+03  0.37892584496E+03  0.10100000352E+00 0. -1.
       -3    1    3    3    0  502  0.17293113136E+03 -0.14442083435E+03 -0.11548076163E+03  0.25317655913E+03  0.10100000352E+00 0.  1.
</event>
<event>
 5   0  0.1418763E-03  0.6006288E+03  0.7818609E-02  0.9904102E-01
        1   -1    0    0  501    0  0.00000000000E+00  0.00000000000E+00  0.56098179114E+03  0.56098179116E+03  0.50400001928E-02 0.  1.
       -1   -1    0    0    0  501  0.00000000000E+00  0.00000000000E+00 -0.16076943987E+03  0.16076943995E+03  0.50400001928E-02 0. -1.
    10030    2    1    2    0    0  0.00000000000E+00  0.00000000000E+00  0.40021235127E+03  0.72175123112E+03  0.60062876514E+03 0.  0.
        5    1    3    3  502    0 -0.26823064242E+03  0.30781618086E+02  0.35802934139E+03  0.44844429402E+03  0.46999998093E+01 0.  1.
       -5    1    3    3    0  502  0.26823064242E+03 -0.30781618086E+02  0.42183009884E+02  0.27330693710E+03  0.46999998093E+01 0. -1.
</event>
<event>
 5   0  0.1416315E-03  0.5998503E+03  0.7818609E-02  0.9905717E-01
        1   -1    0    0  501    0  0.00000000000E+00  0.00000000000E+00  0.21285621413E+03  0.21285621419E+03  0.50400001928E-02 0. -1.
       -1   -1    0    0    0  501  0.00000000000E+00  0.00000000000E+00 -0.42260973345E+03  0.42260973348E+03  0.50400001928E-02 0.  1.
    10030    2    1    2    0    0  0.00000000000E+00  0.00000000000E+00 -0.20975351932E+03  0.63546594767E+03  0.59985034116E+03 0.  0.
        2    1    3    3  502    0  0.54675609751E+02 -0.29375114309E+03 -0.13241950100E+03  0.32682423506E+03  0.25500000920E-02 0. -1.
       -2    1    3    3    0  502 -0.54675609751E+02  0.29375114309E+03 -0.77334018326E+02  0.30864171262E+03  0.25500000920E-02 0.  1.
</event>
<event>
 5   0  0.9496750E-04  0.6001179E+03  0.7818609E-02  0.9905161E-01
       -3   -1    0    0    0  501  0.00000000000E+00  0.00000000000E+00  0.45826282853E+03  0.45826283966E+03  0.10100000352E+00 0. -1.
        3   -1    0    0  501    0  0.00000000000E+00  0.00000000000E+00 -0.19647102172E+03  0.19647104768E+03  0.10100000352E+00 0.  1.
    10030    2    1    2    0    0  0.00000000000E+00  0.00000000000E+00  0.26179180682E+03  0.65473388734E+03  0.60011791601E+03 0.  0.
        1    1    3    3  502    0  0.72468971307E+02  0.13284528691E+03  0.41358246899E+03  0.44039763934E+03  0.50400001928E-02 0. -1.
       -1    1    3    3    0  502 -0.72468971307E+02 -0.13284528691E+03 -0.15179066217E+03  0.21433624800E+03  0.50400001928E-02 0.  1.
</event>
<event>
 5   0  0.2324616E-03  0.6003111E+03  0.7818609E-02  0.9904761E-01
        2   -1    0    0  501    0  0.00000000000E+00  0.00000000000E+00  0.76142643261E+03  0.76142643262E+03  0.25500000920E-02 0. -1.
       -2   -1    0    0    0  501  0.00000000000E+00  0.00000000000E+00 -0.11832181505E+03  0.11832181508E+03  0.25500000920E-02 0.  1.
    10030    2    1    2    0    0  0.00000000000E+00  0.00000000000E+00  0.64310461756E+03  0.87974824770E+03  0.60031111117E+03 0.  0.
        4    1    3    3  502    0 -0.70878892423E+02  0.11732744719E+03  0.71287360710E+03  0.72593383986E+03  0.12699999809E+01 0. -1.
       -4    1    3    3    0  502  0.70878892423E+02 -0.11732744719E+03 -0.69768989537E+02  0.15381440783E+03  0.12699999809E+01 0.  1.
</event>
<event>
 5   0  0.1392854E-03  0.5997866E+03  0.7818609E-02  0.9905849E-01
        1   -1    0    0  501    0  0.00000000000E+00  0.00000000000E+00  0.99038533593E+03  0.99038533594E+03  0.50400001928E-02 0.  1.
       -1   -1    0    0    0  501  0.00000000000E+00  0.00000000000E+00 -0.90809088576E+02  0.90809088716E+02  0.50400001928E-02 0. -1.
    10030    2    1    2    0    0  0.00000000000E+00  0.00000000000E+00  0.89957624736E+03  0.10811944247E+04  0.59978659464E+03 0.  0.
        4    1    3    3  502    0 -0.29840378157E+03 -0.14648271800E+02  0.49662146241E+03  0.57956352417E+03  0.12699999809E+01 0.  1.
       -4    1    3    3    0  502  0.29840378157E+03  0.14648271800E+02  0.40295478495E+03  0.50163090049E+03  0.12699999809E+01 0. -1.
</event>
<event>
 5   0  0.1479385E-03  0.6000173E+03  0.7818609E-02  0.9905370E-01
       -1   -1    0    0    0  501  0.00000000000E+00  0.00000000000E+00  0.16982724232E+03  0.16982724239E+03  0.50400001928E-02 0.  1.
        1   -1    0    0  501    0  0.00000000000E+00  0.00000000000E+00 -0.52998080435E+03  0.52998080438E+03  0.50400001928E-02 0. -1.
    10030    2    1    2    0    0  0.00000000000E+00  0.00000000000E+00 -0.36015356204E+03  0.69980804677E+03  0.60001726148E+03 0.  0.
        3    1    3    3  502    0 -0.23380345924E+03  0.11155586027E+03 -0.35655812274E+03  0.44072947780E+03  0.10100000352E+00 0. -1.
       -3    1    3    3    0  502  0.23380345924E+03 -0.11155586027E+03 -0.35954392959E+01  0.25907856897E+03  0.10100000352E+00 0.  1.
</event>
<event>
 5   0  0.9496750E-04  0.6002291E+03  0.7818609E-02  0.9904931E-01
       -4   -1    0    0    0  501  0.00000000000E+00  0.00000000000E+00  0.17045996225E+03  0.17046469320E+03  0.12699999809E+01 0.  1.
        4   -1    0    0  501    0  0.00000000000E+00  0.00000000000E+00 -0.52837359246E+03  0.52837511875E+03  0.12699999809E+01 0. -1.
    10030    2    1    2    0    0  0.00000000000E+00  0.00000000000E+00 -0.35791363021E+03  0.69883981195E+03  0.60022905301E+03 0.  0.
        4    1    3    3  502    0  0.13511422030E+03  0.22199559700E+03 -0.42001739526E+01  0.25991758689E+03  0.12699999809E+01 0.  1.
       -4    1    3    3    0  502 -0.13511422030E+03 -0.22199559700E+03 -0.35371345626E+03  0.43892222506E+03  0.12699999809E+01 0. -1.
</event>
<event>
 5   0  0.2421210E-03  0.6000669E+03  0.7818609E-02  0.9905267E-01
        2   -1    0    0  501    0  0.00000000000E+00  0.00000000000E+00  0.90184237721E+03  0.90184237721E+03  0.25500000920E-02 0.  1.
       -2   -1    0    0    0  501  0.00000000000E+00  0.00000000000E+00 -0.99817948766E+02  0.99817948798E+02  0.25500000920E-02 0. -1.
    10030    2    1    2    0    0  0.00000000000E+00  0.00000000000E+00  0.80202442844E+03  0.10016603260E+04  0.60006685034E+03 0.  0.
        1    1    3    3  502    0 -0.10737945392E+03 -0.78088706755E+02  0.85013564561E+03  0.86044105505E+03  0.50400001928E-02 0.  1.
       -1    1    3    3    0  502  0.10737945392E+03  0.78088706755E+02 -0.48111217172E+02  0.14121927096E+03  0.50400001928E-02 0. -1.
</event>
<event>
 5   0  0.2346281E-03  0.6001422E+03  0.7818609E-02  0.9905111E-01
       -2   -1    0    0    0  501  0.00000000000E+00  0.00000000000E+00  0.14805939894E+03  0.14805939896E+03  0.25500000920E-02 0.  1.
        2   -1    0    0  501    0  0.00000000000E+00  0.00000000000E+00 -0.60815226170E+03  0.60815226170E+03  0.25500000920E-02 0. -1.
    10030    2    1    2    0    0  0.00000000000E+00  0.00000000000E+00 -0.46009286276E+03  0.75621166066E+03  0.60014217762E+03 0.  0.
        3    1    3    3  502    0 -0.14111219983E+03  0.23305910378E+03 -0.71592679861E+02  0.28169969969E+03  0.10100000352E+00 0. -1.
       -3    1    3    3    0  502  0.14111219983E+03 -0.23305910378E+03 -0.38850018290E+03  0.47451196097E+03  0.10100000352E+00 0.  1.
</event>
<event>
 5   0  0.2346281E-03  0.6005317E+03  0.7818609E-02  0.9904303E-01
       -2   -1    0    0    0  501  0.00000000000E+00  0.00000000000E+00  0.62629176414E+02  0.62629176466E+02  0.25500000920E-02 0. -1.
        2   -1    0    0  501    0  0.00000000000E+00  0.00000000000E+00 -0.14395781087E+04  0.14395781087E+04  0.25500000920E-02 0.  1.
    10030    2    1    2    0    0  0.00000000000E+00  0.00000000000E+00 -0.13769489323E+04  0.15022072852E+04  0.60053173562E+03 0.  0.
        3    1    3    3  502    0  0.17221840137E+03  0.50952179255E+02 -0.12904089573E+04  0.13028471091E+04  0.10100000352E+00 0.  1.
       -3    1    3    3    0  502 -0.17221840137E+03 -0.50952179255E+02 -0.86539974985E+02  0.19936017609E+03  0.10100000352E+00 0. -1.
</event>
<event>
 5   0  0.1392854E-03  0.6000382E+03  0.7818609E-02  0.9905327E-01
       -1   -1    0    0    0  501  0.00000000000E+00  0.00000000000E+00  0.17578726767E+03  0.17578726774E+03  0.50400001928E-02 0.  1.
        1   -1    0    0  501    0  0.00000000000E+00  0.00000000000E+00 -0.51204767669E+03  0.51204767671E+03  0.50400001928E-02 0. -1.
    10030    2    1    2    0    0  0.00000000000E+00  0.00000000000E+00 -0.33626040902E+03  0.68783494446E+03  0.60003820557E+03 0.  0.
        4    1    3    3  502    0  0.25467532853E+03 -0.70482223941E+02 -0.52779789698E+01  0.26430425046E+03  0.12699999809E+01 0.  1.
       -4    1    3    3    0  502 -0.25467532853E+03  0.70482223941E+02 -0.33098243005E+03  0.42353069399E+03  0.12699999809E+01 0. -1.
</event>
<event>
 5   0  0.2421210E-03  0.5999368E+03  0.7818609E-02  0.9905537E-01
        2   -1    0    0  501    0  0.00000000000E+00  0.00000000000E+00  0.60600057071E+03  0.60600057071E+03  0.25500000920E-02 0. -1.
       -2   -1    0    0    0  501  0.00000000000E+00  0.00000000000E+00 -0.14848343711E+03  0.14848343713E+03  0.25500000920E-02 0.  1.
    10030    2    1    2    0    0  0.00000000000E+00  0.00000000000E+00  0.45751713360E+03  0.75448400784E+03  0.59993682213E+03 0.  0.
        1    1    3    3  502    0  0.16335050477E+01 -0.28824852765E+03  0.12436088304E+03  0.31393552090E+03  0.50400001928E-02 0.  1.
       -1    1    3    3    0  502 -0.16335050477E+01  0.28824852765E+03  0.33315625056E+03  0.44054848693E+03  0.50400001928E-02 0. -1.
</event>
<event>
 5   0  0.1416315E-03  0.6001282E+03  0.7818609E-02  0.9905140E-01
        1   -1    0    0  501    0  0.00000000000E+00  0.00000000000E+00  0.92718655601E+03  0.92718655602E+03  0.50400001928E-02 0. -1.
       -1   -1    0    0    0  501  0.00000000000E+00  0.00000000000E+00 -0.97109331426E+02  0.97109331557E+02  0.50400001928E-02 0.  1.
    10030    2    1    2    0    0  0.00000000000E+00  0.00000000000E+00  0.83007722458E+03  0.10242958876E+04  0.60012820842E+03 0.  0.
        2    1    3    3  502    0 -0.13748306066E+03  0.19834677531E+03  0.71938191489E+03  0.75878414237E+03  0.25500000920E-02 0. -1.
       -2    1    3    3    0  502  0.13748306066E+03 -0.19834677531E+03  0.11069530969E+03  0.26551174520E+03  0.25500000920E-02 0.  1.
</event>
<event>
 5   0  0.1423430E-03  0.6001606E+03  0.7818609E-02  0.9905073E-01
       -1   -1    0    0    0  501  0.00000000000E+00  0.00000000000E+00  0.31584423886E+03  0.31584423890E+03  0.50400001928E-02 0. -1.
        1   -1    0    0  501    0  0.00000000000E+00  0.00000000000E+00 -0.28510317087E+03  0.28510317091E+03  0.50400001928E-02 0.  1.
    10030    2    1    2    0    0  0.00000000000E+00  0.00000000000E+00  0.30741067990E+02  0.60094740981E+03  0.60016062525E+03 0.  0.
        1    1    3    3  502    0  0.15774555981E+03 -0.24006934789E+03  0.10226702279E+03  0.30491883742E+03  0.50400001928E-02 0. -1.
       -1    1    3    3    0  502 -0.15774555981E+03  0.24006934789E+03 -0.71525954801E+02  0.29602857239E+03  0.50400001928E-02 0.  1.
</event>
<event>
 5   0  0.1418763E-03  0.6000680E+03  0.7818609E-02  0.9905265E-01
       -1   -1    0    0    0  501  0.00000000000E+00  0.00000000000E+00  0.68051863942E+03  0.68051863944E+03  0.50400001928E-02 0. -1.
        1   -1    0    0  501    0  0.00000000000E+00  0.00000000000E+00 -0.13228202911E+03  0.13228202920E+03  0.50400001928E-02 0.  1.
    10030    2    1    2    0    0  0.00000000000E+00  0.00000000000E+00  0.54823661032E+03  0.81280066865E+03  0.60006795121E+03 0.  0.
        5    1    3    3  502    0  0.16144946994E+03  0.18416004863E+03  0.50879526721E+03  0.56469068417E+03  0.46999998093E+01 0. -1.
       -5    1    3    3    0  502 -0.16144946994E+03 -0.18416004863E+03  0.39441343107E+02  0.24810998448E+03  0.46999998093E+01 0.  1.
</event>
<event>
 5   0  0.2313168E-03  0.6001346E+03  0.7818609E-02  0.9905127E-01
        2   -1    0    0  501    0  0.00000000000E+00  0.00000000000E+00  0.92082024131E+03  0.92082024131E+03  0.25500000920E-02 0.  1.
       -2   -1    0    0    0  501  0.00000000000E+00  0.00000000000E+00 -0.97782801033E+02  0.97782801066E+02  0.25500000920E-02 0. -1.
    10030    2    1    2    0    0  0.00000000000E+00  0.00000000000E+00  0.82303744028E+03  0.10186030424E+04  0.60013459311E+03 0.  0.
        2    1    3    3  502    0 -0.26289888518E+03  0.32125793559E+02  0.17213153174E+03  0.31587522009E+03  0.25500000920E-02 0.  1.
       -2    1    3    3    0  502  0.26289888518E+03 -0.32125793559E+02  0.65090590853E+03  0.70272782229E+03  0.25500000920E-02 0. -1.
</event>
<event>
 5   0  0.2421210E-03  0.5998930E+03  0.7818609E-02  0.9905628E-01
        2   -1    0    0  501    0  0.00000000000E+00  0.00000000000E+00  0.21746349387E+04  0.21746349387E+04  0.25500000920E-02 0.  1.
       -2   -1    0    0    0  501  0.00000000000E+00  0.00000000000E+00 -0.41371501096E+02  0.41371501175E+02  0.25500000920E-02 0. -1.
    10030    2    1    2    0    0  0.00000000000E+00  0.00000000000E+00  0.21332634376E+04  0.22160064398E+04  0.59989302992E+03 0.  0.
        1    1    3    3  502    0 -0.27620433504E+03 -0.42280998146E+02  0.66380933762E+03  0.72022173964E+03  0.50400001928E-02 0. -1.
       -1    1    3    3    0  502  0.27620433504E+03  0.42280998146E+02  0.14694541000E+04  0.14957847002E+04  0.50400001928E-02 0.  1.
</event>
<event>
 5   0  0.2406307E-03  0.5999363E+03  0.7818609E-02  0.9905538E-01
       -2   -1    0    0    0  501  0.00000000000E+00  0.00000000000E+00  0.33351442799E+03  0.33351442800E+03  0.25500000920E-02 0. -1.
        2   -1    0    0  501    0  0.00000000000E+00  0.00000000000E+00 -0.26979611088E+03  0.26979611089E+03  0.25500000920E-02 0.  1.
    10030    2    1    2    0    0  0.00000000000E+00  0.00000000000E+00  0.63718317116E+02  0.60331053889E+03  0.59993631529E+03 0.  0.
        5    1    3    3  502    0 -0.29044148612E+03 -0.73908111989E+02  0.19954515200E+02  0.30039796696E+03  0.46999998093E+01 0.  1.
       -5    1    3    3    0  502  0.29044148612E+03  0.73908111989E+02  0.43763801915E+02  0.30291257193E+03  0.46999998093E+01 0. -1.
</event>
<event>
 5   0  0.1418763E-03  0.6001888E+03  0.7818609E-02  0.9905014E-01
        1   -1    0    0  501    0  0.00000000000E+00  0.00000000000E+00  0.46286059224E+03  0.46286059227E+03  0.50400001928E-02 0.  1.
       -1   -1    0    0    0  501  0.00000000000E+00  0.00000000000E+00 -0.19456536723E+03  0.19456536729E+03  0.50400001928E-02 0. -1.
    10030    2    1    2    0    0  0.00000000000E+00  0.00000000000E+00  0.26829522502E+03  0.65742595957E+03  0.60018877409E+03 0.  0.
        5    1    3    3  502    0 -0.18672813720E+03  0.70560346487E+02 -0.11124451110E+03  0.22856856951E+03  0.46999998093E+01 0. -1.
       -5    1    3    3    0  502  0.18672813720E+03 -0.70560346487E+02  0.37953973612E+03  0.42885739006E+03  0.46999998093E+01 0.  1.
</event>
<event>
 5   0  0.9496750E-04  0.6001646E+03  0.7818609E-02  0.9905065E-01
       -4   -1    0    0    0  501  0.00000000000E+00  0.00000000000E+00  0.74242645330E+03  0.74242753953E+03  0.12699999809E+01 0.  1.
        4   -1    0    0  501    0  0.00000000000E+00  0.00000000000E+00 -0.12128617009E+03  0.12129281906E+03  0.12699999809E+01 0. -1.
    10030    2    1    2    0    0  0.00000000000E+00  0.00000000000E+00  0.62114028321E+03  0.86372035859E+03  0.60016464943E+03 0.  0.
        4    1    3    3  502    0  0.27632068224E+03  0.24544002770E+02  0.47523846958E+03  0.55028060422E+03  0.12699999809E+01 0.  1.
       -4    1    3    3    0  502 -0.27632068224E+03 -0.24544002770E+02  0.14590181362E+03  0.31343975437E+03  0.12699999809E+01 0. -1.
</event>
<event>
 5   0  0.2324616E-03  0.6000213E+03  0.7818609E-02  0.9905362E-01
        2   -1    0    0  501    0  0.00000000000E+00  0.00000000000E+00  0.50024822833E+03  0.50024822834E+03  0.25500000920E-02 0. -1.
       -2   -1    0    0    0  501  0.00000000000E+00  0.00000000000E+00 -0.17992347778E+03  0.17992347780E+03  0.25500000920E-02 0.  1.
    10030    2    1    2    0    0  0.00000000000E+00  0.00000000000E+00  0.32032475055E+03  0.68017170613E+03  0.60002133629E+03 0.  0.
        4    1    3    3  502    0  0.13393813751E+03  0.15762500930E+03 -0.86165506025E+02  0.22407850313E+03  0.12699999809E+01 0.  1.
       -4    1    3    3    0  502 -0.13393813751E+03 -0.15762500930E+03  0.40649025658E+03  0.45609320301E+03  0.12699999809E+01 0. -1.
</event>
<event>
 5   0  0.2421210E-03  0.6001383E+03  0.7818609E-02  0.9905119E-01
       -2   -1    0    0    0  501  0.00000000000E+00  0.00000000000E+00  0.15825356463E+03  0.15825356465E+03  0.25500000920E-02 0. -1.
        2   -1    0    0  501    0  0.00000000000E+00  0.00000000000E+00 -0.56896973799E+03  0.56896973800E+03  0.25500000920E-02 0.  1.
    10030    2    1    2    0    0  0.00000000000E+00  0.00000000000E+00 -0.41071617336E+03  0.72722330265E+03  0.60013828145E+03 0.  0.
        1    1    3    3  502    0  0.20659758490E+03 -0.12570701331E+03 -0.42061745792E+03  0.48518435796E+03  0.50400001928E-02 0.  1.
       -1    1    3    3    0  502 -0.20659758490E+03  0.12570701331E+03  0.99012845567E+01  0.24203894469E+03  0.50400001928E-02 0. -1.
</event>
<event>
 5   0  0.1392854E-03  0.5989126E+03  0.7818609E-02  0.9907665E-01
       -1   -1    0    0    0  501  0.00000000000E+00  0.00000000000E+00  0.52936476894E+03  0.52936476896E+03  0.50400001928E-02 0.  1.
        1   -1    0    0  501    0  0.00000000000E+00  0.00000000000E+00 -0.16939940380E+03  0.16939940388E+03  0.50400001928E-02 0. -1.
    10030    2    1    2    0    0  0.00000000000E+00  0.00000000000E+00  0.35996536513E+03  0.69876417284E+03  0.59891260226E+03 0.  0.
        4    1    3    3  502    0 -0.25714799577E+03 -0.15203633951E+03  0.20424159975E+03  0.36187896351E+03  0.12699999809E+01 0.  1.
       -4    1    3    3    0  502  0.25714799577E+03  0.15203633951E+03  0.15572376538E+03  0.33688520933E+03  0.12699999809E+01 0. -1.
</event>
<event>
 5   0  0.1418763E-03  0.6000158E+03  0.7818609E-02  0.9905373E-01
        1   -1    0    0  501    0  0.00000000000E+00  0.00000000000E+00  0.14547035905E+04  0.14547035905E+04  0.50400001928E-02 0.  1.
       -1   -1    0    0    0  501  0.00000000000E+00  0.00000000000E+00 -0.61871525757E+02  0.61871525962E+02  0.50400001928E-02 0. -1.
    10030    2    1    2    0    0  0.00000000000E+00  0.00000000000E+00  0.13928320647E+04  0.15165751165E+04  0.60001576922E+03 0.  0.
        5    1    3    3  502    0 -0.17412490486E+03 -0.34147065392E+01  0.13137382948E+04  0.13252401820E+04  0.46999998093E+01 0.  1.
       -5    1    3    3    0  502  0.17412490486E+03  0.34147065392E+01  0.79093769933E+02  0.19133493448E+03  0.46999998093E+01 0. -1.
</event>
<event>
 5   0  0.2406307E-03  0.5999374E+03  0.7818609E-02  0.9905536E-01
       -2   -1    0    0    0  501  0.00000000000E+00  0.00000000000E+00  0.47589432156E+02  0.47589432224E+02  0.25500000920E-02 0.  1.
        2   -1    0    0  501    0  0.00000000000E+00  0.00000000000E+00 -0.18907813050E+04  0.18907813050E+04  0.25500000920E-02 0. -1.
    10030    2    1    2    0    0  0.00000000000E+00  0.00000000000E+00 -0.18431918728E+04  0.19383707372E+04  0.59993735907E+03 0.  0.
        5    1    3    3  502    0  0.29315367614E+03 -0.27999434483E+02 -0.73779824096E+03  0.79441260094E+03  0.46999998093E+01 0.  1.
       -5    1    3    3    0  502 -0.29315367614E+03  0.27999434483E+02 -0.11053936318E+04  0.11439581362E+04  0.46999998093E+01 0. -1.
</event>
<event>
 5   0  0.2406307E-03  0.5999208E+03  0.7818609E-02  0.9905570E-01
       -2   -1    0    0    0  501  0.00000000000E+00  0.00000000000E+00  0.19864093290E+03  0.19864093291E+03  0.25500000920E-02 0. -1.
        2   -1    0    0  501    0  0.00000000000E+00  0.00000000000E+00 -0.45295919973E+03  0.45295919973E+03  0.25500000920E-02 0.  1.
    10030    2    1    2    0    0  0.00000000000E+00  0.00000000000E+00 -0.25431826683E+03  0.65160013265E+03  0.59992078813E+03 0.  0.
        5    1    3    3  502    0  0.54351469140E+02 -0.27359125981E+03 -0.24687112307E+03  0.37252342349E+03  0.46999998093E+01 0.  1.
       -5    1    3    3    0  502 -0.54351469140E+02  0.27359125981E+03 -0.74471437539E+01  0.27907670916E+03  0.46999998093E+01 0. -1.
</event>
<event>
 5   0  0.2406307E-03  0.5996953E+03  0.7818609E-02  0.9906038E-01
        2   -1    0    0  501    0  0.00000000000E+00  0.00000000000E+00  0.13721625930E+04  0.13721625930E+04  0.25500000920E-02 0.  1.
       -2   -1    0    0    0  501  0.00000000000E+00  0.00000000000E+00 -0.65523299252E+02  0.65523299302E+02  0.25500000920E-02 0. -1.
    10030    2    1    2    0    0  0.00000000000E+00  0.00000000000E+00  0.13066392937E+04  0.14376858923E+04  0.59969532344E+03 0.  0.
        5    1    3    3  502    0 -0.17929407712E+03 -0.55978057122E+02  0.12135362836E+04  0.12279952405E+04  0.46999998093E+01 0.  1.
       -5    1    3    3    0  502  0.17929407712E+03  0.55978057122E+02  0.93103010115E+02  0.20969065182E+03  0.46999998093E+01 0. -1.
</event>
<event>
 5   0  0.2324616E-03  0.5999700E+03  0.7818609E-02  0.9905468E-01
        2   -1    0    0  501    0  0.00000000000E+00  0.00000000000E+00  0.32724000770E+03  0.32724000771E+03  0.25500000920E-02 0. -1.
       -2   -1    0    0    0  501  0.00000000000E+00  0.00000000000E+00 -0.27500001317E+03  0.27500001318E+03  0.25500000920E-02 0.  1.
    10030    2    1    2    0    0  0.00000000000E+00  0.00000000000E+00  0.52239994531E+02  0.60224002090E+03  0.59997002070E+03 0.  0.
        4    1    3    3  502    0  0.21365051156E+03  0.11352808042E+03  0.20414441479E+03  0.31656234951E+03  0.12699999809E+01 0.  1.
       -4    1    3    3    0  502 -0.21365051156E+03 -0.11352808042E+03 -0.15190442026E+03  0.28567767139E+03  0.12699999809E+01 0. -1.
</event>
<event>
 5   0  0.2324616E-03  0.5999423E+03  0.7818609E-02  0.9905526E-01
       -2   -1    0    0    0  501  0.00000000000E+00  0.00000000000E+00  0.79361050879E+02  0.79361050920E+02  0.25500000920E-02 0.  1.
        2   -1    0    0  501    0  0.00000000000E+00  0.00000000000E+00 -0.11338396235E+04  0.11338396235E+04  0.25500000920E-02 0. -1.
    10030    2    1    2    0    0  0.00000000000E+00  0.00000000000E+00 -0.10544785726E+04  0.12132006744E+04  0.59994234415E+03 0.  0.
        4    1    3    3  502    0  0.23575816743E+03 -0.63122964000E+02 -0.17457240672E+03  0.30007259152E+03  0.12699999809E+01 0.  1.
       -4    1    3    3    0  502 -0.23575816743E+03  0.63122964000E+02 -0.87990616591E+03  0.91312808291E+03  0.12699999809E+01 0. -1.
</event>
<event>
 5   0  0.1418763E-03  0.6001027E+03  0.7818609E-02  0.9905193E-01
       -1   -1    0    0    0  501  0.00000000000E+00  0.00000000000E+00  0.26555568017E+03  0.26555568022E+03  0.50400001928E-02 0. -1.
        1   -1    0    0  501    0  0.00000000000E+00  0.00000000000E+00 -0.33902797001E+03  0.33902797005E+03  0.50400001928E-02 0.  1.
    10030    2    1    2    0    0  0.00000000000E+00  0.00000000000E+00 -0.73472289842E+02  0.60458365027E+03  0.60010266855E+03 0.  0.
        5    1    3    3  502    0 -0.17584526905E+03  0.23789123856E+03 -0.87058221980E+02  0.30840723734E+03  0.46999998093E+01 0.  1.
       -5    1    3    3    0  502  0.17584526905E+03 -0.23789123856E+03  0.13585932138E+02  0.29617641293E+03  0.46999998093E+01 0. -1.
</event>
<event>
 5   0  0.2346281E-03  0.5999475E+03  0.7818609E-02  0.9905515E-01
       -2   -1    0    0    0  501  0.00000000000E+00  0.00000000000E+00  0.58671431572E+03  0.58671431572E+03  0.25500000920E-02 0. -1.
        2   -1    0    0  501    0  0.00000000000E+00  0.00000000000E+00 -0.15336977990E+03  0.15336977992E+03  0.25500000920E-02 0.  1.
    10030    2    1    2    0    0  0.00000000000E+00  0.00000000000E+00  0.43334453582E+03  0.74008409565E+03  0.59994748262E+03 0.  0.
        3    1    3    3  502    0  0.20297196399E+03  0.12426879990E+03  0.44192803527E+03  0.50193699939E+03  0.10100000352E+00 0. -1.
       -3    1    3    3    0  502 -0.20297196399E+03 -0.12426879990E+03 -0.85834994531E+01  0.23814709626E+03  0.10100000352E+00 0.  1.
</event>
<event>
 5   0  0.2313168E-03  0.5996806E+03  0.7818609E-02  0.9906069E-01
       -2   -1    0    0    0  501  0.00000000000E+00  0.00000000000E+00  0.37821544789E+03  0.37821544790E+03  0.25500000920E-02 0. -1.
        2   -1    0    0  501    0  0.00000000000E+00  0.00000000000E+00 -0.23770631652E+03  0.23770631653E+03  0.25500000920E-02 0.  1.
    10030    2    1    2    0    0  0.00000000000E+00  0.00000000000E+00  0.14050913138E+03  0.61592176443E+03  0.59968058490E+03 0.  0.
        2    1    3    3  502    0  0.24632921003E+03 -0.68315983723E+02 -0.90702973224E+02  0.27124192652E+03  0.25500000920E-02 0.  1.
       -2    1    3    3    0  502 -0.24632921003E+03  0.68315983723E+02  0.23121210460E+03  0.34467983791E+03  0.25500000920E-02 0. -1.
</event>
<event>
 5   0  0.1423430E-03  0.5998457E+03  0.7818609E-02  0.9905726E-01
       -1   -1    0    0    0  501  0.00000000000E+00  0.00000000000E+00  0.14537936271E+03  0.14537936280E+03  0.50400001928E-02 0. -1.
        1   -1    0    0  501    0  0.00000000000E+00  0.00000000000E+00 -0.61875167146E+03  0.61875167148E+03  0.50400001928E-02 0.  1.
    10030    2    1    2    0    0  0.00000000000E+00  0.00000000000E+00 -0.47337230875E+03  0.76413103428E+03  0.59984572588E+03 0.  0.
        1    1    3    3  502    0 -0.22336560541E+03 -0.10924416319E+03 -0.23041588481E+02  0.24971462852E+03  0.50400001928E-02 0. -1.
       -1    1    3    3    0  502  0.22336560541E+03  0.10924416319E+03 -0.45033072027E+03  0.51441640576E+03  0.50400001928E-02 0.  1.
</event>
<event>
 5   0  0.2406307E-03  0.6000193E+03  0.7818609E-02  0.9905366E-01
        2   -1    0    0  501    0  0.00000000000E+00  0.00000000000E+00  0.19506471257E+03  0.19506471258E+03  0.25500000920E-02 0. -1.
       -2   -1    0    0    0  501  0.00000000000E+00  0.00000000000E+00 -0.46141499916E+03  0.46141499917E+03  0.25500000920E-02 0.  1.
    10030    2    1    2    0    0  0.00000000000E+00  0.00000000000E+00 -0.26635028659E+03  0.65647971175E+03  0.60001928033E+03 0.  0.
        5    1    3    3  502    0  0.46337885121E+01  0.19625919884E+03 -0.38133171780E+03  0.42892320306E+03  0.46999998093E+01 0.  1.
       -5    1    3    3    0  502 -0.46337885121E+01 -0.19625919884E+03  0.11498143121E+03  0.22755650869E+03  0.46999998093E+01 0. -1.
</event>
<event>
 5   0  0.2313168E-03  0.5999720E+03  0.7818609E-02  0.9905464E-01
       -2   -1    0    0    0  501  0.00000000000E+00  0.00000000000E+00  0.22351060054E+03  0.22351060055E+03  0.25500000920E-02 0.  1.
        2   -1    0    0  501    0  0.00000000000E+00  0.00000000000E+00 -0.40262782165E+03  0.40262782166E+03  0.25500000920E-02 0. -1.
    10030    2    1    2    0    0  0.00000000000E+00  0.00000000000E+00 -0.17911722111E+03  0.62613842221E+03  0.59997195340E+03 0.  0.
        2    1    3    3  502    0 -0.92678621865E+02 -0.25503674544E+03 -0.22303712976E+03  0.35125294267E+03  0.25500000920E-02 0.  1.
       -2    1    3    3    0  502  0.92678621865E+02  0.25503674544E+03  0.43919908655E+02  0.27488547954E+03  0.25500000920E-02 0. -1.
</event>
<event>
 5   0  0.1423430E-03  0.6000314E+03  0.7818609E-02  0.9905341E-01
       -1   -1    0    0    0  501  0.00000000000E+00  0.00000000000E+00  0.30124499124E+03  0.30124499128E+03  0.50400001928E-02 0.  1.
        1   -1    0    0  501    0  0.00000000000E+00  0.00000000000E+00 -0.29879145102E+03  0.29879145107E+03  0.50400001928E-02 0. -1.
    10030    2    1    2    0    0  0.00000000000E+00  0.00000000000E+00  0.24535402184E+01  0.60003644235E+03  0.60003142608E+03 0.  0.
        1    1    3    3  502    0  0.74724837136E+02  0.21485886527E+03 -0.19437981083E+03  0.29921838873E+03  0.50400001928E-02 0. -1.
       -1    1    3    3    0  502 -0.74724837136E+02 -0.21485886527E+03  0.19683335105E+03  0.30081805362E+03  0.50400001928E-02 0.  1.
</event>
<event>
 5   0  0.2406307E-03  0.5997456E+03  0.7818609E-02  0.9905934E-01
       -2   -1    0    0    0  501  0.00000000000E+00  0.00000000000E+00  0.14240592693E+03  0.14240592695E+03  0.25500000920E-02 0.  1.
        2   -1    0    0  501    0  0.00000000000E+00  0.00000000000E+00 -0.63146025694E+03  0.63146025695E+03  0.25500000920E-02 0. -1.
    10030    2    1    2    0    0  0.00000000000E+00  0.00000000000E+00 -0.48905433001E+03  0.77386618390E+03  0.59974555678E+03 0.  0.
        5    1    3    3  502    0 -0.35990300608E+02 -0.24129637800E+03 -0.46943754926E+03  0.52906799792E+03  0.46999998093E+01 0. -1.
       -5    1    3    3    0  502  0.35990300608E+02  0.24129637800E+03 -0.19616780756E+02  0.24479818598E+03  0.46999998093E+01 0.  1.
</event>
<event>
 5   0  0.2406307E-03  0.5999694E+03  0.7818609E-02  0.9905469E-01
       -2   -1    0    0    0  501  0.00000000000E+00  0.00000000000E+00  0.68165482692E+02  0.68165482739E+02  0.25500000920E-02 0.  1.
        2   -1    0    0  501    0  0.00000000000E+00  0.00000000000E+00 -0.13201817662E+04  0.13201817662E+04  0.25500000920E-02 0. -1.
    10030    2    1    2    0    0  0.00000000000E+00  0.00000000000E+00 -0.12520162835E+04  0.13883472489E+04  0.59996942378E+03 0.  0.
        5    1    3    3  502    0  0.10336653291E+03  0.21170801440E+03 -0.10555946706E+04  0.10815762212E+04  0.46999998093E+01 0. -1.
       -5    1    3    3    0  502 -0.10336653291E+03 -0.21170801440E+03 -0.19642161286E+03  0.30677102778E+03  0.46999998093E+01 0.  1.
</event>
<event>
 5   0  0.2346281E-03  0.5966566E+03  0.7818609E-02  0.9912367E-01
       -2   -1    0    0    0  501  0.00000000000E+00  0.00000000000E+00  0.89507240136E+02  0.89507240172E+02  0.25500000920E-02 0.  1.
        2   -1    0    0  501    0  0.00000000000E+00  0.00000000000E+00 -0.99433032439E+03  0.99433032440E+03  0.25500000920E-02 0. -1.
    10030    2    1    2    0    0  0.00000000000E+00  0.00000000000E+00 -0.90482308426E+03  0.10838375646E+04  0.59665656165E+03 0.  0.
        3    1    3    3  502    0 -0.11547246701E+03 -0.23390139938E+03 -0.18944896413E+03  0.32238901265E+03  0.10100000352E+00 0. -1.
       -3    1    3    3    0  502  0.11547246701E+03  0.23390139938E+03 -0.71537412013E+03  0.76144855192E+03  0.10100000352E+00 0.  1.
</event>
<event>
 5   0  0.9496750E-04  0.6002205E+03  0.7818609E-02  0.9904949E-01
       -4   -1    0    0    0  501  0.00000000000E+00  0.00000000000E+00  0.35976234031E+03  0.35976458192E+03  0.12699999809E+01 0. -1.
        4   -1    0    0  501    0  0.00000000000E+00  0.00000000000E+00 -0.25034443460E+03  0.25034765594E+03  0.12699999809E+01 0.  1.
    10030    2    1    2    0    0  0.00000000000E+00  0.00000000000E+00  0.10941790571E+03  0.61011223786E+03  0.60022051339E+03 0.  0.
        1    1    3    3  502    0  0.24964940111E+03  0.14793077951E+03 -0.23088822512E+02  0.29110381783E+03  0.50400001928E-02 0.  1.
       -1    1    3    3    0  502 -0.24964940111E+03 -0.14793077951E+03  0.13250672822E+03  0.31900842003E+03  0.50400001928E-02 0. -1.
</event>
<event>
 5   0  0.1418763E-03  0.6000431E+03  0.7818609E-02  0.9905317E-01
        1   -1    0    0  501    0  0.00000000000E+00  0.00000000000E+00  0.26820593467E+03  0.26820593472E+03  0.50400001928E-02 0.  1.
       -1   -1    0    0    0  501  0.00000000000E+00  0.00000000000E+00 -0.33561126530E+03  0.33561126534E+03  0.50400001928E-02 0. -1.
    10030    2    1    2    0    0  0.00000000000E+00  0.00000000000E+00 -0.67405330630E+02  0.60381720006E+03  0.60004310886E+03 0.  0.
        5    1    3    3  502    0  0.24894236193E+03  0.16415315200E+03 -0.66654408641E+02  0.30558706953E+03  0.46999998093E+01 0. -1.
       -5    1    3    3    0  502 -0.24894236193E+03 -0.16415315200E+03 -0.75092198952E+00  0.29823013053E+03  0.46999998093E+01 0.  1.
</event>
<event>
 5   0  0.2313168E-03  0.6000084E+03  0.7818609E-02  0.9905389E-01
       -2   -1    0    0    0  501  0.00000000000E+00  0.00000000000E+00  0.11252503784E+03  0.11252503787E+03  0.25500000920E-02 0. -1.
        2   -1    0    0  501    0  0.00000000000E+00  0.00000000000E+00 -0.79984432016E+03  0.79984432016E+03  0.25500000920E-02 0.  1.
    10030    2    1    2    0    0  0.00000000000E+00  0.00000000000E+00 -0.68731928231E+03  0.91236935804E+03  0.60000837464E+03 0.  0.
        2    1    3    3  502    0  0.64413087493E+02 -0.27602391945E+03 -0.19417459951E+03  0.34357244513E+03  0.25500000920E-02 0.  1.
       -2    1    3    3    0  502 -0.64413087493E+02  0.27602391945E+03 -0.49314468280E+03  0.56879691290E+03  0.25500000920E-02 0. -1.
</event>
<event>
 5   0  0.2421210E-03  0.5997628E+03  0.7818609E-02  0.9905898E-01
       -2   -1    0    0    0  501  0.00000000000E+00  0.00000000000E+00  0.51953573344E+02  0.51953573407E+02  0.25500000920E-02 0.  1.
        2   -1    0    0  501    0  0.00000000000E+00  0.00000000000E+00 -0.17309462327E+04  0.17309462327E+04  0.25500000920E-02 0. -1.
    10030    2    1    2    0    0  0.00000000000E+00  0.00000000000E+00 -0.16789926594E+04  0.17828998062E+04  0.59976276015E+03 0.  0.
        1    1    3    3  502    0  0.89679255337E+02  0.20918445092E+03 -0.14199551074E+04  0.14380796259E+04  0.50400001928E-02 0. -1.
       -1    1    3    3    0  502 -0.89679255337E+02 -0.20918445092E+03 -0.25903755201E+03  0.34482018027E+03  0.50400001928E-02 0.  1.
</event>
<event>
 5   0  0.1416315E-03  0.5999286E+03  0.7818609E-02  0.9905554E-01
        1   -1    0    0  501    0  0.00000000000E+00  0.00000000000E+00  0.49272598895E+03  0.49272598897E+03  0.50400001928E-02 0. -1.
       -1   -1    0    0    0  501  0.00000000000E+00  0.00000000000E+00 -0.18261384175E+03  0.18261384182E+03  0.50400001928E-02 0.  1.
    10030    2    1    2    0    0  0.00000000000E+00  0.00000000000E+00  0.31011214720E+03  0.67533983079E+03  0.59992861510E+03 0.  0.
        2    1    3    3  502    0  0.17524501539E+03 -0.16293931576E+03 -0.48563634351E+02  0.24416892232E+03  0.25500000920E-02 0. -1.
       -2    1    3    3    0  502 -0.17524501539E+03  0.16293931576E+03  0.35867578155E+03  0.43117090847E+03  0.25500000920E-02 0.  1.
</event>
<event>
 5   0  0.1423430E-03  0.6000997E+03  0.7818609E-02  0.9905199E-01
        1   -1    0    0  501    0  0.00000000000E+00  0.00000000000E+00  0.16304213118E+03  0.16304213126E+03  0.50400001928E-02 0.  1.
       -1   -1    0    0    0  501  0.00000000000E+00  0.00000000000E+00 -0.55218801406E+03  0.55218801408E+03  0.50400001928E-02 0. -1.
    10030    2    1    2    0    0  0.00000000000E+00  0.00000000000E+00 -0.38914588288E+03  0.71523014534E+03  0.60009969392E+03 0.  0.
        1    1    3    3  502    0  0.26085644277E+03 -0.41757897978E+02 -0.36413504062E+03  0.44987124115E+03  0.50400001928E-02 0. -1.
       -1    1    3    3    0  502 -0.26085644277E+03  0.41757897978E+02 -0.25010842256E+02  0.26535890419E+03  0.50400001928E-02 0.  1.
</event>
<event>
 5   0  0.2313168E-03  0.5999814E+03  0.7818609E-02  0.9905445E-01
       -2   -1    0    0    0  501  0.00000000000E+00  0.00000000000E+00  0.88272480880E+02  0.88272480917E+02  0.25500000920E-02 0. -1.
        2   -1    0    0  501    0  0.00000000000E+00  0.00000000000E+00 -0.10195070889E+04  0.10195070889E+04  0.25500000920E-02 0.  1.
    10030    2    1    2    0    0  0.00000000000E+00  0.00000000000E+00 -0.93123460804E+03  0.11077795698E+04  0.59998139983E+03 0.  0.
        2    1    3    3  502    0  0.17115171288E+03  0.23928488233E+03 -0.57397588148E+03  0.64497943864E+03  0.25500000920E-02 0.  1.
       -2    1    3    3    0  502 -0.17115171288E+03 -0.23928488233E+03 -0.35725872656E+03  0.46280013121E+03  0.25500000920E-02 0. -1.
</event>
<event>
 5   0  0.1423430E-03  0.5999378E+03  0.7818609E-02  0.9905535E-01
       -1   -1    0    0    0  501  0.00000000000E+00  0.00000000000E+00  0.10218128699E+03  0.10218128712E+03  0.50400001928E-02 0.  1.
        1   -1    0    0  501    0  0.00000000000E+00  0.00000000000E+00 -0.88060475496E+03  0.88060475498E+03  0.50400001928E-02 0. -1.
    10030    2    1    2    0    0  0.00000000000E+00  0.00000000000E+00 -0.77842346797E+03  0.98278604209E+03  0.59993775431E+03 0.  0.
        1    1    3    3  502    0 -0.73761265452E+02 -0.64685054854E+02 -0.85358065805E+03  0.85920010500E+03  0.50400001928E-02 0. -1.
       -1    1    3    3    0  502  0.73761265452E+02  0.64685054854E+02  0.75157190078E+02  0.12358593710E+03  0.50400001928E-02 0.  1.
</event>
<event>
 5   0  0.1392854E-03  0.5981843E+03  0.7818609E-02  0.9909180E-01
        1   -1    0    0  501    0  0.00000000000E+00  0.00000000000E+00  0.30751519824E+03  0.30751519828E+03  0.50400001928E-02 0.  1.
       -1   -1    0    0    0  501  0.00000000000E+00  0.00000000000E+00 -0.29089985678E+03  0.29089985682E+03  0.50400001928E-02 0. -1.
    10030    2    1    2    0    0  0.00000000000E+00  0.00000000000E+00  0.16615341464E+02  0.59841505511E+03  0.59818434333E+03 0.  0.
        4    1    3    3  502    0 -0.15072522582E+03 -0.25789483759E+03  0.23369150837E+02  0.29962571829E+03  0.12699999809E+01 0. -1.
       -4    1    3    3    0  502  0.15072522582E+03  0.25789483759E+03 -0.67538093720E+01  0.29878933681E+03  0.12699999809E+01 0.  1.
</event>
<event>
 5   0  0.1416315E-03  0.6002476E+03  0.7818609E-02  0.9904893E-01
       -1   -1    0    0    0  501  0.00000000000E+00  0.00000000000E+00  0.32401223782E+03  0.32401223785E+03  0.50400001928E-02 0.  1.
        1   -1    0    0  501    0  0.00000000000E+00  0.00000000000E+00 -0.27799655500E+03  0.27799655505E+03  0.50400001928E-02 0. -1.
    10030    2    1    2    0    0  0.00000000000E+00  0.00000000000E+00  0.46015682811E+02  0.60200879291E+03  0.60024756865E+03 0.  0.
        2    1    3    3  502    0 -0.78371435187E+02 -0.31331463847E+02  0.31186427360E+03  0.32308368519E+03  0.25500000920E-02 0.  1.
       -2    1    3    3    0  502  0.78371435187E+02  0.31331463847E+02 -0.26584859079E+03  0.27892510771E+03  0.25500000920E-02 0. -1.
</event>
<event>
 5   0  0.2324616E-03  0.6000658E+03  0.7818609E-02  0.9905269E-01
       -2   -1    0    0    0  501  0.00000000000E+00  0.00000000000E+00  0.53304864404E+03  0.53304864405E+03  0.25500000920E-02 0.  1.
        2   -1    0    0  501    0  0.00000000000E+00  0.00000000000E+00 -0.16887717898E+03  0.16887717900E+03  0.25500000920E-02 0. -1.
    10030    2    1    2    0    0  0.00000000000E+00  0.00000000000E+00  0.36417146506E+03  0.70192582305E+03  0.60006583397E+03 0.  0.
        4    1    3    3  502    0  0.12708567122E+03 -0.13768662787E+03  0.45619082535E+03  0.49317345565E+03  0.12699999809E+01 0.  1.
       -4    1    3    3    0  502 -0.12708567122E+03  0.13768662787E+03 -0.92019360289E+02  0.20875236739E+03  0.12699999809E+01 0. -1.
</event>
<event>
 5   0  0.9496750E-04  0.5998042E+03  0.7818609E-02  0.9905812E-01
        4   -1    0    0  501    0  0.00000000000E+00  0.00000000000E+00  0.92431185697E+03  0.92431272946E+03  0.12699999809E+01 0. -1.
       -4   -1    0    0    0  501  0.00000000000E+00  0.00000000000E+00 -0.97301117352E+02  0.97309405187E+02  0.12699999809E+01 0.  1.
    10030    2    1    2    0    0  0.00000000000E+00  0.00000000000E+00  0.82701073962E+03  0.10216221346E+04  0.59980415350E+03 0.  0.
        2    1    3    3  502    0 -0.34992590671E+01 -0.28483154927E+03  0.25372546972E+03  0.38146804619E+03  0.25500000920E-02 0. -1.
       -2    1    3    3    0  502  0.34992590671E+01  0.28483154927E+03  0.57328526990E+03  0.64015408846E+03  0.25500000920E-02 0.  1.
</event>
<event>
 5   0  0.2324616E-03  0.6001208E+03  0.7818609E-02  0.9905156E-01
        2   -1    0    0  501    0  0.00000000000E+00  0.00000000000E+00  0.21804688545E+03  0.21804688547E+03  0.25500000920E-02 0.  1.
       -2   -1    0    0    0  501  0.00000000000E+00  0.00000000000E+00 -0.41292145498E+03  0.41292145499E+03  0.25500000920E-02 0. -1.
    10030    2    1    2    0    0  0.00000000000E+00  0.00000000000E+00 -0.19487456953E+03  0.63096834045E+03  0.60012077851E+03 0.  0.
        4    1    3    3  502    0 -0.15478589332E+03  0.24785967961E+03 -0.16906803847E+03  0.33760732823E+03  0.12699999809E+01 0. -1.
       -4    1    3    3    0  502  0.15478589332E+03 -0.24785967961E+03 -0.25806531059E+02  0.29336101222E+03  0.12699999809E+01 0.  1.
</event>
<event>
 5   0  0.2421210E-03  0.5999757E+03  0.7818609E-02  0.9905457E-01
        2   -1    0    0  501    0  0.00000000000E+00  0.00000000000E+00  0.46275540194E+03  0.46275540195E+03  0.25500000920E-02 0.  1.
       -2   -1    0    0    0  501  0.00000000000E+00  0.00000000000E+00 -0.19447143234E+03  0.19447143235E+03  0.25500000920E-02 0. -1.
    10030    2    1    2    0    0  0.00000000000E+00  0.00000000000E+00  0.26828396961E+03  0.65722683430E+03  0.59997568566E+03 0.  0.
        1    1    3    3  502    0  0.10770202024E+03  0.24369778359E+03  0.28515291603E+03  0.39025699280E+03  0.50400001928E-02 0.  1.
       -1    1    3    3    0  502 -0.10770202024E+03 -0.24369778359E+03 -0.16868946418E+02  0.26696984150E+03  0.50400001928E-02 0. -1.
</event>
<event>
 5   0  0.2406307E-03  0.5996828E+03  0.7818609E-02  0.9906064E-01
        2   -1    0    0  501    0  0.00000000000E+00  0.00000000000E+00  0.47519615564E+03  0.47519615564E+03  0.25500000920E-02 0.  1.
       -2   -1    0    0    0  501  0.00000000000E+00  0.00000000000E+00 -0.18919530060E+03  0.18919530062E+03  0.25500000920E-02 0. -1.
    10030    2    1    2    0    0  0.00000000000E+00  0.00000000000E+00  0.28600085504E+03  0.66439145626E+03  0.59968284791E+03 0.  0.
        5    1    3    3  502    0 -0.23084302985E+03  0.73189604244E+02 -0.52812342650E+02  0.24790412690E+03  0.46999998093E+01 0. -1.
       -5    1    3    3    0  502  0.23084302985E+03 -0.73189604244E+02  0.33881319769E+03  0.41648732937E+03  0.46999998093E+01 0.  1.
</event>
<event>
 5   0  0.2346281E-03  0.5995758E+03  0.7818609E-02  0.9906287E-01
        2   -1    0    0  501    0  0.00000000000E+00  0.00000000000E+00  0.21241309245E+03  0.21241309247E+03  0.25500000920E-02 0.  1.
       -2   -1    0    0    0  501  0.00000000000E+00  0.00000000000E+00 -0.42310375050E+03  0.42310375051E+03  0.25500000920E-02 0. -1.
    10030    2    1    2    0    0  0.00000000000E+00  0.00000000000E+00 -0.21069065805E+03  0.63551684298E+03  0.59957577029E+03 0.  0.
        3    1    3    3  502    0  0.93518625926E+02  0.24476628734E+02  0.19543972403E+03  0.21804021345E+03  0.10100000352E+00 0.  1.
       -3    1    3    3    0  502 -0.93518625926E+02 -0.24476628734E+02 -0.40613038208E+03  0.41747662953E+03  0.10100000352E+00 0. -1.
</event>
<event>
 5   0  0.2324616E-03  0.5999251E+03  0.7818609E-02  0.9905562E-01
        2   -1    0    0  501    0  0.00000000000E+00  0.00000000000E+00  0.64790414749E+03  0.64790414750E+03  0.25500000920E-02 0.  1.
       -2   -1    0    0    0  501  0.00000000000E+00  0.00000000000E+00 -0.13887473543E+03  0.13887473545E+03  0.25500000920E-02 0. -1.
    10030    2    1    2    0    0  0.00000000000E+00  0.00000000000E+00  0.50902941206E+03  0.78677888295E+03  0.59992505225E+03 0.  0.
        4    1    3    3  502    0  0.10647594389E+03  0.24355596282E+03  0.72229653009E+02  0.27545484082E+03  0.12699999809E+01 0. -1.
       -4    1    3    3    0  502 -0.10647594389E+03 -0.24355596282E+03  0.43679975905E+03  0.51132404214E+03  0.12699999809E+01 0.  1.
</event>
<event>
 5   0  0.1479385E-03  0.6014161E+03  0.7818609E-02  0.9902472E-01
        1   -1    0    0  501    0  0.00000000000E+00  0.00000000000E+00  0.12844472528E+03  0.12844472538E+03  0.50400001928E-02 0. -1.
       -1   -1    0    0    0  501  0.00000000000E+00  0.00000000000E+00 -0.70400200910E+03  0.70400200912E+03  0.50400001928E-02 0.  1.
    10030    2    1    2    0    0  0.00000000000E+00  0.00000000000E+00 -0.57555728382E+03  0.83244673450E+03  0.60141614446E+03 0.  0.
        3    1    3    3  502    0  0.19622118766E+03 -0.15570145475E+03 -0.57495807094E+02  0.25700481617E+03  0.10100000352E+00 0. -1.
       -3    1    3    3    0  502 -0.19622118766E+03  0.15570145475E+03 -0.51806147673E+03  0.57544191833E+03  0.10100000352E+00 0.  1.
</event>
<event>
 5   0  0.1416315E-03  0.6001361E+03  0.7818609E-02  0.9905124E-01
       -1   -1    0    0    0  501  0.00000000000E+00  0.00000000000E+00  0.82643308796E+02  0.82643308949E+02  0.50400001928E-02 0.  1.
        1   -1    0    0  501    0  0.00000000000E+00  0.00000000000E+00 -0.10895113201E+04  0.10895113201E+04  0.50400001928E-02 0. -1.
    10030    2    1    2    0    0  0.00000000000E+00  0.00000000000E+00 -0.10068680113E+04  0.11721546291E+04  0.60013605312E+03 0.  0.
        2    1    3    3  502    0  0.16801052880E+03  0.24630812088E+03 -0.43732658035E+03  0.52929175894E+03  0.25500000920E-02 0.  1.
       -2    1    3    3    0  502 -0.16801052880E+03 -0.24630812088E+03 -0.56954143099E+03  0.64286287015E+03  0.25500000920E-02 0. -1.
</event>
<event>
 5   0  0.1479385E-03  0.5992012E+03  0.7818609E-02  0.9907065E-01
        1   -1    0    0  501    0  0.00000000000E+00  0.00000000000E+00  0.14241394574E+03  0.14241394583E+03  0.50400001928E-02 0.  1.
       -1   -1    0    0    0  501  0.00000000000E+00  0.00000000000E+00 -0.63027889764E+03  0.63027889766E+03  0.50400001928E-02 0. -1.
    10030    2    1    2    0    0  0.00000000000E+00  0.00000000000E+00 -0.48786495190E+03  0.77269284349E+03  0.59920115077E+03 0.  0.
        3    1    3    3  502    0 -0.67303573331E+02 -0.16767522857E+02 -0.61978273441E+03  0.62365180099E+03  0.10100000352E+00 0. -1.
       -3    1    3    3    0  502  0.67303573331E+02  0.16767522857E+02  0.13191778251E+03  0.14904104250E+03  0.10100000352E+00 0.  1.
</event>
<event>
 5   0  0.2324616E-03  0.5998927E+03  0.7818609E-02  0.9905629E-01
        2   -1    0    0  501    0  0.00000000000E+00  0.00000000000E+00  0.11500694925E+04  0.11500694925E+04  0.25500000920E-02 0.  1.
       -2   -1    0    0    0  501  0.00000000000E+00  0.00000000000E+00 -0.78228153152E+02  0.78228153193E+02  0.25500000920E-02 0. -1.
    10030    2    1    2    0    0  0.00000000000E+00  0.00000000000E+00  0.10718413394E+04  0.12282976457E+04  0.59989269849E+03 0.  0.
        4    1    3    3  502    0  0.15201201927E+03  0.25850230394E+03  0.54805206349E+03  0.62473496168E+03  0.12699999809E+01 0.  1.
       -4    1    3    3    0  502 -0.15201201927E+03 -0.25850230394E+03  0.52378927591E+03  0.60356268407E+03  0.12699999809E+01 0. -1.
</event>
<event>
 5   0  0.1392854E-03  0.5999243E+03  0.7818609E-02  0.9905563E-01
        1   -1    0    0  501    0  0.00000000000E+00  0.00000000000E+00  0.17766743868E+03  0.17766743875E+03  0.50400001928E-02 0.  1.
       -1   -1    0    0    0  501  0.00000000000E+00  0.00000000000E+00 -0.50643657109E+03  0.50643657111E+03  0.50400001928E-02 0. -1.
    10030    2    1    2    0    0  0.00000000000E+00  0.00000000000E+00 -0.32876913240E+03  0.68410400986E+03  0.59992429013E+03 0.  0.
        4    1    3    3  502    0 -0.22992964885E+03  0.85296788214E+02  0.32571990068E+02  0.24739792428E+03  0.12699999809E+01 0.  1.
       -4    1    3    3    0  502  0.22992964885E+03 -0.85296788214E+02 -0.36134112247E+03  0.43670608559E+03  0.12699999809E+01 0. -1.
</event>
<event>
 5   0  0.1418763E-03  0.6000076E+03  0.7818609E-02  0.9905390E-01
        1   -1    0    0  501    0  0.00000000000E+00  0.00000000000E+00  0.32889201171E+03  0.32889201175E+03  0.50400001928E-02 0.  1.
       -1   -1    0    0    0  501  0.00000000000E+00  0.00000000000E+00 -0.27365294665E+03  0.27365294670E+03  0.50400001928E-02 0. -1.
    10030    2    1    2    0    0  0.00000000000E+00  0.00000000000E+00  0.55239065060E+02  0.60254495844E+03  0.60000756048E+03 0.  0.
        5    1    3    3  502    0 -0.32721606173E+02  0.81140702872E+02  0.31575740648E+03  0.32768788033E+03  0.46999998093E+01 0.  1.
       -5    1    3    3    0  502  0.32721606173E+02 -0.81140702872E+02 -0.26051834142E+03  0.27485707811E+03  0.46999998093E+01 0. -1.
</event>
<event>
 5   0  0.1423430E-03  0.5999890E+03  0.7818609E-02  0.9905429E-01
       -1   -1    0    0    0  501  0.00000000000E+00  0.00000000000E+00  0.46963027901E+03  0.46963027903E+03  0.50400001928E-02 0.  1.
        1   -1    0    0  501    0  0.00000000000E+00  0.00000000000E+00 -0.19163310816E+03  0.19163310823E+03  0.50400001928E-02 0. -1.
    10030    2    1    2    0    0  0.00000000000E+00  0.00000000000E+00  0.27799717085E+03  0.66126338726E+03  0.59998903351E+03 0.  0.
        1    1    3    3  502    0 -0.40048520576E+02 -0.19824265407E+03  0.38319513237E+03  0.43329267636E+03  0.50400001928E-02 0.  1.
       -1    1    3    3    0  502  0.40048520576E+02  0.19824265407E+03 -0.10519796152E+03  0.22797071090E+03  0.50400001928E-02 0. -1.
</event>
<event>
 5   0  0.1416315E-03  0.5997306E+03  0.7818609E-02  0.9905965E-01
       -1   -1    0    0    0  501  0.00000000000E+00  0.00000000000E+00  0.14013621007E+03  0.14013621016E+03  0.50400001928E-02 0.  1.
        1   -1    0    0  501    0  0.00000000000E+00  0.00000000000E+00 -0.64165562895E+03  0.64165562897E+03  0.50400001928E-02 0. -1.
    10030    2    1    2    0    0  0.00000000000E+00  0.00000000000E+00 -0.50151941888E+03  0.78179183914E+03  0.59973056636E+03 0.  0.
        2    1    3    3  502    0  0.58928471814E+02 -0.10811300685E+03 -0.60718160011E+03  0.61954054149E+03  0.25500000920E-02 0. -1.
       -2    1    3    3    0  502 -0.58928471814E+02  0.10811300685E+03  0.10566218123E+03  0.16225129765E+03  0.25500000920E-02 0.  1.
</event>
<event>
 5   0  0.2406307E-03  0.5996733E+03  0.7818609E-02  0.9906084E-01
        2   -1    0    0  501    0  0.00000000000E+00  0.00000000000E+00  0.10364721560E+04  0.10364721560E+04  0.25500000920E-02 0.  1.
       -2   -1    0    0    0  501  0.00000000000E+00  0.00000000000E+00 -0.86738479762E+02  0.86738479799E+02  0.25500000920E-02 0. -1.
    10030    2    1    2    0    0  0.00000000000E+00  0.00000000000E+00  0.94973367624E+03  0.11232106358E+04  0.59967330822E+03 0.  0.
        5    1    3    3  502    0  0.28246738847E+03 -0.96050234383E+02  0.41973280483E+03  0.51498659257E+03  0.46999998093E+01 0. -1.
       -5    1    3    3    0  502 -0.28246738847E+03  0.96050234383E+02  0.53000087140E+03  0.60822404323E+03  0.46999998093E+01 0.  1.
</event>
<event>
 5   0  0.2324616E-03  0.5998988E+03  0.7818609E-02  0.9905616E-01
       -2   -1    0    0    0  501  0.00000000000E+00  0.00000000000E+00  0.27932557844E+03  0.27932557845E+03  0.25500000920E-02 0.  1.
        2   -1    0    0  501    0  0.00000000000E+00  0.00000000000E+00 -0.32209597004E+03  0.32209597005E+03  0.25500000920E-02 0. -1.
    10030    2    1    2    0    0  0.00000000000E+00  0.00000000000E+00 -0.42770391593E+02  0.60142154850E+03  0.59989880197E+03 0.  0.
        4    1    3    3  502    0  0.50782843410E+02 -0.17537860352E+03  0.21719255497E+03  0.28374419922E+03  0.12699999809E+01 0.  1.
       -4    1    3    3    0  502 -0.50782843410E+02  0.17537860352E+03 -0.25996294656E+03  0.31767734928E+03  0.12699999809E+01 0. -1.
</event>
<event>
 5   0  0.1479385E-03  0.6002997E+03  0.7818609E-02  0.9904784E-01
       -1   -1    0    0    0  501  0.00000000000E+00  0.00000000000E+00  0.19759654492E+03  0.19759654499E+03  0.50400001928E-02 0.  1.
        1   -1    0    0  501    0  0.00000000000E+00  0.00000000000E+00 -0.45592868476E+03  0.45592868479E+03  0.50400001928E-02 0. -1.
    10030    2    1    2    0    0  0.00000000000E+00  0.00000000000E+00 -0.25833213984E+03  0.65352522978E+03  0.60029970138E+03 0.  0.
        3    1    3    3  502    0  0.24616852510E+02 -0.18136817297E+03 -0.38814368832E+03  0.42913393780E+03  0.10100000352E+00 0. -1.
       -3    1    3    3    0  502 -0.24616852510E+02  0.18136817297E+03  0.12981154848E+03  0.22439129197E+03  0.10100000352E+00 0.  1.
</event>
<event>
 5   0  0.9496750E-04  0.5995307E+03  0.7818609E-02  0.9906380E-01
        4   -1    0    0  501    0  0.00000000000E+00  0.00000000000E+00  0.66399683219E+03  0.66399804673E+03  0.12699999809E+01 0.  1.
       -4   -1    0    0    0  501  0.00000000000E+00  0.00000000000E+00 -0.13532655696E+03  0.13533251612E+03  0.12699999809E+01 0. -1.
    10030    2    1    2    0    0  0.00000000000E+00  0.00000000000E+00  0.52867027523E+03  0.79933056285E+03  0.59953072381E+03 0.  0.
        3    1    3    3  502    0  0.29533118693E+03 -0.29703001791E+00  0.33282195801E+03  0.44496186818E+03  0.10100000352E+00 0. -1.
       -3    1    3    3    0  502 -0.29533118693E+03  0.29703001791E+00  0.19584831722E+03  0.35436869467E+03  0.10100000352E+00 0.  1.
</event>
<event>
 5   0  0.2324616E-03  0.6000483E+03  0.7818609E-02  0.9905306E-01
        2   -1    0    0  501    0  0.00000000000E+00  0.00000000000E+00  0.91329688317E+03  0.91329688318E+03  0.25500000920E-02 0. -1.
       -2   -1    0    0    0  501  0.00000000000E+00  0.00000000000E+00 -0.98559932336E+02  0.98559932369E+02  0.25500000920E-02 0.  1.
    10030    2    1    2    0    0  0.00000000000E+00  0.00000000000E+00  0.81473695084E+03  0.10118568155E+04  0.60004826148E+03 0.  0.
        4    1    3    3  502    0 -0.76894831826E+02  0.39385215378E+02  0.89186248134E+03  0.89603811798E+03  0.12699999809E+01 0. -1.
       -4    1    3    3    0  502  0.76894831826E+02 -0.39385215378E+02 -0.77125530499E+02  0.11581869757E+03  0.12699999809E+01 0.  1.
</event>
<event>
 5   0  0.1392854E-03  0.5995495E+03  0.7818609E-02  0.9906341E-01
       -1   -1    0    0    0  501  0.00000000000E+00  0.00000000000E+00  0.36089099227E+03  0.36089099230E+03  0.50400001928E-02 0. -1.
        1   -1    0    0  501    0  0.00000000000E+00  0.00000000000E+00 -0.24900847180E+03  0.24900847185E+03  0.50400001928E-02 0.  1.
    10030    2    1    2    0    0  0.00000000000E+00  0.00000000000E+00  0.11188252047E+03  0.60989946416E+03  0.59954954590E+03 0.  0.
        4    1    3    3  502    0  0.24010973068E+03  0.14361990173E+03 -0.53545441503E+02  0.28486503146E+03  0.12699999809E+01 0. -1.
       -4    1    3    3    0  502 -0.24010973068E+03 -0.14361990173E+03  0.16542796197E+03  0.32503443270E+03  0.12699999809E+01 0.  1.
</event>
<event>
 5   0  0.2324616E-03  0.6000218E+03  0.7818609E-02  0.9905361E-01
       -2   -1    0    0    0  501  0.00000000000E+00  0.00000000000E+00  0.20531776719E+03  0.20531776721E+03  0.25500000920E-02 0.  1.
        2   -1    0    0  501    0  0.00000000000E+00  0.00000000000E+00 -0.43837678186E+03  0.43837678186E+03  0.25500000920E-02 0. -1.
    10030    2    1    2    0    0  0.00000000000E+00  0.00000000000E+00 -0.23305901467E+03  0.64369454907E+03  0.60002180642E+03 0.  0.
        4    1    3    3  502    0 -0.23999850495E+03  0.48889920374E+02 -0.30238911988E+03  0.38914046232E+03  0.12699999809E+01 0. -1.
       -4    1    3    3    0  502  0.23999850495E+03 -0.48889920374E+02  0.69330105218E+02  0.25455408675E+03  0.12699999809E+01 0.  1.
</event>
<event>
 5   0  0.1392854E-03  0.5998280E+03  0.7818609E-02  0.9905763E-01
       -1   -1    0    0    0  501  0.00000000000E+00  0.00000000000E+00  0.33153696760E+03  0.33153696764E+03  0.50400001928E-02 0.  1.
        1   -1    0    0  501    0  0.00000000000E+00  0.00000000000E+00 -0.27130735820E+03  0.27130735825E+03  0.50400001928E-02 0. -1.
    10030    2    1    2    0    0  0.00000000000E+00  0.00000000000E+00  0.60229609402E+02  0.60284432589E+03  0.59982803820E+03 0.  0.
        4    1    3    3  502    0 -0.27338343716E+02  0.21825656276E+03 -0.17478164732E+03  0.28095115121E+03  0.12699999809E+01 0. -1.
       -4    1    3    3    0  502  0.27338343716E+02 -0.21825656276E+03  0.23501125672E+03  0.32189317469E+03  0.12699999809E+01 0.  1.
</event>
<event>
 5   0  0.1423430E-03  0.6001274E+03  0.7818609E-02  0.9905142E-01
        1   -1    0    0  501    0  0.00000000000E+00  0.00000000000E+00  0.40968143112E+03  0.40968143115E+03  0.50400001928E-02 0. -1.
       -1   -1    0    0    0  501  0.00000000000E+00  0.00000000000E+00 -0.21977618196E+03  0.21977618202E+03  0.50400001928E-02 0.  1.
    10030    2    1    2    0    0  0.00000000000E+00  0.00000000000E+00  0.18990524916E+03  0.62945761316E+03  0.60012738907E+03 0.  0.
        1    1    3    3  502    0 -0.11788951202E+02 -0.10617198881E+03  0.38906155079E+03  0.40346048246E+03  0.50400001928E-02 0. -1.
       -1    1    3    3    0  502  0.11788951202E+02  0.10617198881E+03 -0.19915630163E+03  0.22599713070E+03  0.50400001928E-02 0.  1.
</event>
<event>
 5   0  0.2346281E-03  0.5999545E+03  0.7818609E-02  0.9905500E-01
        2   -1    0    0  501    0  0.00000000000E+00  0.00000000000E+00  0.31196652394E+03  0.31196652395E+03  0.25500000920E-02 0. -1.
       -2   -1    0    0    0  501  0.00000000000E+00  0.00000000000E+00 -0.28844874664E+03  0.28844874666E+03  0.25500000920E-02 0.  1.
    10030    2    1    2    0    0  0.00000000000E+00  0.00000000000E+00  0.23517777298E+02  0.60041527061E+03  0.59995450772E+03 0.  0.
        3    1    3    3  502    0 -0.14322752208E+03 -0.84942035365E+02 -0.23794640426E+03  0.29042688229E+03  0.10100000352E+00 0.  1.
       -3    1    3    3    0  502  0.14322752208E+03  0.84942035365E+02  0.26146418156E+03  0.30998838832E+03  0.10100000352E+00 0. -1.
</event>
<event>
 5   0  0.1418763E-03  0.6001062E+03  0.7818609E-02  0.9905186E-01
        1   -1    0    0  501    0  0.00000000000E+00  0.00000000000E+00  0.69180112647E+03  0.69180112649E+03  0.50400001928E-02 0.  1.
       -1   -1    0    0    0  501  0.00000000000E+00  0.00000000000E+00 -0.13014124761E+03  0.13014124771E+03  0.50400001928E-02 0. -1.
    10030    2    1    2    0    0  0.00000000000E+00  0.00000000000E+00  0.56165987887E+03  0.82194237420E+03  0.60010619641E+03 0.  0.
        5    1    3    3  502    0  0.39484377968E+02 -0.21701967503E+03  0.55935732709E+03  0.60129798339E+03  0.46999998093E+01 0.  1.
       -5    1    3    3    0  502 -0.39484377968E+02  0.21701967503E+03  0.23025517728E+01  0.22064439081E+03  0.46999998093E+01 0. -1.
</event>
<event>
 5   0  0.2346281E-03  0.5999617E+03  0.7818609E-02  0.9905485E-01
       -2   -1    0    0    0  501  0.00000000000E+00  0.00000000000E+00  0.16148389494E+03  0.16148389496E+03  0.25500000920E-02 0.  1.
        2   -1    0    0  501    0  0.00000000000E+00  0.00000000000E+00 -0.55726004554E+03  0.55726004554E+03  0.25500000920E-02 0. -1.
    10030    2    1    2    0    0  0.00000000000E+00  0.00000000000E+00 -0.39577615060E+03  0.71874394051E+03  0.59996174098E+03 0.  0.
        3    1    3    3  502    0  0.23101980037E+03 -0.16619502486E+03 -0.31152342426E+03  0.42194524350E+03  0.10100000352E+00 0.  1.
       -3    1    3    3    0  502 -0.23101980037E+03  0.16619502486E+03 -0.84252726340E+02  0.29679869701E+03  0.10100000352E+00 0. -1.
</event>
<event>
 5   0  0.2324616E-03  0.5999905E+03  0.7818609E-02  0.9905426E-01
        2   -1    0    0  501    0  0.00000000000E+00  0.00000000000E+00  0.14306827751E+04  0.14306827752E+04  0.25500000920E-02 0.  1.
       -2   -1    0    0    0  501  0.00000000000E+00  0.00000000000E+00 -0.62905035447E+02  0.62905035499E+02  0.25500000920E-02 0. -1.
    10030    2    1    2    0    0  0.00000000000E+00  0.00000000000E+00  0.13677777397E+04  0.14935878106E+04  0.59999050234E+03 0.  0.
        4    1    3    3  502    0  0.37085846488E+02  0.58493690066E+02 -0.42723492353E+02  0.81386617365E+02  0.12699999809E+01 0. -1.
       -4    1    3    3    0  502 -0.37085846488E+02 -0.58493690066E+02  0.14105012321E+04  0.14122011933E+04  0.12699999809E+01 0.  1.
</event>
<event>
 5   0  0.2346281E-03  0.6006557E+03  0.7818609E-02  0.9904047E-01
       -2   -1    0    0    0  501  0.00000000000E+00  0.00000000000E+00  0.36965295736E+03  0.36965295737E+03  0.25500000920E-02 0.  1.
        2   -1    0    0  501    0  0.00000000000E+00  0.00000000000E+00 -0.24400402692E+03  0.24400402693E+03  0.25500000920E-02 0. -1.
    10030    2    1    2    0    0  0.00000000000E+00  0.00000000000E+00  0.12564893044E+03  0.61365698430E+03  0.60065567562E+03 0.  0.
        3    1    3    3  502    0  0.71230523433E+02  0.27744692063E+03 -0.29385557652E+02  0.28794808983E+03  0.10100000352E+00 0.  1.
       -3    1    3    3    0  502 -0.71230523433E+02 -0.27744692063E+03  0.15503448810E+03  0.32570889447E+03  0.10100000352E+00 0. -1.
</event>
<event>
 5   0  0.2421210E-03  0.6001804E+03  0.7818609E-02  0.9905032E-01
        2   -1    0    0  501    0  0.00000000000E+00  0.00000000000E+00  0.68575649378E+03  0.68575649379E+03  0.25500000920E-02 0.  1.
       -2   -1    0    0    0  501  0.00000000000E+00  0.00000000000E+00 -0.13132086642E+03  0.13132086645E+03  0.25500000920E-02 0. -1.
    10030    2    1    2    0    0  0.00000000000E+00  0.00000000000E+00  0.55443562736E+03  0.81707736023E+03  0.60018042931E+03 0.  0.
        1    1    3    3  502    0  0.16103696068E+03  0.11965075321E+03  0.58103862607E+03  0.61469918697E+03  0.50400001928E-02 0.  1.
       -1    1    3    3    0  502 -0.16103696068E+03 -0.11965075321E+03 -0.26602998708E+02  0.20237817327E+03  0.50400001928E-02 0. -1.
</event>
<event>
 5   0  0.9496750E-04  0.5996773E+03  0.7818609E-02  0.9906076E-01
       -4   -1    0    0    0  501  0.00000000000E+00  0.00000000000E+00  0.15974117613E+03  0.15974622453E+03  0.12699999809E+01 0.  1.
        4   -1    0    0  501    0  0.00000000000E+00  0.00000000000E+00 -0.56279083589E+03  0.56279226883E+03  0.12699999809E+01 0. -1.
    10030    2    1    2    0    0  0.00000000000E+00  0.00000000000E+00 -0.40304965975E+03  0.72253849337E+03  0.59967728502E+03 0.  0.
        5    1    3    3  502    0  0.85818568251E+02  0.23907866786E+03 -0.96587529038E+01  0.25424165196E+03  0.46999998093E+01 0.  1.
       -5    1    3    3    0  502 -0.85818568251E+02 -0.23907866786E+03 -0.39339090685E+03  0.46829684141E+03  0.46999998093E+01 0. -1.
</event>
<event>
 5   0  0.1392854E-03  0.6000441E+03  0.7818609E-02  0.9905315E-01
       -1   -1    0    0    0  501  0.00000000000E+00  0.00000000000E+00  0.34847092205E+03  0.34847092209E+03  0.50400001928E-02 0.  1.
        1   -1    0    0  501    0  0.00000000000E+00  0.00000000000E+00 -0.25830915795E+03  0.25830915800E+03  0.50400001928E-02 0. -1.
    10030    2    1    2    0    0  0.00000000000E+00  0.00000000000E+00  0.90161764099E+02  0.60678008009E+03  0.60004409996E+03 0.  0.
        4    1    3    3  502    0 -0.28891948488E+03 -0.30261884191E+02 -0.30736559044E+02  0.29212428749E+03  0.12699999809E+01 0.  1.
       -4    1    3    3    0  502  0.28891948488E+03  0.30261884191E+02  0.12089832314E+03  0.31465579260E+03  0.12699999809E+01 0. -1.
</event>
<event>
 5   0  0.2406307E-03  0.5999556E+03  0.7818609E-02  0.9905498E-01
        2   -1    0    0  501    0  0.00000000000E+00  0.00000000000E+00  0.96112336630E+03  0.96112336630E+03  0.25500000920E-02 0.  1.
       -2   -1    0    0    0  501  0.00000000000E+00  0.00000000000E+00 -0.93626571603E+02  0.93626571638E+02  0.25500000920E-02 0. -1.
    10030    2    1    2    0    0  0.00000000000E+00  0.00000000000E+00  0.86749679469E+03  0.10547499379E+04  0.59995561734E+03 0.  0.
        5    1    3    3  502    0 -0.55695033715E+02 -0.42701857434E+02 -0.78924068991E+02  0.10571889175E+03  0.46999998093E+01 0. -1.
       -5    1    3    3    0  502  0.55695033715E+02  0.42701857434E+02  0.94642086369E+03  0.94903104619E+03  0.46999998093E+01 0.  1.
</event>
<event>
 5   0  0.1423430E-03  0.5994750E+03  0.7818609E-02  0.9906496E-01
        1   -1    0    0  501    0  0.00000000000E+00  0.00000000000E+00  0.10736523405E+04  0.10736523405E+04  0.50400001928E-02 0.  1.
       -1   -1    0    0    0  501  0.00000000000E+00  0.00000000000E+00 -0.83679376511E+02  0.83679376662E+02  0.50400001928E-02 0. -1.
    10030    2    1    2    0    0  0.00000000000E+00  0.00000000000E+00  0.98997296397E+03  0.11573317172E+04  0.59947496540E+03 0.  0.
        1    1    3    3  502    0 -0.13467466708E+03 -0.19592009789E+03  0.84739245549E+03  0.88011131362E+03  0.50400001928E-02 0.  1.
       -1    1    3    3    0  502  0.13467466708E+03  0.19592009789E+03  0.14258050848E+03  0.27722040354E+03  0.50400001928E-02 0. -1.
</event>
<event>
 5   0  0.9496750E-04  0.5999732E+03  0.7818609E-02  0.9905462E-01
       -3   -1    0    0    0  501  0.00000000000E+00  0.00000000000E+00  0.35725642259E+03  0.35725643687E+03  0.10100000352E+00 0.  1.
        3   -1    0    0  501    0  0.00000000000E+00  0.00000000000E+00 -0.25189736151E+03  0.25189738176E+03  0.10100000352E+00 0. -1.
    10030    2    1    2    0    0  0.00000000000E+00  0.00000000000E+00  0.10535906108E+03  0.60915381863E+03  0.59997320190E+03 0.  0.
        3    1    3    3  502    0 -0.21198691361E+03  0.18144804104E+02 -0.16203761484E+03  0.26743949649E+03  0.10100000352E+00 0. -1.
       -3    1    3    3    0  502  0.21198691361E+03 -0.18144804104E+02  0.26739667592E+03  0.34171432214E+03  0.10100000352E+00 0.  1.
</event>
<event>
 5   0  0.1392854E-03  0.5996277E+03  0.7818609E-02  0.9906179E-01
        1   -1    0    0  501    0  0.00000000000E+00  0.00000000000E+00  0.11863295177E+04  0.11863295177E+04  0.50400001928E-02 0. -1.
       -1   -1    0    0    0  501  0.00000000000E+00  0.00000000000E+00 -0.75770140628E+02  0.75770140796E+02  0.50400001928E-02 0.  1.
    10030    2    1    2    0    0  0.00000000000E+00  0.00000000000E+00  0.11105593771E+04  0.12620996585E+04  0.59962773284E+03 0.  0.
        4    1    3    3  502    0 -0.29277533707E+03 -0.27183418393E+02  0.43200194966E+03  0.52257404608E+03  0.12699999809E+01 0.  1.
       -4    1    3    3    0  502  0.29277533707E+03  0.27183418393E+02  0.67855742741E+03  0.73952561242E+03  0.12699999809E+01 0. -1.
</event>
<event>
 5   0  0.1418763E-03  0.6000897E+03  0.7818609E-02  0.9905220E-01
       -1   -1    0    0    0  501  0.00000000000E+00  0.00000000000E+00  0.30023454278E+03  0.30023454282E+03  0.50400001928E-02 0. -1.
        1   -1    0    0  501    0  0.00000000000E+00  0.00000000000E+00 -0.29985526433E+03  0.29985526437E+03  0.50400001928E-02 0.  1.
    10030    2    1    2    0    0  0.00000000000E+00  0.00000000000E+00  0.37927844387E+00  0.60008980719E+03  0.60008968733E+03 0.  0.
        5    1    3    3  502    0  0.29315340359E+03 -0.17381048415E-01 -0.63574782658E+02  0.30000460218E+03  0.46999998093E+01 0.  1.
       -5    1    3    3    0  502 -0.29315340359E+03  0.17381048415E-01  0.63954061102E+02  0.30008520501E+03  0.46999998093E+01 0. -1.
</event>
<event>
 5   0  0.2324616E-03  0.5999123E+03  0.7818609E-02  0.9905588E-01
       -2   -1    0    0    0  501  0.00000000000E+00  0.00000000000E+00  0.39528853207E+02  0.39528853289E+02  0.25500000920E-02 0. -1.
        2   -1    0    0  501    0  0.00000000000E+00  0.00000000000E+00 -0.22761522665E+04  0.22761522665E+04  0.25500000920E-02 0.  1.
    10030    2    1    2    0    0  0.00000000000E+00  0.00000000000E+00 -0.22366234133E+04  0.23156811198E+04  0.59991228998E+03 0.  0.
        4    1    3    3  502    0  0.65353724921E+00  0.96519355311E+02 -0.22064680356E+02  0.99019574225E+02  0.12699999809E+01 0. -1.
       -4    1    3    3    0  502 -0.65353724921E+00 -0.96519355311E+02 -0.22145587329E+04  0.22166615456E+04  0.12699999809E+01 0.  1.
</event>
<event>
 5   0  0.1423430E-03  0.5998918E+03  0.7818609E-02  0.9905630E-01
        1   -1    0    0  501    0  0.00000000000E+00  0.00000000000E+00  0.53513115447E+03  0.53513115450E+03  0.50400001928E-02 0.  1.
       -1   -1    0    0    0  501  0.00000000000E+00  0.00000000000E+00 -0.16812243875E+03  0.16812243882E+03  0.50400001928E-02 0. -1.
    10030    2    1    2    0    0  0.00000000000E+00  0.00000000000E+00  0.36700871573E+03  0.70325359332E+03  0.59989183950E+03 0.  0.
        1    1    3    3  502    0  0.73634881537E+02 -0.25075984611E+03  0.35605553922E+03  0.44167651424E+03  0.50400001928E-02 0.  1.
       -1    1    3    3    0  502 -0.73634881537E+02  0.25075984611E+03  0.10953176509E+02  0.26157707908E+03  0.50400001928E-02 0. -1.
</event>
<event>
 5   0  0.2313168E-03  0.6003494E+03  0.7818609E-02  0.9904681E-01
        2   -1    0    0  501    0  0.00000000000E+00  0.00000000000E+00  0.79995779435E+03  0.79995779436E+03  0.25500000920E-02 0.  1.
       -2   -1    0    0    0  501  0.00000000000E+00  0.00000000000E+00 -0.11263700859E+03  0.11263700862E+03  0.25500000920E-02 0. -1.
    10030    2    1    2    0    0  0.00000000000E+00  0.00000000000E+00  0.68732078576E+03  0.91259480298E+03  0.60034940817E+03 0.  0.
        2    1    3    3  502    0  0.20598430247E+03  0.16431900992E+03  0.56223126474E+03  0.62091405601E+03  0.25500000920E-02 0.  1.
       -2    1    3    3    0  502 -0.20598430247E+03 -0.16431900992E+03  0.12508952102E+03  0.29168074698E+03  0.25500000920E-02 0. -1.
</event>
<event>
 5   0  0.2406307E-03  0.6000548E+03  0.7818609E-02  0.9905292E-01
       -2   -1    0    0    0  501  0.00000000000E+00  0.00000000000E+00  0.14563914282E+03  0.14563914284E+03  0.25500000920E-02 0.  1.
        2   -1    0    0  501    0  0.00000000000E+00  0.00000000000E+00 -0.61807851987E+03  0.61807851987E+03  0.25500000920E-02 0. -1.
    10030    2    1    2    0    0  0.00000000000E+00  0.00000000000E+00 -0.47243937705E+03  0.76371766272E+03  0.60005475031E+03 0.  0.
        5    1    3    3  502    0 -0.53717694470E+02 -0.24086787857E+03 -0.19137423782E+02  0.24757071033E+03  0.46999998093E+01 0. -1.
       -5    1    3    3    0  502  0.53717694470E+02  0.24086787857E+03 -0.45330195326E+03  0.51614695239E+03  0.46999998093E+01 0.  1.
</event>
<event>
 5   0  0.1479385E-03  0.5996426E+03  0.7818609E-02  0.9906148E-01
       -1   -1    0    0    0  501  0.00000000000E+00  0.00000000000E+00  0.15365016913E+03  0.15365016921E+03  0.50400001928E-02 0. -1.
        1   -1    0    0  501    0  0.00000000000E+00  0.00000000000E+00 -0.58504848091E+03  0.58504848093E+03  0.50400001928E-02 0.  1.
    10030    2    1    2    0    0  0.00000000000E+00  0.00000000000E+00 -0.43139831178E+03  0.73869865015E+03  0.59964255380E+03 0.  0.
        3    1    3    3  502    0 -0.92920474621E+02  0.10527070519E+03 -0.54203981213E+03  0.55993151733E+03  0.10100000352E+00 0.  1.
       -3    1    3    3    0  502  0.92920474621E+02 -0.10527070519E+03  0.11064150035E+03  0.17876713281E+03  0.10100000352E+00 0. -1.
</event>
<event>
 5   0  0.9496750E-04  0.6003778E+03  0.7818609E-02  0.9904623E-01
        3   -1    0    0  501    0  0.00000000000E+00  0.00000000000E+00  0.24100054019E+03  0.24100056135E+03  0.10100000352E+00 0.  1.
       -3   -1    0    0    0  501  0.00000000000E+00  0.00000000000E+00 -0.37391351274E+03  0.37391352639E+03  0.10100000352E+00 0. -1.
    10030    2    1    2    0    0  0.00000000000E+00  0.00000000000E+00 -0.13291297256E+03  0.61491408774E+03  0.60037777859E+03 0.  0.
        2    1    3    3  502    0 -0.14156763869E+03 -0.12376767683E+03 -0.30611668515E+03  0.35925932011E+03  0.25500000920E-02 0. -1.
       -2    1    3    3    0  502  0.14156763869E+03  0.12376767683E+03  0.17320371259E+03  0.25565476763E+03  0.25500000920E-02 0.  1.
</event>
<event>
 5   0  0.1479385E-03  0.5998411E+03  0.7818609E-02  0.9905736E-01
        1   -1    0    0  501    0  0.00000000000E+00  0.00000000000E+00  0.81029362136E+03  0.81029362138E+03  0.50400001928E-02 0.  1.
       -1   -1    0    0    0  501  0.00000000000E+00  0.00000000000E+00 -0.11101203421E+03  0.11101203432E+03  0.50400001928E-02 0. -1.
    10030    2    1    2    0    0  0.00000000000E+00  0.00000000000E+00  0.69928158715E+03  0.92130565570E+03  0.59984112321E+03 0.  0.
        3    1    3    3  502    0 -0.26036088245E+03  0.50803333803E+02  0.13470270598E+03  0.29751234770E+03  0.10100000352E+00 0. -1.
       -3    1    3    3    0  502  0.26036088245E+03 -0.50803333803E+02  0.56457888118E+03  0.62379330800E+03  0.10100000352E+00 0.  1.
</event>
<event>
 5   0  0.2313168E-03  0.5998626E+03  0.7818609E-02  0.9905691E-01
        2   -1    0    0  501    0  0.00000000000E+00  0.00000000000E+00  0.10657287374E+04  0.10657287374E+04  0.25500000920E-02 0. -1.
       -2   -1    0    0    0  501  0.00000000000E+00  0.00000000000E+00 -0.84410596698E+02  0.84410596737E+02  0.25500000920E-02 0.  1.
    10030    2    1    2    0    0  0.00000000000E+00  0.00000000000E+00  0.98131814067E+03  0.11501393341E+04  0.59986264649E+03 0.  0.
        2    1    3    3  502    0  0.64683359479E+02 -0.10479664998E+03  0.10150168687E+04  0.10224605218E+04  0.25500000920E-02 0. -1.
       -2    1    3    3    0  502 -0.64683359479E+02  0.10479664998E+03 -0.33698728031E+02  0.12767881233E+03  0.25500000920E-02 0.  1.
</event>
<event>
 5   0  0.1392854E-03  0.5998672E+03  0.7818609E-02  0.9905682E-01
       -1   -1    0    0    0  501  0.00000000000E+00  0.00000000000E+00  0.71273308224E+03  0.71273308226E+03  0.50400001928E-02 0.  1.
        1   -1    0    0  501    0  0.00000000000E+00  0.00000000000E+00 -0.12621859277E+03  0.12621859287E+03  0.50400001928E-02 0. -1.
    10030    2    1    2    0    0  0.00000000000E+00  0.00000000000E+00  0.58651448947E+03  0.83895167513E+03  0.59986720767E+03 0.  0.
        4    1    3    3  502    0  0.26534611827E+03  0.12343875553E+03  0.20141029150E+03  0.35526526325E+03  0.12699999809E+01 0. -1.
       -4    1    3    3    0  502 -0.26534611827E+03 -0.12343875553E+03  0.38510419797E+03  0.48368641188E+03  0.12699999809E+01 0.  1.
</event>
<event>
 5   0  0.2346281E-03  0.6000441E+03  0.7818609E-02  0.9905315E-01
       -2   -1    0    0    0  501  0.00000000000E+00  0.00000000000E+00  0.61301555043E+03  0.61301555044E+03  0.25500000920E-02 0.  1.
        2   -1    0    0  501    0  0.00000000000E+00  0.00000000000E+00 -0.14683678217E+03  0.14683678219E+03  0.25500000920E-02 0. -1.
    10030    2    1    2    0    0  0.00000000000E+00  0.00000000000E+00  0.46617876826E+03  0.75985233263E+03  0.60004410124E+03 0.  0.
        3    1    3    3  502    0  0.33742766261E+02  0.19322846469E+01  0.61059711545E+03  0.61153181078E+03  0.10100000352E+00 0.  1.
       -3    1    3    3    0  502 -0.33742766261E+02 -0.19322846469E+01 -0.14441834719E+03  0.14832052186E+03  0.10100000352E+00 0. -1.
</event>
<event>
 5   0  0.2406307E-03  0.5995839E+03  0.7818609E-02  0.9906270E-01
       -2   -1    0    0    0  501  0.00000000000E+00  0.00000000000E+00  0.18085747203E+03  0.18085747205E+03  0.25500000920E-02 0. -1.
        2   -1    0    0  501    0  0.00000000000E+00  0.00000000000E+00 -0.49693942118E+03  0.49693942119E+03  0.25500000920E-02 0.  1.
    10030    2    1    2    0    0  0.00000000000E+00  0.00000000000E+00 -0.31608194916E+03  0.67779689324E+03  0.59958388062E+03 0.  0.
        5    1    3    3  502    0 -0.28771500730E+03 -0.65342079042E+02 -0.98184929284E+02  0.31098534219E+03  0.46999998093E+01 0. -1.
       -5    1    3    3    0  502  0.28771500730E+03  0.65342079042E+02 -0.21789701987E+03  0.36681155105E+03  0.46999998093E+01 0.  1.
</event>
<event>
 5   0  0.2324616E-03  0.5999702E+03  0.7818609E-02  0.9905468E-01
        2   -1    0    0  501    0  0.00000000000E+00  0.00000000000E+00  0.49692728915E+03  0.49692728915E+03  0.25500000920E-02 0. -1.
       -2   -1    0    0    0  501  0.00000000000E+00  0.00000000000E+00 -0.18109500936E+03  0.18109500938E+03  0.25500000920E-02 0.  1.
    10030    2    1    2    0    0  0.00000000000E+00  0.00000000000E+00  0.31583227979E+03  0.67802229853E+03  0.59997017289E+03 0.  0.
        4    1    3    3  502    0  0.21608484565E+03  0.20472491742E+03  0.11586684328E+03  0.31942399816E+03  0.12699999809E+01 0. -1.
       -4    1    3    3    0  502 -0.21608484565E+03 -0.20472491742E+03  0.19996543651E+03  0.35859830037E+03  0.12699999809E+01 0.  1.
</event>
<event>
 5   0  0.1392854E-03  0.5997539E+03  0.7818609E-02  0.9905917E-01
        1   -1    0    0  501    0  0.00000000000E+00  0.00000000000E+00  0.19719050523E+04  0.19719050523E+04  0.50400001928E-02 0.  1.
       -1   -1    0    0    0  501  0.00000000000E+00  0.00000000000E+00 -0.45603708367E+02  0.45603708646E+02  0.50400001928E-02 0. -1.
    10030    2    1    2    0    0  0.00000000000E+00  0.00000000000E+00  0.19263013440E+04  0.20175087610E+04  0.59975389360E+03 0.  0.
        4    1    3    3  502    0 -0.17149002720E+03 -0.13757800828E+02  0.13692956089E+03  0.21988502463E+03  0.12699999809E+01 0. -1.
       -4    1    3    3    0  502  0.17149002720E+03  0.13757800828E+02  0.17893717831E+04  0.17976237364E+04  0.12699999809E+01 0.  1.
</event>
<event>
 5   0  0.2421210E-03  0.6007542E+03  0.7818609E-02  0.9903843E-01
        2   -1    0    0  501    0  0.00000000000E+00  0.00000000000E+00  0.12967154759E+03  0.12967154762E+03  0.25500000920E-02 0.  1.
       -2   -1    0    0    0  501  0.00000000000E+00  0.00000000000E+00 -0.69580723081E+03  0.69580723081E+03  0.25500000920E-02 0. -1.
    10030    2    1    2    0    0  0.00000000000E+00  0.00000000000E+00 -0.56613568321E+03  0.82547877843E+03  0.60075419419E+03 0.  0.
        1    1    3    3  502    0  0.57551312902E+02 -0.23734425091E+03 -0.52336116954E+03  0.57753905571E+03  0.50400001928E-02 0. -1.
       -1    1    3    3    0  502 -0.57551312902E+02  0.23734425091E+03 -0.42774513670E+02  0.24793972272E+03  0.50400001928E-02 0.  1.
</event>
<event>
 5   0  0.1392854E-03  0.5991037E+03  0.7818609E-02  0.9907267E-01
        1   -1    0    0  501    0  0.00000000000E+00  0.00000000000E+00  0.55669107651E+03  0.55669107653E+03  0.50400001928E-02 0.  1.
       -1   -1    0    0    0  501  0.00000000000E+00  0.00000000000E+00 -0.16118691563E+03  0.16118691571E+03  0.50400001928E-02 0. -1.
    10030    2    1    2    0    0  0.00000000000E+00  0.00000000000E+00  0.39550416087E+03  0.71787799224E+03  0.59910372263E+03 0.  0.
        4    1    3    3  502    0 -0.16206336998E+03 -0.22138982258E+03  0.53703719888E+02  0.27957770272E+03  0.12699999809E+01 0. -1.
       -4    1    3    3    0  502  0.16206336998E+03  0.22138982258E+03  0.34180044099E+03  0.43830028951E+03  0.12699999809E+01 0.  1.
</event>
<event>
 5   0  0.2324616E-03  0.5998190E+03  0.7818609E-02  0.9905782E-01
        2   -1    0    0  501    0  0.00000000000E+00  0.00000000000E+00  0.10019771000E+04  0.10019771000E+04  0.25500000920E-02 0. -1.
       -2   -1    0    0    0  501  0.00000000000E+00  0.00000000000E+00 -0.89768228640E+02  0.89768228676E+02  0.25500000920E-02 0.  1.
    10030    2    1    2    0    0  0.00000000000E+00  0.00000000000E+00  0.91220887138E+03  0.10917453287E+04  0.59981900413E+03 0.  0.
        4    1    3    3  502    0 -0.20726315754E+02  0.56983510059E+02 -0.78490038360E+02  0.99191731535E+02  0.12699999809E+01 0.  1.
       -4    1    3    3    0  502  0.20726315754E+02 -0.56983510059E+02  0.99069890974E+03  0.99255359716E+03  0.12699999809E+01 0. -1.
</event>
<event>
 5   0  0.1423430E-03  0.5998668E+03  0.7818609E-02  0.9905682E-01
        1   -1    0    0  501    0  0.00000000000E+00  0.00000000000E+00  0.38066846974E+03  0.38066846977E+03  0.50400001928E-02 0.  1.
       -1   -1    0    0    0  501  0.00000000000E+00  0.00000000000E+00 -0.23632125171E+03  0.23632125177E+03  0.50400001928E-02 0. -1.
    10030    2    1    2    0    0  0.00000000000E+00  0.00000000000E+00  0.14434721803E+03  0.61698972154E+03  0.59986681616E+03 0.  0.
        1    1    3    3  502    0  0.17533866842E+03 -0.88317176686E+02  0.30539815095E+03  0.36305867704E+03  0.50400001928E-02 0.  1.
       -1    1    3    3    0  502 -0.17533866842E+03  0.88317176686E+02 -0.16105093293E+03  0.25393104450E+03  0.50400001928E-02 0. -1.
</event>
<event>
 5   0  0.2406307E-03  0.5999448E+03  0.7818609E-02  0.9905521E-01
        2   -1    0    0  501    0  0.00000000000E+00  0.00000000000E+00  0.85773972112E+03  0.85773972113E+03  0.25500000920E-02 0. -1.
       -2   -1    0    0    0  501  0.00000000000E+00  0.00000000000E+00 -0.10490763079E+03  0.10490763083E+03  0.25500000920E-02 0.  1.
    10030    2    1    2    0    0  0.00000000000E+00  0.00000000000E+00  0.75283209033E+03  0.96264735195E+03  0.59994480412E+03 0.  0.
        5    1    3    3  502    0 -0.25878581849E+02  0.15651977364E+03  0.78484890674E+03  0.80073593459E+03  0.46999998093E+01 0. -1.
       -5    1    3    3    0  502  0.25878581849E+02 -0.15651977364E+03 -0.32016816410E+02  0.16191141736E+03  0.46999998093E+01 0.  1.
</event>
<event>
 5   0  0.2406307E-03  0.6001722E+03  0.7818609E-02  0.9905049E-01
       -2   -1    0    0    0  501  0.00000000000E+00  0.00000000000E+00  0.26219829604E+03  0.26219829606E+03  0.25500000920E-02 0.  1.
        2   -1    0    0  501    0  0.00000000000E+00  0.00000000000E+00 -0.34344869892E+03  0.34344869893E+03  0.25500000920E-02 0. -1.
    10030    2    1    2    0    0  0.00000000000E+00  0.00000000000E+00 -0.81250402875E+02  0.60564699498E+03  0.60017218743E+03 0.  0.
        5    1    3    3  502    0  0.10791658777E+03 -0.81964031605E+02  0.22952090444E+03  0.26658212237E+03  0.46999998093E+01 0.  1.
       -5    1    3    3    0  502 -0.10791658777E+03  0.81964031605E+02 -0.31077130732E+03  0.33906487262E+03  0.46999998093E+01 0. -1.
</event>
<event>
 5   0  0.2313168E-03  0.5998970E+03  0.7818609E-02  0.9905620E-01
       -2   -1    0    0    0  501  0.00000000000E+00  0.00000000000E+00  0.17921352556E+03  0.17921352558E+03  0.25500000920E-02 0. -1.
        2   -1    0    0  501    0  0.00000000000E+00  0.00000000000E+00 -0.50202183531E+03  0.50202183531E+03  0.25500000920E-02 0.  1.
    10030    2    1    2    0    0  0.00000000000E+00  0.00000000000E+00 -0.32280830974E+03  0.68123536090E+03  0.59989700124E+03 0.  0.
        2    1    3    3  502    0  0.23256437086E+03 -0.45206109827E+02 -0.37030073566E+03  0.43960483823E+03  0.25500000920E-02 0.  1.
       -2    1    3    3    0  502 -0.23256437086E+03  0.45206109827E+02  0.47492425918E+02  0.24163052267E+03  0.25500000920E-02 0. -1.
</event>
<event>
 5   0  0.2313168E-03  0.5997197E+03  0.7818609E-02  0.9905988E-01
       -2   -1    0    0    0  501  0.00000000000E+00  0.00000000000E+00  0.68718907902E+02  0.68718907949E+02  0.25500000920E-02 0.  1.
        2   -1    0    0  501    0  0.00000000000E+00  0.00000000000E+00 -0.13084597242E+04  0.13084597242E+04  0.25500000920E-02 0. -1.
    10030    2    1    2    0    0  0.00000000000E+00  0.00000000000E+00 -0.12397408163E+04  0.13771786321E+04  0.59971967889E+03 0.  0.
        2    1    3    3  502    0 -0.40045383392E+02  0.25613743144E+03 -0.27384228170E+03  0.37709363793E+03  0.25500000920E-02 0.  1.
       -2    1    3    3    0  502  0.40045383392E+02 -0.25613743144E+03 -0.96589853457E+03  0.10000849942E+04  0.25500000920E-02 0. -1.
</event>
<event>
 5   0  0.2421210E-03  0.6003898E+03  0.7818609E-02  0.9904598E-01
       -2   -1    0    0    0  501  0.00000000000E+00  0.00000000000E+00  0.13155358962E+03  0.13155358964E+03  0.25500000920E-02 0.  1.
        2   -1    0    0  501    0  0.00000000000E+00  0.00000000000E+00 -0.68502099977E+03  0.68502099977E+03  0.25500000920E-02 0. -1.
    10030    2    1    2    0    0  0.00000000000E+00  0.00000000000E+00 -0.55346741015E+03  0.81657458942E+03  0.60038977838E+03 0.  0.
        1    1    3    3  502    0 -0.16483422086E+03  0.10037926981E+03 -0.58946396788E+03  0.62025324476E+03  0.50400001928E-02 0. -1.
       -1    1    3    3    0  502  0.16483422086E+03 -0.10037926981E+03  0.35996557733E+02  0.19632134466E+03  0.50400001928E-02 0.  1.
</event>
<event>
 5   0  0.1479385E-03  0.5987030E+03  0.7818609E-02  0.9908101E-01
        1   -1    0    0  501    0  0.00000000000E+00  0.00000000000E+00  0.88089438092E+03  0.88089438093E+03  0.50400001928E-02 0.  1.
       -1   -1    0    0    0  501  0.00000000000E+00  0.00000000000E+00 -0.10172764995E+03  0.10172765007E+03  0.50400001928E-02 0. -1.
    10030    2    1    2    0    0  0.00000000000E+00  0.00000000000E+00  0.77916673097E+03  0.98262203101E+03  0.59870298243E+03 0.  0.
        3    1    3    3  502    0 -0.38213140155E+02 -0.10361088648E+03  0.84624024571E+03  0.85341550463E+03  0.10100000352E+00 0.  1.
       -3    1    3    3    0  502  0.38213140155E+02  0.10361088648E+03 -0.67073514743E+02  0.12920652638E+03  0.10100000352E+00 0. -1.
</event>
<event>
 5   0  0.1479385E-03  0.5999862E+03  0.7818609E-02  0.9905435E-01
       -1   -1    0    0    0  501  0.00000000000E+00  0.00000000000E+00  0.38219497654E+03  0.38219497657E+03  0.50400001928E-02 0. -1.
        1   -1    0    0  501    0  0.00000000000E+00  0.00000000000E+00 -0.23547109437E+03  0.23547109442E+03  0.50400001928E-02 0.  1.
    10030    2    1    2    0    0  0.00000000000E+00  0.00000000000E+00  0.14672388217E+03  0.61766607099E+03  0.59998623122E+03 0.  0.
        3    1    3    3  502    0  0.14795460233E+03 -0.25805588341E+03  0.11339823069E+03  0.31834348154E+03  0.10100000352E+00 0.  1.
       -3    1    3    3    0  502 -0.14795460233E+03  0.25805588341E+03  0.33325651472E+02  0.29932258946E+03  0.10100000352E+00 0. -1.
</event>
<event>
 5   0  0.1418763E-03  0.6001644E+03  0.7818609E-02  0.9905065E-01
       -1   -1    0    0    0  501  0.00000000000E+00  0.00000000000E+00  0.23455077615E+03  0.23455077620E+03  0.50400001928E-02 0.  1.
        1   -1    0    0  501    0  0.00000000000E+00  0.00000000000E+00 -0.38392252336E+03  0.38392252339E+03  0.50400001928E-02 0. -1.
    10030    2    1    2    0    0  0.00000000000E+00  0.00000000000E+00 -0.14937174721E+03  0.61847329959E+03  0.60016439702E+03 0.  0.
        5    1    3    3  502    0  0.17838527598E+03 -0.17240291993E+03 -0.24860399252E+03  0.35124081281E+03  0.46999998093E+01 0. -1.
       -5    1    3    3    0  502 -0.17838527598E+03  0.17240291993E+03  0.99232245311E+02  0.26723248679E+03  0.46999998093E+01 0.  1.
</event>
<event>
 5   0  0.2346281E-03  0.5997356E+03  0.7818609E-02  0.9905955E-01
       -2   -1    0    0    0  501  0.00000000000E+00  0.00000000000E+00  0.10294170137E+03  0.10294170140E+03  0.25500000920E-02 0.  1.
        2   -1    0    0  501    0  0.00000000000E+00  0.00000000000E+00 -0.87351096913E+03  0.87351096913E+03  0.25500000920E-02 0. -1.
    10030    2    1    2    0    0  0.00000000000E+00  0.00000000000E+00 -0.77056926776E+03  0.97645267053E+03  0.59973562623E+03 0.  0.
        3    1    3    3  502    0  0.10529735198E+03 -0.16966476815E+03 -0.74951864881E+03  0.77566222094E+03  0.10100000352E+00 0. -1.
       -3    1    3    3    0  502 -0.10529735198E+03  0.16966476815E+03 -0.21050618951E+02  0.20079044959E+03  0.10100000352E+00 0.  1.
</event>
<event>
 5   0  0.1392854E-03  0.6000629E+03  0.7818609E-02  0.9905276E-01
        1   -1    0    0  501    0  0.00000000000E+00  0.00000000000E+00  0.67581068476E+03  0.67581068478E+03  0.50400001928E-02 0. -1.
       -1   -1    0    0    0  501  0.00000000000E+00  0.00000000000E+00 -0.13320129557E+03  0.13320129567E+03  0.50400001928E-02 0.  1.
    10030    2    1    2    0    0  0.00000000000E+00  0.00000000000E+00  0.54260938919E+03  0.80901198044E+03  0.60006285943E+03 0.  0.
        4    1    3    3  502    0 -0.13728947725E+03 -0.19676964012E+02 -0.87384740575E+02  0.16393074532E+03  0.12699999809E+01 0.  1.
       -4    1    3    3    0  502  0.13728947725E+03  0.19676964012E+02  0.62999412976E+03  0.64508123512E+03  0.12699999809E+01 0. -1.
</event>
<event>
 5   0  0.2313168E-03  0.6001102E+03  0.7818609E-02  0.9905177E-01
       -2   -1    0    0    0  501  0.00000000000E+00  0.00000000000E+00  0.33846000311E+03  0.33846000312E+03  0.25500000920E-02 0. -1.
        2   -1    0    0  501    0  0.00000000000E+00  0.00000000000E+00 -0.26600797835E+03  0.26600797836E+03  0.25500000920E-02 0.  1.
    10030    2    1    2    0    0  0.00000000000E+00  0.00000000000E+00  0.72452024761E+02  0.60446798147E+03  0.60011019383E+03 0.  0.
        2    1    3    3  502    0  0.16405900393E+03  0.25112792919E+03  0.28929961547E+02  0.30135948014E+03  0.25500000920E-02 0. -1.
       -2    1    3    3    0  502 -0.16405900393E+03 -0.25112792919E+03  0.43522063214E+02  0.30310850133E+03  0.25500000920E-02 0.  1.
</event>
<event>
 5   0  0.1392854E-03  0.5998746E+03  0.7818609E-02  0.9905666E-01
        1   -1    0    0  501    0  0.00000000000E+00  0.00000000000E+00  0.82707760350E+03  0.82707760351E+03  0.50400001928E-02 0. -1.
       -1   -1    0    0    0  501  0.00000000000E+00  0.00000000000E+00 -0.10877140730E+03  0.10877140742E+03  0.50400001928E-02 0.  1.
    10030    2    1    2    0    0  0.00000000000E+00  0.00000000000E+00  0.71830619620E+03  0.93584901093E+03  0.59987463670E+03 0.  0.
        4    1    3    3  502    0 -0.25282388767E+03  0.42862256803E+02  0.60186221157E+03  0.65421466343E+03  0.12699999809E+01 0. -1.
       -4    1    3    3    0  502  0.25282388767E+03 -0.42862256803E+02  0.11644398463E+03  0.28163434750E+03  0.12699999809E+01 0.  1.
</event>
<event>
 5   0  0.1423430E-03  0.5998547E+03  0.7818609E-02  0.9905708E-01
        1   -1    0    0  501    0  0.00000000000E+00  0.00000000000E+00  0.12683706158E+04  0.12683706158E+04  0.50400001928E-02 0.  1.
       -1   -1    0    0    0  501  0.00000000000E+00  0.00000000000E+00 -0.70922820749E+02  0.70922820928E+02  0.50400001928E-02 0. -1.
    10030    2    1    2    0    0  0.00000000000E+00  0.00000000000E+00  0.11974477950E+04  0.13392934367E+04  0.59985472225E+03 0.  0.
        1    1    3    3  502    0 -0.16822694584E+03 -0.24176551779E+03  0.47231402138E+03  0.55662501356E+03  0.50400001928E-02 0. -1.
       -1    1    3    3    0  502  0.16822694584E+03  0.24176551779E+03  0.72513377364E+03  0.78266842315E+03  0.50400001928E-02 0.  1.
</event>
<event>
 5   0  0.1416315E-03  0.6000547E+03  0.7818609E-02  0.9905293E-01
        1   -1    0    0  501    0  0.00000000000E+00  0.00000000000E+00  0.30005611235E+03  0.30005611239E+03  0.50400001928E-02 0. -1.
       -1   -1    0    0    0  501  0.00000000000E+00  0.00000000000E+00 -0.29999859640E+03  0.29999859644E+03  0.50400001928E-02 0.  1.
    10030    2    1    2    0    0  0.00000000000E+00  0.00000000000E+00  0.57515951050E-01  0.60005470884E+03  0.60005470608E+03 0.  0.
        2    1    3    3  502    0 -0.70370723146E+02  0.18508151415E+03 -0.22538022027E+03  0.30000574870E+03  0.25500000920E-02 0.  1.
       -2    1    3    3    0  502  0.70370723146E+02 -0.18508151415E+03  0.22543773623E+03  0.30004896014E+03  0.25500000920E-02 0. -1.
</event>
<event>
 5   0  0.1479385E-03  0.6003803E+03  0.7818609E-02  0.9904617E-01
       -1   -1    0    0    0  501  0.00000000000E+00  0.00000000000E+00  0.47735439490E+03  0.47735439492E+03  0.50400001928E-02 0.  1.
        1   -1    0    0  501    0  0.00000000000E+00  0.00000000000E+00 -0.18877823964E+03  0.18877823970E+03  0.50400001928E-02 0. -1.
    10030    2    1    2    0    0  0.00000000000E+00  0.00000000000E+00  0.28857615526E+03  0.66613263463E+03  0.60038028743E+03 0.  0.
        3    1    3    3  502    0 -0.15481242588E+03 -0.20708782277E+03  0.31350994859E+03  0.40637513656E+03  0.10100000352E+00 0.  1.
       -3    1    3    3    0  502  0.15481242588E+03  0.20708782277E+03 -0.24933793332E+02  0.25975749806E+03  0.10100000352E+00 0. -1.
</event>
<event>
 5   0  0.2324616E-03  0.6003750E+03  0.7818609E-02  0.9904628E-01
       -2   -1    0    0    0  501  0.00000000000E+00  0.00000000000E+00  0.37412062666E+02  0.37412062753E+02  0.25500000920E-02 0.  1.
        2   -1    0    0  501    0  0.00000000000E+00  0.00000000000E+00 -0.24086493664E+04  0.24086493664E+04  0.25500000920E-02 0. -1.
    10030    2    1    2    0    0  0.00000000000E+00  0.00000000000E+00 -0.23712373038E+04  0.24460614292E+04  0.60037501995E+03 0.  0.
        4    1    3    3  502    0 -0.93641037342E+02  0.27660696350E+03 -0.14687953514E+04  0.14975451424E+04  0.12699999809E+01 0. -1.
       -4    1    3    3    0  502  0.93641037342E+02 -0.27660696350E+03 -0.90244195234E+03  0.94851628683E+03  0.12699999809E+01 0.  1.
</event>
<event>
 5   0  0.2324616E-03  0.5996059E+03  0.7818609E-02  0.9906224E-01
        2   -1    0    0  501    0  0.00000000000E+00  0.00000000000E+00  0.59733533634E+03  0.59733533634E+03  0.25500000920E-02 0. -1.
       -2   -1    0    0    0  501  0.00000000000E+00  0.00000000000E+00 -0.15047129611E+03  0.15047129613E+03  0.25500000920E-02 0.  1.
    10030    2    1    2    0    0  0.00000000000E+00  0.00000000000E+00  0.44686404023E+03  0.74780663247E+03  0.59960594486E+03 0.  0.
        4    1    3    3  502    0  0.42128924120E+02 -0.27558518478E+03  0.85914677451E+02  0.29172758701E+03  0.12699999809E+01 0.  1.
       -4    1    3    3    0  502 -0.42128924120E+02  0.27558518478E+03  0.36094936278E+03  0.45607904546E+03  0.12699999809E+01 0. -1.
</event>
<event>
 5   0  0.1416315E-03  0.6001154E+03  0.7818609E-02  0.9905167E-01
        1   -1    0    0  501    0  0.00000000000E+00  0.00000000000E+00  0.81734122605E+03  0.81734122606E+03  0.50400001928E-02 0.  1.
       -1   -1    0    0    0  501  0.00000000000E+00  0.00000000000E+00 -0.11015549597E+03  0.11015549608E+03  0.50400001928E-02 0. -1.
    10030    2    1    2    0    0  0.00000000000E+00  0.00000000000E+00  0.70718573008E+03  0.92749672214E+03  0.60011541620E+03 0.  0.
        2    1    3    3  502    0  0.29779587146E+03  0.27551922678E+02  0.31595233551E+03  0.43504869592E+03  0.25500000920E-02 0. -1.
       -2    1    3    3    0  502 -0.29779587146E+03 -0.27551922678E+02  0.39123339457E+03  0.49244802622E+03  0.25500000920E-02 0.  1.
</event>
<event>
 5   0  0.2324616E-03  0.6002594E+03  0.7818609E-02  0.9904868E-01
       -2   -1    0    0    0  501  0.00000000000E+00  0.00000000000E+00  0.45369204386E+02  0.45369204458E+02  0.25500000920E-02 0.  1.
        2   -1    0    0  501    0  0.00000000000E+00  0.00000000000E+00 -0.19854401293E+04  0.19854401293E+04  0.25500000920E-02 0. -1.
    10030    2    1    2    0    0  0.00000000000E+00  0.00000000000E+00 -0.19400709249E+04  0.20308093337E+04  0.60025940757E+03 0.  0.
        4    1    3    3  502    0  0.10918735958E+03 -0.14909714486E+03 -0.17701106389E+04  0.17797317565E+04  0.12699999809E+01 0. -1.
       -4    1    3    3    0  502 -0.10918735958E+03  0.14909714486E+03 -0.16996028599E+03  0.25107757728E+03  0.12699999809E+01 0.  1.
</event>
<event>
 5   0  0.2421210E-03  0.6004277E+03  0.7818609E-02  0.9904519E-01
       -2   -1    0    0    0  501  0.00000000000E+00  0.00000000000E+00  0.21303080106E+03  0.21303080107E+03  0.25500000920E-02 0.  1.
        2   -1    0    0  501    0  0.00000000000E+00  0.00000000000E+00 -0.42307663319E+03  0.42307663320E+03  0.25500000920E-02 0. -1.
    10030    2    1    2    0    0  0.00000000000E+00  0.00000000000E+00 -0.21004583213E+03  0.63610743427E+03  0.60042769451E+03 0.  0.
        1    1    3    3  502    0 -0.26938783428E+03 -0.44076654775E+02 -0.23741189636E+03  0.36176921554E+03  0.50400001928E-02 0. -1.
       -1    1    3    3    0  502  0.26938783428E+03  0.44076654775E+02  0.27366064230E+02  0.27433821873E+03  0.50400001928E-02 0.  1.
</event>
<event>
 5   0  0.9496750E-04  0.6001008E+03  0.7818609E-02  0.9905197E-01
        3   -1    0    0  501    0  0.00000000000E+00  0.00000000000E+00  0.47658926980E+03  0.47658928051E+03  0.10100000352E+00 0. -1.
       -3   -1    0    0    0  501  0.00000000000E+00  0.00000000000E+00 -0.18890530996E+03  0.18890533696E+03  0.10100000352E+00 0.  1.
    10030    2    1    2    0    0  0.00000000000E+00  0.00000000000E+00  0.28768395985E+03  0.66549461746E+03  0.60010084579E+03 0.  0.
        1    1    3    3  502    0 -0.12191894135E+03  0.56639279069E+02  0.44132344449E+03  0.46134436040E+03  0.50400001928E-02 0. -1.
       -1    1    3    3    0  502  0.12191894135E+03 -0.56639279069E+02 -0.15363948464E+03  0.20415025706E+03  0.50400001928E-02 0.  1.
</event>
<event>
 5   0  0.2324616E-03  0.5999748E+03  0.7818609E-02  0.9905458E-01
       -2   -1    0    0    0  501  0.00000000000E+00  0.00000000000E+00  0.29284212223E+03  0.29284212224E+03  0.25500000920E-02 0.  1.
        2   -1    0    0  501    0  0.00000000000E+00  0.00000000000E+00 -0.30730705963E+03  0.30730705965E+03  0.25500000920E-02 0. -1.
    10030    2    1    2    0    0  0.00000000000E+00  0.00000000000E+00 -0.14464937409E+02  0.60014918188E+03  0.59997483789E+03 0.  0.
        4    1    3    3  502    0 -0.22473147963E+03  0.94726785254E+02 -0.18196418576E+03  0.30428601608E+03  0.12699999809E+01 0. -1.
       -4    1    3    3    0  502  0.22473147963E+03 -0.94726785254E+02  0.16749924835E+03  0.29586316580E+03  0.12699999809E+01 0.  1.
</event>
<event>
 5   0  0.1479385E-03  0.6000622E+03  0.7818609E-02  0.9905277E-01
        1   -1    0    0  501    0  0.00000000000E+00  0.00000000000E+00  0.26427627073E+03  0.26427627078E+03  0.50400001928E-02 0. -1.
       -1   -1    0    0    0  501  0.00000000000E+00  0.00000000000E+00 -0.34062331195E+03  0.34062331198E+03  0.50400001928E-02 0.  1.
    10030    2    1    2    0    0  0.00000000000E+00  0.00000000000E+00 -0.76347041217E+02  0.60489958276E+03  0.60006219221E+03 0.  0.
        3    1    3    3  502    0  0.54541558413E+02 -0.39839641136E+02 -0.33285985937E+03  0.33964345243E+03  0.10100000352E+00 0.  1.
       -3    1    3    3    0  502 -0.54541558413E+02  0.39839641136E+02  0.25651281815E+03  0.26525613033E+03  0.10100000352E+00 0. -1.
</event>
<event>
 5   0  0.2406307E-03  0.6002198E+03  0.7818609E-02  0.9904950E-01
       -2   -1    0    0    0  501  0.00000000000E+00  0.00000000000E+00  0.76978579759E+02  0.76978579801E+02  0.25500000920E-02 0. -1.
        2   -1    0    0  501    0  0.00000000000E+00  0.00000000000E+00 -0.11700131049E+04  0.11700131049E+04  0.25500000920E-02 0.  1.
    10030    2    1    2    0    0  0.00000000000E+00  0.00000000000E+00 -0.10930345252E+04  0.12469916847E+04  0.60021978356E+03 0.  0.
        5    1    3    3  502    0  0.18417813422E+03  0.22847156880E+03 -0.41639152755E+03  0.50943580272E+03  0.46999998093E+01 0. -1.
       -5    1    3    3    0  502 -0.18417813422E+03 -0.22847156880E+03 -0.67664299762E+03  0.73755588202E+03  0.46999998093E+01 0.  1.
</event>
<event>
 5   0  0.1479385E-03  0.6004815E+03  0.7818609E-02  0.9904408E-01
        1   -1    0    0  501    0  0.00000000000E+00  0.00000000000E+00  0.93963094877E+03  0.93963094878E+03  0.50400001928E-02 0.  1.
       -1   -1    0    0    0  501  0.00000000000E+00  0.00000000000E+00 -0.95936084933E+02  0.95936085065E+02  0.50400001928E-02 0. -1.
    10030    2    1    2    0    0  0.00000000000E+00  0.00000000000E+00  0.84369486384E+03  0.10355670338E+04  0.60048152205E+03 0.  0.
        3    1    3    3  502    0  0.22653741602E+03  0.95091572115E+02  0.12422748530E+03  0.27530725790E+03  0.10100000352E+00 0. -1.
       -3    1    3    3    0  502 -0.22653741602E+03 -0.95091572115E+02  0.71946737854E+03  0.76025977595E+03  0.10100000352E+00 0.  1.
</event>
<event>
 5   0  0.1479385E-03  0.5998130E+03  0.7818609E-02  0.9905794E-01
       -1   -1    0    0    0  501  0.00000000000E+00  0.00000000000E+00  0.19088855737E+04  0.19088855738E+04  0.50400001928E-02 0.  1.
        1   -1    0    0  501    0  0.00000000000E+00  0.00000000000E+00 -0.47118544365E+02  0.47118544635E+02  0.50400001928E-02 0. -1.
    10030    2    1    2    0    0  0.00000000000E+00  0.00000000000E+00  0.18617670294E+04  0.19560041184E+04  0.59981300374E+03 0.  0.
        3    1    3    3  502    0  0.21192349151E+03 -0.21002329726E+03  0.10299321231E+04  0.10722786672E+04  0.10100000352E+00 0.  1.
       -3    1    3    3    0  502 -0.21192349151E+03  0.21002329726E+03  0.83183490625E+03  0.88372545120E+03  0.10100000352E+00 0. -1.
</event>
<event>
 5   0  0.2346281E-03  0.5997970E+03  0.7818609E-02  0.9905827E-01
        2   -1    0    0  501    0  0.00000000000E+00  0.00000000000E+00  0.34016358638E+03  0.34016358639E+03  0.25500000920E-02 0.  1.
       -2   -1    0    0    0  501  0.00000000000E+00  0.00000000000E+00 -0.26439958996E+03  0.26439958997E+03  0.25500000920E-02 0. -1.
    10030    2    1    2    0    0  0.00000000000E+00  0.00000000000E+00  0.75763996425E+02  0.60456317636E+03  0.59979700821E+03 0.  0.
        3    1    3    3  502    0  0.23441037387E+03 -0.10383866484E+03  0.19470889056E+03  0.32193517043E+03  0.10100000352E+00 0.  1.
       -3    1    3    3    0  502 -0.23441037387E+03  0.10383866484E+03 -0.11894489414E+03  0.28262800593E+03  0.10100000352E+00 0. -1.
</event>
<event>
 5   0  0.9496750E-04  0.6001865E+03  0.7818609E-02  0.9905019E-01
        3   -1    0    0  501    0  0.00000000000E+00  0.00000000000E+00  0.12754088907E+03  0.12754092907E+03  0.10100000352E+00 0. -1.
       -3   -1    0    0    0  501  0.00000000000E+00  0.00000000000E+00 -0.70609473748E+03  0.70609474470E+03  0.10100000352E+00 0.  1.
    10030    2    1    2    0    0  0.00000000000E+00  0.00000000000E+00 -0.57855384840E+03  0.83363567377E+03  0.60018653857E+03 0.  0.
        3    1    3    3  502    0  0.59254223091E+02 -0.12801326180E+03 -0.65717464645E+03  0.67214357416E+03  0.10100000352E+00 0.  1.
       -3    1    3    3    0  502 -0.59254223091E+02  0.12801326180E+03  0.78620798042E+02  0.16149209961E+03  0.10100000352E+00 0. -1.
</event>
<event>
 5   0  0.1423430E-03  0.6000199E+03  0.7818609E-02  0.9905365E-01
        1   -1    0    0  501    0  0.00000000000E+00  0.00000000000E+00  0.49169925339E+03  0.49169925342E+03  0.50400001928E-02 0. -1.
       -1   -1    0    0    0  501  0.00000000000E+00  0.00000000000E+00 -0.18305084692E+03  0.18305084698E+03  0.50400001928E-02 0.  1.
    10030    2    1    2    0    0  0.00000000000E+00  0.00000000000E+00  0.30864840648E+03  0.67475010040E+03  0.60001988231E+03 0.  0.
        1    1    3    3  502    0 -0.20644017819E+03 -0.19187625938E+03  0.26994986288E+03  0.39026526182E+03  0.50400001928E-02 0.  1.
       -1    1    3    3    0  502  0.20644017819E+03  0.19187625938E+03  0.38698543593E+02  0.28448483859E+03  0.50400001928E-02 0. -1.
</event>
<event>
 5   0  0.1392854E-03  0.5984435E+03  0.7818609E-02  0.9908640E-01
       -1   -1    0    0    0  501  0.00000000000E+00  0.00000000000E+00  0.12747617376E+04  0.12747617376E+04  0.50400001928E-02 0.  1.
        1   -1    0    0  501    0  0.00000000000E+00  0.00000000000E+00 -0.70235609849E+02  0.70235610029E+02  0.50400001928E-02 0. -1.
    10030    2    1    2    0    0  0.00000000000E+00  0.00000000000E+00  0.12045261277E+04  0.13449973476E+04  0.59844354179E+03 0.  0.
        4    1    3    3  502    0 -0.26215217725E+03 -0.11317434157E+03  0.80328313727E+03  0.85252425604E+03  0.12699999809E+01 0. -1.
       -4    1    3    3    0  502  0.26215217725E+03  0.11317434157E+03  0.40124299045E+03  0.49247309156E+03  0.12699999809E+01 0.  1.
</event>
<event>
 5   0  0.1418763E-03  0.6003374E+03  0.7818609E-02  0.9904706E-01
        1   -1    0    0  501    0  0.00000000000E+00  0.00000000000E+00  0.10396844440E+04  0.10396844440E+04  0.50400001928E-02 0.  1.
       -1   -1    0    0    0  501  0.00000000000E+00  0.00000000000E+00 -0.86662099741E+02  0.86662099888E+02  0.50400001928E-02 0. -1.
    10030    2    1    2    0    0  0.00000000000E+00  0.00000000000E+00  0.95302234422E+03  0.11263465439E+04  0.60033736206E+03 0.  0.
        5    1    3    3  502    0  0.16445739312E+03  0.24991125903E+03  0.52158954514E+03  0.60131490514E+03  0.46999998093E+01 0. -1.
       -5    1    3    3    0  502 -0.16445739312E+03 -0.24991125903E+03  0.43143279907E+03  0.52503163872E+03  0.46999998093E+01 0.  1.
</event>
<event>
 5   0  0.9496750E-04  0.5996182E+03  0.7818609E-02  0.9906199E-01
        3   -1    0    0  501    0  0.00000000000E+00  0.00000000000E+00  0.23657380262E+03  0.23657382418E+03  0.10100000352E+00 0.  1.
       -3   -1    0    0    0  501  0.00000000000E+00  0.00000000000E+00 -0.37994688081E+03  0.37994689423E+03  0.10100000352E+00 0. -1.
    10030    2    1    2    0    0  0.00000000000E+00  0.00000000000E+00 -0.14337307819E+03  0.61652071841E+03  0.59961817574E+03 0.  0.
        3    1    3    3  502    0 -0.19662983026E+03 -0.12954446090E+03 -0.26249916834E+03  0.35263420293E+03  0.10100000352E+00 0. -1.
       -3    1    3    3    0  502  0.19662983026E+03  0.12954446090E+03  0.11912609015E+03  0.26388651548E+03  0.10100000352E+00 0.  1.
</event>
<event>
 5   0  0.1392854E-03  0.5999872E+03  0.7818609E-02  0.9905433E-01
        1   -1    0    0  501    0  0.00000000000E+00  0.00000000000E+00  0.13936892060E+04  0.13936892060E+04  0.50400001928E-02 0.  1.
       -1   -1    0    0    0  501  0.00000000000E+00  0.00000000000E+00 -0.64574048319E+02  0.64574048515E+02  0.50400001928E-02 0. -1.
    10030    2    1    2    0    0  0.00000000000E+00  0.00000000000E+00  0.13291151577E+04  0.14582632545E+04  0.59998718080E+03 0.  0.
        4    1    3    3  502    0 -0.14681519561E+03  0.23842243913E+03  0.92626827720E+03  0.96766445392E+03  0.12699999809E+01 0.  1.
       -4    1    3    3    0  502  0.14681519561E+03 -0.23842243913E+03  0.40284688051E+03  0.49059880063E+03  0.12699999809E+01 0. -1.
</event>
<event>
 5   0  0.1423430E-03  0.5999908E+03  0.7818609E-02  0.9905425E-01
        1   -1    0    0  501    0  0.00000000000E+00  0.00000000000E+00  0.13417314457E+04  0.13417314457E+04  0.50400001928E-02 0.  1.
       -1   -1    0    0    0  501  0.00000000000E+00  0.00000000000E+00 -0.67075444637E+02  0.67075444826E+02  0.50400001928E-02 0. -1.
    10030    2    1    2    0    0  0.00000000000E+00  0.00000000000E+00  0.12746560010E+04  0.14088068905E+04  0.59999077807E+03 0.  0.
        1    1    3    3  502    0  0.22016748477E+03  0.41979948800E+02  0.11055336086E+04  0.11280250871E+04  0.50400001928E-02 0.  1.
       -1    1    3    3    0  502 -0.22016748477E+03 -0.41979948800E+02  0.16912239242E+03  0.28078180335E+03  0.50400001928E-02 0. -1.
</event>
<event>
 5   0  0.2324616E-03  0.6004581E+03  0.7818609E-02  0.9904456E-01
       -2   -1    0    0    0  501  0.00000000000E+00  0.00000000000E+00  0.18003505000E+03  0.18003505002E+03  0.25500000920E-02 0. -1.
        2   -1    0    0  501    0  0.00000000000E+00  0.00000000000E+00 -0.50066624124E+03  0.50066624125E+03  0.25500000920E-02 0.  1.
    10030    2    1    2    0    0  0.00000000000E+00  0.00000000000E+00 -0.32063119124E+03  0.68070129127E+03  0.60045806443E+03 0.  0.
        4    1    3    3  502    0  0.14994505826E+03  0.92519439119E+02 -0.43589074035E+03  0.47015499310E+03  0.12699999809E+01 0.  1.
       -4    1    3    3    0  502 -0.14994505826E+03 -0.92519439119E+02  0.11525954911E+03  0.21054629817E+03  0.12699999809E+01 0. -1.
</event>
<event>
 5   0  0.1392854E-03  0.5997809E+03  0.7818609E-02  0.9905861E-01
        1   -1    0    0  501    0  0.00000000000E+00  0.00000000000E+00  0.40285213373E+03  0.40285213376E+03  0.50400001928E-02 0. -1.
       -1   -1    0    0    0  501  0.00000000000E+00  0.00000000000E+00 -0.22324388489E+03  0.22324388494E+03  0.50400001928E-02 0.  1.
    10030    2    1    2    0    0  0.00000000000E+00  0.00000000000E+00  0.17960824884E+03  0.62609601870E+03  0.59978087797E+03 0.  0.
        4    1    3    3  502    0 -0.21569775310E+03 -0.10528493926E+01  0.30728615348E+03  0.37543710819E+03  0.12699999809E+01 0. -1.
       -4    1    3    3    0  502  0.21569775310E+03  0.10528493926E+01 -0.12767790464E+03  0.25065891051E+03  0.12699999809E+01 0.  1.
</event>
<event>
 5   0  0.1392854E-03  0.5997095E+03  0.7818609E-02  0.9906009E-01
       -1   -1    0    0    0  501  0.00000000000E+00  0.00000000000E+00  0.15691757156E+03  0.15691757165E+03  0.50400001928E-02 0. -1.
        1   -1    0    0  501    0  0.00000000000E+00  0.00000000000E+00 -0.57299423046E+03  0.57299423049E+03  0.50400001928E-02 0.  1.
    10030    2    1    2    0    0  0.00000000000E+00  0.00000000000E+00 -0.41607665890E+03  0.72991180213E+03  0.59970947367E+03 0.  0.
        4    1    3    3  502    0 -0.14350089413E+03  0.12247445147E+03 -0.49170242553E+03  0.52665490224E+03  0.12699999809E+01 0.  1.
       -4    1    3    3    0  502  0.14350089413E+03 -0.12247445147E+03  0.75625766629E+02  0.20325689990E+03  0.12699999809E+01 0. -1.
</event>
<event>
 5   0  0.1479385E-03  0.6002530E+03  0.7818609E-02  0.9904881E-01
       -1   -1    0    0    0  501  0.00000000000E+00  0.00000000000E+00  0.24834354412E+03  0.24834354417E+03  0.50400001928E-02 0.  1.
        1   -1    0    0  501    0  0.00000000000E+00  0.00000000000E+00 -0.36270692748E+03  0.36270692751E+03  0.50400001928E-02 0. -1.
    10030    2    1    2    0    0  0.00000000000E+00  0.00000000000E+00 -0.11436338336E+03  0.61105047168E+03  0.60025302622E+03 0.  0.
        3    1    3    3  502    0  0.17447164603E+02  0.17290235729E+03  0.19191625561E+03  0.25890439949E+03  0.10100000352E+00 0.  1.
       -3    1    3    3    0  502 -0.17447164603E+02 -0.17290235729E+03 -0.30627963897E+03  0.35214607219E+03  0.10100000352E+00 0. -1.
</event>
<event>
 5   0  0.1479385E-03  0.6001821E+03  0.7818609E-02  0.9905028E-01
        1   -1    0    0  501    0  0.00000000000E+00  0.00000000000E+00  0.50638045369E+03  0.50638045371E+03  0.50400001928E-02 0. -1.
       -1   -1    0    0    0  501  0.00000000000E+00  0.00000000000E+00 -0.17783986153E+03  0.17783986160E+03  0.50400001928E-02 0.  1.
    10030    2    1    2    0    0  0.00000000000E+00  0.00000000000E+00  0.32854059216E+03  0.68422031531E+03  0.60018207170E+03 0.  0.
        3    1    3    3  502    0  0.10966579215E+03 -0.74247068200E+02  0.47126302498E+03  0.48951819376E+03  0.10100000352E+00 0. -1.
       -3    1    3    3    0  502 -0.10966579215E+03  0.74247068200E+02 -0.14272243282E+03  0.19470212155E+03  0.10100000352E+00 0.  1.
</event>
<event>
 5   0  0.9496750E-04  0.5997998E+03  0.7818609E-02  0.9905821E-01
        3   -1    0    0  501    0  0.00000000000E+00  0.00000000000E+00  0.50010680674E+03  0.50010681694E+03  0.10100000352E+00 0.  1.
       -3   -1    0    0    0  501  0.00000000000E+00  0.00000000000E+00 -0.17984147654E+03  0.17984150490E+03  0.10100000352E+00 0. -1.
    10030    2    1    2    0    0  0.00000000000E+00  0.00000000000E+00  0.32026533021E+03  0.67994832184E+03  0.59979983214E+03 0.  0.
        1    1    3    3  502    0 -0.28951820355E+03  0.72001864251E+02  0.19479456609E+03  0.35630040927E+03  0.50400001928E-02 0.  1.
       -1    1    3    3    0  502  0.28951820355E+03 -0.72001864251E+02  0.12547076411E+03  0.32364791257E+03  0.50400001928E-02 0. -1.
</event>
<event>
 5   0  0.2324616E-03  0.6002545E+03  0.7818609E-02  0.9904878E-01
        2   -1    0    0  501    0  0.00000000000E+00  0.00000000000E+00  0.16513104324E+04  0.16513104324E+04  0.25500000920E-02 0.  1.
       -2   -1    0    0    0  501  0.00000000000E+00  0.00000000000E+00 -0.54548409479E+02  0.54548409539E+02  0.25500000920E-02 0. -1.
    10030    2    1    2    0    0  0.00000000000E+00  0.00000000000E+00  0.15967620229E+04  0.17058588419E+04  0.60025447169E+03 0.  0.
        4    1    3    3  502    0 -0.22815144318E+03 -0.16545887805E+03  0.10915925103E+04  0.11273888161E+04  0.12699999809E+01 0.  1.
       -4    1    3    3    0  502  0.22815144318E+03  0.16545887805E+03  0.50516951261E+03  0.57847002578E+03  0.12699999809E+01 0. -1.
</event>
<event>
 5   0  0.1416315E-03  0.6006521E+03  0.7818609E-02  0.9904054E-01
       -1   -1    0    0    0  501  0.00000000000E+00  0.00000000000E+00  0.17788058708E+03  0.17788058715E+03  0.50400001928E-02 0.  1.
        1   -1    0    0  501    0  0.00000000000E+00  0.00000000000E+00 -0.50705785252E+03  0.50705785255E+03  0.50400001928E-02 0. -1.
    10030    2    1    2    0    0  0.00000000000E+00  0.00000000000E+00 -0.32917726544E+03  0.68493843970E+03  0.60065214067E+03 0.  0.
        2    1    3    3  502    0 -0.85449416832E+02  0.28427455778E+03 -0.11255531200E+03  0.31746232108E+03  0.25500000920E-02 0. -1.
       -2    1    3    3    0  502  0.85449416832E+02 -0.28427455778E+03 -0.21662195345E+03  0.36747611862E+03  0.25500000920E-02 0.  1.
</event>
<event>
 5   0  0.1392854E-03  0.6000603E+03  0.7818609E-02  0.9905281E-01
       -1   -1    0    0    0  501  0.00000000000E+00  0.00000000000E+00  0.12190731292E+03  0.12190731303E+03  0.50400001928E-02 0. -1.
        1   -1    0    0  501    0  0.00000000000E+00  0.00000000000E+00 -0.73841412249E+03  0.73841412251E+03  0.50400001928E-02 0.  1.
    10030    2    1    2    0    0  0.00000000000E+00  0.00000000000E+00 -0.61650680957E+03  0.86032143554E+03  0.60006026880E+03 0.  0.
        4    1    3    3  502    0  0.21648709152E+03  0.17252322774E+03 -0.14237728013E+03  0.31129379644E+03  0.12699999809E+01 0. -1.
       -4    1    3    3    0  502 -0.21648709152E+03 -0.17252322774E+03 -0.47412952944E+03  0.54902763910E+03  0.12699999809E+01 0.  1.
</event>
<event>
 5   0  0.2324616E-03  0.6002268E+03  0.7818609E-02  0.9904936E-01
       -2   -1    0    0    0  501  0.00000000000E+00  0.00000000000E+00  0.10499010803E+03  0.10499010807E+03  0.25500000920E-02 0. -1.
        2   -1    0    0  501    0  0.00000000000E+00  0.00000000000E+00 -0.85787171106E+03  0.85787171107E+03  0.25500000920E-02 0.  1.
    10030    2    1    2    0    0  0.00000000000E+00  0.00000000000E+00 -0.75288160303E+03  0.96286181913E+03  0.60022676928E+03 0.  0.
        4    1    3    3  502    0 -0.18957372278E+03  0.10105210545E+03 -0.40267293489E+02  0.21856987947E+03  0.12699999809E+01 0. -1.
       -4    1    3    3    0  502  0.18957372278E+03 -0.10105210545E+03 -0.71261430954E+03  0.74429193966E+03  0.12699999809E+01 0.  1.
</event>
<event>
 5   0  0.2406307E-03  0.5985348E+03  0.7818609E-02  0.9908450E-01
        2   -1    0    0  501    0  0.00000000000E+00  0.00000000000E+00  0.33651460633E+03  0.33651460634E+03  0.25500000920E-02 0. -1.
       -2   -1    0    0    0  501  0.00000000000E+00  0.00000000000E+00 -0.26614293713E+03  0.26614293714E+03  0.25500000920E-02 0.  1.
    10030    2    1    2    0    0  0.00000000000E+00  0.00000000000E+00  0.70371669207E+02  0.60265754348E+03  0.59853483014E+03 0.  0.
        5    1    3    3  502    0 -0.18485485088E+03  0.17128321967E+03 -0.12726249020E+03  0.28235985664E+03  0.46999998093E+01 0. -1.
       -5    1    3    3    0  502  0.18485485088E+03 -0.17128321967E+03  0.19763415941E+03  0.32029768684E+03  0.46999998093E+01 0.  1.
</event>
<event>
 5   0  0.1392854E-03  0.6001144E+03  0.7818609E-02  0.9905169E-01
        1   -1    0    0  501    0  0.00000000000E+00  0.00000000000E+00  0.21969341056E+03  0.21969341062E+03  0.50400001928E-02 0.  1.
       -1   -1    0    0    0  501  0.00000000000E+00  0.00000000000E+00 -0.40981804282E+03  0.40981804285E+03  0.50400001928E-02 0. -1.
    10030    2    1    2    0    0  0.00000000000E+00  0.00000000000E+00 -0.19012463226E+03  0.62951145347E+03  0.60011440098E+03 0.  0.
        4    1    3    3  502    0  0.39461434638E+02  0.18569288873E+03  0.14868562656E+03  0.24113913452E+03  0.12699999809E+01 0.  1.
       -4    1    3    3    0  502 -0.39461434638E+02 -0.18569288873E+03 -0.33881025882E+03  0.38837231895E+03  0.12699999809E+01 0. -1.
</event>
<event>
 5   0  0.2324616E-03  0.5996271E+03  0.7818609E-02  0.9906180E-01
        2   -1    0    0  501    0  0.00000000000E+00  0.00000000000E+00  0.18309292893E+04  0.18309292893E+04  0.25500000920E-02 0. -1.
       -2   -1    0    0    0  501  0.00000000000E+00  0.00000000000E+00 -0.49094285118E+02  0.49094285184E+02  0.25500000920E-02 0.  1.
    10030    2    1    2    0    0  0.00000000000E+00  0.00000000000E+00  0.17818350042E+04  0.18800235745E+04  0.59962709953E+03 0.  0.
        4    1    3    3  502    0 -0.46064784150E+02  0.13265460570E+03  0.17214364759E+04  0.17271549908E+04  0.12699999809E+01 0. -1.
       -4    1    3    3    0  502  0.46064784150E+02 -0.13265460570E+03  0.60398528229E+02  0.15286858364E+03  0.12699999809E+01 0.  1.
</event>
<event>
 5   0  0.2346281E-03  0.5999119E+03  0.7818609E-02  0.9905589E-01
        2   -1    0    0  501    0  0.00000000000E+00  0.00000000000E+00  0.96437606980E+03  0.96437606980E+03  0.25500000920E-02 0.  1.
       -2   -1    0    0    0  501  0.00000000000E+00  0.00000000000E+00 -0.93297184538E+02  0.93297184572E+02  0.25500000920E-02 0. -1.
    10030    2    1    2    0    0  0.00000000000E+00  0.00000000000E+00  0.87107888526E+03  0.10576732544E+04  0.59991190076E+03 0.  0.
        3    1    3    3  502    0  0.16108797316E+03  0.12767369656E+03  0.82069031829E+03  0.84603931151E+03  0.10100000352E+00 0.  1.
       -3    1    3    3    0  502 -0.16108797316E+03 -0.12767369656E+03  0.50388566976E+02  0.21163394287E+03  0.10100000352E+00 0. -1.
</event>
<event>
 5   0  0.1418763E-03  0.6000397E+03  0.7818609E-02  0.9905324E-01
       -1   -1    0    0    0  501  0.00000000000E+00  0.00000000000E+00  0.61370827217E+02  0.61370827424E+02  0.50400001928E-02 0. -1.
        1   -1    0    0  501    0  0.00000000000E+00  0.00000000000E+00 -0.14666889436E+04  0.14666889436E+04  0.50400001928E-02 0.  1.
    10030    2    1    2    0    0  0.00000000000E+00  0.00000000000E+00 -0.14053181164E+04  0.15280597710E+04  0.60003971170E+03 0.  0.
        5    1    3    3  502    0  0.17230849285E+03  0.23856751175E+03 -0.55449281215E+03  0.62776511777E+03  0.46999998093E+01 0. -1.
       -5    1    3    3    0  502 -0.17230849285E+03 -0.23856751175E+03 -0.85082530424E+03  0.90029465327E+03  0.46999998093E+01 0.  1.
</event>
<event>
 5   0  0.2313168E-03  0.6000072E+03  0.7818609E-02  0.9905391E-01
        2   -1    0    0  501    0  0.00000000000E+00  0.00000000000E+00  0.75077486090E+03  0.75077486090E+03  0.25500000920E-02 0.  1.
       -2   -1    0    0    0  501  0.00000000000E+00  0.00000000000E+00 -0.11987903186E+03  0.11987903189E+03  0.25500000920E-02 0. -1.
    10030    2    1    2    0    0  0.00000000000E+00  0.00000000000E+00  0.63089582904E+03  0.87065389279E+03  0.60000721157E+03 0.  0.
        2    1    3    3  502    0  0.10341834886E+03 -0.24318750699E+03  0.52151370671E+03  0.58464695734E+03  0.25500000920E-02 0.  1.
       -2    1    3    3    0  502 -0.10341834886E+03  0.24318750699E+03  0.10938212233E+03  0.28600693545E+03  0.25500000920E-02 0. -1.
</event>
<event>
 5   0  0.1418763E-03  0.5997833E+03  0.7818609E-02  0.9905856E-01
        1   -1    0    0  501    0  0.00000000000E+00  0.00000000000E+00  0.63929518514E+03  0.63929518516E+03  0.50400001928E-02 0. -1.
       -1   -1    0    0    0  501  0.00000000000E+00  0.00000000000E+00 -0.14067837083E+03  0.14067837092E+03  0.50400001928E-02 0.  1.
    10030    2    1    2    0    0  0.00000000000E+00  0.00000000000E+00  0.49861681431E+03  0.77997355608E+03  0.59978331143E+03 0.  0.
        5    1    3    3  502    0 -0.58968669754E+02  0.48752310695E+02  0.62633948916E+03  0.63101294558E+03  0.46999998093E+01 0. -1.
       -5    1    3    3    0  502  0.58968669754E+02 -0.48752310695E+02 -0.12772267485E+03  0.14896061050E+03  0.46999998093E+01 0.  1.
</event>
<event>
 5   0  0.2313168E-03  0.6000519E+03  0.7818609E-02  0.9905298E-01
        2   -1    0    0  501    0  0.00000000000E+00  0.00000000000E+00  0.15892384790E+04  0.15892384790E+04  0.25500000920E-02 0.  1.
       -2   -1    0    0    0  501  0.00000000000E+00  0.00000000000E+00 -0.56640697671E+02  0.56640697728E+02  0.25500000920E-02 0. -1.
    10030    2    1    2    0    0  0.00000000000E+00  0.00000000000E+00  0.15325977814E+04  0.16458791768E+04  0.60005191864E+03 0.  0.
        2    1    3    3  502    0 -0.30108835575E+02 -0.57894956665E+02  0.15695372479E+04  0.15708932302E+04  0.25500000920E-02 0.  1.
       -2    1    3    3    0  502  0.30108835575E+02  0.57894956665E+02 -0.36939466572E+02  0.74985946577E+02  0.25500000920E-02 0. -1.
</event>
<event>
 5   0  0.1479385E-03  0.6006158E+03  0.7818609E-02  0.9904129E-01
       -1   -1    0    0    0  501  0.00000000000E+00  0.00000000000E+00  0.15082679980E+03  0.15082679988E+03  0.50400001928E-02 0. -1.
        1   -1    0    0  501    0  0.00000000000E+00  0.00000000000E+00 -0.59793641710E+03  0.59793641713E+03  0.50400001928E-02 0.  1.
    10030    2    1    2    0    0  0.00000000000E+00  0.00000000000E+00 -0.44710961730E+03  0.74876321701E+03  0.60061580504E+03 0.  0.
        3    1    3    3  502    0 -0.13188943784E+03  0.26389897640E+03 -0.29349375129E+03  0.41614430887E+03  0.10100000352E+00 0.  1.
       -3    1    3    3    0  502  0.13188943784E+03 -0.26389897640E+03 -0.15361586601E+03  0.33261890814E+03  0.10100000352E+00 0. -1.
</event>
<event>
 5   0  0.2346281E-03  0.5999263E+03  0.7818609E-02  0.9905559E-01
       -2   -1    0    0    0  501  0.00000000000E+00  0.00000000000E+00  0.80722354173E+02  0.80722354213E+02  0.25500000920E-02 0. -1.
        2   -1    0    0  501    0  0.00000000000E+00  0.00000000000E+00 -0.11146587607E+04  0.11146587607E+04  0.25500000920E-02 0.  1.
    10030    2    1    2    0    0  0.00000000000E+00  0.00000000000E+00 -0.10339364065E+04  0.11953811149E+04  0.59992625977E+03 0.  0.
        3    1    3    3  502    0 -0.15569498893E+02 -0.17902022061E+03 -0.38395057889E+02  0.18375211388E+03  0.10100000352E+00 0. -1.
       -3    1    3    3    0  502  0.15569498893E+02  0.17902022061E+03 -0.99554134865E+03  0.10116290010E+04  0.10100000352E+00 0.  1.
</event>
<event>
 5   0  0.1416315E-03  0.6000233E+03  0.7818609E-02  0.9905358E-01
        1   -1    0    0  501    0  0.00000000000E+00  0.00000000000E+00  0.15957979876E+04  0.15957979876E+04  0.50400001928E-02 0. -1.
       -1   -1    0    0    0  501  0.00000000000E+00  0.00000000000E+00 -0.56402492409E+02  0.56402492634E+02  0.50400001928E-02 0.  1.
    10030    2    1    2    0    0  0.00000000000E+00  0.00000000000E+00  0.15393954952E+04  0.16522004803E+04  0.60002327980E+03 0.  0.
        2    1    3    3  502    0  0.26227375756E+03 -0.14565218187E+03  0.76360118739E+03  0.82041992624E+03  0.25500000920E-02 0.  1.
       -2    1    3    3    0  502 -0.26227375756E+03  0.14565218187E+03  0.77579430784E+03  0.83178055404E+03  0.25500000920E-02 0. -1.
</event>
<event>
 5   0  0.1423430E-03  0.6000185E+03  0.7818609E-02  0.9905368E-01
       -1   -1    0    0    0  501  0.00000000000E+00  0.00000000000E+00  0.74554366785E+03  0.74554366786E+03  0.50400001928E-02 0.  1.
        1   -1    0    0  501    0  0.00000000000E+00  0.00000000000E+00 -0.12072469920E+03  0.12072469930E+03  0.50400001928E-02 0. -1.
    10030    2    1    2    0    0  0.00000000000E+00  0.00000000000E+00  0.62481896865E+03  0.86626836717E+03  0.60001845003E+03 0.  0.
        1    1    3    3  502    0  0.18063856228E+03 -0.44127564557E+02 -0.27491534839E+02  0.18797158469E+03  0.50400001928E-02 0. -1.
       -1    1    3    3    0  502 -0.18063856228E+03  0.44127564557E+02  0.65231050349E+03  0.67829678248E+03  0.50400001928E-02 0.  1.
</event>
<event>
 5   0  0.2313168E-03  0.5999552E+03  0.7818609E-02  0.9905499E-01
        2   -1    0    0  501    0  0.00000000000E+00  0.00000000000E+00  0.17813545021E+04  0.17813545021E+04  0.25500000920E-02 0.  1.
       -2   -1    0    0    0  501  0.00000000000E+00  0.00000000000E+00 -0.50515802081E+02  0.50515802145E+02  0.25500000920E-02 0. -1.
    10030    2    1    2    0    0  0.00000000000E+00  0.00000000000E+00  0.17308387000E+04  0.18318703042E+04  0.59995517007E+03 0.  0.
        2    1    3    3  502    0  0.20268386877E+03 -0.74368392285E+02  0.15013304160E+04  0.15167743493E+04  0.25500000920E-02 0.  1.
       -2    1    3    3    0  502 -0.20268386877E+03  0.74368392285E+02  0.22950828397E+03  0.31509595498E+03  0.25500000920E-02 0. -1.
</event>
<event>
 5   0  0.1479385E-03  0.5994737E+03  0.7818609E-02  0.9906498E-01
       -1   -1    0    0    0  501  0.00000000000E+00  0.00000000000E+00  0.21768482277E+03  0.21768482282E+03  0.50400001928E-02 0.  1.
        1   -1    0    0  501    0  0.00000000000E+00  0.00000000000E+00 -0.41271683056E+03  0.41271683059E+03  0.50400001928E-02 0. -1.
    10030    2    1    2    0    0  0.00000000000E+00  0.00000000000E+00 -0.19503200780E+03  0.63040165342E+03  0.59947373634E+03 0.  0.
        3    1    3    3  502    0  0.72724714338E+02 -0.16422936666E+03 -0.34985861739E+03  0.39326992170E+03  0.10100000352E+00 0. -1.
       -3    1    3    3    0  502 -0.72724714338E+02  0.16422936666E+03  0.15482660960E+03  0.23713173172E+03  0.10100000352E+00 0.  1.
</event>
<event>
 5   0  0.2324616E-03  0.5989008E+03  0.7818609E-02  0.9907689E-01
        2   -1    0    0  501    0  0.00000000000E+00  0.00000000000E+00  0.56065350554E+03  0.56065350555E+03  0.25500000920E-02 0. -1.
       -2   -1    0    0    0  501  0.00000000000E+00  0.00000000000E+00 -0.15993934729E+03  0.15993934731E+03  0.25500000920E-02 0.  1.
    10030    2    1    2    0    0  0.00000000000E+00  0.00000000000E+00  0.40071415825E+03  0.72059285285E+03  0.59890084568E+03 0.  0.
        4    1    3    3  502    0  0.37444959325E+02  0.24926468039E+03  0.58490901823E+01  0.25213256558E+03  0.12699999809E+01 0.  1.
       -4    1    3    3    0  502 -0.37444959325E+02 -0.24926468039E+03  0.39486506807E+03  0.46846028727E+03  0.12699999809E+01 0. -1.
</event>
<event>
 5   0  0.2346281E-03  0.5999614E+03  0.7818609E-02  0.9905486E-01
       -2   -1    0    0    0  501  0.00000000000E+00  0.00000000000E+00  0.96545178038E+02  0.96545178072E+02  0.25500000920E-02 0. -1.
        2   -1    0    0  501    0  0.00000000000E+00  0.00000000000E+00 -0.93208626805E+03  0.93208626805E+03  0.25500000920E-02 0.  1.
    10030    2    1    2    0    0  0.00000000000E+00  0.00000000000E+00 -0.83554109001E+03  0.10286314461E+04  0.59996144781E+03 0.  0.
        3    1    3    3  502    0 -0.29283925145E+03  0.59007662091E+02 -0.46477691840E+03  0.55249825833E+03  0.10100000352E+00 0. -1.
       -3    1    3    3    0  502  0.29283925145E+03 -0.59007662091E+02 -0.37076417161E+03  0.47613318780E+03  0.10100000352E+00 0.  1.
</event>
<event>
 5   0  0.2406307E-03  0.6000331E+03  0.7818609E-02  0.9905337E-01
       -2   -1    0    0    0  501  0.00000000000E+00  0.00000000000E+00  0.43733754777E+03  0.43733754778E+03  0.25500000920E-02 0.  1.
        2   -1    0    0  501    0  0.00000000000E+00  0.00000000000E+00 -0.20581341232E+03  0.20581341234E+03  0.25500000920E-02 0. -1.
    10030    2    1    2    0    0  0.00000000000E+00  0.00000000000E+00  0.23152413545E+03  0.64315096012E+03  0.60003310926E+03 0.  0.
        5    1    3    3  502    0 -0.95861512858E+01 -0.55118620401E+02 -0.20013262968E+03  0.20785840390E+03  0.46999998093E+01 0. -1.
       -5    1    3    3    0  502  0.95861512858E+01  0.55118620401E+02  0.43165676513E+03  0.43529255621E+03  0.46999998093E+01 0.  1.
</event>
<event>
 5   0  0.1392854E-03  0.6002433E+03  0.7818609E-02  0.9904901E-01
        1   -1    0    0  501    0  0.00000000000E+00  0.00000000000E+00  0.17136193308E+03  0.17136193315E+03  0.50400001928E-02 0. -1.
       -1   -1    0    0    0  501  0.00000000000E+00  0.00000000000E+00 -0.52563024152E+03  0.52563024155E+03  0.50400001928E-02 0.  1.
    10030    2    1    2    0    0  0.00000000000E+00  0.00000000000E+00 -0.35426830845E+03  0.69699217470E+03  0.60024333167E+03 0.  0.
        4    1    3    3  502    0 -0.39559128053E+02  0.29017492156E+03 -0.10094612902E+03  0.30977111483E+03  0.12699999809E+01 0. -1.
       -4    1    3    3    0  502  0.39559128053E+02 -0.29017492156E+03 -0.25332217942E+03  0.38722105987E+03  0.12699999809E+01 0.  1.
</event>
<event>
 5   0  0.1423430E-03  0.5995293E+03  0.7818609E-02  0.9906383E-01
       -1   -1    0    0    0  501  0.00000000000E+00  0.00000000000E+00  0.19960179337E+03  0.19960179344E+03  0.50400001928E-02 0. -1.
        1   -1    0    0  501    0  0.00000000000E+00  0.00000000000E+00 -0.45019051190E+03  0.45019051192E+03  0.50400001928E-02 0.  1.
    10030    2    1    2    0    0  0.00000000000E+00  0.00000000000E+00 -0.25058871852E+03  0.64979230536E+03  0.59952926055E+03 0.  0.
        1    1    3    3  502    0 -0.21638923930E+03 -0.18263344520E+03 -0.23192742216E+03  0.36601858882E+03  0.50400001928E-02 0.  1.
       -1    1    3    3    0  502  0.21638923930E+03  0.18263344520E+03 -0.18661296365E+02  0.28377371654E+03  0.50400001928E-02 0. -1.
</event>
<event>
 5   0  0.1418763E-03  0.5999523E+03  0.7818609E-02  0.9905505E-01
        1   -1    0    0  501    0  0.00000000000E+00  0.00000000000E+00  0.80313617715E+03  0.80313617717E+03  0.50400001928E-02 0. -1.
       -1   -1    0    0    0  501  0.00000000000E+00  0.00000000000E+00 -0.11204288878E+03  0.11204288889E+03  0.50400001928E-02 0.  1.
    10030    2    1    2    0    0  0.00000000000E+00  0.00000000000E+00  0.69109328838E+03  0.91517906606E+03  0.59995232287E+03 0.  0.
        5    1    3    3  502    0 -0.22109815276E+03  0.20257342486E+03  0.35557525688E+03  0.46516259407E+03  0.46999998093E+01 0. -1.
       -5    1    3    3    0  502  0.22109815276E+03 -0.20257342486E+03  0.33551803149E+03  0.45001647200E+03  0.46999998093E+01 0.  1.
</event>
<event>
 5   0  0.2324616E-03  0.6000515E+03  0.7818609E-02  0.9905299E-01
       -2   -1    0    0    0  501  0.00000000000E+00  0.00000000000E+00  0.92368811416E+02  0.92368811451E+02  0.25500000920E-02 0.  1.
        2   -1    0    0  501    0  0.00000000000E+00  0.00000000000E+00 -0.97452206861E+03  0.97452206861E+03  0.25500000920E-02 0. -1.
    10030    2    1    2    0    0  0.00000000000E+00  0.00000000000E+00 -0.88215325720E+03  0.10668908801E+04  0.60005148178E+03 0.  0.
        4    1    3    3  502    0 -0.14721029853E+03 -0.16236326706E+03 -0.76777148571E+02  0.23222628172E+03  0.12699999809E+01 0.  1.
       -4    1    3    3    0  502  0.14721029853E+03  0.16236326706E+03 -0.80537610862E+03  0.83466459834E+03  0.12699999809E+01 0. -1.
</event>
<event>
 5   0  0.2324616E-03  0.5993904E+03  0.7818609E-02  0.9906672E-01
       -2   -1    0    0    0  501  0.00000000000E+00  0.00000000000E+00  0.11494641073E+03  0.11494641076E+03  0.25500000920E-02 0.  1.
        2   -1    0    0  501    0  0.00000000000E+00  0.00000000000E+00 -0.78138333558E+03  0.78138333558E+03  0.25500000920E-02 0. -1.
    10030    2    1    2    0    0  0.00000000000E+00  0.00000000000E+00 -0.66643692485E+03  0.89632974634E+03  0.59939038979E+03 0.  0.
        4    1    3    3  502    0  0.41352647581E+02  0.24909533073E+03 -0.57460933130E+03  0.62764322809E+03  0.12699999809E+01 0. -1.
       -4    1    3    3    0  502 -0.41352647581E+02 -0.24909533073E+03 -0.91827593549E+02  0.26868651825E+03  0.12699999809E+01 0.  1.
</event>
<event>
 5   0  0.2406307E-03  0.6008976E+03  0.7818609E-02  0.9903546E-01
       -2   -1    0    0    0  501  0.00000000000E+00  0.00000000000E+00  0.61082401264E+02  0.61082401318E+02  0.25500000920E-02 0.  1.
        2   -1    0    0  501    0  0.00000000000E+00  0.00000000000E+00 -0.14778313064E+04  0.14778313064E+04  0.25500000920E-02 0. -1.
    10030    2    1    2    0    0  0.00000000000E+00  0.00000000000E+00 -0.14167489051E+04  0.15389137077E+04  0.60089761158E+03 0.  0.
        5    1    3    3  502    0  0.63495151994E+02 -0.26499004780E+03 -0.38446772750E+03  0.47126307223E+03  0.46999998093E+01 0.  1.
       -5    1    3    3    0  502 -0.63495151994E+02  0.26499004780E+03 -0.10322811776E+04  0.10676506355E+04  0.46999998093E+01 0. -1.
</event>
<event>
 5   0  0.2324616E-03  0.5999719E+03  0.7818609E-02  0.9905464E-01
       -2   -1    0    0    0  501  0.00000000000E+00  0.00000000000E+00  0.20008118908E+04  0.20008118908E+04  0.25500000920E-02 0. -1.
        2   -1    0    0  501    0  0.00000000000E+00  0.00000000000E+00 -0.44977519233E+02  0.44977519305E+02  0.25500000920E-02 0.  1.
    10030    2    1    2    0    0  0.00000000000E+00  0.00000000000E+00  0.19558343716E+04  0.20457894101E+04  0.59997185059E+03 0.  0.
        4    1    3    3  502    0  0.28052485143E+03  0.51149999937E+02  0.66024762932E+03  0.71919333957E+03  0.12699999809E+01 0.  1.
       -4    1    3    3    0  502 -0.28052485143E+03 -0.51149999937E+02  0.12955867422E+04  0.13265960705E+04  0.12699999809E+01 0. -1.
</event>
<event>
 5   0  0.2313168E-03  0.6000500E+03  0.7818609E-02  0.9905302E-01
       -2   -1    0    0    0  501  0.00000000000E+00  0.00000000000E+00  0.12112998641E+03  0.12112998644E+03  0.25500000920E-02 0. -1.
        2   -1    0    0  501    0  0.00000000000E+00  0.00000000000E+00 -0.74312729454E+03  0.74312729455E+03  0.25500000920E-02 0.  1.
    10030    2    1    2    0    0  0.00000000000E+00  0.00000000000E+00 -0.62199730813E+03  0.86425728098E+03  0.60004999493E+03 0.  0.
        2    1    3    3  502    0 -0.92793764325E+02 -0.28032096765E+03 -0.38754495501E+03  0.48721824654E+03  0.25500000920E-02 0.  1.
       -2    1    3    3    0  502  0.92793764325E+02  0.28032096765E+03 -0.23445235313E+03  0.37703903444E+03  0.25500000920E-02 0. -1.
</event>
<event>
 5   0  0.2406307E-03  0.6000342E+03  0.7818609E-02  0.9905335E-01
        2   -1    0    0  501    0  0.00000000000E+00  0.00000000000E+00  0.57070150286E+03  0.57070150286E+03  0.25500000920E-02 0.  1.
       -2   -1    0    0    0  501  0.00000000000E+00  0.00000000000E+00 -0.15771865588E+03  0.15771865591E+03  0.25500000920E-02 0. -1.
    10030    2    1    2    0    0  0.00000000000E+00  0.00000000000E+00  0.41298284697E+03  0.72842015877E+03  0.60003424553E+03 0.  0.
        5    1    3    3  502    0  0.19162993864E+03  0.20184610085E+03  0.34234863204E+03  0.44123526340E+03  0.46999998093E+01 0.  1.
       -5    1    3    3    0  502 -0.19162993864E+03 -0.20184610085E+03  0.70634214935E+02  0.28718489537E+03  0.46999998093E+01 0. -1.
</event>
<event>
 5   0  0.2406307E-03  0.5998714E+03  0.7818609E-02  0.9905673E-01
       -2   -1    0    0    0  501  0.00000000000E+00  0.00000000000E+00  0.77081529787E+03  0.77081529787E+03  0.25500000920E-02 0. -1.
        2   -1    0    0  501    0  0.00000000000E+00  0.00000000000E+00 -0.11670945831E+03  0.11670945834E+03  0.25500000920E-02 0.  1.
    10030    2    1    2    0    0  0.00000000000E+00  0.00000000000E+00  0.65410583956E+03  0.88752475621E+03  0.59987143918E+03 0.  0.
        5    1    3    3  502    0  0.27261694433E+03  0.10044694588E+03  0.43707386659E+03  0.52484782759E+03  0.46999998093E+01 0. -1.
       -5    1    3    3    0  502 -0.27261694433E+03 -0.10044694588E+03  0.21703197297E+03  0.36267692862E+03  0.46999998093E+01 0.  1.
</event>
<event>
 5   0  0.9496750E-04  0.5999830E+03  0.7818609E-02  0.9905441E-01
        4   -1    0    0  501    0  0.00000000000E+00  0.00000000000E+00  0.35467880349E+03  0.35468107723E+03  0.12699999809E+01 0. -1.
       -4   -1    0    0    0  501  0.00000000000E+00  0.00000000000E+00 -0.25373166121E+03  0.25373483954E+03  0.12699999809E+01 0.  1.
    10030    2    1    2    0    0  0.00000000000E+00  0.00000000000E+00  0.10094714229E+03  0.60841591678E+03  0.59998300164E+03 0.  0.
        5    1    3    3  502    0  0.12380599326E+03  0.10026753724E+03 -0.20724674708E+03  0.26144752278E+03  0.46999998093E+01 0.  1.
       -5    1    3    3    0  502 -0.12380599326E+03 -0.10026753724E+03  0.30819388937E+03  0.34696839400E+03  0.46999998093E+01 0. -1.
</event>
<event>
 5   0  0.1416315E-03  0.6003022E+03  0.7818609E-02  0.9904779E-01
        1   -1    0    0  501    0  0.00000000000E+00  0.00000000000E+00  0.10759641768E+04  0.10759641768E+04  0.50400001928E-02 0.  1.
       -1   -1    0    0    0  501  0.00000000000E+00  0.00000000000E+00 -0.83730193711E+02  0.83730193863E+02  0.50400001928E-02 0. -1.
    10030    2    1    2    0    0  0.00000000000E+00  0.00000000000E+00  0.99223398312E+03  0.11596943707E+04  0.60030222071E+03 0.  0.
        2    1    3    3  502    0 -0.10549836969E+03 -0.18130078791E+03  0.81372375713E+02  0.22499187817E+03  0.25500000920E-02 0. -1.
       -2    1    3    3    0  502  0.10549836969E+03  0.18130078791E+03  0.91086160740E+03  0.93470249254E+03  0.25500000920E-02 0.  1.
</event>
<event>
 5   0  0.9496750E-04  0.6001527E+03  0.7818609E-02  0.9905089E-01
        4   -1    0    0  501    0  0.00000000000E+00  0.00000000000E+00  0.29457532287E+03  0.29457806053E+03  0.12699999809E+01 0. -1.
       -4   -1    0    0    0  501  0.00000000000E+00  0.00000000000E+00 -0.30567458879E+03  0.30567722704E+03  0.12699999809E+01 0.  1.
    10030    2    1    2    0    0  0.00000000000E+00  0.00000000000E+00 -0.11099265919E+02  0.60025528757E+03  0.60015266104E+03 0.  0.
        4    1    3    3  502    0  0.19752062335E+02 -0.28783455965E+03  0.76958797923E+02  0.29860198790E+03  0.12699999809E+01 0. -1.
       -4    1    3    3    0  502 -0.19752062335E+02  0.28783455965E+03 -0.88058063842E+02  0.30165329968E+03  0.12699999809E+01 0.  1.
</event>
<event>
 5   0  0.1479385E-03  0.6004147E+03  0.7818609E-02  0.9904546E-01
        1   -1    0    0  501    0  0.00000000000E+00  0.00000000000E+00  0.25549244362E+03  0.25549244367E+03  0.50400001928E-02 0.  1.
       -1   -1    0    0    0  501  0.00000000000E+00  0.00000000000E+00 -0.35274798439E+03  0.35274798442E+03  0.50400001928E-02 0. -1.
    10030    2    1    2    0    0  0.00000000000E+00  0.00000000000E+00 -0.97255540771E+02  0.60824042809E+03  0.60041467183E+03 0.  0.
        3    1    3    3  502    0  0.12458160782E+03  0.26920487170E+03 -0.95409698501E+02  0.31160048255E+03  0.10100000352E+00 0.  1.
       -3    1    3    3    0  502 -0.12458160782E+03 -0.26920487170E+03 -0.18458422708E+01  0.29663994554E+03  0.10100000352E+00 0. -1.
</event>
<event>
 5   0  0.2346281E-03  0.5997010E+03  0.7818609E-02  0.9906027E-01
       -2   -1    0    0    0  501  0.00000000000E+00  0.00000000000E+00  0.15919938152E+03  0.15919938154E+03  0.25500000920E-02 0. -1.
        2   -1    0    0  501    0  0.00000000000E+00  0.00000000000E+00 -0.56476546208E+03  0.56476546209E+03  0.25500000920E-02 0.  1.
    10030    2    1    2    0    0  0.00000000000E+00  0.00000000000E+00 -0.40556608057E+03  0.72396484362E+03  0.59970096640E+03 0.  0.
        3    1    3    3  502    0  0.35719784228E+02 -0.28102136499E+03 -0.84123525268E+02  0.29550920167E+03  0.10100000352E+00 0. -1.
       -3    1    3    3    0  502 -0.35719784228E+02  0.28102136499E+03 -0.32144255530E+03  0.42845564196E+03  0.10100000352E+00 0.  1.
</event>
<event>
 5   0  0.1423430E-03  0.6001059E+03  0.7818609E-02  0.9905186E-01
        1   -1    0    0  501    0  0.00000000000E+00  0.00000000000E+00  0.20166735402E+03  0.20166735408E+03  0.50400001928E-02 0. -1.
       -1   -1    0    0    0  501  0.00000000000E+00  0.00000000000E+00 -0.44643695006E+03  0.44643695009E+03  0.50400001928E-02 0.  1.
    10030    2    1    2    0    0  0.00000000000E+00  0.00000000000E+00 -0.24476959604E+03  0.64810430417E+03  0.60010585228E+03 0.  0.
        1    1    3    3  502    0  0.79149547980E+02  0.33826917252E+02 -0.43281725482E+03  0.44129319887E+03  0.50400001928E-02 0.  1.
       -1    1    3    3    0  502 -0.79149547980E+02 -0.33826917252E+02  0.18804765878E+03  0.20681110530E+03  0.50400001928E-02 0. -1.
</event>
<event>
 5   0  0.1416315E-03  0.5999522E+03  0.7818609E-02  0.9905505E-01
       -1   -1    0    0    0  501  0.00000000000E+00  0.00000000000E+00  0.17995454130E+03  0.17995454137E+03  0.50400001928E-02 0. -1.
        1   -1    0    0  501    0  0.00000000000E+00  0.00000000000E+00 -0.50004660462E+03  0.50004660464E+03  0.50400001928E-02 0.  1.
    10030    2    1    2    0    0  0.00000000000E+00  0.00000000000E+00 -0.32009206332E+03  0.68000114601E+03  0.59995218941E+03 0.  0.
        2    1    3    3  502    0 -0.55124214441E+02  0.77055792609E+02  0.16255122125E+03  0.18814668142E+03  0.25500000920E-02 0. -1.
       -2    1    3    3    0  502  0.55124214441E+02 -0.77055792609E+02 -0.48264328457E+03  0.49185446459E+03  0.25500000920E-02 0.  1.
</event>
<event>
 5   0  0.1418763E-03  0.6000309E+03  0.7818609E-02  0.9905342E-01
       -1   -1    0    0    0  501  0.00000000000E+00  0.00000000000E+00  0.20826991183E+03  0.20826991189E+03  0.50400001928E-02 0. -1.
        1   -1    0    0  501    0  0.00000000000E+00  0.00000000000E+00 -0.43217610803E+03  0.43217610806E+03  0.50400001928E-02 0.  1.
    10030    2    1    2    0    0  0.00000000000E+00  0.00000000000E+00 -0.22390619620E+03  0.64044601995E+03  0.60003093235E+03 0.  0.
        5    1    3    3  502    0  0.28660031486E+02 -0.58600564466E+02 -0.42447450995E+03  0.42948355400E+03  0.46999998093E+01 0.  1.
       -5    1    3    3    0  502 -0.28660031486E+02  0.58600564466E+02  0.20056831375E+03  0.21096246595E+03  0.46999998093E+01 0. -1.
</event>
<event>
 5   0  0.2313168E-03  0.6000826E+03  0.7818609E-02  0.9905235E-01
        2   -1    0    0  501    0  0.00000000000E+00  0.00000000000E+00  0.12129445714E+04  0.12129445714E+04  0.25500000920E-02 0. -1.
       -2   -1    0    0    0  501  0.00000000000E+00  0.00000000000E+00 -0.74220020019E+02  0.74220020063E+02  0.25500000920E-02 0.  1.
    10030    2    1    2    0    0  0.00000000000E+00  0.00000000000E+00  0.11387245514E+04  0.12871645915E+04  0.60008256233E+03 0.  0.
        2    1    3    3  502    0  0.58975248262E+02  0.19880465686E+03  0.10422613410E+03  0.23208717874E+03  0.25500000920E-02 0.  1.
       -2    1    3    3    0  502 -0.58975248262E+02 -0.19880465686E+03  0.10344984173E+04  0.10550774127E+04  0.25500000920E-02 0. -1.
</event>
<event>
 5   0  0.2324616E-03  0.6003246E+03  0.7818609E-02  0.9904733E-01
        2   -1    0    0  501    0  0.00000000000E+00  0.00000000000E+00  0.30037344582E+03  0.30037344583E+03  0.25500000920E-02 0. -1.
       -2   -1    0    0    0  501  0.00000000000E+00  0.00000000000E+00 -0.29995129482E+03  0.29995129483E+03  0.25500000920E-02 0.  1.
    10030    2    1    2    0    0  0.00000000000E+00  0.00000000000E+00  0.42215099198E+00  0.60032474066E+03  0.60032459223E+03 0.  0.
        4    1    3    3  502    0 -0.30312991474E+02 -0.26955347842E+03 -0.12831068958E+03  0.30007199326E+03  0.12699999809E+01 0.  1.
       -4    1    3    3    0  502  0.30312991474E+02  0.26955347842E+03  0.12873284057E+03  0.30025274740E+03  0.12699999809E+01 0. -1.
</event>
<event>
 5   0  0.1479385E-03  0.6000309E+03  0.7818609E-02  0.9905342E-01
        1   -1    0    0  501    0  0.00000000000E+00  0.00000000000E+00  0.44072622045E+03  0.44072622048E+03  0.50400001928E-02 0.  1.
       -1   -1    0    0    0  501  0.00000000000E+00  0.00000000000E+00 -0.20422945204E+03  0.20422945210E+03  0.50400001928E-02 0. -1.
    10030    2    1    2    0    0  0.00000000000E+00  0.00000000000E+00  0.23649676841E+03  0.64495567258E+03  0.60003091431E+03 0.  0.
        3    1    3    3  502    0 -0.21658465349E+03  0.18750956298E+03  0.22467111614E+02  0.28735610250E+03  0.10100000352E+00 0. -1.
       -3    1    3    3    0  502  0.21658465349E+03 -0.18750956298E+03  0.21402965680E+03  0.35759957009E+03  0.10100000352E+00 0.  1.
</event>
<event>
 5   0  0.2313168E-03  0.6002930E+03  0.7818609E-02  0.9904798E-01
        2   -1    0    0  501    0  0.00000000000E+00  0.00000000000E+00  0.12351441120E+03  0.12351441123E+03  0.25500000920E-02 0. -1.
       -2   -1    0    0    0  501  0.00000000000E+00  0.00000000000E+00 -0.72937163397E+03  0.72937163398E+03  0.25500000920E-02 0.  1.
    10030    2    1    2    0    0  0.00000000000E+00  0.00000000000E+00 -0.60585722277E+03  0.85288604521E+03  0.60029295492E+03 0.  0.
        2    1    3    3  502    0  0.31931303561E+02  0.20085661783E+03 -0.61654830368E+03  0.64922630866E+03  0.25500000920E-02 0.  1.
       -2    1    3    3    0  502 -0.31931303561E+02 -0.20085661783E+03  0.10691080911E+02  0.20365973655E+03  0.25500000920E-02 0. -1.
</event>
<event>
 5   0  0.1418763E-03  0.6001054E+03  0.7818609E-02  0.9905187E-01
        1   -1    0    0  501    0  0.00000000000E+00  0.00000000000E+00  0.40475966881E+03  0.40475966884E+03  0.50400001928E-02 0.  1.
       -1   -1    0    0    0  501  0.00000000000E+00  0.00000000000E+00 -0.22243226947E+03  0.22243226952E+03  0.50400001928E-02 0. -1.
    10030    2    1    2    0    0  0.00000000000E+00  0.00000000000E+00  0.18232739935E+03  0.62719193837E+03  0.60010536325E+03 0.  0.
        5    1    3    3  502    0  0.58722992804E+02 -0.22388923285E+03 -0.10833074954E+03  0.25560207308E+03  0.46999998093E+01 0. -1.
       -5    1    3    3    0  502 -0.58722992804E+02  0.22388923285E+03  0.29065814889E+03  0.37158986528E+03  0.46999998093E+01 0.  1.
</event>
<event>
 5   0  0.1418763E-03  0.5999900E+03  0.7818609E-02  0.9905427E-01
        1   -1    0    0  501    0  0.00000000000E+00  0.00000000000E+00  0.85049622899E+02  0.85049623048E+02  0.50400001928E-02 0.  1.
       -1   -1    0    0    0  501  0.00000000000E+00  0.00000000000E+00 -0.10581704531E+04  0.10581704531E+04  0.50400001928E-02 0. -1.
    10030    2    1    2    0    0  0.00000000000E+00  0.00000000000E+00 -0.97312083020E+03  0.11432200762E+04  0.59998999355E+03 0.  0.
        5    1    3    3  502    0  0.43103818996E+02  0.29170332178E+02 -0.10494309577E+04  0.10507313036E+04  0.46999998093E+01 0. -1.
       -5    1    3    3    0  502 -0.43103818996E+02 -0.29170332178E+02  0.76310127475E+02  0.92488772534E+02  0.46999998093E+01 0.  1.
</event>
<event>
 5   0  0.1392854E-03  0.5994810E+03  0.7818609E-02  0.9906483E-01
       -1   -1    0    0    0  501  0.00000000000E+00  0.00000000000E+00  0.68079118084E+02  0.68079118271E+02  0.50400001928E-02 0. -1.
        1   -1    0    0  501    0  0.00000000000E+00  0.00000000000E+00 -0.13197053870E+04  0.13197053870E+04  0.50400001928E-02 0.  1.
    10030    2    1    2    0    0  0.00000000000E+00  0.00000000000E+00 -0.12516262689E+04  0.13877845053E+04  0.59948103894E+03 0.  0.
        4    1    3    3  502    0 -0.13987593446E+03 -0.94580417142E+02 -0.52502145781E+02  0.17682991987E+03  0.12699999809E+01 0. -1.
       -4    1    3    3    0  502  0.13987593446E+03  0.94580417142E+02 -0.11991241231E+04  0.12109545854E+04  0.12699999809E+01 0.  1.
</event>
<event>
 5   0  0.1416315E-03  0.6001113E+03  0.7818609E-02  0.9905175E-01
        1   -1    0    0  501    0  0.00000000000E+00  0.00000000000E+00  0.94721111789E+02  0.94721111923E+02  0.50400001928E-02 0.  1.
       -1   -1    0    0    0  501  0.00000000000E+00  0.00000000000E+00 -0.95051017002E+03  0.95051017004E+03  0.50400001928E-02 0. -1.
    10030    2    1    2    0    0  0.00000000000E+00  0.00000000000E+00 -0.85578905823E+03  0.10452312820E+04  0.60011125685E+03 0.  0.
        2    1    3    3  502    0 -0.16213403162E+03  0.91258913752E+02 -0.17874514448E+02  0.18690942144E+03  0.25500000920E-02 0.  1.
       -2    1    3    3    0  502  0.16213403162E+03 -0.91258913752E+02 -0.83791454379E+03  0.85832186052E+03  0.25500000920E-02 0. -1.
</event>
<event>
 5   0  0.1418763E-03  0.6003144E+03  0.7818609E-02  0.9904754E-01
       -1   -1    0    0    0  501  0.00000000000E+00  0.00000000000E+00  0.17140893109E+03  0.17140893117E+03  0.50400001928E-02 0. -1.
        1   -1    0    0  501    0  0.00000000000E+00  0.00000000000E+00 -0.52561053318E+03  0.52561053321E+03  0.50400001928E-02 0.  1.
    10030    2    1    2    0    0  0.00000000000E+00  0.00000000000E+00 -0.35420160209E+03  0.69701946438E+03  0.60031438330E+03 0.  0.
        5    1    3    3  502    0  0.82834654049E+02 -0.18412302581E+03  0.80727705522E+02  0.21749004801E+03  0.46999998093E+01 0. -1.
       -5    1    3    3    0  502 -0.82834654049E+02  0.18412302581E+03 -0.43492930761E+03  0.47952941637E+03  0.46999998093E+01 0.  1.
</event>
<event>
 5   0  0.1423430E-03  0.5997920E+03  0.7818609E-02  0.9905838E-01
       -1   -1    0    0    0  501  0.00000000000E+00  0.00000000000E+00  0.15526541069E+03  0.15526541077E+03  0.50400001928E-02 0.  1.
        1   -1    0    0  501    0  0.00000000000E+00  0.00000000000E+00 -0.57925081302E+03  0.57925081305E+03  0.50400001928E-02 0. -1.
    10030    2    1    2    0    0  0.00000000000E+00  0.00000000000E+00 -0.42398540233E+03  0.73451622382E+03  0.59979201533E+03 0.  0.
        1    1    3    3  502    0 -0.15784638889E+03 -0.13698670585E+02 -0.52381252841E+03  0.54725012654E+03  0.50400001928E-02 0. -1.
       -1    1    3    3    0  502  0.15784638889E+03  0.13698670585E+02  0.99827126071E+02  0.18726609727E+03  0.50400001928E-02 0.  1.
</event>
<event>
 5   0  0.2346281E-03  0.5997590E+03  0.7818609E-02  0.9905906E-01
        2   -1    0    0  501    0  0.00000000000E+00  0.00000000000E+00  0.27783580973E+04  0.27783580973E+04  0.25500000920E-02 0.  1.
       -2   -1    0    0    0  501  0.00000000000E+00  0.00000000000E+00 -0.32367214913E+02  0.32367215014E+02  0.25500000920E-02 0. -1.
    10030    2    1    2    0    0  0.00000000000E+00  0.00000000000E+00  0.27459908824E+04  0.28107253123E+04  0.59975899754E+03 0.  0.
        3    1    3    3  502    0 -0.17000093489E+03 -0.10817084175E+03  0.24138297130E+04  0.24222252460E+04  0.10100000352E+00 0.  1.
       -3    1    3    3    0  502  0.17000093489E+03  0.10817084175E+03  0.33216116940E+03  0.38850006631E+03  0.10100000352E+00 0. -1.
</event>
<event>
 5   0  0.2346281E-03  0.5999362E+03  0.7818609E-02  0.9905538E-01
        2   -1    0    0  501    0  0.00000000000E+00  0.00000000000E+00  0.86844443239E+03  0.86844443239E+03  0.25500000920E-02 0. -1.
       -2   -1    0    0    0  501  0.00000000000E+00  0.00000000000E+00 -0.10361153002E+03  0.10361153005E+03  0.25500000920E-02 0.  1.
    10030    2    1    2    0    0  0.00000000000E+00  0.00000000000E+00  0.76483290237E+03  0.97205596244E+03  0.59993618459E+03 0.  0.
        3    1    3    3  502    0  0.10483785169E+03  0.27006430025E+03  0.25633579004E+03  0.38682521747E+03  0.10100000352E+00 0.  1.
       -3    1    3    3    0  502 -0.10483785169E+03 -0.27006430025E+03  0.50849711233E+03  0.58523074497E+03  0.10100000352E+00 0. -1.
</event>
<event>
 5   0  0.1418763E-03  0.5999708E+03  0.7818609E-02  0.9905467E-01
       -1   -1    0    0    0  501  0.00000000000E+00  0.00000000000E+00  0.78913282755E+02  0.78913282916E+02  0.50400001928E-02 0.  1.
        1   -1    0    0  501    0  0.00000000000E+00  0.00000000000E+00 -0.11403812148E+04  0.11403812148E+04  0.50400001928E-02 0. -1.
    10030    2    1    2    0    0  0.00000000000E+00  0.00000000000E+00 -0.10614679320E+04  0.12192944977E+04  0.59997075047E+03 0.  0.
        5    1    3    3  502    0 -0.25917837564E+03  0.14954538957E+03 -0.48850010422E+03  0.57288017575E+03  0.46999998093E+01 0. -1.
       -5    1    3    3    0  502  0.25917837564E+03 -0.14954538957E+03 -0.57296782781E+03  0.64641432196E+03  0.46999998093E+01 0.  1.
</event>
<event>
 5   0  0.1423430E-03  0.6001612E+03  0.7818609E-02  0.9905072E-01
        1   -1    0    0  501    0  0.00000000000E+00  0.00000000000E+00  0.18076228958E+04  0.18076228958E+04  0.50400001928E-02 0. -1.
       -1   -1    0    0    0  501  0.00000000000E+00  0.00000000000E+00 -0.49815895793E+02  0.49815896048E+02  0.50400001928E-02 0.  1.
    10030    2    1    2    0    0  0.00000000000E+00  0.00000000000E+00  0.17578070000E+04  0.18574387918E+04  0.60016115853E+03 0.  0.
        1    1    3    3  502    0  0.55030132593E+02  0.29201852610E+03  0.10081954800E+04  0.10510762394E+04  0.50400001928E-02 0.  1.
       -1    1    3    3    0  502 -0.55030132593E+02 -0.29201852610E+03  0.74961152004E+03  0.80636255250E+03  0.50400001928E-02 0. -1.
</event>
<event>
 5   0  0.1479385E-03  0.6004464E+03  0.7818609E-02  0.9904480E-01
        1   -1    0    0  501    0  0.00000000000E+00  0.00000000000E+00  0.58398888690E+03  0.58398888692E+03  0.50400001928E-02 0. -1.
       -1   -1    0    0    0  501  0.00000000000E+00  0.00000000000E+00 -0.15434194335E+03  0.15434194343E+03  0.50400001928E-02 0.  1.
    10030    2    1    2    0    0  0.00000000000E+00  0.00000000000E+00  0.42964694356E+03  0.73833083035E+03  0.60044643303E+03 0.  0.
        3    1    3    3  502    0  0.61786115968E+02  0.10499119898E+03  0.55223108812E+03  0.56550849762E+03  0.10100000352E+00 0. -1.
       -3    1    3    3    0  502 -0.61786115968E+02 -0.10499119898E+03 -0.12258414457E+03  0.17282233273E+03  0.10100000352E+00 0.  1.
</event>
<event>
 5   0  0.2313168E-03  0.6000288E+03  0.7818609E-02  0.9905346E-01
        2   -1    0    0  501    0  0.00000000000E+00  0.00000000000E+00  0.19511362436E+04  0.19511362436E+04  0.25500000920E-02 0.  1.
       -2   -1    0    0    0  501  0.00000000000E+00  0.00000000000E+00 -0.46131401122E+02  0.46131401193E+02  0.25500000920E-02 0. -1.
    10030    2    1    2    0    0  0.00000000000E+00  0.00000000000E+00  0.19050048425E+04  0.19972676448E+04  0.60002882855E+03 0.  0.
        2    1    3    3  502    0 -0.14357572101E+03  0.26287292825E+03  0.10094290836E+04  0.10529307854E+04  0.25500000920E-02 0.  1.
       -2    1    3    3    0  502  0.14357572101E+03 -0.26287292825E+03  0.89557575891E+03  0.94433685940E+03  0.25500000920E-02 0. -1.
</event>
<event>
 5   0  0.2313168E-03  0.5998182E+03  0.7818609E-02  0.9905783E-01
        2   -1    0    0  501    0  0.00000000000E+00  0.00000000000E+00  0.13239221190E+04  0.13239221190E+04  0.25500000920E-02 0.  1.
       -2   -1    0    0    0  501  0.00000000000E+00  0.00000000000E+00 -0.67938636252E+02  0.67938636300E+02  0.25500000920E-02 0. -1.
    10030    2    1    2    0    0  0.00000000000E+00  0.00000000000E+00  0.12559834828E+04  0.13918607553E+04  0.59981818347E+03 0.  0.
        2    1    3    3  502    0 -0.60112216768E+02  0.12541575884E+03  0.12445687789E+04  0.12523154701E+04  0.25500000920E-02 0.  1.
       -2    1    3    3    0  502  0.60112216768E+02 -0.12541575884E+03  0.11414703894E+02  0.13954528527E+03  0.25500000920E-02 0. -1.
</event>
<event>
 5   0  0.1392854E-03  0.6000033E+03  0.7818609E-02  0.9905399E-01
        1   -1    0    0  501    0  0.00000000000E+00  0.00000000000E+00  0.26003629252E+03  0.26003629257E+03  0.50400001928E-02 0. -1.
       -1   -1    0    0    0  501  0.00000000000E+00  0.00000000000E+00 -0.34610930127E+03  0.34610930131E+03  0.50400001928E-02 0.  1.
    10030    2    1    2    0    0  0.00000000000E+00  0.00000000000E+00 -0.86073008747E+02  0.60614559388E+03  0.60000326511E+03 0.  0.
        4    1    3    3  502    0 -0.64514152476E+01 -0.50930611415E+02  0.25556304178E+03  0.26067149664E+03  0.12699999809E+01 0. -1.
       -4    1    3    3    0  502  0.64514152476E+01  0.50930611415E+02 -0.34163605053E+03  0.34547409723E+03  0.12699999809E+01 0.  1.
</event>
<event>
 5   0  0.2421210E-03  0.5997608E+03  0.7818609E-02  0.9905902E-01
        2   -1    0    0  501    0  0.00000000000E+00  0.00000000000E+00  0.97693129926E+03  0.97693129926E+03  0.25500000920E-02 0. -1.
       -2   -1    0    0    0  501  0.00000000000E+00  0.00000000000E+00 -0.92051783979E+02  0.92051784014E+02  0.25500000920E-02 0.  1.
    10030    2    1    2    0    0  0.00000000000E+00  0.00000000000E+00  0.88487951528E+03  0.10689830833E+04  0.59976084881E+03 0.  0.
        1    1    3    3  502    0  0.15577369025E+03 -0.24890339586E+03  0.33387838242E+03  0.44462694173E+03  0.50400001928E-02 0.  1.
       -1    1    3    3    0  502 -0.15577369025E+03  0.24890339586E+03  0.55100113286E+03  0.62435614155E+03  0.50400001928E-02 0. -1.
</event>
<event>
 5   0  0.1418763E-03  0.5978450E+03  0.7818609E-02  0.9909887E-01
       -1   -1    0    0    0  501  0.00000000000E+00  0.00000000000E+00  0.62541331168E+03  0.62541331170E+03  0.50400001928E-02 0. -1.
        1   -1    0    0  501    0  0.00000000000E+00  0.00000000000E+00 -0.14287295584E+03  0.14287295593E+03  0.50400001928E-02 0.  1.
    10030    2    1    2    0    0  0.00000000000E+00  0.00000000000E+00  0.48254035584E+03  0.76828626762E+03  0.59784495817E+03 0.  0.
        5    1    3    3  502    0  0.36769971452E+02 -0.77565923950E+02 -0.12664374072E+03  0.15306609821E+03  0.46999998093E+01 0.  1.
       -5    1    3    3    0  502 -0.36769971452E+02  0.77565923950E+02  0.60918409656E+03  0.61522016942E+03  0.46999998093E+01 0. -1.
</event>
<event>
 5   0  0.2406307E-03  0.6004502E+03  0.7818609E-02  0.9904472E-01
        2   -1    0    0  501    0  0.00000000000E+00  0.00000000000E+00  0.56652311729E+03  0.56652311729E+03  0.25500000920E-02 0.  1.
       -2   -1    0    0    0  501  0.00000000000E+00  0.00000000000E+00 -0.15910227870E+03  0.15910227872E+03  0.25500000920E-02 0. -1.
    10030    2    1    2    0    0  0.00000000000E+00  0.00000000000E+00  0.40742083858E+03  0.72562539601E+03  0.60045022744E+03 0.  0.
        5    1    3    3  502    0  0.14201358599E+03 -0.17161033462E+03 -0.39474422965E+02  0.22627038167E+03  0.46999998093E+01 0. -1.
       -5    1    3    3    0  502 -0.14201358599E+03  0.17161033462E+03  0.44689526155E+03  0.49935501434E+03  0.46999998093E+01 0.  1.
</event>
<event>
 5   0  0.2406307E-03  0.5996047E+03  0.7818609E-02  0.9906227E-01
        2   -1    0    0  501    0  0.00000000000E+00  0.00000000000E+00  0.13825073011E+03  0.13825073013E+03  0.25500000920E-02 0.  1.
       -2   -1    0    0    0  501  0.00000000000E+00  0.00000000000E+00 -0.65013357754E+03  0.65013357755E+03  0.25500000920E-02 0. -1.
    10030    2    1    2    0    0  0.00000000000E+00  0.00000000000E+00 -0.51188284743E+03  0.78838430768E+03  0.59960467568E+03 0.  0.
        5    1    3    3  502    0 -0.12936187715E+03 -0.27038698526E+03 -0.25072584573E+03  0.39080577884E+03  0.46999998093E+01 0. -1.
       -5    1    3    3    0  502  0.12936187715E+03  0.27038698526E+03 -0.26115700170E+03  0.39757852884E+03  0.46999998093E+01 0.  1.
</event>
<event>
 5   0  0.9496750E-04  0.5998611E+03  0.7818609E-02  0.9905694E-01
        3   -1    0    0  501    0  0.00000000000E+00  0.00000000000E+00  0.88785533377E+03  0.88785533951E+03  0.10100000352E+00 0.  1.
       -3   -1    0    0    0  501  0.00000000000E+00  0.00000000000E+00 -0.10132091762E+03  0.10132096796E+03  0.10100000352E+00 0. -1.
    10030    2    1    2    0    0  0.00000000000E+00  0.00000000000E+00  0.78653441614E+03  0.98917630748E+03  0.59986113350E+03 0.  0.
        1    1    3    3  502    0  0.29441767404E+03  0.44187729660E+02  0.33326452339E+03  0.44687757251E+03  0.50400001928E-02 0. -1.
       -1    1    3    3    0  502 -0.29441767404E+03 -0.44187729660E+02  0.45326989276E+03  0.54229873496E+03  0.50400001928E-02 0.  1.
</event>
<event>
 5   0  0.2313168E-03  0.6044081E+03  0.7818609E-02  0.9896303E-01
        2   -1    0    0  501    0  0.00000000000E+00  0.00000000000E+00  0.15065303316E+04  0.15065303316E+04  0.25500000920E-02 0.  1.
       -2   -1    0    0    0  501  0.00000000000E+00  0.00000000000E+00 -0.60620932019E+02  0.60620932073E+02  0.25500000920E-02 0. -1.
    10030    2    1    2    0    0  0.00000000000E+00  0.00000000000E+00  0.14459093996E+04  0.15671512637E+04  0.60440805045E+03 0.  0.
        2    1    3    3  502    0 -0.26942120315E+03  0.97636623385E+02  0.97174290873E+03  0.10131164670E+04  0.25500000920E-02 0.  1.
       -2    1    3    3    0  502  0.26942120315E+03 -0.97636623385E+02  0.47416649085E+03  0.55403479672E+03  0.25500000920E-02 0. -1.
</event>
<event>
 5   0  0.1418763E-03  0.5999083E+03  0.7818609E-02  0.9905596E-01
       -1   -1    0    0    0  501  0.00000000000E+00  0.00000000000E+00  0.71926272451E+02  0.71926272627E+02  0.50400001928E-02 0. -1.
        1   -1    0    0  501    0  0.00000000000E+00  0.00000000000E+00 -0.12508986487E+04  0.12508986487E+04  0.50400001928E-02 0.  1.
    10030    2    1    2    0    0  0.00000000000E+00  0.00000000000E+00 -0.11789723762E+04  0.13228249213E+04  0.59990825011E+03 0.  0.
        5    1    3    3  502    0  0.18019224046E+03  0.23955942698E+03 -0.56828739023E+03  0.64251895728E+03  0.46999998093E+01 0.  1.
       -5    1    3    3    0  502 -0.18019224046E+03 -0.23955942698E+03 -0.61068498601E+03  0.68030596405E+03  0.46999998093E+01 0. -1.
</event>
<event>
 5   0  0.2346281E-03  0.6005766E+03  0.7818609E-02  0.9904210E-01
        2   -1    0    0  501    0  0.00000000000E+00  0.00000000000E+00  0.96040892602E+03  0.96040892602E+03  0.25500000920E-02 0.  1.
       -2   -1    0    0    0  501  0.00000000000E+00  0.00000000000E+00 -0.93890293186E+02  0.93890293221E+02  0.25500000920E-02 0. -1.
    10030    2    1    2    0    0  0.00000000000E+00  0.00000000000E+00  0.86651863284E+03  0.10542992192E+04  0.60057664178E+03 0.  0.
        3    1    3    3  502    0 -0.12878126149E+03 -0.15709764764E+03  0.45029516445E+02  0.20806718088E+03  0.10100000352E+00 0. -1.
       -3    1    3    3    0  502  0.12878126149E+03  0.15709764764E+03  0.82148911639E+03  0.84623203837E+03  0.10100000352E+00 0.  1.
</event>
<event>
 5   0  0.1479385E-03  0.5996258E+03  0.7818609E-02  0.9906183E-01
        1   -1    0    0  501    0  0.00000000000E+00  0.00000000000E+00  0.81371904734E+02  0.81371904890E+02  0.50400001928E-02 0.  1.
       -1   -1    0    0    0  501  0.00000000000E+00  0.00000000000E+00 -0.11046537176E+04  0.11046537176E+04  0.50400001928E-02 0. -1.
    10030    2    1    2    0    0  0.00000000000E+00  0.00000000000E+00 -0.10232818129E+04  0.11860256225E+04  0.59962580723E+03 0.  0.
        3    1    3    3  502    0  0.22881080671E+03 -0.17864780893E+03 -0.36338300650E+03  0.46509853206E+03  0.10100000352E+00 0.  1.
       -3    1    3    3    0  502 -0.22881080671E+03  0.17864780893E+03 -0.65989880638E+03  0.72092709046E+03  0.10100000352E+00 0. -1.
</event>
<event>
 5   0  0.2324616E-03  0.6003041E+03  0.7818609E-02  0.9904775E-01
        2   -1    0    0  501    0  0.00000000000E+00  0.00000000000E+00  0.82786302119E+03  0.82786302120E+03  0.25500000920E-02 0. -1.
       -2   -1    0    0    0  501  0.00000000000E+00  0.00000000000E+00 -0.10882387444E+03  0.10882387447E+03  0.25500000920E-02 0.  1.
    10030    2    1    2    0    0  0.00000000000E+00  0.00000000000E+00  0.71903914675E+03  0.93668689567E+03  0.60030412789E+03 0.  0.
        4    1    3    3  502    0 -0.14638323697E+03 -0.26089642435E+03  0.32146957339E+03  0.43913471261E+03  0.12699999809E+01 0.  1.
       -4    1    3    3    0  502  0.14638323697E+03  0.26089642435E+03  0.39756957336E+03  0.49755218305E+03  0.12699999809E+01 0. -1.
</event>
<event>
 5   0  0.1416315E-03  0.5997034E+03  0.7818609E-02  0.9906022E-01
       -1   -1    0    0    0  501  0.00000000000E+00  0.00000000000E+00  0.19149189339E+03  0.19149189346E+03  0.50400001928E-02 0. -1.
        1   -1    0    0  501    0  0.00000000000E+00  0.00000000000E+00 -0.46952922160E+03  0.46952922163E+03  0.50400001928E-02 0.  1.
    10030    2    1    2    0    0  0.00000000000E+00  0.00000000000E+00 -0.27803732821E+03  0.66102111509E+03  0.59970339229E+03 0.  0.
        2    1    3    3  502    0  0.20964506757E+03 -0.72427005695E+02  0.83390351906E+02  0.23696133927E+03  0.25500000920E-02 0. -1.
       -2    1    3    3    0  502 -0.20964506757E+03  0.72427005695E+02 -0.36142768012E+03  0.42405977582E+03  0.25500000920E-02 0.  1.
</event>
<event>
 5   0  0.1423430E-03  0.5999101E+03  0.7818609E-02  0.9905593E-01
       -1   -1    0    0    0  501  0.00000000000E+00  0.00000000000E+00  0.88289841715E+02  0.88289841859E+02  0.50400001928E-02 0. -1.
        1   -1    0    0  501    0  0.00000000000E+00  0.00000000000E+00 -0.10190644590E+04  0.10190644590E+04  0.50400001928E-02 0.  1.
    10030    2    1    2    0    0  0.00000000000E+00  0.00000000000E+00 -0.93077461725E+03  0.11073543008E+04  0.59991012616E+03 0.  0.
        1    1    3    3  502    0  0.24830656411E+03  0.13336588399E+03 -0.65480628199E+03  0.71289120892E+03  0.50400001928E-02 0. -1.
       -1    1    3    3    0  502 -0.24830656411E+03 -0.13336588399E+03 -0.27596833526E+03  0.39446309192E+03  0.50400001928E-02 0.  1.
</event>
<event>
 5   0  0.2406307E-03  0.6000161E+03  0.7818609E-02  0.9905373E-01
       -2   -1    0    0    0  501  0.00000000000E+00  0.00000000000E+00  0.89076291094E+03  0.89076291095E+03  0.25500000920E-02 0. -1.
        2   -1    0    0  501    0  0.00000000000E+00  0.00000000000E+00 -0.10104241994E+03  0.10104241997E+03  0.25500000920E-02 0.  1.
    10030    2    1    2    0    0  0.00000000000E+00  0.00000000000E+00  0.78972049100E+03  0.99180533092E+03  0.60001613355E+03 0.  0.
        5    1    3    3  502    0 -0.15509169734E+03 -0.18740773140E+03  0.10473010337E+03  0.26488785725E+03  0.46999998093E+01 0.  1.
       -5    1    3    3    0  502  0.15509169734E+03  0.18740773140E+03  0.68499038763E+03  0.72691747366E+03  0.46999998093E+01 0. -1.
</event>
<event>
 5   0  0.1479385E-03  0.5998135E+03  0.7818609E-02  0.9905793E-01
        1   -1    0    0  501    0  0.00000000000E+00  0.00000000000E+00  0.69752762441E+03  0.69752762443E+03  0.50400001928E-02 0.  1.
       -1   -1    0    0    0  501  0.00000000000E+00  0.00000000000E+00 -0.12894696151E+03  0.12894696161E+03  0.50400001928E-02 0. -1.
    10030    2    1    2    0    0  0.00000000000E+00  0.00000000000E+00  0.56858066290E+03  0.82647458604E+03  0.59981353030E+03 0.  0.
        3    1    3    3  502    0 -0.21631162564E+03  0.56542575347E+02  0.88638181872E+01  0.22375513333E+03  0.10100000352E+00 0. -1.
       -3    1    3    3    0  502  0.21631162564E+03 -0.56542575347E+02  0.55971684472E+03  0.60271945271E+03  0.10100000352E+00 0.  1.
</event>
<event>
 5   0  0.2346281E-03  0.6000867E+03  0.7818609E-02  0.9905226E-01
       -2   -1    0    0    0  501  0.00000000000E+00  0.00000000000E+00  0.53033319013E+03  0.53033319014E+03  0.25500000920E-02 0.  1.
        2   -1    0    0  501    0  0.00000000000E+00  0.00000000000E+00 -0.16975365790E+03  0.16975365792E+03  0.25500000920E-02 0. -1.
    10030    2    1    2    0    0  0.00000000000E+00  0.00000000000E+00  0.36057953223E+03  0.70008684806E+03  0.60008665688E+03 0.  0.
        3    1    3    3  502    0 -0.21231013341E+03  0.20854920515E+03  0.13574867452E+03  0.32710254746E+03  0.10100000352E+00 0. -1.
       -3    1    3    3    0  502  0.21231013341E+03 -0.20854920515E+03  0.22483085771E+03  0.37298430060E+03  0.10100000352E+00 0.  1.
</event>
<event>
 5   0  0.2421210E-03  0.5999256E+03  0.7818609E-02  0.9905560E-01
       -2   -1    0    0    0  501  0.00000000000E+00  0.00000000000E+00  0.68338431046E+02  0.68338431094E+02  0.25500000920E-02 0. -1.
        2   -1    0    0  501    0  0.00000000000E+00  0.00000000000E+00 -0.13166483975E+04  0.13166483975E+04  0.25500000920E-02 0.  1.
    10030    2    1    2    0    0  0.00000000000E+00  0.00000000000E+00 -0.12483099665E+04  0.13849868286E+04  0.59992561459E+03 0.  0.
        1    1    3    3  502    0 -0.29509562564E+03  0.34827412556E+02 -0.52943750327E+03  0.60712309035E+03  0.50400001928E-02 0. -1.
       -1    1    3    3    0  502  0.29509562564E+03 -0.34827412556E+02 -0.71887246322E+03  0.77786373829E+03  0.50400001928E-02 0.  1.
</event>
<event>
 5   0  0.1416315E-03  0.6000338E+03  0.7818609E-02  0.9905336E-01
       -1   -1    0    0    0  501  0.00000000000E+00  0.00000000000E+00  0.24790873222E+03  0.24790873227E+03  0.50400001928E-02 0.  1.
        1   -1    0    0  501    0  0.00000000000E+00  0.00000000000E+00 -0.36307767818E+03  0.36307767822E+03  0.50400001928E-02 0. -1.
    10030    2    1    2    0    0  0.00000000000E+00  0.00000000000E+00 -0.11516894596E+03  0.61098641048E+03  0.60003375545E+03 0.  0.
        2    1    3    3  502    0  0.12449031196E+03  0.24695584001E+03 -0.17600477006E+03  0.32781504507E+03  0.25500000920E-02 0. -1.
       -2    1    3    3    0  502 -0.12449031196E+03 -0.24695584001E+03  0.60835824094E+02  0.28317136541E+03  0.25500000920E-02 0.  1.
</event>
<event>
 5   0  0.9496750E-04  0.5998421E+03  0.7818609E-02  0.9905734E-01
       -4   -1    0    0    0  501  0.00000000000E+00  0.00000000000E+00  0.91286951924E+03  0.91287040267E+03  0.12699999809E+01 0. -1.
        4   -1    0    0  501    0  0.00000000000E+00  0.00000000000E+00 -0.98533314164E+02  0.98541498365E+02  0.12699999809E+01 0.  1.
    10030    2    1    2    0    0  0.00000000000E+00  0.00000000000E+00  0.81433620508E+03  0.10114119010E+04  0.59984212810E+03 0.  0.
        5    1    3    3  502    0 -0.12051745443E+03 -0.24868217716E+03  0.60353728906E+03  0.66381219584E+03  0.46999998093E+01 0. -1.
       -5    1    3    3    0  502  0.12051745443E+03  0.24868217716E+03  0.21079891602E+03  0.34759970519E+03  0.46999998093E+01 0.  1.
</event>
<event>
 5   0  0.2346281E-03  0.5999753E+03  0.7818609E-02  0.9905457E-01
       -2   -1    0    0    0  501  0.00000000000E+00  0.00000000000E+00  0.10973091642E+03  0.10973091645E+03  0.25500000920E-02 0.  1.
        2   -1    0    0  501    0  0.00000000000E+00  0.00000000000E+00 -0.82012058757E+03  0.82012058757E+03  0.25500000920E-02 0. -1.
    10030    2    1    2    0    0  0.00000000000E+00  0.00000000000E+00 -0.71038967116E+03  0.92985150402E+03  0.59997527836E+03 0.  0.
        3    1    3    3  502    0  0.36514082843E+02 -0.25881880274E+03 -0.12703932322E+03  0.29061908187E+03  0.10100000352E+00 0. -1.
       -3    1    3    3    0  502 -0.36514082843E+02  0.25881880274E+03 -0.58335034793E+03  0.63923242215E+03  0.10100000352E+00 0.  1.
</event>
<event>
 5   0  0.2346281E-03  0.5956167E+03  0.7818609E-02  0.9914542E-01
       -2   -1    0    0    0  501  0.00000000000E+00  0.00000000000E+00  0.58446573434E+02  0.58446573489E+02  0.25500000920E-02 0.  1.
        2   -1    0    0  501    0  0.00000000000E+00  0.00000000000E+00 -0.15174511680E+04  0.15174511680E+04  0.25500000920E-02 0. -1.
    10030    2    1    2    0    0  0.00000000000E+00  0.00000000000E+00 -0.14590045945E+04  0.15758977415E+04  0.59561672632E+03 0.  0.
        3    1    3    3  502    0 -0.28676153518E+03  0.21445444522E+02 -0.93440819179E+03  0.97765574935E+03  0.10100000352E+00 0.  1.
       -3    1    3    3    0  502  0.28676153518E+03 -0.21445444522E+02 -0.52459640275E+03  0.59824199212E+03  0.10100000352E+00 0. -1.
</event>
<event>
 5   0  0.1416315E-03  0.6000943E+03  0.7818609E-02  0.9905210E-01
       -1   -1    0    0    0  501  0.00000000000E+00  0.00000000000E+00  0.25927806580E+03  0.25927806585E+03  0.50400001928E-02 0.  1.
        1   -1    0    0  501    0  0.00000000000E+00  0.00000000000E+00 -0.34722680440E+03  0.34722680443E+03  0.50400001928E-02 0. -1.
    10030    2    1    2    0    0  0.00000000000E+00  0.00000000000E+00 -0.87948738595E+02  0.60650487028E+03  0.60009430680E+03 0.  0.
        2    1    3    3  502    0 -0.73701594466E+02 -0.68612183804E+02 -0.32963971895E+03  0.34467651662E+03  0.25500000920E-02 0. -1.
       -2    1    3    3    0  502  0.73701594466E+02  0.68612183804E+02  0.24169098035E+03  0.26182835367E+03  0.25500000920E-02 0.  1.
</event>
<event>
 5   0  0.1392854E-03  0.5999541E+03  0.7818609E-02  0.9905501E-01
        1   -1    0    0  501    0  0.00000000000E+00  0.00000000000E+00  0.34775714224E+03  0.34775714227E+03  0.50400001928E-02 0.  1.
       -1   -1    0    0    0  501  0.00000000000E+00  0.00000000000E+00 -0.25876170874E+03  0.25876170879E+03  0.50400001928E-02 0. -1.
    10030    2    1    2    0    0  0.00000000000E+00  0.00000000000E+00  0.88995433493E+02  0.60651885107E+03  0.59995410618E+03 0.  0.
        4    1    3    3  502    0 -0.16313799937E+03 -0.11062395588E+03 -0.18410253849E+03  0.26971656240E+03  0.12699999809E+01 0. -1.
       -4    1    3    3    0  502  0.16313799937E+03  0.11062395588E+03  0.27309797199E+03  0.33680228867E+03  0.12699999809E+01 0.  1.
</event>
<event>
 5   0  0.1423430E-03  0.6003469E+03  0.7818609E-02  0.9904687E-01
       -1   -1    0    0    0  501  0.00000000000E+00  0.00000000000E+00  0.58289081955E+03  0.58289081957E+03  0.50400001928E-02 0.  1.
        1   -1    0    0  501    0  0.00000000000E+00  0.00000000000E+00 -0.15458144290E+03  0.15458144299E+03  0.50400001928E-02 0. -1.
    10030    2    1    2    0    0  0.00000000000E+00  0.00000000000E+00  0.42830937664E+03  0.73747226256E+03  0.60034691297E+03 0.  0.
        1    1    3    3  502    0 -0.10609145495E+03  0.23821141578E+01 -0.13077062634E+03  0.16841029665E+03  0.50400001928E-02 0. -1.
       -1    1    3    3    0  502  0.10609145495E+03 -0.23821141578E+01  0.55908000298E+03  0.56906196590E+03  0.50400001928E-02 0.  1.
</event>
<event>
 5   0  0.1423430E-03  0.6001519E+03  0.7818609E-02  0.9905091E-01
        1   -1    0    0  501    0  0.00000000000E+00  0.00000000000E+00  0.69392312186E+03  0.69392312188E+03  0.50400001928E-02 0. -1.
       -1   -1    0    0    0  501  0.00000000000E+00  0.00000000000E+00 -0.12976303695E+03  0.12976303705E+03  0.50400001928E-02 0.  1.
    10030    2    1    2    0    0  0.00000000000E+00  0.00000000000E+00  0.56416008491E+03  0.82368615893E+03  0.60015188661E+03 0.  0.
        1    1    3    3  502    0  0.16937435063E+02  0.21426107673E+03  0.56948203779E+03  0.60869078940E+03  0.50400001928E-02 0. -1.
       -1    1    3    3    0  502 -0.16937435063E+02 -0.21426107673E+03 -0.53219528802E+01  0.21499536952E+03  0.50400001928E-02 0.  1.
</event>
<event>
 5   0  0.1416315E-03  0.5999683E+03  0.7818609E-02  0.9905472E-01
       -1   -1    0    0    0  501  0.00000000000E+00  0.00000000000E+00  0.18140496115E+03  0.18140496122E+03  0.50400001928E-02 0. -1.
        1   -1    0    0  501    0  0.00000000000E+00  0.00000000000E+00 -0.49607516870E+03  0.49607516872E+03  0.50400001928E-02 0.  1.
    10030    2    1    2    0    0  0.00000000000E+00  0.00000000000E+00 -0.31467020754E+03  0.67748012995E+03  0.59996832163E+03 0.  0.
        2    1    3    3  502    0  0.25546433072E+03 -0.10959927402E+02 -0.33447219594E+03  0.42101519467E+03  0.25500000920E-02 0.  1.
       -2    1    3    3    0  502 -0.25546433072E+03  0.10959927402E+02  0.19801988394E+02  0.25646493528E+03  0.25500000920E-02 0. -1.
</event>
<event>
 5   0  0.1418763E-03  0.5993768E+03  0.7818609E-02  0.9906700E-01
       -1   -1    0    0    0  501  0.00000000000E+00  0.00000000000E+00  0.25908914836E+03  0.25908914841E+03  0.50400001928E-02 0.  1.
        1   -1    0    0  501    0  0.00000000000E+00  0.00000000000E+00 -0.34664957439E+03  0.34664957443E+03  0.50400001928E-02 0. -1.
    10030    2    1    2    0    0  0.00000000000E+00  0.00000000000E+00 -0.87560426030E+02  0.60573872284E+03  0.59937681982E+03 0.  0.
        5    1    3    3  502    0  0.70357391898E+02 -0.16717330730E+03  0.19727611469E+03  0.26802431362E+03  0.46999998093E+01 0.  1.
       -5    1    3    3    0  502 -0.70357391898E+02  0.16717330730E+03 -0.28483654072E+03  0.33771440922E+03  0.46999998093E+01 0. -1.
</event>
<event>
 5   0  0.9496750E-04  0.6000839E+03  0.7818609E-02  0.9905232E-01
        3   -1    0    0  501    0  0.00000000000E+00  0.00000000000E+00  0.43846822419E+03  0.43846823582E+03  0.10100000352E+00 0. -1.
       -3   -1    0    0    0  501  0.00000000000E+00  0.00000000000E+00 -0.20531738547E+03  0.20531741031E+03  0.10100000352E+00 0.  1.
    10030    2    1    2    0    0  0.00000000000E+00  0.00000000000E+00  0.23315083872E+03  0.64378564613E+03  0.60008386461E+03 0.  0.
        4    1    3    3  502    0 -0.17287891244E+03 -0.22608350126E+03  0.14670036380E+02  0.28498717651E+03  0.12699999809E+01 0.  1.
       -4    1    3    3    0  502  0.17287891244E+03  0.22608350126E+03  0.21848080234E+03  0.35879846962E+03  0.12699999809E+01 0. -1.
</event>
<event>
 5   0  0.1416315E-03  0.6000164E+03  0.7818609E-02  0.9905372E-01
       -1   -1    0    0    0  501  0.00000000000E+00  0.00000000000E+00  0.15300588994E+03  0.15300589002E+03  0.50400001928E-02 0. -1.
        1   -1    0    0  501    0  0.00000000000E+00  0.00000000000E+00 -0.58824482998E+03  0.58824483000E+03  0.50400001928E-02 0.  1.
    10030    2    1    2    0    0  0.00000000000E+00  0.00000000000E+00 -0.43523894003E+03  0.74125072002E+03  0.60001641228E+03 0.  0.
        2    1    3    3  502    0 -0.15505503978E+02  0.25094861821E+03 -0.41982016014E+03  0.48935119955E+03  0.25500000920E-02 0.  1.
       -2    1    3    3    0  502  0.15505503978E+02 -0.25094861821E+03 -0.15418779895E+02  0.25189952047E+03  0.25500000920E-02 0. -1.
</event>
<event>
 5   0  0.2421210E-03  0.6000768E+03  0.7818609E-02  0.9905247E-01
       -2   -1    0    0    0  501  0.00000000000E+00  0.00000000000E+00  0.66318972099E+02  0.66318972148E+02  0.25500000920E-02 0.  1.
        2   -1    0    0  501    0  0.00000000000E+00  0.00000000000E+00 -0.13574252303E+04  0.13574252303E+04  0.25500000920E-02 0. -1.
    10030    2    1    2    0    0  0.00000000000E+00  0.00000000000E+00 -0.12911062582E+04  0.14237442025E+04  0.60007681513E+03 0.  0.
        1    1    3    3  502    0 -0.52269672875E+02  0.61930257237E+02 -0.13309668379E+04  0.13334317377E+04  0.50400001928E-02 0. -1.
       -1    1    3    3    0  502  0.52269672875E+02 -0.61930257237E+02  0.39860579653E+02  0.90312464807E+02  0.50400001928E-02 0.  1.
</event>
<event>
 5   0  0.2421210E-03  0.5998041E+03  0.7818609E-02  0.9905813E-01
        2   -1    0    0  501    0  0.00000000000E+00  0.00000000000E+00  0.11606606404E+04  0.11606606404E+04  0.25500000920E-02 0. -1.
       -2   -1    0    0    0  501  0.00000000000E+00  0.00000000000E+00 -0.77491407914E+02  0.77491407956E+02  0.25500000920E-02 0.  1.
    10030    2    1    2    0    0  0.00000000000E+00  0.00000000000E+00  0.10831692325E+04  0.12381520484E+04  0.59980405855E+03 0.  0.
        1    1    3    3  502    0 -0.81896105982E+02  0.49520402660E+01  0.11370433132E+04  0.11399995574E+04  0.50400001928E-02 0. -1.
       -1    1    3    3    0  502  0.81896105982E+02 -0.49520402660E+01 -0.53874080697E+02  0.98152490922E+02  0.50400001928E-02 0.  1.
</event>
<event>
 5   0  0.2313168E-03  0.5956156E+03  0.7818609E-02  0.9914544E-01
       -2   -1    0    0    0  501  0.00000000000E+00  0.00000000000E+00  0.26994677745E+03  0.26994677746E+03  0.25500000920E-02 0. -1.
        2   -1    0    0  501    0  0.00000000000E+00  0.00000000000E+00 -0.32854434224E+03  0.32854434225E+03  0.25500000920E-02 0.  1.
    10030    2    1    2    0    0  0.00000000000E+00  0.00000000000E+00 -0.58597564787E+02  0.59849111971E+03  0.59561560236E+03 0.  0.
        2    1    3    3  502    0 -0.21339826108E+03  0.34567979558E+01  0.17940257234E+03  0.27881185457E+03  0.25500000920E-02 0. -1.
       -2    1    3    3    0  502  0.21339826108E+03 -0.34567979558E+01 -0.23800013712E+03  0.31967926514E+03  0.25500000920E-02 0.  1.
</event>
<event>
 5   0  0.1416315E-03  0.6003396E+03  0.7818609E-02  0.9904702E-01
        1   -1    0    0  501    0  0.00000000000E+00  0.00000000000E+00  0.44030130376E+03  0.44030130378E+03  0.50400001928E-02 0.  1.
       -1   -1    0    0    0  501  0.00000000000E+00  0.00000000000E+00 -0.20463696015E+03  0.20463696022E+03  0.50400001928E-02 0. -1.
    10030    2    1    2    0    0  0.00000000000E+00  0.00000000000E+00  0.23566434360E+03  0.64493826400E+03  0.60033963848E+03 0.  0.
        2    1    3    3  502    0  0.37947697457E+02  0.22990024394E+03  0.32111924603E+03  0.39675145883E+03  0.25500000920E-02 0.  1.
       -2    1    3    3    0  502 -0.37947697457E+02 -0.22990024394E+03 -0.85454902429E+02  0.24818680517E+03  0.25500000920E-02 0. -1.
</event>
<event>
 5   0  0.1392854E-03  0.6000067E+03  0.7818609E-02  0.9905392E-01
       -1   -1    0    0    0  501  0.00000000000E+00  0.00000000000E+00  0.13136512011E+03  0.13136512020E+03  0.50400001928E-02 0. -1.
        1   -1    0    0  501    0  0.00000000000E+00  0.00000000000E+00 -0.68512863117E+03  0.68512863119E+03  0.50400001928E-02 0.  1.
    10030    2    1    2    0    0  0.00000000000E+00  0.00000000000E+00 -0.55376351106E+03  0.81649375139E+03  0.60000668319E+03 0.  0.
        4    1    3    3  502    0 -0.10529182334E+02 -0.86235817914E+02 -0.66763246662E+03  0.67326235849E+03  0.12699999809E+01 0.  1.
       -4    1    3    3    0  502  0.10529182334E+02  0.86235817914E+02  0.11386895556E+03  0.14323139290E+03  0.12699999809E+01 0. -1.
</event>
<event>
 5   0  0.1392854E-03  0.6003866E+03  0.7818609E-02  0.9904604E-01
       -1   -1    0    0    0  501  0.00000000000E+00  0.00000000000E+00  0.12427110202E+03  0.12427110213E+03  0.50400001928E-02 0.  1.
        1   -1    0    0  501    0  0.00000000000E+00  0.00000000000E+00 -0.72515667469E+03  0.72515667471E+03  0.50400001928E-02 0. -1.
    10030    2    1    2    0    0  0.00000000000E+00  0.00000000000E+00 -0.60088557267E+03  0.84942777684E+03  0.60038660596E+03 0.  0.
        4    1    3    3  502    0 -0.77936303954E+02  0.94473235379E+02 -0.68819940817E+03  0.69901308857E+03  0.12699999809E+01 0. -1.
       -4    1    3    3    0  502  0.77936303954E+02 -0.94473235379E+02  0.87313835504E+02  0.15041468827E+03  0.12699999809E+01 0.  1.
</event>
<event>
 5   0  0.1416315E-03  0.6014175E+03  0.7818609E-02  0.9902469E-01
        1   -1    0    0  501    0  0.00000000000E+00  0.00000000000E+00  0.11455680892E+04  0.11455680892E+04  0.50400001928E-02 0. -1.
       -1   -1    0    0    0  501  0.00000000000E+00  0.00000000000E+00 -0.78935303893E+02  0.78935304054E+02  0.50400001928E-02 0.  1.
    10030    2    1    2    0    0  0.00000000000E+00  0.00000000000E+00  0.10666327853E+04  0.12245033932E+04  0.60141754332E+03 0.  0.
        2    1    3    3  502    0  0.19005035266E+03  0.14799005126E+02  0.10068303987E+04  0.10247173263E+04  0.25500000920E-02 0. -1.
       -2    1    3    3    0  502 -0.19005035266E+03 -0.14799005126E+02  0.59802386616E+02  0.19978606696E+03  0.25500000920E-02 0.  1.
</event>
<event>
 5   0  0.9496750E-04  0.6000772E+03  0.7818609E-02  0.9905246E-01
        4   -1    0    0  501    0  0.00000000000E+00  0.00000000000E+00  0.51440850665E+03  0.51441007437E+03  0.12699999809E+01 0.  1.
       -4   -1    0    0    0  501  0.00000000000E+00  0.00000000000E+00 -0.17499909014E+03  0.17500369839E+03  0.12699999809E+01 0. -1.
    10030    2    1    2    0    0  0.00000000000E+00  0.00000000000E+00  0.33940941651E+03  0.68941377275E+03  0.60007716008E+03 0.  0.
        3    1    3    3  502    0 -0.14030268881E+02 -0.29278614203E+03  0.96117785663E+02  0.30847886853E+03  0.10100000352E+00 0.  1.
       -3    1    3    3    0  502  0.14030268881E+02  0.29278614203E+03  0.24329163085E+03  0.38093490422E+03  0.10100000352E+00 0. -1.
</event>
<event>
 5   0  0.2346281E-03  0.6025914E+03  0.7818609E-02  0.9900044E-01
        2   -1    0    0  501    0  0.00000000000E+00  0.00000000000E+00  0.11055326271E+04  0.11055326271E+04  0.25500000920E-02 0.  1.
       -2   -1    0    0    0  501  0.00000000000E+00  0.00000000000E+00 -0.82113461908E+02  0.82113461948E+02  0.25500000920E-02 0. -1.
    10030    2    1    2    0    0  0.00000000000E+00  0.00000000000E+00  0.10234191652E+04  0.11876460891E+04  0.60259144133E+03 0.  0.
        3    1    3    3  502    0 -0.23375081756E+03 -0.43686410927E+02  0.14706072838E+03  0.27959759521E+03  0.10100000352E+00 0. -1.
       -3    1    3    3    0  502  0.23375081756E+03  0.43686410927E+02  0.87635843684E+03  0.90804849387E+03  0.10100000352E+00 0.  1.
</event>
<event>
 5   0  0.2421210E-03  0.5995301E+03  0.7818609E-02  0.9906381E-01
       -2   -1    0    0    0  501  0.00000000000E+00  0.00000000000E+00  0.43247140885E+02  0.43247140961E+02  0.25500000920E-02 0.  1.
        2   -1    0    0  501    0  0.00000000000E+00  0.00000000000E+00 -0.20778038913E+04  0.20778038913E+04  0.25500000920E-02 0. -1.
    10030    2    1    2    0    0  0.00000000000E+00  0.00000000000E+00 -0.20345567504E+04  0.21210510322E+04  0.59953007497E+03 0.  0.
        1    1    3    3  502    0  0.56589711780E+02 -0.15115596005E+03 -0.19109533743E+04  0.19177573669E+04  0.50400001928E-02 0. -1.
       -1    1    3    3    0  502 -0.56589711780E+02  0.15115596005E+03 -0.12360337610E+03  0.20329366529E+03  0.50400001928E-02 0.  1.
</event>
<event>
 5   0  0.2346281E-03  0.5999711E+03  0.7818609E-02  0.9905466E-01
        2   -1    0    0  501    0  0.00000000000E+00  0.00000000000E+00  0.13172664313E+04  0.13172664313E+04  0.25500000920E-02 0. -1.
       -2   -1    0    0    0  501  0.00000000000E+00  0.00000000000E+00 -0.68316733517E+02  0.68316733564E+02  0.25500000920E-02 0.  1.
    10030    2    1    2    0    0  0.00000000000E+00  0.00000000000E+00  0.12489496978E+04  0.13855831649E+04  0.59997113195E+03 0.  0.
        3    1    3    3  502    0  0.82945749329E+02 -0.28315084124E+03  0.49931953610E+03  0.57997793541E+03  0.10100000352E+00 0. -1.
       -3    1    3    3    0  502 -0.82945749329E+02  0.28315084124E+03  0.74963016171E+03  0.80560522949E+03  0.10100000352E+00 0.  1.
</event>
<event>
 5   0  0.1392854E-03  0.5998171E+03  0.7818609E-02  0.9905786E-01
       -1   -1    0    0    0  501  0.00000000000E+00  0.00000000000E+00  0.17983093345E+03  0.17983093352E+03  0.50400001928E-02 0. -1.
        1   -1    0    0  501    0  0.00000000000E+00  0.00000000000E+00 -0.50016505836E+03  0.50016505839E+03  0.50400001928E-02 0.  1.
    10030    2    1    2    0    0  0.00000000000E+00  0.00000000000E+00 -0.32033412491E+03  0.67999599190E+03  0.59981713665E+03 0.  0.
        4    1    3    3  502    0 -0.87308609909E+02  0.68175757664E+02 -0.47611970333E+03  0.48883771550E+03  0.12699999809E+01 0.  1.
       -4    1    3    3    0  502  0.87308609909E+02 -0.68175757664E+02  0.15578557841E+03  0.19115827641E+03  0.12699999809E+01 0. -1.
</event>
<event>
 5   0  0.2313168E-03  0.6002416E+03  0.7818609E-02  0.9904905E-01
        2   -1    0    0  501    0  0.00000000000E+00  0.00000000000E+00  0.10813084909E+04  0.10813084910E+04  0.25500000920E-02 0. -1.
       -2   -1    0    0    0  501  0.00000000000E+00  0.00000000000E+00 -0.83299548155E+02  0.83299548194E+02  0.25500000920E-02 0.  1.
    10030    2    1    2    0    0  0.00000000000E+00  0.00000000000E+00  0.99800894279E+03  0.11646080391E+04  0.60024164713E+03 0.  0.
        2    1    3    3  502    0 -0.20119730704E+03 -0.12126928506E+03  0.86139655695E+03  0.89285532097E+03  0.25500000920E-02 0. -1.
       -2    1    3    3    0  502  0.20119730704E+03  0.12126928506E+03  0.13661238584E+03  0.27175271817E+03  0.25500000920E-02 0.  1.
</event>
<event>
 5   0  0.2313168E-03  0.5991802E+03  0.7818609E-02  0.9907108E-01
       -2   -1    0    0    0  501  0.00000000000E+00  0.00000000000E+00  0.26233644046E+03  0.26233644047E+03  0.25500000920E-02 0.  1.
        2   -1    0    0  501    0  0.00000000000E+00  0.00000000000E+00 -0.34213403779E+03  0.34213403780E+03  0.25500000920E-02 0. -1.
    10030    2    1    2    0    0  0.00000000000E+00  0.00000000000E+00 -0.79797597326E+02  0.60447047827E+03  0.59918019207E+03 0.  0.
        2    1    3    3  502    0  0.24242205385E+03 -0.13695878012E+03  0.71658126217E+02  0.28750834198E+03  0.25500000920E-02 0.  1.
       -2    1    3    3    0  502 -0.24242205385E+03  0.13695878012E+03 -0.15145572354E+03  0.31696213630E+03  0.25500000920E-02 0. -1.
</event>
<event>
 5   0  0.1392854E-03  0.6000493E+03  0.7818609E-02  0.9905304E-01
        1   -1    0    0  501    0  0.00000000000E+00  0.00000000000E+00  0.12681683198E+04  0.12681683198E+04  0.50400001928E-02 0.  1.
       -1   -1    0    0    0  501  0.00000000000E+00  0.00000000000E+00 -0.70980171709E+02  0.70980171888E+02  0.50400001928E-02 0. -1.
    10030    2    1    2    0    0  0.00000000000E+00  0.00000000000E+00  0.11971881481E+04  0.13391484917E+04  0.60004934871E+03 0.  0.
        4    1    3    3  502    0  0.69062654355E+02 -0.13917139142E+03  0.25795880192E+02  0.15749719601E+03  0.12699999809E+01 0. -1.
       -4    1    3    3    0  502 -0.69062654355E+02  0.13917139142E+03  0.11713922679E+04  0.11816512957E+04  0.12699999809E+01 0.  1.
</event>
<event>
 5   0  0.1416315E-03  0.5997531E+03  0.7818609E-02  0.9905918E-01
       -1   -1    0    0    0  501  0.00000000000E+00  0.00000000000E+00  0.14334058898E+03  0.14334058907E+03  0.50400001928E-02 0. -1.
        1   -1    0    0  501    0  0.00000000000E+00  0.00000000000E+00 -0.62735851497E+03  0.62735851499E+03  0.50400001928E-02 0.  1.
    10030    2    1    2    0    0  0.00000000000E+00  0.00000000000E+00 -0.48401792599E+03  0.77069910406E+03  0.59975307946E+03 0.  0.
        2    1    3    3  502    0  0.15896407605E+03  0.99550012693E+02  0.58660405303E+02  0.19652181980E+03  0.25500000920E-02 0. -1.
       -2    1    3    3    0  502 -0.15896407605E+03 -0.99550012693E+02 -0.54267833129E+03  0.57417728426E+03  0.25500000920E-02 0.  1.
</event>
<event>
 5   0  0.1418763E-03  0.5996565E+03  0.7818609E-02  0.9906119E-01
        1   -1    0    0  501    0  0.00000000000E+00  0.00000000000E+00  0.48386006369E+03  0.48386006371E+03  0.50400001928E-02 0.  1.
       -1   -1    0    0    0  501  0.00000000000E+00  0.00000000000E+00 -0.18579130528E+03  0.18579130534E+03  0.50400001928E-02 0. -1.
    10030    2    1    2    0    0  0.00000000000E+00  0.00000000000E+00  0.29806875841E+03  0.66965136906E+03  0.59965654448E+03 0.  0.
        5    1    3    3  502    0 -0.24132535783E+03 -0.88735181448E+02  0.32118048462E+03  0.41144969857E+03  0.46999998093E+01 0.  1.
       -5    1    3    3    0  502  0.24132535783E+03  0.88735181448E+02 -0.23111726206E+02  0.25820167049E+03  0.46999998093E+01 0. -1.
</event>
<event>
 5   0  0.2324616E-03  0.5999964E+03  0.7818609E-02  0.9905414E-01
       -2   -1    0    0    0  501  0.00000000000E+00  0.00000000000E+00  0.10960446604E+03  0.10960446607E+03  0.25500000920E-02 0.  1.
        2   -1    0    0  501    0  0.00000000000E+00  0.00000000000E+00 -0.82112458565E+03  0.82112458566E+03  0.25500000920E-02 0. -1.
    10030    2    1    2    0    0  0.00000000000E+00  0.00000000000E+00 -0.71152011962E+03  0.93072905172E+03  0.59999640591E+03 0.  0.
        4    1    3    3  502    0  0.20210597128E+03 -0.13134615431E+03 -0.63281183010E+03  0.67716398390E+03  0.12699999809E+01 0. -1.
       -4    1    3    3    0  502 -0.20210597128E+03  0.13134615431E+03 -0.78708289515E+02  0.25356506782E+03  0.12699999809E+01 0.  1.
</event>
<event>
 5   0  0.1418763E-03  0.5998488E+03  0.7818609E-02  0.9905720E-01
       -1   -1    0    0    0  501  0.00000000000E+00  0.00000000000E+00  0.36628303079E+03  0.36628303083E+03  0.50400001928E-02 0. -1.
        1   -1    0    0  501    0  0.00000000000E+00  0.00000000000E+00 -0.24558783603E+03  0.24558783608E+03  0.50400001928E-02 0.  1.
    10030    2    1    2    0    0  0.00000000000E+00  0.00000000000E+00  0.12069519476E+03  0.61187086691E+03  0.59984883741E+03 0.  0.
        5    1    3    3  502    0 -0.56949423510E+02  0.47709904428E+02 -0.23601464106E+03  0.24747620615E+03  0.46999998093E+01 0.  1.
       -5    1    3    3    0  502  0.56949423510E+02 -0.47709904428E+02  0.35670983582E+03  0.36439466076E+03  0.46999998093E+01 0. -1.
</event>
<event>
 5   0  0.2421210E-03  0.5998553E+03  0.7818609E-02  0.9905706E-01
       -2   -1    0    0    0  501  0.00000000000E+00  0.00000000000E+00  0.18724229030E+03  0.18724229032E+03  0.25500000920E-02 0. -1.
        2   -1    0    0  501    0  0.00000000000E+00  0.00000000000E+00 -0.48042885534E+03  0.48042885535E+03  0.25500000920E-02 0.  1.
    10030    2    1    2    0    0  0.00000000000E+00  0.00000000000E+00 -0.29318656504E+03  0.66767114567E+03  0.59985531325E+03 0.  0.
        1    1    3    3  502    0  0.60105222433E+02  0.26274124079E+02  0.17916014140E+03  0.19079130916E+03  0.50400001928E-02 0. -1.
       -1    1    3    3    0  502 -0.60105222433E+02 -0.26274124079E+02 -0.47234670644E+03  0.47687983651E+03  0.50400001928E-02 0.  1.
</event>
<event>
 5   0  0.1418763E-03  0.6003101E+03  0.7818609E-02  0.9904763E-01
        1   -1    0    0  501    0  0.00000000000E+00  0.00000000000E+00  0.11571167965E+03  0.11571167976E+03  0.50400001928E-02 0. -1.
       -1   -1    0    0    0  501  0.00000000000E+00  0.00000000000E+00 -0.77859951989E+03  0.77859951991E+03  0.50400001928E-02 0.  1.
    10030    2    1    2    0    0  0.00000000000E+00  0.00000000000E+00 -0.66288784023E+03  0.89431119967E+03  0.60031011413E+03 0.  0.
        5    1    3    3  502    0 -0.36010149285E+02  0.29373246328E+03 -0.25702389129E+03  0.39199344577E+03  0.46999998093E+01 0. -1.
       -5    1    3    3    0  502  0.36010149285E+02 -0.29373246328E+03 -0.40586394895E+03  0.50231775390E+03  0.46999998093E+01 0.  1.
</event>
<event>
 5   0  0.1423430E-03  0.6000771E+03  0.7818609E-02  0.9905246E-01
        1   -1    0    0  501    0  0.00000000000E+00  0.00000000000E+00  0.50735608907E+03  0.50735608909E+03  0.50400001928E-02 0.  1.
       -1   -1    0    0    0  501  0.00000000000E+00  0.00000000000E+00 -0.17743578632E+03  0.17743578639E+03  0.50400001928E-02 0. -1.
    10030    2    1    2    0    0  0.00000000000E+00  0.00000000000E+00  0.32992030275E+03  0.68479187548E+03  0.60007708385E+03 0.  0.
        1    1    3    3  502    0  0.14903926572E+03  0.36596517658E+01 -0.13217695819E+03  0.19924066874E+03  0.50400001928E-02 0. -1.
       -1    1    3    3    0  502 -0.14903926572E+03 -0.36596517658E+01  0.46209726094E+03  0.48555120674E+03  0.50400001928E-02 0.  1.
</event>
<event>
 5   0  0.1423430E-03  0.6001346E+03  0.7818609E-02  0.9905127E-01
       -1   -1    0    0    0  501  0.00000000000E+00  0.00000000000E+00  0.47834407060E+02  0.47834407326E+02  0.50400001928E-02 0.  1.
        1   -1    0    0  501    0  0.00000000000E+00  0.00000000000E+00 -0.18823348215E+04  0.18823348215E+04  0.50400001928E-02 0. -1.
    10030    2    1    2    0    0  0.00000000000E+00  0.00000000000E+00 -0.18345004144E+04  0.19301692288E+04  0.60013455270E+03 0.  0.
        1    1    3    3  502    0 -0.19540757115E+03 -0.16251602332E+03 -0.14302842949E+04  0.14526901738E+04  0.50400001928E-02 0. -1.
       -1    1    3    3    0  502  0.19540757115E+03  0.16251602332E+03 -0.40421611947E+03  0.47747905500E+03  0.50400001928E-02 0.  1.
</event>
<event>
 5   0  0.1418763E-03  0.6000921E+03  0.7818609E-02  0.9905215E-01
       -1   -1    0    0    0  501  0.00000000000E+00  0.00000000000E+00  0.15814683502E+03  0.15814683510E+03  0.50400001928E-02 0.  1.
        1   -1    0    0  501    0  0.00000000000E+00  0.00000000000E+00 -0.56926612177E+03  0.56926612179E+03  0.50400001928E-02 0. -1.
    10030    2    1    2    0    0  0.00000000000E+00  0.00000000000E+00 -0.41111928675E+03  0.72741295689E+03  0.60009211120E+03 0.  0.
        5    1    3    3  502    0 -0.80308570569E+02  0.28830634105E+03 -0.18026238289E+03  0.34940897166E+03  0.46999998093E+01 0. -1.
       -5    1    3    3    0  502  0.80308570569E+02 -0.28830634105E+03 -0.23085690385E+03  0.37800398523E+03  0.46999998093E+01 0.  1.
</event>
<event>
 5   0  0.2324616E-03  0.5999050E+03  0.7818609E-02  0.9905603E-01
       -2   -1    0    0    0  501  0.00000000000E+00  0.00000000000E+00  0.51920707929E+02  0.51920707992E+02  0.25500000920E-02 0. -1.
        2   -1    0    0  501    0  0.00000000000E+00  0.00000000000E+00 -0.17328635430E+04  0.17328635430E+04  0.25500000920E-02 0.  1.
    10030    2    1    2    0    0  0.00000000000E+00  0.00000000000E+00 -0.16809428351E+04  0.17847842510E+04  0.59990499900E+03 0.  0.
        4    1    3    3  502    0  0.98721989137E+02 -0.14126149595E+03 -0.15708540013E+04  0.15802799586E+04  0.12699999809E+01 0.  1.
       -4    1    3    3    0  502 -0.98721989137E+02  0.14126149595E+03 -0.11008883380E+03  0.20450429239E+03  0.12699999809E+01 0. -1.
</event>
<event>
 5   0  0.2346281E-03  0.5992532E+03  0.7818609E-02  0.9906957E-01
       -2   -1    0    0    0  501  0.00000000000E+00  0.00000000000E+00  0.12253575249E+03  0.12253575251E+03  0.25500000920E-02 0.  1.
        2   -1    0    0  501    0  0.00000000000E+00  0.00000000000E+00 -0.73265230370E+03  0.73265230370E+03  0.25500000920E-02 0. -1.
    10030    2    1    2    0    0  0.00000000000E+00  0.00000000000E+00 -0.61011655121E+03  0.85518805621E+03  0.59925320644E+03 0.  0.
        3    1    3    3  502    0 -0.54062135508E+02 -0.25482641220E+03 -0.51632961644E+03  0.57832127564E+03  0.10100000352E+00 0. -1.
       -3    1    3    3    0  502  0.54062135508E+02  0.25482641220E+03 -0.93786934773E+02  0.27686678057E+03  0.10100000352E+00 0.  1.
</event>
<event>
 5   0  0.2313168E-03  0.6002354E+03  0.7818609E-02  0.9904918E-01
        2   -1    0    0  501    0  0.00000000000E+00  0.00000000000E+00  0.28646334470E+03  0.28646334471E+03  0.25500000920E-02 0. -1.
       -2   -1    0    0    0  501  0.00000000000E+00  0.00000000000E+00 -0.31442294507E+03  0.31442294508E+03  0.25500000920E-02 0.  1.
    10030    2    1    2    0    0  0.00000000000E+00  0.00000000000E+00 -0.27959600371E+02  0.60088628979E+03  0.60023544880E+03 0.  0.
        2    1    3    3  502    0  0.21141068937E+03 -0.14153159505E+03  0.14539387992E+03  0.29302739173E+03  0.25500000920E-02 0. -1.
       -2    1    3    3    0  502 -0.21141068937E+03  0.14153159505E+03 -0.17335348029E+03  0.30785889806E+03  0.25500000920E-02 0.  1.
</event>
<event>
 5   0  0.2421210E-03  0.5997828E+03  0.7818609E-02  0.9905857E-01
        2   -1    0    0  501    0  0.00000000000E+00  0.00000000000E+00  0.83612811945E+03  0.83612811946E+03  0.25500000920E-02 0. -1.
       -2   -1    0    0    0  501  0.00000000000E+00  0.00000000000E+00 -0.10756110623E+03  0.10756110626E+03  0.25500000920E-02 0.  1.
    10030    2    1    2    0    0  0.00000000000E+00  0.00000000000E+00  0.72856701322E+03  0.94368922572E+03  0.59978284570E+03 0.  0.
        1    1    3    3  502    0  0.21740512778E+03 -0.12561254698E+03  0.10627063560E+03  0.27264803238E+03  0.50400001928E-02 0.  1.
       -1    1    3    3    0  502 -0.21740512778E+03  0.12561254698E+03  0.62229637762E+03  0.67104119335E+03  0.50400001928E-02 0. -1.
</event>
<event>
 5   0  0.2406307E-03  0.5997860E+03  0.7818609E-02  0.9905850E-01
        2   -1    0    0  501    0  0.00000000000E+00  0.00000000000E+00  0.10826816479E+03  0.10826816482E+03  0.25500000920E-02 0. -1.
       -2   -1    0    0    0  501  0.00000000000E+00  0.00000000000E+00 -0.83067636795E+03  0.83067636795E+03  0.25500000920E-02 0.  1.
    10030    2    1    2    0    0  0.00000000000E+00  0.00000000000E+00 -0.72240820316E+03  0.93894453277E+03  0.59978598153E+03 0.  0.
        5    1    3    3  502    0  0.10366978751E+03 -0.23658472613E+03 -0.12279048064E+03  0.28604081810E+03  0.46999998093E+01 0. -1.
       -5    1    3    3    0  502 -0.10366978751E+03  0.23658472613E+03 -0.59961772252E+03  0.65290371468E+03  0.46999998093E+01 0.  1.
</event>
<event>
 5   0  0.2346281E-03  0.6000436E+03  0.7818609E-02  0.9905316E-01
       -2   -1    0    0    0  501  0.00000000000E+00  0.00000000000E+00  0.11910080545E+03  0.11910080547E+03  0.25500000920E-02 0.  1.
        2   -1    0    0  501    0  0.00000000000E+00  0.00000000000E+00 -0.75577213116E+03  0.75577213117E+03  0.25500000920E-02 0. -1.
    10030    2    1    2    0    0  0.00000000000E+00  0.00000000000E+00 -0.63667132572E+03  0.87487293664E+03  0.60004356365E+03 0.  0.
        3    1    3    3  502    0 -0.13960410999E+03 -0.29031378648E+02  0.66538868035E+02  0.15735170680E+03  0.10100000352E+00 0.  1.
       -3    1    3    3    0  502  0.13960410999E+03  0.29031378648E+02 -0.70321019375E+03  0.71752122984E+03  0.10100000352E+00 0. -1.
</event>
<event>
 5   0  0.1423430E-03  0.6001862E+03  0.7818609E-02  0.9905020E-01
       -1   -1    0    0    0  501  0.00000000000E+00  0.00000000000E+00  0.24547058058E+03  0.24547058063E+03  0.50400001928E-02 0. -1.
        1   -1    0    0  501    0  0.00000000000E+00  0.00000000000E+00 -0.36687037359E+03  0.36687037362E+03  0.50400001928E-02 0.  1.
    10030    2    1    2    0    0  0.00000000000E+00  0.00000000000E+00 -0.12139979300E+03  0.61234095426E+03  0.60018624986E+03 0.  0.
        1    1    3    3  502    0 -0.16004890941E+03  0.27725640467E+02 -0.31814217512E+03  0.35720975372E+03  0.50400001928E-02 0.  1.
       -1    1    3    3    0  502  0.16004890941E+03 -0.27725640467E+02  0.19674238211E+03  0.25513120053E+03  0.50400001928E-02 0. -1.
</event>
<event>
 5   0  0.1479385E-03  0.5999115E+03  0.7818609E-02  0.9905590E-01
       -1   -1    0    0    0  501  0.00000000000E+00  0.00000000000E+00  0.38250231965E+03  0.38250231968E+03  0.50400001928E-02 0. -1.
        1   -1    0    0  501    0  0.00000000000E+00  0.00000000000E+00 -0.23522328156E+03  0.23522328161E+03  0.50400001928E-02 0.  1.
    10030    2    1    2    0    0  0.00000000000E+00  0.00000000000E+00  0.14727903809E+03  0.61772560129E+03  0.59991149633E+03 0.  0.
        3    1    3    3  502    0 -0.17117160239E+03  0.18715595264E+03  0.23853979784E+03  0.34817856543E+03  0.10100000352E+00 0.  1.
       -3    1    3    3    0  502  0.17117160239E+03 -0.18715595264E+03 -0.91260759743E+02  0.26954703586E+03  0.10100000352E+00 0. -1.
</event>
<event>
 5   0  0.1418763E-03  0.5997876E+03  0.7818609E-02  0.9905847E-01
       -1   -1    0    0    0  501  0.00000000000E+00  0.00000000000E+00  0.14951063043E+03  0.14951063052E+03  0.50400001928E-02 0. -1.
        1   -1    0    0  501    0  0.00000000000E+00  0.00000000000E+00 -0.60153768453E+03  0.60153768455E+03  0.50400001928E-02 0.  1.
    10030    2    1    2    0    0  0.00000000000E+00  0.00000000000E+00 -0.45202705410E+03  0.75104831507E+03  0.59978755733E+03 0.  0.
        5    1    3    3  502    0  0.18799275509E+02 -0.10219310520E+03  0.12620019878E+03  0.16354028152E+03  0.46999998093E+01 0. -1.
       -5    1    3    3    0  502 -0.18799275509E+02  0.10219310520E+03 -0.57822725288E+03  0.58750803355E+03  0.46999998093E+01 0.  1.
</event>
<event>
 5   0  0.1479385E-03  0.6003179E+03  0.7818609E-02  0.9904747E-01
       -1   -1    0    0    0  501  0.00000000000E+00  0.00000000000E+00  0.78100684602E+02  0.78100684765E+02  0.50400001928E-02 0. -1.
        1   -1    0    0  501    0  0.00000000000E+00  0.00000000000E+00 -0.11535799682E+04  0.11535799682E+04  0.50400001928E-02 0.  1.
    10030    2    1    2    0    0  0.00000000000E+00  0.00000000000E+00 -0.10754792836E+04  0.12316806529E+04  0.60031786701E+03 0.  0.
        3    1    3    3  502    0 -0.25634195970E+02  0.28190984866E+03 -0.33292656140E+03  0.43700157925E+03  0.10100000352E+00 0.  1.
       -3    1    3    3    0  502  0.25634195970E+02 -0.28190984866E+03 -0.74255272216E+03  0.79467907369E+03  0.10100000352E+00 0. -1.
</event>
<event>
 5   0  0.2313168E-03  0.5992628E+03  0.7818609E-02  0.9906937E-01
       -2   -1    0    0    0  501  0.00000000000E+00  0.00000000000E+00  0.13007807625E+03  0.13007807627E+03  0.25500000920E-02 0. -1.
        2   -1    0    0  501    0  0.00000000000E+00  0.00000000000E+00 -0.69019308948E+03  0.69019308948E+03  0.25500000920E-02 0.  1.
    10030    2    1    2    0    0  0.00000000000E+00  0.00000000000E+00 -0.56011501323E+03  0.82027116575E+03  0.59926284494E+03 0.  0.
        2    1    3    3  502    0 -0.14098646488E+03  0.65803193310E+02 -0.63056593619E+03  0.64947720777E+03  0.25500000920E-02 0.  1.
       -2    1    3    3    0  502  0.14098646488E+03 -0.65803193310E+02  0.70450922959E+02  0.17079395798E+03  0.25500000920E-02 0. -1.
</event>
<event>
 5   0  0.2346281E-03  0.5996467E+03  0.7818609E-02  0.9906139E-01
        2   -1    0    0  501    0  0.00000000000E+00  0.00000000000E+00  0.32691308970E+03  0.32691308971E+03  0.25500000920E-02 0.  1.
       -2   -1    0    0    0  501  0.00000000000E+00  0.00000000000E+00 -0.27497844179E+03  0.27497844180E+03  0.25500000920E-02 0. -1.
    10030    2    1    2    0    0  0.00000000000E+00  0.00000000000E+00  0.51934647910E+02  0.60189153151E+03  0.59964673604E+03 0.  0.
        3    1    3    3  502    0  0.13615624576E+02 -0.24615699093E+03 -0.14530377431E+03  0.28616751466E+03  0.10100000352E+00 0. -1.
       -3    1    3    3    0  502 -0.13615624576E+02  0.24615699093E+03  0.19723842222E+03  0.31572401685E+03  0.10100000352E+00 0.  1.
</event>
<event>
 5   0  0.1479385E-03  0.5999552E+03  0.7818609E-02  0.9905499E-01
       -1   -1    0    0    0  501  0.00000000000E+00  0.00000000000E+00  0.14471333764E+03  0.14471333773E+03  0.50400001928E-02 0. -1.
        1   -1    0    0  501    0  0.00000000000E+00  0.00000000000E+00 -0.62182623551E+03  0.62182623553E+03  0.50400001928E-02 0.  1.
    10030    2    1    2    0    0  0.00000000000E+00  0.00000000000E+00 -0.47711289788E+03  0.76653957326E+03  0.59995516504E+03 0.  0.
        3    1    3    3  502    0 -0.47886444449E+01  0.23115990149E+03 -0.48274929902E+03  0.53526136333E+03  0.10100000352E+00 0.  1.
       -3    1    3    3    0  502  0.47886444449E+01 -0.23115990149E+03  0.56364011389E+01  0.23127820993E+03  0.10100000352E+00 0. -1.
</event>
<event>
 5   0  0.1416315E-03  0.5998263E+03  0.7818609E-02  0.9905766E-01
       -1   -1    0    0    0  501  0.00000000000E+00  0.00000000000E+00  0.77865769731E+03  0.77865769733E+03  0.50400001928E-02 0.  1.
        1   -1    0    0  501    0  0.00000000000E+00  0.00000000000E+00 -0.11551662828E+03  0.11551662839E+03  0.50400001928E-02 0. -1.
    10030    2    1    2    0    0  0.00000000000E+00  0.00000000000E+00  0.66314106903E+03  0.89417432572E+03  0.59982634765E+03 0.  0.
        2    1    3    3  502    0 -0.26021437196E+03  0.26504687204E+02  0.11281555733E+03  0.28485323905E+03  0.25500000920E-02 0. -1.
       -2    1    3    3    0  502  0.26021437196E+03 -0.26504687204E+02  0.55032551170E+03  0.60932108666E+03  0.25500000920E-02 0.  1.
</event>
<event>
 5   0  0.2313168E-03  0.6000260E+03  0.7818609E-02  0.9905352E-01
        2   -1    0    0  501    0  0.00000000000E+00  0.00000000000E+00  0.11318783349E+03  0.11318783352E+03  0.25500000920E-02 0.  1.
       -2   -1    0    0    0  501  0.00000000000E+00  0.00000000000E+00 -0.79520729183E+03  0.79520729184E+03  0.25500000920E-02 0. -1.
    10030    2    1    2    0    0  0.00000000000E+00  0.00000000000E+00 -0.68201945835E+03  0.90839512536E+03  0.60002596794E+03 0.  0.
        2    1    3    3  502    0  0.96797694247E+02 -0.12974539017E+03  0.41400188217E+02  0.16708571295E+03  0.25500000920E-02 0.  1.
       -2    1    3    3    0  502 -0.96797694247E+02  0.12974539017E+03 -0.72341964656E+03  0.74130941241E+03  0.25500000920E-02 0. -1.
</event>
<event>
 5   0  0.1416315E-03  0.6000963E+03  0.7818609E-02  0.9905206E-01
        1   -1    0    0  501    0  0.00000000000E+00  0.00000000000E+00  0.47977551448E+03  0.47977551450E+03  0.50400001928E-02 0.  1.
       -1   -1    0    0    0  501  0.00000000000E+00  0.00000000000E+00 -0.18764793782E+03  0.18764793788E+03  0.50400001928E-02 0. -1.
    10030    2    1    2    0    0  0.00000000000E+00  0.00000000000E+00  0.29212757666E+03  0.66742345239E+03  0.60009627873E+03 0.  0.
        2    1    3    3  502    0  0.13538446752E+03  0.98019217839E+02 -0.13107603149E+03  0.21240915034E+03  0.25500000920E-02 0. -1.
       -2    1    3    3    0  502 -0.13538446752E+03 -0.98019217839E+02  0.42320360815E+03  0.45501430205E+03  0.25500000920E-02 0.  1.
</event>
<event>
 5   0  0.1418763E-03  0.5998252E+03  0.7818609E-02  0.9905769E-01
       -1   -1    0    0    0  501  0.00000000000E+00  0.00000000000E+00  0.77901199488E+02  0.77901199651E+02  0.50400001928E-02 0.  1.
        1   -1    0    0  501    0  0.00000000000E+00  0.00000000000E+00 -0.11546366741E+04  0.11546366741E+04  0.50400001928E-02 0. -1.
    10030    2    1    2    0    0  0.00000000000E+00  0.00000000000E+00 -0.10767354746E+04  0.12325378738E+04  0.59982524786E+03 0.  0.
        5    1    3    3  502    0 -0.23208009757E+02 -0.14088527589E+03 -0.10802280133E+04  0.10896338483E+04  0.46999998093E+01 0. -1.
       -5    1    3    3    0  502  0.23208009757E+02  0.14088527589E+03  0.34925386372E+01  0.14290402550E+03  0.46999998093E+01 0.  1.
</event>
<event>
 5   0  0.2421210E-03  0.5997332E+03  0.7818609E-02  0.9905960E-01
        2   -1    0    0  501    0  0.00000000000E+00  0.00000000000E+00  0.10270511081E+04  0.10270511081E+04  0.25500000920E-02 0.  1.
       -2   -1    0    0    0  501  0.00000000000E+00  0.00000000000E+00 -0.87551615726E+02  0.87551615763E+02  0.25500000920E-02 0. -1.
    10030    2    1    2    0    0  0.00000000000E+00  0.00000000000E+00  0.93949949235E+03  0.11146027238E+04  0.59973322058E+03 0.  0.
        1    1    3    3  502    0  0.10823275432E+03 -0.22022107582E+03  0.79008234173E+03  0.82730995284E+03  0.50400001928E-02 0.  1.
       -1    1    3    3    0  502 -0.10823275432E+03  0.22022107582E+03  0.14941715062E+03  0.28729277099E+03  0.50400001928E-02 0. -1.
</event>
<event>
 5   0  0.1416315E-03  0.6005754E+03  0.7818609E-02  0.9904213E-01
       -1   -1    0    0    0  501  0.00000000000E+00  0.00000000000E+00  0.34379967510E+03  0.34379967514E+03  0.50400001928E-02 0. -1.
        1   -1    0    0  501    0  0.00000000000E+00  0.00000000000E+00 -0.26228269567E+03  0.26228269572E+03  0.50400001928E-02 0.  1.
    10030    2    1    2    0    0  0.00000000000E+00  0.00000000000E+00  0.81516979433E+02  0.60608237086E+03  0.60057540936E+03 0.  0.
        2    1    3    3  502    0  0.25288039888E+03 -0.36763608872E+02  0.19991525526E+03  0.32444748168E+03  0.25500000920E-02 0.  1.
       -2    1    3    3    0  502 -0.25288039888E+03  0.36763608872E+02 -0.11839827583E+03  0.28163488918E+03  0.25500000920E-02 0. -1.
</event>
<event>
 5   0  0.1423430E-03  0.5996006E+03  0.7818609E-02  0.9906235E-01
       -1   -1    0    0    0  501  0.00000000000E+00  0.00000000000E+00  0.26201820576E+03  0.26201820580E+03  0.50400001928E-02 0. -1.
        1   -1    0    0  501    0  0.00000000000E+00  0.00000000000E+00 -0.34303048974E+03  0.34303048978E+03  0.50400001928E-02 0.  1.
    10030    2    1    2    0    0  0.00000000000E+00  0.00000000000E+00 -0.81012283988E+02  0.60504869559E+03  0.59960064532E+03 0.  0.
        1    1    3    3  502    0 -0.28759990997E+02 -0.92758620427E+02 -0.32671850296E+03  0.34084641548E+03  0.50400001928E-02 0.  1.
       -1    1    3    3    0  502  0.28759990997E+02  0.92758620427E+02  0.24570621897E+03  0.26420228010E+03  0.50400001928E-02 0. -1.
</event>
<event>
 5   0  0.1416315E-03  0.5997232E+03  0.7818609E-02  0.9905980E-01
        1   -1    0    0  501    0  0.00000000000E+00  0.00000000000E+00  0.62896729580E+03  0.62896729582E+03  0.50400001928E-02 0. -1.
       -1   -1    0    0    0  501  0.00000000000E+00  0.00000000000E+00 -0.14295971265E+03  0.14295971274E+03  0.50400001928E-02 0.  1.
    10030    2    1    2    0    0  0.00000000000E+00  0.00000000000E+00  0.48600758315E+03  0.77192700856E+03  0.59972321588E+03 0.  0.
        2    1    3    3  502    0 -0.68388496156E+02 -0.11613489679E+03  0.58778568364E+03  0.60303922805E+03  0.25500000920E-02 0. -1.
       -2    1    3    3    0  502  0.68388496156E+02  0.11613489679E+03 -0.10177810050E+03  0.16888778051E+03  0.25500000920E-02 0.  1.
</event>
<event>
 5   0  0.2421210E-03  0.6000125E+03  0.7818609E-02  0.9905380E-01
       -2   -1    0    0    0  501  0.00000000000E+00  0.00000000000E+00  0.27588868143E+03  0.27588868144E+03  0.25500000920E-02 0.  1.
        2   -1    0    0  501    0  0.00000000000E+00  0.00000000000E+00 -0.32623209260E+03  0.32623209261E+03  0.25500000920E-02 0. -1.
    10030    2    1    2    0    0  0.00000000000E+00  0.00000000000E+00 -0.50343411172E+02  0.60212077406E+03  0.60001247279E+03 0.  0.
        1    1    3    3  502    0 -0.18075400559E+03 -0.15927106346E+03 -0.20458598969E+03  0.31606124311E+03  0.50400001928E-02 0. -1.
       -1    1    3    3    0  502  0.18075400559E+03  0.15927106346E+03  0.15424257852E+03  0.28605953095E+03  0.50400001928E-02 0.  1.
</event>
<event>
 5   0  0.2406307E-03  0.5997857E+03  0.7818609E-02  0.9905851E-01
       -2   -1    0    0    0  501  0.00000000000E+00  0.00000000000E+00  0.89257738749E+02  0.89257738786E+02  0.25500000920E-02 0. -1.
        2   -1    0    0  501    0  0.00000000000E+00  0.00000000000E+00 -0.10075958989E+04  0.10075958989E+04  0.25500000920E-02 0.  1.
    10030    2    1    2    0    0  0.00000000000E+00  0.00000000000E+00 -0.91833816020E+03  0.10968536377E+04  0.59978573352E+03 0.  0.
        5    1    3    3  502    0 -0.19606752953E+03  0.19040117266E+03 -0.68476919294E+03  0.73730998928E+03  0.46999998093E+01 0.  1.
       -5    1    3    3    0  502  0.19606752953E+03 -0.19040117266E+03 -0.23356896725E+03  0.35954364846E+03  0.46999998093E+01 0. -1.
</event>
<event>
 5   0  0.1479385E-03  0.5999512E+03  0.7818609E-02  0.9905507E-01
        1   -1    0    0  501    0  0.00000000000E+00  0.00000000000E+00  0.70292611631E+03  0.70292611633E+03  0.50400001928E-02 0. -1.
       -1   -1    0    0    0  501  0.00000000000E+00  0.00000000000E+00 -0.12801538750E+03  0.12801538760E+03  0.50400001928E-02 0.  1.
    10030    2    1    2    0    0  0.00000000000E+00  0.00000000000E+00  0.57491072882E+03  0.83094150393E+03  0.59995119539E+03 0.  0.
        3    1    3    3  502    0  0.20558919489E+03 -0.17665431434E+03  0.10948395963E+03  0.29233612751E+03  0.10100000352E+00 0.  1.
       -3    1    3    3    0  502 -0.20558919489E+03  0.17665431434E+03  0.46542676919E+03  0.53860537642E+03  0.10100000352E+00 0. -1.
</event>
<event>
 5   0  0.2324616E-03  0.6002164E+03  0.7818609E-02  0.9904957E-01
        2   -1    0    0  501    0  0.00000000000E+00  0.00000000000E+00  0.11883729379E+03  0.11883729381E+03  0.25500000920E-02 0. -1.
       -2   -1    0    0    0  501  0.00000000000E+00  0.00000000000E+00 -0.75788436698E+03  0.75788436699E+03  0.25500000920E-02 0.  1.
    10030    2    1    2    0    0  0.00000000000E+00  0.00000000000E+00 -0.63904707320E+03  0.87672166080E+03  0.60021638494E+03 0.  0.
        4    1    3    3  502    0  0.81120901215E+02 -0.28893342191E+03 -0.31888453410E+03  0.43789505809E+03  0.12699999809E+01 0. -1.
       -4    1    3    3    0  502 -0.81120901215E+02  0.28893342191E+03 -0.32016253910E+03  0.43882660271E+03  0.12699999809E+01 0.  1.
</event>
<event>
 5   0  0.1392854E-03  0.6004023E+03  0.7818609E-02  0.9904572E-01
        1   -1    0    0  501    0  0.00000000000E+00  0.00000000000E+00  0.60599771080E+03  0.60599771082E+03  0.50400001928E-02 0.  1.
       -1   -1    0    0    0  501  0.00000000000E+00  0.00000000000E+00 -0.14871465186E+03  0.14871465194E+03  0.50400001928E-02 0. -1.
    10030    2    1    2    0    0  0.00000000000E+00  0.00000000000E+00  0.45728305894E+03  0.75471236276E+03  0.60040232720E+03 0.  0.
        4    1    3    3  502    0 -0.35571988294E+02  0.11315416567E+03 -0.11800623534E+03  0.16732099700E+03  0.12699999809E+01 0. -1.
       -4    1    3    3    0  502  0.35571988294E+02 -0.11315416567E+03  0.57528929428E+03  0.58739136576E+03  0.12699999809E+01 0.  1.
</event>
<event>
 5   0  0.1418763E-03  0.6000077E+03  0.7818609E-02  0.9905390E-01
        1   -1    0    0  501    0  0.00000000000E+00  0.00000000000E+00  0.32639619351E+03  0.32639619355E+03  0.50400001928E-02 0. -1.
       -1   -1    0    0    0  501  0.00000000000E+00  0.00000000000E+00 -0.27574557430E+03  0.27574557434E+03  0.50400001928E-02 0.  1.
    10030    2    1    2    0    0  0.00000000000E+00  0.00000000000E+00  0.50650619216E+02  0.60214176790E+03  0.60000768613E+03 0.  0.
        5    1    3    3  502    0 -0.24041827465E+02 -0.24740520757E+03  0.19382983983E+03  0.31524505231E+03  0.46999998093E+01 0.  1.
       -5    1    3    3    0  502  0.24041827465E+02  0.24740520757E+03 -0.14317922062E+03  0.28689671559E+03  0.46999998093E+01 0. -1.
</event>
<event>
 5   0  0.1416315E-03  0.5996630E+03  0.7818609E-02  0.9906105E-01
       -1   -1    0    0    0  501  0.00000000000E+00  0.00000000000E+00  0.26281003646E+03  0.26281003650E+03  0.50400001928E-02 0. -1.
        1   -1    0    0  501    0  0.00000000000E+00  0.00000000000E+00 -0.34206814625E+03  0.34206814629E+03  0.50400001928E-02 0.  1.
    10030    2    1    2    0    0  0.00000000000E+00  0.00000000000E+00 -0.79258109798E+02  0.60487818279E+03  0.59966304543E+03 0.  0.
        2    1    3    3  502    0 -0.10687864730E+03 -0.27918734980E+03 -0.16400091512E+02  0.29939536494E+03  0.25500000920E-02 0. -1.
       -2    1    3    3    0  502  0.10687864730E+03  0.27918734980E+03 -0.62858018286E+02  0.30548281786E+03  0.25500000920E-02 0.  1.
</event>
<event>
 5   0  0.1416315E-03  0.5999275E+03  0.7818609E-02  0.9905556E-01
        1   -1    0    0  501    0  0.00000000000E+00  0.00000000000E+00  0.73743520017E+03  0.73743520019E+03  0.50400001928E-02 0.  1.
       -1   -1    0    0    0  501  0.00000000000E+00  0.00000000000E+00 -0.12201514651E+03  0.12201514662E+03  0.50400001928E-02 0. -1.
    10030    2    1    2    0    0  0.00000000000E+00  0.00000000000E+00  0.61542005365E+03  0.85945034680E+03  0.59992754244E+03 0.  0.
        2    1    3    3  502    0 -0.22932244114E+03 -0.90077077061E+02  0.62592193426E+02  0.25420551628E+03  0.25500000920E-02 0.  1.
       -2    1    3    3    0  502  0.22932244114E+03  0.90077077061E+02  0.55282786023E+03  0.60524483052E+03  0.25500000920E-02 0. -1.
</event>
<event>
 5   0  0.1418763E-03  0.6000471E+03  0.7818609E-02  0.9905308E-01
        1   -1    0    0  501    0  0.00000000000E+00  0.00000000000E+00  0.41002888867E+03  0.41002888870E+03  0.50400001928E-02 0.  1.
       -1   -1    0    0    0  501  0.00000000000E+00  0.00000000000E+00 -0.21953115580E+03  0.21953115586E+03  0.50400001928E-02 0. -1.
    10030    2    1    2    0    0  0.00000000000E+00  0.00000000000E+00  0.19049773287E+03  0.62956004456E+03  0.60004705106E+03 0.  0.
        5    1    3    3  502    0 -0.63025226122E+02 -0.13894459426E+03  0.36624378298E+03  0.39678001206E+03  0.46999998093E+01 0.  1.
       -5    1    3    3    0  502  0.63025226122E+02  0.13894459426E+03 -0.17574605011E+03  0.23278003250E+03  0.46999998093E+01 0. -1.
</event>
<event>
 5   0  0.1418763E-03  0.6000562E+03  0.7818609E-02  0.9905289E-01
        1   -1    0    0  501    0  0.00000000000E+00  0.00000000000E+00  0.30477447983E+03  0.30477447987E+03  0.50400001928E-02 0.  1.
       -1   -1    0    0    0  501  0.00000000000E+00  0.00000000000E+00 -0.29535567703E+03  0.29535567707E+03  0.50400001928E-02 0. -1.
    10030    2    1    2    0    0  0.00000000000E+00  0.00000000000E+00  0.94188028000E+01  0.60013015695E+03  0.60005624022E+03 0.  0.
        5    1    3    3  502    0 -0.15468589010E+03 -0.17689358267E+03  0.19121486179E+03  0.30299220708E+03  0.46999998093E+01 0.  1.
       -5    1    3    3    0  502  0.15468589010E+03  0.17689358267E+03 -0.18179605899E+03  0.29713794986E+03  0.46999998093E+01 0. -1.
</event>
<event>
 5   0  0.1416315E-03  0.5997150E+03  0.7818609E-02  0.9905997E-01
       -1   -1    0    0    0  501  0.00000000000E+00  0.00000000000E+00  0.30144457436E+03  0.30144457440E+03  0.50400001928E-02 0. -1.
        1   -1    0    0  501    0  0.00000000000E+00  0.00000000000E+00 -0.29827882277E+03  0.29827882282E+03  0.50400001928E-02 0.  1.
    10030    2    1    2    0    0  0.00000000000E+00  0.00000000000E+00  0.31657515875E+01  0.59972339722E+03  0.59971504166E+03 0.  0.
        2    1    3    3  502    0  0.27339433952E+03 -0.57158008694E+02  0.11068540387E+03  0.30043761661E+03  0.25500000920E-02 0.  1.
       -2    1    3    3    0  502 -0.27339433952E+03  0.57158008694E+02 -0.10751965228E+03  0.29928578061E+03  0.25500000920E-02 0. -1.
</event>
<event>
 5   0  0.9496750E-04  0.5979176E+03  0.7818609E-02  0.9909736E-01
        4   -1    0    0  501    0  0.00000000000E+00  0.00000000000E+00  0.78159649095E+02  0.78169966398E+02  0.12699999809E+01 0. -1.
       -4   -1    0    0    0  501  0.00000000000E+00  0.00000000000E+00 -0.11434241190E+04  0.11434248243E+04  0.12699999809E+01 0.  1.
    10030    2    1    2    0    0  0.00000000000E+00  0.00000000000E+00 -0.10652644699E+04  0.12215947907E+04  0.59791758781E+03 0.  0.
        5    1    3    3  502    0 -0.66187080619E+02  0.13510085827E+02  0.62290778872E+02  0.92008060465E+02  0.46999998093E+01 0. -1.
       -5    1    3    3    0  502  0.66187080619E+02 -0.13510085827E+02 -0.11275552488E+04  0.11295867303E+04  0.46999998093E+01 0.  1.
</event>
<event>
 5   0  0.9496750E-04  0.6000084E+03  0.7818609E-02  0.9905389E-01
       -3   -1    0    0    0  501  0.00000000000E+00  0.00000000000E+00  0.37134230452E+03  0.37134231826E+03  0.10100000352E+00 0.  1.
        3   -1    0    0  501    0  0.00000000000E+00  0.00000000000E+00 -0.24237075337E+03  0.24237077442E+03  0.10100000352E+00 0. -1.
    10030    2    1    2    0    0  0.00000000000E+00  0.00000000000E+00  0.12897155115E+03  0.61371309268E+03  0.60000841587E+03 0.  0.
        3    1    3    3  502    0 -0.20723332370E+03  0.82878534211E+02  0.26953414112E+03  0.34994737507E+03  0.10100000352E+00 0.  1.
       -3    1    3    3    0  502  0.20723332370E+03 -0.82878534211E+02 -0.14056258998E+03  0.26376571761E+03  0.10100000352E+00 0. -1.
</event>
<event>
 5   0  0.9496750E-04  0.6000231E+03  0.7818609E-02  0.9905358E-01
       -4   -1    0    0    0  501  0.00000000000E+00  0.00000000000E+00  0.81017733366E+03  0.81017832906E+03  0.12699999809E+01 0. -1.
        4   -1    0    0  501    0  0.00000000000E+00  0.00000000000E+00 -0.11109066495E+03  0.11109792410E+03  0.12699999809E+01 0.  1.
    10030    2    1    2    0    0  0.00000000000E+00  0.00000000000E+00  0.69908666871E+03  0.92127625315E+03  0.60002313644E+03 0.  0.
        4    1    3    3  502    0  0.16799238409E+03  0.77159334242E+02  0.71233471052E+03  0.73593298383E+03  0.12699999809E+01 0. -1.
       -4    1    3    3    0  502 -0.16799238409E+03 -0.77159334242E+02 -0.13248041815E+02  0.18534326932E+03  0.12699999809E+01 0.  1.
</event>
<event>
 5   0  0.2421210E-03  0.5998436E+03  0.7818609E-02  0.9905731E-01
       -2   -1    0    0    0  501  0.00000000000E+00  0.00000000000E+00  0.91141198988E+02  0.91141199024E+02  0.25500000920E-02 0.  1.
        2   -1    0    0  501    0  0.00000000000E+00  0.00000000000E+00 -0.98696418271E+03  0.98696418272E+03  0.25500000920E-02 0. -1.
    10030    2    1    2    0    0  0.00000000000E+00  0.00000000000E+00 -0.89582298372E+03  0.10781053817E+04  0.59984364293E+03 0.  0.
        1    1    3    3  502    0 -0.31647450293E+02  0.36779588035E+02 -0.97986322870E+03  0.98106383390E+03  0.50400001928E-02 0. -1.
       -1    1    3    3    0  502  0.31647450293E+02 -0.36779588035E+02  0.84040244975E+02  0.97041547839E+02  0.50400001928E-02 0.  1.
</event>
<event>
 5   0  0.1418763E-03  0.6000736E+03  0.7818609E-02  0.9905253E-01
        1   -1    0    0  501    0  0.00000000000E+00  0.00000000000E+00  0.57329105442E+03  0.57329105444E+03  0.50400001928E-02 0.  1.
       -1   -1    0    0    0  501  0.00000000000E+00  0.00000000000E+00 -0.15702685990E+03  0.15702685998E+03  0.50400001928E-02 0. -1.
    10030    2    1    2    0    0  0.00000000000E+00  0.00000000000E+00  0.41626419452E+03  0.73031791442E+03  0.60007364255E+03 0.  0.
        5    1    3    3  502    0 -0.86448570793E+02  0.47115438638E+02  0.55302441442E+03  0.56173954186E+03  0.46999998093E+01 0.  1.
       -5    1    3    3    0  502  0.86448570793E+02 -0.47115438638E+02 -0.13676021990E+03  0.16857837256E+03  0.46999998093E+01 0. -1.
</event>
<event>
 5   0  0.1416315E-03  0.5997690E+03  0.7818609E-02  0.9905885E-01
        1   -1    0    0  501    0  0.00000000000E+00  0.00000000000E+00  0.50832100580E+03  0.50832100582E+03  0.50400001928E-02 0.  1.
       -1   -1    0    0    0  501  0.00000000000E+00  0.00000000000E+00 -0.17691717473E+03  0.17691717480E+03  0.50400001928E-02 0. -1.
    10030    2    1    2    0    0  0.00000000000E+00  0.00000000000E+00  0.33140383107E+03  0.68523818062E+03  0.59976900965E+03 0.  0.
        2    1    3    3  502    0 -0.13120578224E+03  0.31901137125E+02 -0.14022048855E+03  0.19466490505E+03  0.25500000920E-02 0. -1.
       -2    1    3    3    0  502  0.13120578224E+03 -0.31901137125E+02  0.47162431962E+03  0.49057327557E+03  0.25500000920E-02 0.  1.
</event>
<event>
 5   0  0.1423430E-03  0.5999312E+03  0.7818609E-02  0.9905549E-01
       -1   -1    0    0    0  501  0.00000000000E+00  0.00000000000E+00  0.10896894826E+03  0.10896894838E+03  0.50400001928E-02 0. -1.
        1   -1    0    0  501    0  0.00000000000E+00  0.00000000000E+00 -0.82573389380E+03  0.82573389381E+03  0.50400001928E-02 0.  1.
    10030    2    1    2    0    0  0.00000000000E+00  0.00000000000E+00 -0.71676494554E+03  0.93470284219E+03  0.59993117609E+03 0.  0.
        1    1    3    3  502    0 -0.50434890960E+02  0.29490104505E+03 -0.32463964938E+03  0.44147616761E+03  0.50400001928E-02 0.  1.
       -1    1    3    3    0  502  0.50434890960E+02 -0.29490104505E+03 -0.39212529616E+03  0.49322667458E+03  0.50400001928E-02 0. -1.
</event>
<event>
 5   0  0.2406307E-03  0.6003497E+03  0.7818609E-02  0.9904681E-01
        2   -1    0    0  501    0  0.00000000000E+00  0.00000000000E+00  0.46061617171E+03  0.46061617171E+03  0.25500000920E-02 0. -1.
       -2   -1    0    0    0  501  0.00000000000E+00  0.00000000000E+00 -0.19561827770E+03  0.19561827772E+03  0.25500000920E-02 0.  1.
    10030    2    1    2    0    0  0.00000000000E+00  0.00000000000E+00  0.26499789401E+03  0.65623444943E+03  0.60034970541E+03 0.  0.
        5    1    3    3  502    0  0.29937647295E+03  0.16969053142E+02  0.14669355079E+03  0.33384923118E+03  0.46999998093E+01 0. -1.
       -5    1    3    3    0  502 -0.29937647295E+03 -0.16969053142E+02  0.11830434322E+03  0.32238521824E+03  0.46999998093E+01 0.  1.
</event>
<event>
 5   0  0.2406307E-03  0.6000256E+03  0.7818609E-02  0.9905353E-01
        2   -1    0    0  501    0  0.00000000000E+00  0.00000000000E+00  0.18464522756E+03  0.18464522758E+03  0.25500000920E-02 0. -1.
       -2   -1    0    0    0  501  0.00000000000E+00  0.00000000000E+00 -0.48746285944E+03  0.48746285945E+03  0.25500000920E-02 0.  1.
    10030    2    1    2    0    0  0.00000000000E+00  0.00000000000E+00 -0.30281763188E+03  0.67210808703E+03  0.60002563484E+03 0.  0.
        5    1    3    3  502    0  0.59749896017E+02 -0.19492249617E+03  0.95073159640E+02  0.22500183393E+03  0.46999998093E+01 0. -1.
       -5    1    3    3    0  502 -0.59749896017E+02  0.19492249617E+03 -0.39789079152E+03  0.44710625310E+03  0.46999998093E+01 0.  1.
</event>
<event>
 5   0  0.2324616E-03  0.6025114E+03  0.7818609E-02  0.9900209E-01
        2   -1    0    0  501    0  0.00000000000E+00  0.00000000000E+00  0.22414711336E+04  0.22414711336E+04  0.25500000920E-02 0.  1.
       -2   -1    0    0    0  501  0.00000000000E+00  0.00000000000E+00 -0.40489028830E+02  0.40489028910E+02  0.25500000920E-02 0. -1.
    10030    2    1    2    0    0  0.00000000000E+00  0.00000000000E+00  0.22009821048E+04  0.22819601625E+04  0.60251137564E+03 0.  0.
        4    1    3    3  502    0  0.24604879036E+03 -0.58451201676E+02  0.17204807719E+04  0.17389687317E+04  0.12699999809E+01 0.  1.
       -4    1    3    3    0  502 -0.24604879036E+03  0.58451201676E+02  0.48050133286E+03  0.54299143087E+03  0.12699999809E+01 0. -1.
</event>
<event>
 5   0  0.1418763E-03  0.6000990E+03  0.7818609E-02  0.9905201E-01
        1   -1    0    0  501    0  0.00000000000E+00  0.00000000000E+00  0.41430673079E+03  0.41430673082E+03  0.50400001928E-02 0.  1.
       -1   -1    0    0    0  501  0.00000000000E+00  0.00000000000E+00 -0.21730203300E+03  0.21730203306E+03  0.50400001928E-02 0. -1.
    10030    2    1    2    0    0  0.00000000000E+00  0.00000000000E+00  0.19700469779E+03  0.63160876388E+03  0.60009897488E+03 0.  0.
        5    1    3    3  502    0  0.10784286097E+03 -0.26201115340E+03  0.20231011616E+03  0.34818299824E+03  0.46999998093E+01 0.  1.
       -5    1    3    3    0  502 -0.10784286097E+03  0.26201115340E+03 -0.53054183636E+01  0.28342576564E+03  0.46999998093E+01 0. -1.
</event>
<event>
 5   0  0.2313168E-03  0.6044437E+03  0.7818609E-02  0.9896229E-01
       -2   -1    0    0    0  501  0.00000000000E+00  0.00000000000E+00  0.27695018033E+03  0.27695018034E+03  0.25500000920E-02 0. -1.
        2   -1    0    0  501    0  0.00000000000E+00  0.00000000000E+00 -0.32979959126E+03  0.32979959127E+03  0.25500000920E-02 0.  1.
    10030    2    1    2    0    0  0.00000000000E+00  0.00000000000E+00 -0.52849410935E+02  0.60674977161E+03  0.60444373197E+03 0.  0.
        2    1    3    3  502    0 -0.15301221794E+03 -0.17571121818E+03 -0.21964513250E+03  0.32020486453E+03  0.25500000920E-02 0.  1.
       -2    1    3    3    0  502  0.15301221794E+03  0.17571121818E+03  0.16679572157E+03  0.28654490708E+03  0.25500000920E-02 0. -1.
</event>
<event>
 5   0  0.1416315E-03  0.5994740E+03  0.7818609E-02  0.9906498E-01
        1   -1    0    0  501    0  0.00000000000E+00  0.00000000000E+00  0.43506723349E+03  0.43506723352E+03  0.50400001928E-02 0. -1.
       -1   -1    0    0    0  501  0.00000000000E+00  0.00000000000E+00 -0.20650201441E+03  0.20650201447E+03  0.50400001928E-02 0.  1.
    10030    2    1    2    0    0  0.00000000000E+00  0.00000000000E+00  0.22856521908E+03  0.64156924799E+03  0.59947396991E+03 0.  0.
        2    1    3    3  502    0  0.24681915514E+03  0.19342594193E+02 -0.66544822508E+02  0.25636311104E+03  0.25500000920E-02 0.  1.
       -2    1    3    3    0  502 -0.24681915514E+03 -0.19342594193E+02  0.29511004159E+03  0.38520613695E+03  0.25500000920E-02 0. -1.
</event>
<event>
 5   0  0.2313168E-03  0.6001876E+03  0.7818609E-02  0.9905017E-01
       -2   -1    0    0    0  501  0.00000000000E+00  0.00000000000E+00  0.50194291763E+03  0.50194291764E+03  0.25500000920E-02 0. -1.
        2   -1    0    0  501    0  0.00000000000E+00  0.00000000000E+00 -0.17941541537E+03  0.17941541539E+03  0.25500000920E-02 0.  1.
    10030    2    1    2    0    0  0.00000000000E+00  0.00000000000E+00  0.32252750227E+03  0.68135833303E+03  0.60018762755E+03 0.  0.
        2    1    3    3  502    0  0.20581266002E+03  0.11742329312E+03 -0.47784919094E+02  0.24172397335E+03  0.25500000920E-02 0.  1.
       -2    1    3    3    0  502 -0.20581266002E+03 -0.11742329312E+03  0.37031242136E+03  0.43963435968E+03  0.25500000920E-02 0. -1.
</event>
<event>
 5   0  0.1418763E-03  0.6001797E+03  0.7818609E-02  0.9905033E-01
        1   -1    0    0  501    0  0.00000000000E+00  0.00000000000E+00  0.67225646667E+03  0.67225646669E+03  0.50400001928E-02 0.  1.
       -1   -1    0    0    0  501  0.00000000000E+00  0.00000000000E+00 -0.13395770346E+03  0.13395770356E+03  0.50400001928E-02 0. -1.
    10030    2    1    2    0    0  0.00000000000E+00  0.00000000000E+00  0.53829876321E+03  0.80621417025E+03  0.60017974794E+03 0.  0.
        5    1    3    3  502    0  0.29607507920E+03  0.15020519618E+02  0.33137383241E+03  0.44465354529E+03  0.46999998093E+01 0.  1.
       -5    1    3    3    0  502 -0.29607507920E+03 -0.15020519618E+02  0.20692493079E+03  0.36156062495E+03  0.46999998093E+01 0. -1.
</event>
<event>
 5   0  0.2324616E-03  0.5999238E+03  0.7818609E-02  0.9905564E-01
        2   -1    0    0  501    0  0.00000000000E+00  0.00000000000E+00  0.30040973212E+03  0.30040973214E+03  0.25500000920E-02 0. -1.
       -2   -1    0    0    0  501  0.00000000000E+00  0.00000000000E+00 -0.29951475270E+03  0.29951475271E+03  0.25500000920E-02 0.  1.
    10030    2    1    2    0    0  0.00000000000E+00  0.00000000000E+00  0.89497942532E+00  0.59992448485E+03  0.59992381727E+03 0.  0.
        4    1    3    3  502    0 -0.47752978565E+01  0.29273258006E+03 -0.64824068513E+02  0.29986486900E+03  0.12699999809E+01 0.  1.
       -4    1    3    3    0  502  0.47752978565E+01 -0.29273258006E+03  0.65719047939E+02  0.30005961585E+03  0.12699999809E+01 0. -1.
</event>
<event>
 5   0  0.1423430E-03  0.6000158E+03  0.7818609E-02  0.9905373E-01
        1   -1    0    0  501    0  0.00000000000E+00  0.00000000000E+00  0.27543047703E+03  0.27543047708E+03  0.50400001928E-02 0. -1.
       -1   -1    0    0    0  501  0.00000000000E+00  0.00000000000E+00 -0.32677846208E+03  0.32677846212E+03  0.50400001928E-02 0.  1.
    10030    2    1    2    0    0  0.00000000000E+00  0.00000000000E+00 -0.51347985049E+02  0.60220893920E+03  0.60001582553E+03 0.  0.
        1    1    3    3  502    0  0.10608839989E+03 -0.11624525171E+02 -0.30708225309E+03  0.32509904393E+03  0.50400001928E-02 0.  1.
       -1    1    3    3    0  502 -0.10608839989E+03  0.11624525171E+02  0.25573426804E+03  0.27710989527E+03  0.50400001928E-02 0. -1.
</event>
<event>
 5   0  0.1418763E-03  0.6001431E+03  0.7818609E-02  0.9905109E-01
       -1   -1    0    0    0  501  0.00000000000E+00  0.00000000000E+00  0.13694611679E+03  0.13694611688E+03  0.50400001928E-02 0.  1.
        1   -1    0    0  501    0  0.00000000000E+00  0.00000000000E+00 -0.65750636016E+03  0.65750636018E+03  0.50400001928E-02 0. -1.
    10030    2    1    2    0    0  0.00000000000E+00  0.00000000000E+00 -0.52056024337E+03  0.79445247706E+03  0.60014312570E+03 0.  0.
        5    1    3    3  502    0 -0.23538259741E+03 -0.14883695806E+03 -0.40806573169E+03  0.49406187733E+03  0.46999998093E+01 0. -1.
       -5    1    3    3    0  502  0.23538259741E+03  0.14883695806E+03 -0.11249451168E+03  0.30039059973E+03  0.46999998093E+01 0.  1.
</event>
<event>
 5   0  0.1392854E-03  0.6001714E+03  0.7818609E-02  0.9905051E-01
        1   -1    0    0  501    0  0.00000000000E+00  0.00000000000E+00  0.26995583771E+03  0.26995583775E+03  0.50400001928E-02 0. -1.
       -1   -1    0    0    0  501  0.00000000000E+00  0.00000000000E+00 -0.33357833862E+03  0.33357833866E+03  0.50400001928E-02 0.  1.
    10030    2    1    2    0    0  0.00000000000E+00  0.00000000000E+00 -0.63622500914E+02  0.60353417641E+03  0.60017137509E+03 0.  0.
        4    1    3    3  502    0 -0.14850412689E+03 -0.26074398281E+03 -0.28810120173E+02  0.30145071935E+03  0.12699999809E+01 0.  1.
       -4    1    3    3    0  502  0.14850412689E+03  0.26074398281E+03 -0.34812380741E+02  0.30208345706E+03  0.12699999809E+01 0. -1.
</event>
<event>
 5   0  0.2313168E-03  0.5999829E+03  0.7818609E-02  0.9905441E-01
       -2   -1    0    0    0  501  0.00000000000E+00  0.00000000000E+00  0.63428687242E+02  0.63428687293E+02  0.25500000920E-02 0.  1.
        2   -1    0    0  501    0  0.00000000000E+00  0.00000000000E+00 -0.14188356481E+04  0.14188356481E+04  0.25500000920E-02 0. -1.
    10030    2    1    2    0    0  0.00000000000E+00  0.00000000000E+00 -0.13554069609E+04  0.14822643354E+04  0.59998294179E+03 0.  0.
        2    1    3    3  502    0  0.63709669757E+02  0.87055141561E+02 -0.13692583789E+04  0.13735013753E+04  0.25500000920E-02 0. -1.
       -2    1    3    3    0  502 -0.63709669757E+02 -0.87055141561E+02  0.13851418093E+02  0.10876296007E+03  0.25500000920E-02 0.  1.
</event>
<event>
 5   0  0.2346281E-03  0.6001355E+03  0.7818609E-02  0.9905125E-01
        2   -1    0    0  501    0  0.00000000000E+00  0.00000000000E+00  0.14919552831E+04  0.14919552831E+04  0.25500000920E-02 0.  1.
       -2   -1    0    0    0  501  0.00000000000E+00  0.00000000000E+00 -0.60350771467E+02  0.60350771521E+02  0.25500000920E-02 0. -1.
    10030    2    1    2    0    0  0.00000000000E+00  0.00000000000E+00  0.14316045117E+04  0.15523060546E+04  0.60013549262E+03 0.  0.
        3    1    3    3  502    0 -0.34896243465E+02  0.64439367709E+02 -0.36849370995E+02  0.82024790536E+02  0.10100000352E+00 0. -1.
       -3    1    3    3    0  502  0.34896243465E+02 -0.64439367709E+02  0.14684538827E+04  0.14702812641E+04  0.10100000352E+00 0.  1.
</event>
<event>
 5   0  0.1479385E-03  0.5998405E+03  0.7818609E-02  0.9905737E-01
       -1   -1    0    0    0  501  0.00000000000E+00  0.00000000000E+00  0.17510708966E+03  0.17510708973E+03  0.50400001928E-02 0.  1.
        1   -1    0    0  501    0  0.00000000000E+00  0.00000000000E+00 -0.51369799579E+03  0.51369799582E+03  0.50400001928E-02 0. -1.
    10030    2    1    2    0    0  0.00000000000E+00  0.00000000000E+00 -0.33859090614E+03  0.68880508555E+03  0.59984051560E+03 0.  0.
        3    1    3    3  502    0 -0.37897956104E+02 -0.65192377684E+02  0.16404371762E+03  0.18054543106E+03  0.10100000352E+00 0.  1.
       -3    1    3    3    0  502  0.37897956104E+02  0.65192377684E+02 -0.50263462375E+03  0.50825965449E+03  0.10100000352E+00 0. -1.
</event>
<event>
 5   0  0.2406307E-03  0.5996693E+03  0.7818609E-02  0.9906092E-01
        2   -1    0    0  501    0  0.00000000000E+00  0.00000000000E+00  0.13837577839E+03  0.13837577841E+03  0.25500000920E-02 0. -1.
       -2   -1    0    0    0  501  0.00000000000E+00  0.00000000000E+00 -0.64968611570E+03  0.64968611571E+03  0.25500000920E-02 0.  1.
    10030    2    1    2    0    0  0.00000000000E+00  0.00000000000E+00 -0.51131033732E+03  0.78806189412E+03  0.59966931547E+03 0.  0.
        5    1    3    3  502    0 -0.52372663121E+02  0.29130802079E+03 -0.31834316082E+03  0.43470417166E+03  0.46999998093E+01 0.  1.
       -5    1    3    3    0  502  0.52372663121E+02 -0.29130802079E+03 -0.19296717649E+03  0.35335772246E+03  0.46999998093E+01 0. -1.
</event>
<event>
 5   0  0.2406307E-03  0.5999474E+03  0.7818609E-02  0.9905515E-01
       -2   -1    0    0    0  501  0.00000000000E+00  0.00000000000E+00  0.19834738236E+03  0.19834738238E+03  0.25500000920E-02 0. -1.
        2   -1    0    0  501    0  0.00000000000E+00  0.00000000000E+00 -0.45366977125E+03  0.45366977126E+03  0.25500000920E-02 0.  1.
    10030    2    1    2    0    0  0.00000000000E+00  0.00000000000E+00 -0.25532238889E+03  0.65201715363E+03  0.59994736966E+03 0.  0.
        5    1    3    3  502    0 -0.15101067094E+02  0.27781680842E+03 -0.59023244512E+01  0.27832920921E+03  0.46999998093E+01 0. -1.
       -5    1    3    3    0  502  0.15101067094E+02 -0.27781680842E+03 -0.24942006444E+03  0.37368794442E+03  0.46999998093E+01 0.  1.
</event>
<event>
 5   0  0.2406307E-03  0.6001424E+03  0.7818609E-02  0.9905111E-01
        2   -1    0    0  501    0  0.00000000000E+00  0.00000000000E+00  0.31380808004E+03  0.31380808005E+03  0.25500000920E-02 0.  1.
       -2   -1    0    0    0  501  0.00000000000E+00  0.00000000000E+00 -0.28693568040E+03  0.28693568041E+03  0.25500000920E-02 0. -1.
    10030    2    1    2    0    0  0.00000000000E+00  0.00000000000E+00  0.26872399637E+02  0.60074376046E+03  0.60014243299E+03 0.  0.
        5    1    3    3  502    0  0.23361878041E+03  0.55243492888E+02  0.19359171451E+03  0.30843057565E+03  0.46999998093E+01 0.  1.
       -5    1    3    3    0  502 -0.23361878041E+03 -0.55243492888E+02 -0.16671931487E+03  0.29231318482E+03  0.46999998093E+01 0. -1.
</event>
<event>
 5   0  0.1392854E-03  0.6001259E+03  0.7818609E-02  0.9905145E-01
        1   -1    0    0  501    0  0.00000000000E+00  0.00000000000E+00  0.12284928468E+04  0.12284928468E+04  0.50400001928E-02 0. -1.
       -1   -1    0    0    0  501  0.00000000000E+00  0.00000000000E+00 -0.73291246692E+02  0.73291246866E+02  0.50400001928E-02 0.  1.
    10030    2    1    2    0    0  0.00000000000E+00  0.00000000000E+00  0.11552016001E+04  0.13017840937E+04  0.60012589484E+03 0.  0.
        4    1    3    3  502    0  0.43723048779E+02 -0.89101754041E+02 -0.36647636593E+02  0.10580874130E+03  0.12699999809E+01 0.  1.
       -4    1    3    3    0  502 -0.43723048779E+02  0.89101754041E+02  0.11918492367E+04  0.11959753524E+04  0.12699999809E+01 0. -1.
</event>
<event>
 5   0  0.2324616E-03  0.6002174E+03  0.7818609E-02  0.9904955E-01
       -2   -1    0    0    0  501  0.00000000000E+00  0.00000000000E+00  0.18889571367E+03  0.18889571369E+03  0.25500000920E-02 0.  1.
        2   -1    0    0  501    0  0.00000000000E+00  0.00000000000E+00 -0.47679865340E+03  0.47679865340E+03  0.25500000920E-02 0. -1.
    10030    2    1    2    0    0  0.00000000000E+00  0.00000000000E+00 -0.28790293972E+03  0.66569436710E+03  0.60021736703E+03 0.  0.
        4    1    3    3  502    0  0.55207522756E+02  0.85005209788E+02  0.16933393054E+03  0.19735589474E+03  0.12699999809E+01 0.  1.
       -4    1    3    3    0  502 -0.55207522756E+02 -0.85005209788E+02 -0.45723687026E+03  0.46833847235E+03  0.12699999809E+01 0. -1.
</event>
<event>
 5   0  0.1392854E-03  0.6008925E+03  0.7818609E-02  0.9903556E-01
        1   -1    0    0  501    0  0.00000000000E+00  0.00000000000E+00  0.85394553931E+03  0.85394553932E+03  0.50400001928E-02 0.  1.
       -1   -1    0    0    0  501  0.00000000000E+00  0.00000000000E+00 -0.10570690341E+03  0.10570690353E+03  0.50400001928E-02 0. -1.
    10030    2    1    2    0    0  0.00000000000E+00  0.00000000000E+00  0.74823863590E+03  0.95965244285E+03  0.60089246527E+03 0.  0.
        4    1    3    3  502    0  0.26813145330E+02 -0.85960660132E+02  0.83188426075E+03  0.83674441500E+03  0.12699999809E+01 0.  1.
       -4    1    3    3    0  502 -0.26813145330E+02  0.85960660132E+02 -0.83645624853E+02  0.12290802785E+03  0.12699999809E+01 0. -1.
</event>
<event>
 5   0  0.9496750E-04  0.6004882E+03  0.7818609E-02  0.9904394E-01
        3   -1    0    0  501    0  0.00000000000E+00  0.00000000000E+00  0.73640483209E+03  0.73640483902E+03  0.10100000352E+00 0.  1.
       -3   -1    0    0    0  501  0.00000000000E+00  0.00000000000E+00 -0.12241432795E+03  0.12241436961E+03  0.10100000352E+00 0. -1.
    10030    2    1    2    0    0  0.00000000000E+00  0.00000000000E+00  0.61399050414E+03  0.85881920863E+03  0.60048821299E+03 0.  0.
        4    1    3    3  502    0 -0.17728555713E+03  0.14430230244E+03  0.58539488724E+03  0.62844419813E+03  0.12699999809E+01 0.  1.
       -4    1    3    3    0  502  0.17728555713E+03 -0.14430230244E+03  0.28595616903E+02  0.23037501050E+03  0.12699999809E+01 0. -1.
</event>
<event>
 5   0  0.1423430E-03  0.5999526E+03  0.7818609E-02  0.9905504E-01
        1   -1    0    0  501    0  0.00000000000E+00  0.00000000000E+00  0.45374108684E+03  0.45374108687E+03  0.50400001928E-02 0. -1.
       -1   -1    0    0    0  501  0.00000000000E+00  0.00000000000E+00 -0.19831967493E+03  0.19831967500E+03  0.50400001928E-02 0.  1.
    10030    2    1    2    0    0  0.00000000000E+00  0.00000000000E+00  0.25542141191E+03  0.65206076186E+03  0.59995261438E+03 0.  0.
        1    1    3    3  502    0  0.29838028401E+03 -0.99640685944E+01  0.95917524403E+02  0.31357654258E+03  0.50400001928E-02 0.  1.
       -1    1    3    3    0  502 -0.29838028401E+03  0.99640685944E+01  0.15950388750E+03  0.33848421928E+03  0.50400001928E-02 0. -1.
</event>
<event>
 5   0  0.1416315E-03  0.5999468E+03  0.7818609E-02  0.9905516E-01
        1   -1    0    0  501    0  0.00000000000E+00  0.00000000000E+00  0.86097677974E+03  0.86097677975E+03  0.50400001928E-02 0. -1.
       -1   -1    0    0    0  501  0.00000000000E+00  0.00000000000E+00 -0.10451390891E+03  0.10451390903E+03  0.50400001928E-02 0.  1.
    10030    2    1    2    0    0  0.00000000000E+00  0.00000000000E+00  0.75646287083E+03  0.96549068878E+03  0.59994682696E+03 0.  0.
        2    1    3    3  502    0  0.37410685205E+01 -0.92598863656E+02 -0.80898422396E+02  0.12301666512E+03  0.25500000920E-02 0.  1.
       -2    1    3    3    0  502 -0.37410685205E+01  0.92598863656E+02  0.83736129323E+03  0.84247402366E+03  0.25500000920E-02 0. -1.
</event>
<event>
 5   0  0.2324616E-03  0.6001595E+03  0.7818609E-02  0.9905075E-01
       -2   -1    0    0    0  501  0.00000000000E+00  0.00000000000E+00  0.25672045879E+03  0.25672045880E+03  0.25500000920E-02 0. -1.
        2   -1    0    0  501    0  0.00000000000E+00  0.00000000000E+00 -0.35076226507E+03  0.35076226508E+03  0.25500000920E-02 0.  1.
    10030    2    1    2    0    0  0.00000000000E+00  0.00000000000E+00 -0.94041806281E+02  0.60748272387E+03  0.60015947754E+03 0.  0.
        4    1    3    3  502    0  0.17486358839E+03  0.16095327096E+03  0.13841665206E+03  0.27503456591E+03  0.12699999809E+01 0. -1.
       -4    1    3    3    0  502 -0.17486358839E+03 -0.16095327096E+03 -0.23245845834E+03  0.33244815796E+03  0.12699999809E+01 0.  1.
</event>
<event>
 5   0  0.1392854E-03  0.5998604E+03  0.7818609E-02  0.9905696E-01
        1   -1    0    0  501    0  0.00000000000E+00  0.00000000000E+00  0.29790281433E+03  0.29790281438E+03  0.50400001928E-02 0.  1.
       -1   -1    0    0    0  501  0.00000000000E+00  0.00000000000E+00 -0.30197140215E+03  0.30197140219E+03  0.50400001928E-02 0. -1.
    10030    2    1    2    0    0  0.00000000000E+00  0.00000000000E+00 -0.40685878149E+01  0.59987421657E+03  0.59986041901E+03 0.  0.
        4    1    3    3  502    0 -0.21446521103E+03  0.11679367387E+03  0.17209733306E+03  0.29875607767E+03  0.12699999809E+01 0. -1.
       -4    1    3    3    0  502  0.21446521103E+03 -0.11679367387E+03 -0.17616592087E+03  0.30111813890E+03  0.12699999809E+01 0.  1.
</event>
<event>
 5   0  0.1423430E-03  0.6000071E+03  0.7818609E-02  0.9905391E-01
       -1   -1    0    0    0  501  0.00000000000E+00  0.00000000000E+00  0.93500664533E+03  0.93500664535E+03  0.50400001928E-02 0.  1.
        1   -1    0    0  501    0  0.00000000000E+00  0.00000000000E+00 -0.96258282246E+02  0.96258282378E+02  0.50400001928E-02 0. -1.
    10030    2    1    2    0    0  0.00000000000E+00  0.00000000000E+00  0.83874836309E+03  0.10312649277E+04  0.60000711210E+03 0.  0.
        1    1    3    3  502    0 -0.52613418809E+02  0.12216913321E+03 -0.42803554152E+02  0.13973408038E+03  0.50400001928E-02 0. -1.
       -1    1    3    3    0  502  0.52613418809E+02 -0.12216913321E+03  0.88155191724E+03  0.89153084734E+03  0.50400001928E-02 0.  1.
</event>
<event>
 5   0  0.2421210E-03  0.6002008E+03  0.7818609E-02  0.9904990E-01
        2   -1    0    0  501    0  0.00000000000E+00  0.00000000000E+00  0.81069682172E+03  0.81069682173E+03  0.25500000920E-02 0. -1.
       -2   -1    0    0    0  501  0.00000000000E+00  0.00000000000E+00 -0.11108990891E+03  0.11108990894E+03  0.25500000920E-02 0.  1.
    10030    2    1    2    0    0  0.00000000000E+00  0.00000000000E+00  0.69960691281E+03  0.92178673067E+03  0.60020075340E+03 0.  0.
        1    1    3    3  502    0  0.23272097374E+03 -0.46463788733E+02  0.63191526300E+03  0.67500728509E+03  0.50400001928E-02 0. -1.
       -1    1    3    3    0  502 -0.23272097374E+03  0.46463788733E+02  0.67691649812E+02  0.24677944558E+03  0.50400001928E-02 0.  1.
</event>
<event>
 5   0  0.9496750E-04  0.5997086E+03  0.7818609E-02  0.9906011E-01
        3   -1    0    0  501    0  0.00000000000E+00  0.00000000000E+00  0.15960724186E+03  0.15960727382E+03  0.10100000352E+00 0. -1.
       -3   -1    0    0    0  501  0.00000000000E+00  0.00000000000E+00 -0.56333653755E+03  0.56333654660E+03  0.10100000352E+00 0.  1.
    10030    2    1    2    0    0  0.00000000000E+00  0.00000000000E+00 -0.40372929569E+03  0.72294382042E+03  0.59970861531E+03 0.  0.
        3    1    3    3  502    0  0.18313877880E+03  0.23687794496E+03 -0.18236612019E+03  0.35058292186E+03  0.10100000352E+00 0.  1.
       -3    1    3    3    0  502 -0.18313877880E+03 -0.23687794496E+03 -0.22136317549E+03  0.37236089855E+03  0.10100000352E+00 0. -1.
</event>
<event>
 5   0  0.2406307E-03  0.6000919E+03  0.7818609E-02  0.9905215E-01
       -2   -1    0    0    0  501  0.00000000000E+00  0.00000000000E+00  0.16621842630E+03  0.16621842632E+03  0.25500000920E-02 0.  1.
        2   -1    0    0  501    0  0.00000000000E+00  0.00000000000E+00 -0.54162215992E+03  0.54162215992E+03  0.25500000920E-02 0. -1.
    10030    2    1    2    0    0  0.00000000000E+00  0.00000000000E+00 -0.37540373361E+03  0.70784058624E+03  0.60009193656E+03 0.  0.
        5    1    3    3  502    0  0.26330632867E+03 -0.92483328112E+02 -0.31757122048E+03  0.42279659267E+03  0.46999998093E+01 0. -1.
       -5    1    3    3    0  502 -0.26330632867E+03  0.92483328112E+02 -0.57832513131E+02  0.28504399357E+03  0.46999998093E+01 0.  1.
</event>
<event>
 5   0  0.1392854E-03  0.6004225E+03  0.7818609E-02  0.9904530E-01
        1   -1    0    0  501    0  0.00000000000E+00  0.00000000000E+00  0.46315230903E+03  0.46315230906E+03  0.50400001928E-02 0.  1.
       -1   -1    0    0    0  501  0.00000000000E+00  0.00000000000E+00 -0.19459428197E+03  0.19459428203E+03  0.50400001928E-02 0. -1.
    10030    2    1    2    0    0  0.00000000000E+00  0.00000000000E+00  0.26855802706E+03  0.65774659109E+03  0.60042248808E+03 0.  0.
        4    1    3    3  502    0  0.18153792582E+03 -0.17239168877E+03 -0.47220275866E+02  0.25476710977E+03  0.12699999809E+01 0. -1.
       -4    1    3    3    0  502 -0.18153792582E+03  0.17239168877E+03  0.31577830292E+03  0.40297948132E+03  0.12699999809E+01 0.  1.
</event>
<event>
 5   0  0.2324616E-03  0.6010237E+03  0.7818609E-02  0.9903285E-01
        2   -1    0    0  501    0  0.00000000000E+00  0.00000000000E+00  0.10308574932E+04  0.10308574933E+04  0.25500000920E-02 0.  1.
       -2   -1    0    0    0  501  0.00000000000E+00  0.00000000000E+00 -0.87604122566E+02  0.87604122603E+02  0.25500000920E-02 0. -1.
    10030    2    1    2    0    0  0.00000000000E+00  0.00000000000E+00  0.94325337068E+03  0.11184616159E+04  0.60102368076E+03 0.  0.
        4    1    3    3  502    0 -0.21141338778E+03  0.18718880291E+03  0.66295399040E+03  0.72058647972E+03  0.12699999809E+01 0.  1.
       -4    1    3    3    0  502  0.21141338778E+03 -0.18718880291E+03  0.28029938028E+03  0.39787513613E+03  0.12699999809E+01 0. -1.
</event>
<event>
 5   0  0.2313168E-03  0.6000480E+03  0.7818609E-02  0.9905307E-01
        2   -1    0    0  501    0  0.00000000000E+00  0.00000000000E+00  0.32453818339E+03  0.32453818340E+03  0.25500000920E-02 0.  1.
       -2   -1    0    0    0  501  0.00000000000E+00  0.00000000000E+00 -0.27736147210E+03  0.27736147211E+03  0.25500000920E-02 0. -1.
    10030    2    1    2    0    0  0.00000000000E+00  0.00000000000E+00  0.47176711289E+02  0.60189965551E+03  0.60004795910E+03 0.  0.
        2    1    3    3  502    0  0.24679870576E+03 -0.16295395250E+03 -0.27072910272E+02  0.29697901320E+03  0.25500000920E-02 0. -1.
       -2    1    3    3    0  502 -0.24679870576E+03  0.16295395250E+03  0.74249621560E+02  0.30492064232E+03  0.25500000920E-02 0.  1.
</event>
<event>
 5   0  0.1423430E-03  0.6001715E+03  0.7818609E-02  0.9905050E-01
        1   -1    0    0  501    0  0.00000000000E+00  0.00000000000E+00  0.13539637988E+04  0.13539637988E+04  0.50400001928E-02 0. -1.
       -1   -1    0    0    0  501  0.00000000000E+00  0.00000000000E+00 -0.66509495306E+02  0.66509495496E+02  0.50400001928E-02 0.  1.
    10030    2    1    2    0    0  0.00000000000E+00  0.00000000000E+00  0.12874543035E+04  0.14204732943E+04  0.60017147238E+03 0.  0.
        1    1    3    3  502    0  0.26329675253E+03 -0.46577841081E+02  0.32131681117E+03  0.41801814355E+03  0.50400001928E-02 0.  1.
       -1    1    3    3    0  502 -0.26329675253E+03  0.46577841081E+02  0.96613749235E+03  0.10024551508E+04  0.50400001928E-02 0. -1.
</event>
<event>
 5   0  0.2313168E-03  0.6000342E+03  0.7818609E-02  0.9905335E-01
        2   -1    0    0  501    0  0.00000000000E+00  0.00000000000E+00  0.36627620110E+03  0.36627620111E+03  0.25500000920E-02 0.  1.
       -2   -1    0    0    0  501  0.00000000000E+00  0.00000000000E+00 -0.24574421607E+03  0.24574421608E+03  0.25500000920E-02 0. -1.
    10030    2    1    2    0    0  0.00000000000E+00  0.00000000000E+00  0.12053198503E+03  0.61202041719E+03  0.60003419206E+03 0.  0.
        2    1    3    3  502    0  0.25753088426E+03  0.15315953280E+03  0.44788582632E+02  0.30296207019E+03  0.25500000920E-02 0.  1.
       -2    1    3    3    0  502 -0.25753088426E+03 -0.15315953280E+03  0.75743402397E+02  0.30905834699E+03  0.25500000920E-02 0. -1.
</event>
<event>
 5   0  0.1416315E-03  0.5996482E+03  0.7818609E-02  0.9906136E-01
       -1   -1    0    0    0  501  0.00000000000E+00  0.00000000000E+00  0.57152775043E+03  0.57152775045E+03  0.50400001928E-02 0.  1.
        1   -1    0    0  501    0  0.00000000000E+00  0.00000000000E+00 -0.15728804331E+03  0.15728804340E+03  0.50400001928E-02 0. -1.
    10030    2    1    2    0    0  0.00000000000E+00  0.00000000000E+00  0.41423970712E+03  0.72881579385E+03  0.59964816886E+03 0.  0.
        2    1    3    3  502    0 -0.20756630795E+03 -0.53038131303E+02 -0.47819032040E+02  0.21950734703E+03  0.25500000920E-02 0. -1.
       -2    1    3    3    0  502  0.20756630795E+03  0.53038131303E+02  0.46205873916E+03  0.50930844682E+03  0.25500000920E-02 0.  1.
</event>
<event>
 5   0  0.1392854E-03  0.5991854E+03  0.7818609E-02  0.9907098E-01
        1   -1    0    0  501    0  0.00000000000E+00  0.00000000000E+00  0.68505919183E+03  0.68505919185E+03  0.50400001928E-02 0.  1.
       -1   -1    0    0    0  501  0.00000000000E+00  0.00000000000E+00 -0.13101900636E+03  0.13101900646E+03  0.50400001928E-02 0. -1.
    10030    2    1    2    0    0  0.00000000000E+00  0.00000000000E+00  0.55404018547E+03  0.81607819831E+03  0.59918536250E+03 0.  0.
        4    1    3    3  502    0 -0.68534187203E+02  0.28903923363E+03  0.33000701965E+03  0.44401222879E+03  0.12699999809E+01 0.  1.
       -4    1    3    3    0  502  0.68534187203E+02 -0.28903923363E+03  0.22403316582E+03  0.37206596952E+03  0.12699999809E+01 0. -1.
</event>
<event>
 5   0  0.2421210E-03  0.6003465E+03  0.7818609E-02  0.9904687E-01
        2   -1    0    0  501    0  0.00000000000E+00  0.00000000000E+00  0.17292407268E+03  0.17292407270E+03  0.25500000920E-02 0. -1.
       -2   -1    0    0    0  501  0.00000000000E+00  0.00000000000E+00 -0.52106094651E+03  0.52106094651E+03  0.25500000920E-02 0.  1.
    10030    2    1    2    0    0  0.00000000000E+00  0.00000000000E+00 -0.34813687383E+03  0.69398501921E+03  0.60034650326E+03 0.  0.
        1    1    3    3  502    0  0.16219810511E+03  0.43997101636E+00  0.11790500150E+03  0.20052433339E+03  0.50400001928E-02 0. -1.
       -1    1    3    3    0  502 -0.16219810511E+03 -0.43997101636E+00 -0.46604187532E+03  0.49346068583E+03  0.50400001928E-02 0.  1.
</event>
<event>
 5   0  0.2313168E-03  0.6000754E+03  0.7818609E-02  0.9905250E-01
        2   -1    0    0  501    0  0.00000000000E+00  0.00000000000E+00  0.10891424600E+04  0.10891424600E+04  0.25500000920E-02 0.  1.
       -2   -1    0    0    0  501  0.00000000000E+00  0.00000000000E+00 -0.82654600422E+02  0.82654600462E+02  0.25500000920E-02 0. -1.
    10030    2    1    2    0    0  0.00000000000E+00  0.00000000000E+00  0.10064878596E+04  0.11717970604E+04  0.60007544478E+03 0.  0.
        2    1    3    3  502    0  0.36183742776E+02  0.17920398666E+03  0.38672937382E+02  0.18686607014E+03  0.25500000920E-02 0. -1.
       -2    1    3    3    0  502 -0.36183742776E+02 -0.17920398666E+03  0.96781492218E+03  0.98493099031E+03  0.25500000920E-02 0.  1.
</event>
<event>
 5   0  0.1423430E-03  0.5993497E+03  0.7818609E-02  0.9906756E-01
        1   -1    0    0  501    0  0.00000000000E+00  0.00000000000E+00  0.50716590102E+03  0.50716590105E+03  0.50400001928E-02 0. -1.
       -1   -1    0    0    0  501  0.00000000000E+00  0.00000000000E+00 -0.17707224898E+03  0.17707224905E+03  0.50400001928E-02 0.  1.
    10030    2    1    2    0    0  0.00000000000E+00  0.00000000000E+00  0.33009365204E+03  0.68423815009E+03  0.59934967000E+03 0.  0.
        1    1    3    3  502    0  0.51304618665E+02 -0.29058094957E+03  0.22475718809E+03  0.37092485192E+03  0.50400001928E-02 0. -1.
       -1    1    3    3    0  502 -0.51304618665E+02  0.29058094957E+03  0.10533646395E+03  0.31331329817E+03  0.50400001928E-02 0.  1.
</event>
<event>
 5   0  0.1416315E-03  0.6006992E+03  0.7818609E-02  0.9903957E-01
        1   -1    0    0  501    0  0.00000000000E+00  0.00000000000E+00  0.23865303749E+03  0.23865303754E+03  0.50400001928E-02 0.  1.
       -1   -1    0    0    0  501  0.00000000000E+00  0.00000000000E+00 -0.37799592799E+03  0.37799592803E+03  0.50400001928E-02 0. -1.
    10030    2    1    2    0    0  0.00000000000E+00  0.00000000000E+00 -0.13934289050E+03  0.61664896557E+03  0.60069918063E+03 0.  0.
        2    1    3    3  502    0 -0.27761817733E+02  0.78130757305E+02  0.22667110706E+03  0.24136056957E+03  0.25500000920E-02 0.  1.
       -2    1    3    3    0  502  0.27761817733E+02 -0.78130757305E+02 -0.36601399756E+03  0.37528839601E+03  0.25500000920E-02 0. -1.
</event>
<event>
 5   0  0.2421210E-03  0.5999744E+03  0.7818609E-02  0.9905459E-01
        2   -1    0    0  501    0  0.00000000000E+00  0.00000000000E+00  0.13471105992E+03  0.13471105994E+03  0.25500000920E-02 0.  1.
       -2   -1    0    0    0  501  0.00000000000E+00  0.00000000000E+00 -0.66803959881E+03  0.66803959882E+03  0.25500000920E-02 0. -1.
    10030    2    1    2    0    0  0.00000000000E+00  0.00000000000E+00 -0.53332853889E+03  0.80275065876E+03  0.59997440757E+03 0.  0.
        1    1    3    3  502    0  0.45183469958E+02  0.16933722873E+03  0.59087073894E+02  0.18495384645E+03  0.50400001928E-02 0.  1.
       -1    1    3    3    0  502 -0.45183469958E+02 -0.16933722873E+03 -0.59241561279E+03  0.61779681230E+03  0.50400001928E-02 0. -1.
</event>
<event>
 5   0  0.1416315E-03  0.5999331E+03  0.7818609E-02  0.9905545E-01
       -1   -1    0    0    0  501  0.00000000000E+00  0.00000000000E+00  0.43078198799E+03  0.43078198802E+03  0.50400001928E-02 0.  1.
        1   -1    0    0  501    0  0.00000000000E+00  0.00000000000E+00 -0.20887578137E+03  0.20887578143E+03  0.50400001928E-02 0. -1.
    10030    2    1    2    0    0  0.00000000000E+00  0.00000000000E+00  0.22190620662E+03  0.63965776946E+03  0.59993307751E+03 0.  0.
        2    1    3    3  502    0  0.17639928192E+03  0.11304214568E+03 -0.11793499543E+03  0.24042440915E+03  0.25500000920E-02 0. -1.
       -2    1    3    3    0  502 -0.17639928192E+03 -0.11304214568E+03  0.33984120205E+03  0.39923336030E+03  0.25500000920E-02 0.  1.
</event>
<event>
 5   0  0.1423430E-03  0.6000276E+03  0.7818609E-02  0.9905349E-01
        1   -1    0    0  501    0  0.00000000000E+00  0.00000000000E+00  0.82563000259E+03  0.82563000260E+03  0.50400001928E-02 0. -1.
       -1   -1    0    0    0  501  0.00000000000E+00  0.00000000000E+00 -0.10901771049E+03  0.10901771060E+03  0.50400001928E-02 0.  1.
    10030    2    1    2    0    0  0.00000000000E+00  0.00000000000E+00  0.71661229210E+03  0.93464771320E+03  0.60002764153E+03 0.  0.
        1    1    3    3  502    0  0.52471718840E+02  0.22006195473E+02 -0.10053603723E+03  0.11552077183E+03  0.50400001928E-02 0.  1.
       -1    1    3    3    0  502 -0.52471718840E+02 -0.22006195473E+02  0.81714832933E+03  0.81912694137E+03  0.50400001928E-02 0. -1.
</event>
<event>
 5   0  0.9496750E-04  0.5999445E+03  0.7818609E-02  0.9905521E-01
        3   -1    0    0  501    0  0.00000000000E+00  0.00000000000E+00  0.10075976069E+04  0.10075976120E+04  0.10100000352E+00 0. -1.
       -3   -1    0    0    0  501  0.00000000000E+00  0.00000000000E+00 -0.89304801812E+02  0.89304858925E+02  0.10100000352E+00 0.  1.
    10030    2    1    2    0    0  0.00000000000E+00  0.00000000000E+00  0.91829280513E+03  0.10969024709E+04  0.59994445974E+03 0.  0.
        3    1    3    3  502    0 -0.26776412632E+02 -0.40123833602E+02 -0.82167096733E+02  0.95280324742E+02  0.10100000352E+00 0.  1.
       -3    1    3    3    0  502  0.26776412632E+02  0.40123833602E+02  0.10004599019E+04  0.10016221462E+04  0.10100000352E+00 0. -1.
</event>
<event>
 5   0  0.2324616E-03  0.5999383E+03  0.7818609E-02  0.9905534E-01
        2   -1    0    0  501    0  0.00000000000E+00  0.00000000000E+00  0.81063674124E+03  0.81063674124E+03  0.25500000920E-02 0.  1.
       -2   -1    0    0    0  501  0.00000000000E+00  0.00000000000E+00 -0.11100101096E+03  0.11100101098E+03  0.25500000920E-02 0. -1.
    10030    2    1    2    0    0  0.00000000000E+00  0.00000000000E+00  0.69963573028E+03  0.92163775222E+03  0.59993832286E+03 0.  0.
        4    1    3    3  502    0  0.20133243597E+03  0.66718919641E+02  0.23958950706E+02  0.21345212164E+03  0.12699999809E+01 0.  1.
       -4    1    3    3    0  502 -0.20133243597E+03 -0.66718919641E+02  0.67567677957E+03  0.70818563059E+03  0.12699999809E+01 0. -1.
</event>
<event>
 5   0  0.2324616E-03  0.6003706E+03  0.7818609E-02  0.9904638E-01
        2   -1    0    0  501    0  0.00000000000E+00  0.00000000000E+00  0.71301437550E+03  0.71301437550E+03  0.25500000920E-02 0.  1.
       -2   -1    0    0    0  501  0.00000000000E+00  0.00000000000E+00 -0.12638062957E+03  0.12638062960E+03  0.25500000920E-02 0. -1.
    10030    2    1    2    0    0  0.00000000000E+00  0.00000000000E+00  0.58663374593E+03  0.83939500510E+03  0.60037057117E+03 0.  0.
        4    1    3    3  502    0 -0.47307072779E+02 -0.25559050013E+03  0.50324631695E+03  0.56641233330E+03  0.12699999809E+01 0.  1.
       -4    1    3    3    0  502  0.47307072779E+02  0.25559050013E+03  0.83387428974E+02  0.27298267180E+03  0.12699999809E+01 0. -1.
</event>
<event>
 5   0  0.2324616E-03  0.5999871E+03  0.7818609E-02  0.9905433E-01
       -2   -1    0    0    0  501  0.00000000000E+00  0.00000000000E+00  0.42196228892E+03  0.42196228893E+03  0.25500000920E-02 0.  1.
        2   -1    0    0  501    0  0.00000000000E+00  0.00000000000E+00 -0.21328003987E+03  0.21328003989E+03  0.25500000920E-02 0. -1.
    10030    2    1    2    0    0  0.00000000000E+00  0.00000000000E+00  0.20868224905E+03  0.63524232881E+03  0.59998711257E+03 0.  0.
        4    1    3    3  502    0  0.28421987550E+03  0.93055935378E+02  0.12926533624E+03  0.32580896979E+03  0.12699999809E+01 0.  1.
       -4    1    3    3    0  502 -0.28421987550E+03 -0.93055935378E+02  0.79416912804E+02  0.30943335903E+03  0.12699999809E+01 0. -1.
</event>
<event>
 5   0  0.2346281E-03  0.6003318E+03  0.7818609E-02  0.9904718E-01
       -2   -1    0    0    0  501  0.00000000000E+00  0.00000000000E+00  0.37243020277E+03  0.37243020278E+03  0.25500000920E-02 0. -1.
        2   -1    0    0  501    0  0.00000000000E+00  0.00000000000E+00 -0.24192332467E+03  0.24192332468E+03  0.25500000920E-02 0.  1.
    10030    2    1    2    0    0  0.00000000000E+00  0.00000000000E+00  0.13050687810E+03  0.61435352746E+03  0.60033175117E+03 0.  0.
        3    1    3    3  502    0  0.11117609807E+03  0.10623284190E+03  0.32906122566E+03  0.36321734804E+03  0.10100000352E+00 0. -1.
       -3    1    3    3    0  502 -0.11117609807E+03 -0.10623284190E+03 -0.19855434756E+03  0.25113617942E+03  0.10100000352E+00 0.  1.
</event>
<event>
 5   0  0.1423430E-03  0.5985673E+03  0.7818609E-02  0.9908383E-01
        1   -1    0    0  501    0  0.00000000000E+00  0.00000000000E+00  0.60365349005E+03  0.60365349008E+03  0.50400001928E-02 0. -1.
       -1   -1    0    0    0  501  0.00000000000E+00  0.00000000000E+00 -0.14838100690E+03  0.14838100699E+03  0.50400001928E-02 0.  1.
    10030    2    1    2    0    0  0.00000000000E+00  0.00000000000E+00  0.45527248315E+03  0.75203449706E+03  0.59856733193E+03 0.  0.
        1    1    3    3  502    0 -0.93564464884E+02  0.65171562726E+01 -0.12943951069E+03  0.15984795704E+03  0.50400001928E-02 0.  1.
       -1    1    3    3    0  502  0.93564464884E+02 -0.65171562726E+01  0.58471199385E+03  0.59218654003E+03  0.50400001928E-02 0. -1.
</event>
<event>
 5   0  0.2313168E-03  0.5998616E+03  0.7818609E-02  0.9905693E-01
        2   -1    0    0  501    0  0.00000000000E+00  0.00000000000E+00  0.55240695807E+03  0.55240695807E+03  0.25500000920E-02 0.  1.
       -2   -1    0    0    0  501  0.00000000000E+00  0.00000000000E+00 -0.16284820229E+03  0.16284820231E+03  0.25500000920E-02 0. -1.
    10030    2    1    2    0    0  0.00000000000E+00  0.00000000000E+00  0.38955875578E+03  0.71525516038E+03  0.59986158424E+03 0.  0.
        2    1    3    3  502    0 -0.13548589873E+03  0.13941205032E+03 -0.77556649587E+02  0.20930165415E+03  0.25500000920E-02 0.  1.
       -2    1    3    3    0  502  0.13548589873E+03 -0.13941205032E+03  0.46711540537E+03  0.50595350623E+03  0.25500000920E-02 0. -1.
</event>
<event>
 5   0  0.2421210E-03  0.6000262E+03  0.7818609E-02  0.9905352E-01
        2   -1    0    0  501    0  0.00000000000E+00  0.00000000000E+00  0.38364191727E+03  0.38364191728E+03  0.25500000920E-02 0.  1.
       -2   -1    0    0    0  501  0.00000000000E+00  0.00000000000E+00 -0.23461422616E+03  0.23461422618E+03  0.25500000920E-02 0. -1.
    10030    2    1    2    0    0  0.00000000000E+00  0.00000000000E+00  0.14902769110E+03  0.61825614345E+03  0.60002617127E+03 0.  0.
        1    1    3    3  502    0  0.32717439333E+02 -0.16776802522E+03 -0.17953603771E+03  0.24789056050E+03  0.50400001928E-02 0. -1.
       -1    1    3    3    0  502 -0.32717439333E+02  0.16776802522E+03  0.32856372881E+03  0.37036558296E+03  0.50400001928E-02 0.  1.
</event>
<event>
 5   0  0.1416315E-03  0.5993216E+03  0.7818609E-02  0.9906815E-01
        1   -1    0    0  501    0  0.00000000000E+00  0.00000000000E+00  0.49108627024E+03  0.49108627026E+03  0.50400001928E-02 0. -1.
       -1   -1    0    0    0  501  0.00000000000E+00  0.00000000000E+00 -0.18285298341E+03  0.18285298348E+03  0.50400001928E-02 0.  1.
    10030    2    1    2    0    0  0.00000000000E+00  0.00000000000E+00  0.30823328682E+03  0.67393925374E+03  0.59932158198E+03 0.  0.
        2    1    3    3  502    0  0.16885180725E+03  0.80157764150E+02  0.41750118351E+03  0.45743134807E+03  0.25500000920E-02 0. -1.
       -2    1    3    3    0  502 -0.16885180725E+03 -0.80157764150E+02 -0.10926789668E+03  0.21650790567E+03  0.25500000920E-02 0.  1.
</event>
<event>
 5   0  0.1416315E-03  0.6001160E+03  0.7818609E-02  0.9905165E-01
       -1   -1    0    0    0  501  0.00000000000E+00  0.00000000000E+00  0.79644934247E+02  0.79644934406E+02  0.50400001928E-02 0. -1.
        1   -1    0    0  501    0  0.00000000000E+00  0.00000000000E+00 -0.11304525381E+04  0.11304525381E+04  0.50400001928E-02 0.  1.
    10030    2    1    2    0    0  0.00000000000E+00  0.00000000000E+00 -0.10508076039E+04  0.12100974725E+04  0.60011604935E+03 0.  0.
        2    1    3    3  502    0 -0.49011563642E+02  0.25203557739E+03 -0.83850915665E+03  0.87693880712E+03  0.25500000920E-02 0.  1.
       -2    1    3    3    0  502  0.49011563642E+02 -0.25203557739E+03 -0.21229844722E+03  0.33315866541E+03  0.25500000920E-02 0. -1.
</event>
<event>
 5   0  0.2324616E-03  0.5999956E+03  0.7818609E-02  0.9905415E-01
        2   -1    0    0  501    0  0.00000000000E+00  0.00000000000E+00  0.75680268612E+03  0.75680268613E+03  0.25500000920E-02 0.  1.
       -2   -1    0    0    0  501  0.00000000000E+00  0.00000000000E+00 -0.11891959677E+03  0.11891959680E+03  0.25500000920E-02 0. -1.
    10030    2    1    2    0    0  0.00000000000E+00  0.00000000000E+00  0.63788308935E+03  0.87572228293E+03  0.59999556759E+03 0.  0.
        4    1    3    3  502    0 -0.23304146869E+03  0.10831353564E+03  0.54485065870E+03  0.60241514035E+03  0.12699999809E+01 0.  1.
       -4    1    3    3    0  502  0.23304146869E+03 -0.10831353564E+03  0.93032430649E+02  0.27330714258E+03  0.12699999809E+01 0. -1.
</event>
<event>
 5   0  0.2324616E-03  0.5994372E+03  0.7818609E-02  0.9906574E-01
       -2   -1    0    0    0  501  0.00000000000E+00  0.00000000000E+00  0.15764827632E+03  0.15764827634E+03  0.25500000920E-02 0.  1.
        2   -1    0    0  501    0  0.00000000000E+00  0.00000000000E+00 -0.56982070858E+03  0.56982070858E+03  0.25500000920E-02 0. -1.
    10030    2    1    2    0    0  0.00000000000E+00  0.00000000000E+00 -0.41217243226E+03  0.72746898493E+03  0.59943724452E+03 0.  0.
        4    1    3    3  502    0 -0.10120625596E+03  0.27985032278E+03 -0.24934730426E+03  0.38824554144E+03  0.12699999809E+01 0. -1.
       -4    1    3    3    0  502  0.10120625596E+03 -0.27985032278E+03 -0.16282512800E+03  0.33922344349E+03  0.12699999809E+01 0.  1.
</event>
<event>
 5   0  0.2324616E-03  0.5998542E+03  0.7818609E-02  0.9905709E-01
       -2   -1    0    0    0  501  0.00000000000E+00  0.00000000000E+00  0.12588238500E+03  0.12588238502E+03  0.25500000920E-02 0.  1.
        2   -1    0    0  501    0  0.00000000000E+00  0.00000000000E+00 -0.71460564877E+03  0.71460564877E+03  0.25500000920E-02 0. -1.
    10030    2    1    2    0    0  0.00000000000E+00  0.00000000000E+00 -0.58872326377E+03  0.84048803379E+03  0.59985419366E+03 0.  0.
        4    1    3    3  502    0  0.72908742359E+02  0.23240937503E+03 -0.49160309740E+02  0.24849175292E+03  0.12699999809E+01 0.  1.
       -4    1    3    3    0  502 -0.72908742359E+02 -0.23240937503E+03 -0.53956295403E+03  0.59199628088E+03  0.12699999809E+01 0. -1.
</event>
<event>
 5   0  0.1479385E-03  0.5999484E+03  0.7818609E-02  0.9905513E-01
        1   -1    0    0  501    0  0.00000000000E+00  0.00000000000E+00  0.37964524655E+03  0.37964524658E+03  0.50400001928E-02 0.  1.
       -1   -1    0    0    0  501  0.00000000000E+00  0.00000000000E+00 -0.23702263790E+03  0.23702263795E+03  0.50400001928E-02 0. -1.
    10030    2    1    2    0    0  0.00000000000E+00  0.00000000000E+00  0.14262260865E+03  0.61666788453E+03  0.59994839055E+03 0.  0.
        3    1    3    3  502    0 -0.12924619599E+03 -0.27062957054E+03  0.64846021558E+02  0.30683865523E+03  0.10100000352E+00 0. -1.
       -3    1    3    3    0  502  0.12924619599E+03  0.27062957054E+03  0.77776587087E+02  0.30982922930E+03  0.10100000352E+00 0.  1.
</event>
<event>
 5   0  0.9496750E-04  0.6000050E+03  0.7818609E-02  0.9905396E-01
       -3   -1    0    0    0  501  0.00000000000E+00  0.00000000000E+00  0.90801218376E+03  0.90801218937E+03  0.10100000352E+00 0.  1.
        3   -1    0    0  501    0  0.00000000000E+00  0.00000000000E+00 -0.99119239157E+02  0.99119290615E+02  0.10100000352E+00 0. -1.
    10030    2    1    2    0    0  0.00000000000E+00  0.00000000000E+00  0.80889294460E+03  0.10071314800E+04  0.60000501845E+03 0.  0.
        2    1    3    3  502    0 -0.13856424401E+03 -0.16027328432E+03  0.76096870657E+03  0.78991198735E+03  0.25500000920E-02 0.  1.
       -2    1    3    3    0  502  0.13856424401E+03  0.16027328432E+03  0.47924238029E+02  0.21721949263E+03  0.25500000920E-02 0. -1.
</event>
<event>
 5   0  0.1479385E-03  0.5998847E+03  0.7818609E-02  0.9905645E-01
       -1   -1    0    0    0  501  0.00000000000E+00  0.00000000000E+00  0.17488598612E+03  0.17488598619E+03  0.50400001928E-02 0.  1.
        1   -1    0    0  501    0  0.00000000000E+00  0.00000000000E+00 -0.51442318756E+03  0.51442318759E+03  0.50400001928E-02 0. -1.
    10030    2    1    2    0    0  0.00000000000E+00  0.00000000000E+00 -0.33953720144E+03  0.68930917378E+03  0.59988467716E+03 0.  0.
        3    1    3    3  502    0 -0.29926593768E+02  0.29812223897E+03 -0.15380828262E+03  0.33679291618E+03  0.10100000352E+00 0. -1.
       -3    1    3    3    0  502  0.29926593768E+02 -0.29812223897E+03 -0.18572891882E+03  0.35251625760E+03  0.10100000352E+00 0.  1.
</event>
<event>
 5   0  0.2313168E-03  0.6001207E+03  0.7818609E-02  0.9905156E-01
        2   -1    0    0  501    0  0.00000000000E+00  0.00000000000E+00  0.12567516904E+04  0.12567516904E+04  0.25500000920E-02 0. -1.
       -2   -1    0    0    0  501  0.00000000000E+00  0.00000000000E+00 -0.71642018312E+02  0.71642018357E+02  0.25500000920E-02 0.  1.
    10030    2    1    2    0    0  0.00000000000E+00  0.00000000000E+00  0.11851096721E+04  0.13283937088E+04  0.60012074669E+03 0.  0.
        2    1    3    3  502    0  0.24465828907E+03  0.21822743600E+01  0.97706079850E+03  0.10072289932E+04  0.25500000920E-02 0.  1.
       -2    1    3    3    0  502 -0.24465828907E+03 -0.21822743600E+01  0.20804887361E+03  0.32116471560E+03  0.25500000920E-02 0. -1.
</event>
<event>
 5   0  0.1416315E-03  0.6015544E+03  0.7818609E-02  0.9902186E-01
        1   -1    0    0  501    0  0.00000000000E+00  0.00000000000E+00  0.52587025070E+03  0.52587025073E+03  0.50400001928E-02 0.  1.
       -1   -1    0    0    0  501  0.00000000000E+00  0.00000000000E+00 -0.17203279263E+03  0.17203279270E+03  0.50400001928E-02 0. -1.
    10030    2    1    2    0    0  0.00000000000E+00  0.00000000000E+00  0.35383745807E+03  0.69790304343E+03  0.60155441258E+03 0.  0.
        2    1    3    3  502    0  0.15713116603E+03  0.53577990919E+02  0.46790107206E+03  0.49647982607E+03  0.25500000920E-02 0.  1.
       -2    1    3    3    0  502 -0.15713116603E+03 -0.53577990919E+02 -0.11406361399E+03  0.20142321736E+03  0.25500000920E-02 0. -1.
</event>
<event>
 5   0  0.1416315E-03  0.5995374E+03  0.7818609E-02  0.9906366E-01
        1   -1    0    0  501    0  0.00000000000E+00  0.00000000000E+00  0.13693898914E+04  0.13693898914E+04  0.50400001928E-02 0.  1.
       -1   -1    0    0    0  501  0.00000000000E+00  0.00000000000E+00 -0.65621388863E+02  0.65621389056E+02  0.50400001928E-02 0. -1.
    10030    2    1    2    0    0  0.00000000000E+00  0.00000000000E+00  0.13037685026E+04  0.14350112805E+04  0.59953737737E+03 0.  0.
        2    1    3    3  502    0 -0.41784737195E+02  0.10906897694E+03  0.13126863555E+04  0.13178723284E+04  0.25500000920E-02 0.  1.
       -2    1    3    3    0  502  0.41784737195E+02 -0.10906897694E+03 -0.89178529352E+01  0.11713895211E+03  0.25500000920E-02 0. -1.
</event>
<event>
 5   0  0.1423430E-03  0.5999165E+03  0.7818609E-02  0.9905579E-01
        1   -1    0    0  501    0  0.00000000000E+00  0.00000000000E+00  0.38358310659E+03  0.38358310662E+03  0.50400001928E-02 0.  1.
       -1   -1    0    0    0  501  0.00000000000E+00  0.00000000000E+00 -0.23456446083E+03  0.23456446088E+03  0.50400001928E-02 0. -1.
    10030    2    1    2    0    0  0.00000000000E+00  0.00000000000E+00  0.14901864576E+03  0.61814756750E+03  0.59991654288E+03 0.  0.
        1    1    3    3  502    0 -0.11930232845E+03  0.26977058581E+03  0.18395662537E+02  0.29554629920E+03  0.50400001928E-02 0.  1.
       -1    1    3    3    0  502  0.11930232845E+03 -0.26977058581E+03  0.13062298322E+03  0.32260126831E+03  0.50400001928E-02 0. -1.
</event>
<event>
 5   0  0.2313168E-03  0.6000378E+03  0.7818609E-02  0.9905328E-01
       -2   -1    0    0    0  501  0.00000000000E+00  0.00000000000E+00  0.64266779500E+02  0.64266779550E+02  0.25500000920E-02 0. -1.
        2   -1    0    0  501    0  0.00000000000E+00  0.00000000000E+00 -0.14005889153E+04  0.14005889153E+04  0.25500000920E-02 0.  1.
    10030    2    1    2    0    0  0.00000000000E+00  0.00000000000E+00 -0.13363221358E+04  0.14648556948E+04  0.60003779557E+03 0.  0.
        2    1    3    3  502    0  0.17647573128E+03  0.22386884269E+03 -0.89652636313E+03  0.94075526161E+03  0.25500000920E-02 0.  1.
       -2    1    3    3    0  502 -0.17647573128E+03 -0.22386884269E+03 -0.43979577266E+03  0.52410043323E+03  0.25500000920E-02 0. -1.
</event>
<event>
 5   0  0.2324616E-03  0.5999403E+03  0.7818609E-02  0.9905530E-01
        2   -1    0    0  501    0  0.00000000000E+00  0.00000000000E+00  0.65982825595E+03  0.65982825596E+03  0.25500000920E-02 0. -1.
       -2   -1    0    0    0  501  0.00000000000E+00  0.00000000000E+00 -0.13637199411E+03  0.13637199414E+03  0.25500000920E-02 0.  1.
    10030    2    1    2    0    0  0.00000000000E+00  0.00000000000E+00  0.52345626184E+03  0.79620025010E+03  0.59994031386E+03 0.  0.
        4    1    3    3  502    0 -0.84576891375E+02 -0.23220819183E+03  0.36089906116E+02  0.24975585905E+03  0.12699999809E+01 0.  1.
       -4    1    3    3    0  502  0.84576891375E+02  0.23220819183E+03  0.48736635573E+03  0.54644439104E+03  0.12699999809E+01 0. -1.
</event>
<event>
 5   0  0.1423430E-03  0.6007326E+03  0.7818609E-02  0.9903887E-01
       -1   -1    0    0    0  501  0.00000000000E+00  0.00000000000E+00  0.45222009759E+03  0.45222009762E+03  0.50400001928E-02 0. -1.
        1   -1    0    0  501    0  0.00000000000E+00  0.00000000000E+00 -0.19950443398E+03  0.19950443404E+03  0.50400001928E-02 0.  1.
    10030    2    1    2    0    0  0.00000000000E+00  0.00000000000E+00  0.25271566361E+03  0.65172453166E+03  0.60073260153E+03 0.  0.
        1    1    3    3  502    0 -0.25464699536E+02 -0.29902042654E+03  0.14000530528E+03  0.33115427211E+03  0.50400001928E-02 0. -1.
       -1    1    3    3    0  502  0.25464699536E+02  0.29902042654E+03  0.11271035833E+03  0.32057025955E+03  0.50400001928E-02 0.  1.
</event>
<event>
 5   0  0.2421210E-03  0.6000167E+03  0.7818609E-02  0.9905371E-01
        2   -1    0    0  501    0  0.00000000000E+00  0.00000000000E+00  0.87446404352E+03  0.87446404353E+03  0.25500000920E-02 0.  1.
       -2   -1    0    0    0  501  0.00000000000E+00  0.00000000000E+00 -0.10292592484E+03  0.10292592487E+03  0.25500000920E-02 0. -1.
    10030    2    1    2    0    0  0.00000000000E+00  0.00000000000E+00  0.77153811869E+03  0.97738996840E+03  0.60001673455E+03 0.  0.
        1    1    3    3  502    0  0.60736696941E+02 -0.26525821695E+03  0.59151978815E+03  0.65111176292E+03  0.50400001928E-02 0. -1.
       -1    1    3    3    0  502 -0.60736696941E+02  0.26525821695E+03  0.18001833054E+03  0.32627820548E+03  0.50400001928E-02 0.  1.
</event>
<event>
 5   0  0.1416315E-03  0.5999774E+03  0.7818609E-02  0.9905453E-01
        1   -1    0    0  501    0  0.00000000000E+00  0.00000000000E+00  0.64062758667E+03  0.64062758669E+03  0.50400001928E-02 0.  1.
       -1   -1    0    0    0  501  0.00000000000E+00  0.00000000000E+00 -0.14047665928E+03  0.14047665937E+03  0.50400001928E-02 0. -1.
    10030    2    1    2    0    0  0.00000000000E+00  0.00000000000E+00  0.50015092739E+03  0.78110424606E+03  0.59997741045E+03 0.  0.
        2    1    3    3  502    0  0.25520586963E+03 -0.14710886082E+03  0.17617479752E+03  0.34323259186E+03  0.25500000920E-02 0.  1.
       -2    1    3    3    0  502 -0.25520586963E+03  0.14710886082E+03  0.32397612987E+03  0.43787165421E+03  0.25500000920E-02 0. -1.
</event>
<event>
 5   0  0.1392854E-03  0.5997237E+03  0.7818609E-02  0.9905979E-01
       -1   -1    0    0    0  501  0.00000000000E+00  0.00000000000E+00  0.82173641590E+02  0.82173641745E+02  0.50400001928E-02 0.  1.
        1   -1    0    0  501    0  0.00000000000E+00  0.00000000000E+00 -0.10942333191E+04  0.10942333191E+04  0.50400001928E-02 0. -1.
    10030    2    1    2    0    0  0.00000000000E+00  0.00000000000E+00 -0.10120596775E+04  0.11764069609E+04  0.59972372532E+03 0.  0.
        4    1    3    3  502    0 -0.17437046372E+03 -0.15176719992E+03 -0.13138737857E+03  0.26589960086E+03  0.12699999809E+01 0.  1.
       -4    1    3    3    0  502  0.17437046372E+03  0.15176719992E+03 -0.88067229894E+03  0.91050736000E+03  0.12699999809E+01 0. -1.
</event>
<event>
 5   0  0.1423430E-03  0.6017075E+03  0.7818609E-02  0.9901870E-01
        1   -1    0    0  501    0  0.00000000000E+00  0.00000000000E+00  0.27296513396E+03  0.27296513401E+03  0.50400001928E-02 0.  1.
       -1   -1    0    0    0  501  0.00000000000E+00  0.00000000000E+00 -0.33159173495E+03  0.33159173499E+03  0.50400001928E-02 0. -1.
    10030    2    1    2    0    0  0.00000000000E+00  0.00000000000E+00 -0.58626600992E+02  0.60455686900E+03  0.60170751160E+03 0.  0.
        1    1    3    3  502    0  0.22315882366E+03 -0.15687240553E+03 -0.15681644696E+03  0.31464298857E+03  0.50400001928E-02 0. -1.
       -1    1    3    3    0  502 -0.22315882366E+03  0.15687240553E+03  0.98189845965E+02  0.28991388043E+03  0.50400001928E-02 0.  1.
</event>
<event>
 5   0  0.1423430E-03  0.5998715E+03  0.7818609E-02  0.9905673E-01
        1   -1    0    0  501    0  0.00000000000E+00  0.00000000000E+00  0.32224281011E+03  0.32224281015E+03  0.50400001928E-02 0.  1.
       -1   -1    0    0    0  501  0.00000000000E+00  0.00000000000E+00 -0.27917286608E+03  0.27917286613E+03  0.50400001928E-02 0. -1.
    10030    2    1    2    0    0  0.00000000000E+00  0.00000000000E+00  0.43069944031E+02  0.60141567628E+03  0.59987148257E+03 0.  0.
        1    1    3    3  502    0  0.11610167473E+03 -0.14726249509E+03 -0.21315222657E+03  0.28390088597E+03  0.50400001928E-02 0. -1.
       -1    1    3    3    0  502 -0.11610167473E+03  0.14726249509E+03  0.25622217060E+03  0.31751479032E+03  0.50400001928E-02 0.  1.
</event>
<event>
 5   0  0.1423430E-03  0.5995842E+03  0.7818609E-02  0.9906269E-01
        1   -1    0    0  501    0  0.00000000000E+00  0.00000000000E+00  0.36698703315E+03  0.36698703318E+03  0.50400001928E-02 0. -1.
       -1   -1    0    0    0  501  0.00000000000E+00  0.00000000000E+00 -0.24490051128E+03  0.24490051134E+03  0.50400001928E-02 0.  1.
    10030    2    1    2    0    0  0.00000000000E+00  0.00000000000E+00  0.12208652186E+03  0.61188754452E+03  0.59958422954E+03 0.  0.
        1    1    3    3  502    0 -0.10565922056E+03 -0.25664147386E+03 -0.54625325689E+02  0.28286506187E+03  0.50400001928E-02 0.  1.
       -1    1    3    3    0  502  0.10565922056E+03  0.25664147386E+03  0.17671184755E+03  0.32902248265E+03  0.50400001928E-02 0. -1.
</event>
<event>
 5   0  0.9496750E-04  0.6000722E+03  0.7818609E-02  0.9905256E-01
       -3   -1    0    0    0  501  0.00000000000E+00  0.00000000000E+00  0.42368455268E+03  0.42368456472E+03  0.10100000352E+00 0.  1.
        3   -1    0    0  501    0  0.00000000000E+00  0.00000000000E+00 -0.21247328377E+03  0.21247330777E+03  0.10100000352E+00 0. -1.
    10030    2    1    2    0    0  0.00000000000E+00  0.00000000000E+00  0.21121126892E+03  0.63615787249E+03  0.60007219451E+03 0.  0.
        3    1    3    3  502    0  0.15887678322E+03  0.25440945873E+03  0.97697526346E+02  0.31545335914E+03  0.10100000352E+00 0. -1.
       -3    1    3    3    0  502 -0.15887678322E+03 -0.25440945873E+03  0.11351374257E+03  0.32070451336E+03  0.10100000352E+00 0.  1.
</event>
<event>
 5   0  0.1416315E-03  0.6005736E+03  0.7818609E-02  0.9904217E-01
       -1   -1    0    0    0  501  0.00000000000E+00  0.00000000000E+00  0.13124174656E+03  0.13124174666E+03  0.50400001928E-02 0. -1.
        1   -1    0    0  501    0  0.00000000000E+00  0.00000000000E+00 -0.68706922224E+03  0.68706922226E+03  0.50400001928E-02 0.  1.
    10030    2    1    2    0    0  0.00000000000E+00  0.00000000000E+00 -0.55582747568E+03  0.81831096892E+03  0.60057360842E+03 0.  0.
        2    1    3    3  502    0  0.96785192862E+01  0.29910555055E+03 -0.31168628625E+03  0.43209506494E+03  0.25500000920E-02 0. -1.
       -2    1    3    3    0  502 -0.96785192862E+01 -0.29910555055E+03 -0.24414118943E+03  0.38621590398E+03  0.25500000920E-02 0.  1.
</event>
<event>
 5   0  0.1392854E-03  0.5998151E+03  0.7818609E-02  0.9905790E-01
       -1   -1    0    0    0  501  0.00000000000E+00  0.00000000000E+00  0.54833466616E+03  0.54833466618E+03  0.50400001928E-02 0. -1.
        1   -1    0    0  501    0  0.00000000000E+00  0.00000000000E+00 -0.16403218632E+03  0.16403218640E+03  0.50400001928E-02 0.  1.
    10030    2    1    2    0    0  0.00000000000E+00  0.00000000000E+00  0.38430247983E+03  0.71236685258E+03  0.59981508538E+03 0.  0.
        4    1    3    3  502    0 -0.46373399241E+01  0.28379260081E+03  0.30719451893E+03  0.41824613633E+03  0.12699999809E+01 0.  1.
       -4    1    3    3    0  502  0.46373399241E+01 -0.28379260081E+03  0.77107960901E+02  0.29412071625E+03  0.12699999809E+01 0. -1.
</event>
<event>
 5   0  0.2313168E-03  0.6000466E+03  0.7818609E-02  0.9905309E-01
       -2   -1    0    0    0  501  0.00000000000E+00  0.00000000000E+00  0.49928593550E+02  0.49928593615E+02  0.25500000920E-02 0. -1.
        2   -1    0    0  501    0  0.00000000000E+00  0.00000000000E+00 -0.18028546138E+04  0.18028546138E+04  0.25500000920E-02 0.  1.
    10030    2    1    2    0    0  0.00000000000E+00  0.00000000000E+00 -0.17529260203E+04  0.18527832074E+04  0.60004664920E+03 0.  0.
        2    1    3    3  502    0  0.22087894074E+02 -0.11947293793E+02  0.46677869796E+02  0.53004117093E+02  0.25500000920E-02 0. -1.
       -2    1    3    3    0  502 -0.22087894074E+02  0.11947293793E+02 -0.17996038901E+04  0.17997790903E+04  0.25500000920E-02 0.  1.
</event>
<event>
 5   0  0.9496750E-04  0.5997237E+03  0.7818609E-02  0.9905980E-01
        4   -1    0    0  501    0  0.00000000000E+00  0.00000000000E+00  0.42410830445E+03  0.42411020596E+03  0.12699999809E+01 0.  1.
       -4   -1    0    0    0  501  0.00000000000E+00  0.00000000000E+00 -0.21201025085E+03  0.21201405464E+03  0.12699999809E+01 0. -1.
    10030    2    1    2    0    0  0.00000000000E+00  0.00000000000E+00  0.21209805360E+03  0.63612426060E+03  0.59972367852E+03 0.  0.
        5    1    3    3  502    0  0.31924303777E+02 -0.10960228525E+03 -0.18802050041E+03  0.22001277390E+03  0.46999998093E+01 0. -1.
       -5    1    3    3    0  502 -0.31924303777E+02  0.10960228525E+03  0.40011855401E+03  0.41611148670E+03  0.46999998093E+01 0.  1.
</event>
<event>
 5   0  0.1479385E-03  0.6005011E+03  0.7818609E-02  0.9904367E-01
       -1   -1    0    0    0  501  0.00000000000E+00  0.00000000000E+00  0.15722720113E+03  0.15722720121E+03  0.50400001928E-02 0.  1.
        1   -1    0    0  501    0  0.00000000000E+00  0.00000000000E+00 -0.57337663276E+03  0.57337663278E+03  0.50400001928E-02 0. -1.
    10030    2    1    2    0    0  0.00000000000E+00  0.00000000000E+00 -0.41614943163E+03  0.73060383399E+03  0.60050113472E+03 0.  0.
        3    1    3    3  502    0  0.80228359260E+02 -0.10134720793E+03 -0.53779220113E+03  0.55310786288E+03  0.10100000352E+00 0. -1.
       -3    1    3    3    0  502 -0.80228359260E+02  0.10134720793E+03  0.12164276950E+03  0.17749597111E+03  0.10100000352E+00 0.  1.
</event>
<event>
 5   0  0.2421210E-03  0.6000771E+03  0.7818609E-02  0.9905246E-01
       -2   -1    0    0    0  501  0.00000000000E+00  0.00000000000E+00  0.14737997003E+03  0.14737997005E+03  0.25500000920E-02 0.  1.
        2   -1    0    0  501    0  0.00000000000E+00  0.00000000000E+00 -0.61082329563E+03  0.61082329564E+03  0.25500000920E-02 0. -1.
    10030    2    1    2    0    0  0.00000000000E+00  0.00000000000E+00 -0.46344332560E+03  0.75820326569E+03  0.60007705844E+03 0.  0.
        1    1    3    3  502    0  0.39134390367E+02 -0.93918937349E+02  0.12491694601E+03  0.16111024402E+03  0.50400001928E-02 0.  1.
       -1    1    3    3    0  502 -0.39134390367E+02  0.93918937349E+02 -0.58836027161E+03  0.59709302168E+03  0.50400001928E-02 0. -1.
</event>
<event>
 5   0  0.2421210E-03  0.6004006E+03  0.7818609E-02  0.9904575E-01
       -2   -1    0    0    0  501  0.00000000000E+00  0.00000000000E+00  0.64444850780E+02  0.64444850830E+02  0.25500000920E-02 0. -1.
        2   -1    0    0  501    0  0.00000000000E+00  0.00000000000E+00 -0.13984083599E+04  0.13984083599E+04  0.25500000920E-02 0.  1.
    10030    2    1    2    0    0  0.00000000000E+00  0.00000000000E+00 -0.13339635092E+04  0.14628532108E+04  0.60040059335E+03 0.  0.
        1    1    3    3  502    0 -0.10882608700E+03 -0.27434350472E+03 -0.53324812566E+03  0.60947603672E+03  0.50400001928E-02 0. -1.
       -1    1    3    3    0  502  0.10882608700E+03  0.27434350472E+03 -0.80071538349E+03  0.85337717404E+03  0.50400001928E-02 0.  1.
</event>
<event>
 5   0  0.2313168E-03  0.6003106E+03  0.7818609E-02  0.9904762E-01
        2   -1    0    0  501    0  0.00000000000E+00  0.00000000000E+00  0.10430152420E+04  0.10430152420E+04  0.25500000920E-02 0.  1.
       -2   -1    0    0    0  501  0.00000000000E+00  0.00000000000E+00 -0.86377652032E+02  0.86377652070E+02  0.25500000920E-02 0. -1.
    10030    2    1    2    0    0  0.00000000000E+00  0.00000000000E+00  0.95663758999E+03  0.11293928941E+04  0.60031061181E+03 0.  0.
        2    1    3    3  502    0  0.39609045072E+00 -0.14002145104E+03 -0.21167618454E+02  0.14161296450E+03  0.25500000920E-02 0. -1.
       -2    1    3    3    0  502 -0.39609045072E+00  0.14002145104E+03  0.97780520844E+03  0.98777992959E+03  0.25500000920E-02 0.  1.
</event>
<event>
 5   0  0.2406307E-03  0.6021479E+03  0.7818609E-02  0.9900960E-01
       -2   -1    0    0    0  501  0.00000000000E+00  0.00000000000E+00  0.44782591603E+02  0.44782591676E+02  0.25500000920E-02 0.  1.
        2   -1    0    0  501    0  0.00000000000E+00  0.00000000000E+00 -0.20241239156E+04  0.20241239156E+04  0.25500000920E-02 0. -1.
    10030    2    1    2    0    0  0.00000000000E+00  0.00000000000E+00 -0.19793413240E+04  0.20689065073E+04  0.60214787135E+03 0.  0.
        5    1    3    3  502    0 -0.24045294325E+02 -0.46032060064E+02 -0.20084898233E+04  0.20091666400E+04  0.46999998093E+01 0. -1.
       -5    1    3    3    0  502  0.24045294325E+02  0.46032060064E+02  0.29148499344E+02  0.59739867301E+02  0.46999998093E+01 0.  1.
</event>
<event>
 5   0  0.1416315E-03  0.6000367E+03  0.7818609E-02  0.9905330E-01
        1   -1    0    0  501    0  0.00000000000E+00  0.00000000000E+00  0.13568257197E+04  0.13568257197E+04  0.50400001928E-02 0.  1.
       -1   -1    0    0    0  501  0.00000000000E+00  0.00000000000E+00 -0.66339413732E+02  0.66339413924E+02  0.50400001928E-02 0. -1.
    10030    2    1    2    0    0  0.00000000000E+00  0.00000000000E+00  0.12904863060E+04  0.14231651337E+04  0.60003674197E+03 0.  0.
        2    1    3    3  502    0 -0.11754477608E+03 -0.26690483100E+03  0.47827035804E+03  0.56017631026E+03  0.25500000920E-02 0.  1.
       -2    1    3    3    0  502  0.11754477608E+03  0.26690483100E+03  0.81221594797E+03  0.86298882341E+03  0.25500000920E-02 0. -1.
</event>
<event>
 5   0  0.2421210E-03  0.6000486E+03  0.7818609E-02  0.9905305E-01
       -2   -1    0    0    0  501  0.00000000000E+00  0.00000000000E+00  0.80041317681E+02  0.80041317722E+02  0.25500000920E-02 0. -1.
        2   -1    0    0  501    0  0.00000000000E+00  0.00000000000E+00 -0.11246012496E+04  0.11246012497E+04  0.25500000920E-02 0.  1.
    10030    2    1    2    0    0  0.00000000000E+00  0.00000000000E+00 -0.10445599320E+04  0.12046425674E+04  0.60004855108E+03 0.  0.
        1    1    3    3  502    0  0.26074510394E+01 -0.12967545337E+03  0.20849983453E+02  0.13136682931E+03  0.50400001928E-02 0. -1.
       -1    1    3    3    0  502 -0.26074510394E+01  0.12967545337E+03 -0.10654099154E+04  0.10732757381E+04  0.50400001928E-02 0.  1.
</event>
<event>
 5   0  0.1392854E-03  0.5996882E+03  0.7818609E-02  0.9906053E-01
       -1   -1    0    0    0  501  0.00000000000E+00  0.00000000000E+00  0.24477809737E+03  0.24477809742E+03  0.50400001928E-02 0.  1.
        1   -1    0    0  501    0  0.00000000000E+00  0.00000000000E+00 -0.36729795931E+03  0.36729795935E+03  0.50400001928E-02 0. -1.
    10030    2    1    2    0    0  0.00000000000E+00  0.00000000000E+00 -0.12251986194E+03  0.61207605677E+03  0.59968823792E+03 0.  0.
        4    1    3    3  502    0  0.42376488570E+02 -0.26982875885E+03 -0.18751466486E+03  0.33131056175E+03  0.12699999809E+01 0. -1.
       -4    1    3    3    0  502 -0.42376488570E+02  0.26982875885E+03  0.64994802917E+02  0.28076549502E+03  0.12699999809E+01 0.  1.
</event>
<event>
 5   0  0.9496750E-04  0.5998874E+03  0.7818609E-02  0.9905640E-01
        4   -1    0    0  501    0  0.00000000000E+00  0.00000000000E+00  0.23089696756E+03  0.23090046022E+03  0.12699999809E+01 0.  1.
       -4   -1    0    0    0  501  0.00000000000E+00  0.00000000000E+00 -0.38963046275E+03  0.38963253253E+03  0.12699999809E+01 0. -1.
    10030    2    1    2    0    0  0.00000000000E+00  0.00000000000E+00 -0.15873349519E+03  0.62053299274E+03  0.59988738325E+03 0.  0.
        1    1    3    3  502    0  0.49903632146E+02  0.46756840025E+01 -0.38527060086E+03  0.38851727174E+03  0.50400001928E-02 0. -1.
       -1    1    3    3    0  502 -0.49903632146E+02 -0.46756840025E+01  0.22653710567E+03  0.23201572101E+03  0.50400001928E-02 0.  1.
</event>
<event>
 5   0  0.9496750E-04  0.6001498E+03  0.7818609E-02  0.9905095E-01
       -3   -1    0    0    0  501  0.00000000000E+00  0.00000000000E+00  0.12611122696E+03  0.12611126741E+03  0.10100000352E+00 0. -1.
        3   -1    0    0  501    0  0.00000000000E+00  0.00000000000E+00 -0.71401197021E+03  0.71401197736E+03  0.10100000352E+00 0.  1.
    10030    2    1    2    0    0  0.00000000000E+00  0.00000000000E+00 -0.58790074325E+03  0.84012324476E+03  0.60014980003E+03 0.  0.
        5    1    3    3  502    0  0.29904825981E+03  0.24082124852E+02 -0.28889435515E+03  0.41652352739E+03  0.46999998093E+01 0. -1.
       -5    1    3    3    0  502 -0.29904825981E+03 -0.24082124852E+02 -0.29900638810E+03  0.42359971737E+03  0.46999998093E+01 0.  1.
</event>
<event>
 5   0  0.1423430E-03  0.5995758E+03  0.7818609E-02  0.9906286E-01
       -1   -1    0    0    0  501  0.00000000000E+00  0.00000000000E+00  0.16895060471E+03  0.16895060479E+03  0.50400001928E-02 0.  1.
        1   -1    0    0  501    0  0.00000000000E+00  0.00000000000E+00 -0.53194717788E+03  0.53194717791E+03  0.50400001928E-02 0. -1.
    10030    2    1    2    0    0  0.00000000000E+00  0.00000000000E+00 -0.36299657317E+03  0.70089778269E+03  0.59957584145E+03 0.  0.
        1    1    3    3  502    0 -0.13081730796E+03 -0.26822363686E+03 -0.21488536695E+03  0.36774013703E+03  0.50400001928E-02 0. -1.
       -1    1    3    3    0  502  0.13081730796E+03  0.26822363686E+03 -0.14811120622E+03  0.33315764566E+03  0.50400001928E-02 0.  1.
</event>
<event>
 5   0  0.1418763E-03  0.5991449E+03  0.7818609E-02  0.9907182E-01
       -1   -1    0    0    0  501  0.00000000000E+00  0.00000000000E+00  0.65767504830E+02  0.65767505023E+02  0.50400001928E-02 0.  1.
        1   -1    0    0  501    0  0.00000000000E+00  0.00000000000E+00 -0.13645591869E+04  0.13645591869E+04  0.50400001928E-02 0. -1.
    10030    2    1    2    0    0  0.00000000000E+00  0.00000000000E+00 -0.12987916820E+04  0.14303266919E+04  0.59914490086E+03 0.  0.
        5    1    3    3  502    0 -0.29536855384E+03  0.23577808964E+02 -0.54470694333E+03  0.62010179792E+03  0.46999998093E+01 0.  1.
       -5    1    3    3    0  502  0.29536855384E+03 -0.23577808964E+02 -0.75408473871E+03  0.81022489399E+03  0.46999998093E+01 0. -1.
</event>
<event>
 5   0  0.9496750E-04  0.5998426E+03  0.7818609E-02  0.9905733E-01
       -4   -1    0    0    0  501  0.00000000000E+00  0.00000000000E+00  0.69251559900E+03  0.69251676352E+03  0.12699999809E+01 0. -1.
        4   -1    0    0  501    0  0.00000000000E+00  0.00000000000E+00 -0.12988842664E+03  0.12989463528E+03  0.12699999809E+01 0.  1.
    10030    2    1    2    0    0  0.00000000000E+00  0.00000000000E+00  0.56262717236E+03  0.82241139880E+03  0.59984262420E+03 0.  0.
        3    1    3    3  502    0  0.33632572601E+01  0.34718338765E+02 -0.12710169956E+03  0.13180108792E+03  0.10100000352E+00 0.  1.
       -3    1    3    3    0  502 -0.33632572601E+01 -0.34718338765E+02  0.68972887191E+03  0.69061031088E+03  0.10100000352E+00 0. -1.
</event>
<event>
 5   0  0.2421210E-03  0.6001009E+03  0.7818609E-02  0.9905197E-01
        2   -1    0    0  501    0  0.00000000000E+00  0.00000000000E+00  0.14724719505E+04  0.14724719505E+04  0.25500000920E-02 0. -1.
       -2   -1    0    0    0  501  0.00000000000E+00  0.00000000000E+00 -0.61142276266E+02  0.61142276320E+02  0.25500000920E-02 0.  1.
    10030    2    1    2    0    0  0.00000000000E+00  0.00000000000E+00  0.14113296743E+04  0.15336142268E+04  0.60010094763E+03 0.  0.
        1    1    3    3  502    0 -0.19810687535E+03 -0.78004503351E+02  0.12459735057E+04  0.12640336283E+04  0.50400001928E-02 0. -1.
       -1    1    3    3    0  502  0.19810687535E+03  0.78004503351E+02  0.16535616860E+03  0.26958059857E+03  0.50400001928E-02 0.  1.
</event>
<event>
 5   0  0.2346281E-03  0.5999046E+03  0.7818609E-02  0.9905604E-01
       -2   -1    0    0    0  501  0.00000000000E+00  0.00000000000E+00  0.18750370303E+03  0.18750370304E+03  0.25500000920E-02 0. -1.
        2   -1    0    0  501    0  0.00000000000E+00  0.00000000000E+00 -0.47983795458E+03  0.47983795458E+03  0.25500000920E-02 0.  1.
    10030    2    1    2    0    0  0.00000000000E+00  0.00000000000E+00 -0.29233425155E+03  0.66734165763E+03  0.59990463690E+03 0.  0.
        3    1    3    3  502    0  0.13590540355E+03  0.59512606409E+02  0.14382795990E+03  0.20663620516E+03  0.10100000352E+00 0. -1.
       -3    1    3    3    0  502 -0.13590540355E+03 -0.59512606409E+02 -0.43616221145E+03  0.46070545246E+03  0.10100000352E+00 0.  1.
</event>
<event>
 5   0  0.1423430E-03  0.6000581E+03  0.7818609E-02  0.9905285E-01
       -1   -1    0    0    0  501  0.00000000000E+00  0.00000000000E+00  0.55928612849E+03  0.55928612851E+03  0.50400001928E-02 0. -1.
        1   -1    0    0  501    0  0.00000000000E+00  0.00000000000E+00 -0.16095061019E+03  0.16095061027E+03  0.50400001928E-02 0.  1.
    10030    2    1    2    0    0  0.00000000000E+00  0.00000000000E+00  0.39833551830E+03  0.72023673878E+03  0.60005814280E+03 0.  0.
        1    1    3    3  502    0  0.16668490371E+03 -0.13939829403E+03 -0.49152674180E+02  0.22278179214E+03  0.50400001928E-02 0.  1.
       -1    1    3    3    0  502 -0.16668490371E+03  0.13939829403E+03  0.44748819248E+03  0.49745494664E+03  0.50400001928E-02 0. -1.
</event>
<event>
 5   0  0.1416315E-03  0.6000013E+03  0.7818609E-02  0.9905403E-01
       -1   -1    0    0    0  501  0.00000000000E+00  0.00000000000E+00  0.10084674568E+03  0.10084674581E+03  0.50400001928E-02 0. -1.
        1   -1    0    0  501    0  0.00000000000E+00  0.00000000000E+00 -0.89244706278E+03  0.89244706280E+03  0.50400001928E-02 0.  1.
    10030    2    1    2    0    0  0.00000000000E+00  0.00000000000E+00 -0.79160031710E+03  0.99329380860E+03  0.60000127347E+03 0.  0.
        2    1    3    3  502    0  0.28944078652E+03  0.73119922490E+02 -0.44485090541E+03  0.53573764103E+03  0.25500000920E-02 0.  1.
       -2    1    3    3    0  502 -0.28944078652E+03 -0.73119922490E+02 -0.34674941169E+03  0.45755616757E+03  0.25500000920E-02 0. -1.
</event>
<event>
 5   0  0.1418763E-03  0.6000934E+03  0.7818609E-02  0.9905212E-01
        1   -1    0    0  501    0  0.00000000000E+00  0.00000000000E+00  0.11793709242E+03  0.11793709253E+03  0.50400001928E-02 0. -1.
       -1   -1    0    0    0  501  0.00000000000E+00  0.00000000000E+00 -0.76335638357E+03  0.76335638359E+03  0.50400001928E-02 0.  1.
    10030    2    1    2    0    0  0.00000000000E+00  0.00000000000E+00 -0.64541929115E+03  0.88129347612E+03  0.60009343410E+03 0.  0.
        5    1    3    3  502    0 -0.21302822028E+03  0.18600620255E+03 -0.17565498488E+03  0.33295058753E+03  0.46999998093E+01 0. -1.
       -5    1    3    3    0  502  0.21302822028E+03 -0.18600620255E+03 -0.46976430627E+03  0.54834288859E+03  0.46999998093E+01 0.  1.
</event>
<event>
 5   0  0.1392854E-03  0.6000497E+03  0.7818609E-02  0.9905303E-01
       -1   -1    0    0    0  501  0.00000000000E+00  0.00000000000E+00  0.82256257809E+02  0.82256257963E+02  0.50400001928E-02 0.  1.
        1   -1    0    0  501    0  0.00000000000E+00  0.00000000000E+00 -0.10943230593E+04  0.10943230594E+04  0.50400001928E-02 0. -1.
    10030    2    1    2    0    0  0.00000000000E+00  0.00000000000E+00 -0.10120668015E+04  0.11765793173E+04  0.60004973058E+03 0.  0.
        4    1    3    3  502    0 -0.62253912595E+02  0.20094114112E+03 -0.92548218723E+03  0.94908997655E+03  0.12699999809E+01 0. -1.
       -4    1    3    3    0  502  0.62253912595E+02 -0.20094114112E+03 -0.86584614310E+02  0.22748934076E+03  0.12699999809E+01 0.  1.
</event>
<event>
 5   0  0.1416315E-03  0.6000237E+03  0.7818609E-02  0.9905357E-01
       -1   -1    0    0    0  501  0.00000000000E+00  0.00000000000E+00  0.74601978433E+02  0.74601978603E+02  0.50400001928E-02 0.  1.
        1   -1    0    0  501    0  0.00000000000E+00  0.00000000000E+00 -0.12064974295E+04  0.12064974295E+04  0.50400001928E-02 0. -1.
    10030    2    1    2    0    0  0.00000000000E+00  0.00000000000E+00 -0.11318954511E+04  0.12810994081E+04  0.60002365064E+03 0.  0.
        2    1    3    3  502    0  0.17750270889E+03  0.95325516323E+02 -0.10405554073E+04  0.10598819375E+04  0.25500000920E-02 0. -1.
       -2    1    3    3    0  502 -0.17750270889E+03 -0.95325516323E+02 -0.91340043821E+02  0.22121747069E+03  0.25500000920E-02 0.  1.
</event>
<event>
 5   0  0.1479385E-03  0.6000867E+03  0.7818609E-02  0.9905226E-01
        1   -1    0    0  501    0  0.00000000000E+00  0.00000000000E+00  0.36867528248E+03  0.36867528251E+03  0.50400001928E-02 0. -1.
       -1   -1    0    0    0  501  0.00000000000E+00  0.00000000000E+00 -0.24418780902E+03  0.24418780907E+03  0.50400001928E-02 0.  1.
    10030    2    1    2    0    0  0.00000000000E+00  0.00000000000E+00  0.12448747346E+03  0.61286309158E+03  0.60008669205E+03 0.  0.
        3    1    3    3  502    0  0.10823787149E+03 -0.33281328051E+02  0.34601363414E+03  0.36407214784E+03  0.10100000352E+00 0. -1.
       -3    1    3    3    0  502 -0.10823787149E+03  0.33281328051E+02 -0.22152616068E+03  0.24879094374E+03  0.10100000352E+00 0.  1.
</event>
<event>
 5   0  0.2421210E-03  0.5999514E+03  0.7818609E-02  0.9905507E-01
        2   -1    0    0  501    0  0.00000000000E+00  0.00000000000E+00  0.35376307961E+03  0.35376307962E+03  0.25500000920E-02 0.  1.
       -2   -1    0    0    0  501  0.00000000000E+00  0.00000000000E+00 -0.25436632974E+03  0.25436632976E+03  0.25500000920E-02 0. -1.
    10030    2    1    2    0    0  0.00000000000E+00  0.00000000000E+00  0.99396749866E+02  0.60812940938E+03  0.59995138525E+03 0.  0.
        1    1    3    3  502    0 -0.16400268223E+03  0.91068624334E+02  0.28697260800E+03  0.34284639692E+03  0.50400001928E-02 0.  1.
       -1    1    3    3    0  502  0.16400268223E+03 -0.91068624334E+02 -0.18757585813E+03  0.26528301245E+03  0.50400001928E-02 0. -1.
</event>
<event>
 5   0  0.1418763E-03  0.5996214E+03  0.7818609E-02  0.9906192E-01
        1   -1    0    0  501    0  0.00000000000E+00  0.00000000000E+00  0.10052230318E+04  0.10052230318E+04  0.50400001928E-02 0.  1.
       -1   -1    0    0    0  501  0.00000000000E+00  0.00000000000E+00 -0.89419426325E+02  0.89419426467E+02  0.50400001928E-02 0. -1.
    10030    2    1    2    0    0  0.00000000000E+00  0.00000000000E+00  0.91580360548E+03  0.10946424583E+04  0.59962143696E+03 0.  0.
        5    1    3    3  502    0  0.98612018558E+02 -0.26494887201E+03  0.63992851200E+03  0.69960905187E+03  0.46999998093E+01 0.  1.
       -5    1    3    3    0  502 -0.98612018558E+02  0.26494887201E+03  0.27587509347E+03  0.39503340641E+03  0.46999998093E+01 0. -1.
</event>
<event>
 5   0  0.2313168E-03  0.5999475E+03  0.7818609E-02  0.9905515E-01
       -2   -1    0    0    0  501  0.00000000000E+00  0.00000000000E+00  0.36037625644E+02  0.36037625734E+02  0.25500000920E-02 0.  1.
        2   -1    0    0  501    0  0.00000000000E+00  0.00000000000E+00 -0.24969524311E+04  0.24969524311E+04  0.25500000920E-02 0. -1.
    10030    2    1    2    0    0  0.00000000000E+00  0.00000000000E+00 -0.24609148055E+04  0.25329900569E+04  0.59994745463E+03 0.  0.
        2    1    3    3  502    0  0.72923808694E+02  0.26115665908E+03 -0.17721863893E+04  0.17928093264E+04  0.25500000920E-02 0. -1.
       -2    1    3    3    0  502 -0.72923808694E+02 -0.26115665908E+03 -0.68872841618E+03  0.74018073044E+03  0.25500000920E-02 0.  1.
</event>
<event>
 5   0  0.1416315E-03  0.6000075E+03  0.7818609E-02  0.9905391E-01
        1   -1    0    0  501    0  0.00000000000E+00  0.00000000000E+00  0.48214669267E+03  0.48214669269E+03  0.50400001928E-02 0.  1.
       -1   -1    0    0    0  501  0.00000000000E+00  0.00000000000E+00 -0.18666982693E+03  0.18666982699E+03  0.50400001928E-02 0. -1.
    10030    2    1    2    0    0  0.00000000000E+00  0.00000000000E+00  0.29547686574E+03  0.66881651969E+03  0.60000746564E+03 0.  0.
        2    1    3    3  502    0  0.77053485183E+01  0.23221970100E+03  0.35928372682E+03  0.42786698668E+03  0.25500000920E-02 0. -1.
       -2    1    3    3    0  502 -0.77053485183E+01 -0.23221970100E+03 -0.63806861079E+02  0.24094953300E+03  0.25500000920E-02 0.  1.
</event>
<event>
 5   0  0.2346281E-03  0.6000159E+03  0.7818609E-02  0.9905373E-01
       -2   -1    0    0    0  501  0.00000000000E+00  0.00000000000E+00  0.44038221006E+02  0.44038221080E+02  0.25500000920E-02 0.  1.
        2   -1    0    0  501    0  0.00000000000E+00  0.00000000000E+00 -0.20437872881E+04  0.20437872881E+04  0.25500000920E-02 0. -1.
    10030    2    1    2    0    0  0.00000000000E+00  0.00000000000E+00 -0.19997490671E+04  0.20878255092E+04  0.60001585433E+03 0.  0.
        3    1    3    3  502    0 -0.80908744175E+02  0.70409929344E+02 -0.19747945028E+04  0.19777050138E+04  0.10100000352E+00 0. -1.
       -3    1    3    3    0  502  0.80908744175E+02 -0.70409929344E+02 -0.24954564330E+02  0.11012049544E+03  0.10100000352E+00 0.  1.
</event>
<event>
 5   0  0.1392854E-03  0.6001925E+03  0.7818609E-02  0.9905007E-01
       -1   -1    0    0    0  501  0.00000000000E+00  0.00000000000E+00  0.72539301373E+02  0.72539301548E+02  0.50400001928E-02 0. -1.
        1   -1    0    0  501    0  0.00000000000E+00  0.00000000000E+00 -0.12415029429E+04  0.12415029429E+04  0.50400001928E-02 0.  1.
    10030    2    1    2    0    0  0.00000000000E+00  0.00000000000E+00 -0.11689636416E+04  0.13140422445E+04  0.60019248997E+03 0.  0.
        4    1    3    3  502    0  0.10996429134E+03  0.27921961721E+03 -0.58587228644E+03  0.65825807167E+03  0.12699999809E+01 0. -1.
       -4    1    3    3    0  502 -0.10996429134E+03 -0.27921961721E+03 -0.58309135512E+03  0.65578417282E+03  0.12699999809E+01 0.  1.
</event>
<event>
 5   0  0.2346281E-03  0.5999808E+03  0.7818609E-02  0.9905446E-01
        2   -1    0    0  501    0  0.00000000000E+00  0.00000000000E+00  0.86654775837E+03  0.86654775837E+03  0.25500000920E-02 0. -1.
       -2   -1    0    0    0  501  0.00000000000E+00  0.00000000000E+00 -0.10385375405E+03  0.10385375408E+03  0.25500000920E-02 0.  1.
    10030    2    1    2    0    0  0.00000000000E+00  0.00000000000E+00  0.76269400432E+03  0.97040151245E+03  0.59998079231E+03 0.  0.
        3    1    3    3  502    0  0.16184381330E+02  0.21664640830E+03  0.46752431797E+02  0.22222376225E+03  0.10100000352E+00 0.  1.
       -3    1    3    3    0  502 -0.16184381330E+02 -0.21664640830E+03  0.71594157252E+03  0.74817775020E+03  0.10100000352E+00 0. -1.
</event>
<event>
 5   0  0.1479385E-03  0.5999568E+03  0.7818609E-02  0.9905496E-01
       -1   -1    0    0    0  501  0.00000000000E+00  0.00000000000E+00  0.34360570104E+03  0.34360570107E+03  0.50400001928E-02 0. -1.
        1   -1    0    0  501    0  0.00000000000E+00  0.00000000000E+00 -0.26189045588E+03  0.26189045593E+03  0.50400001928E-02 0.  1.
    10030    2    1    2    0    0  0.00000000000E+00  0.00000000000E+00  0.81715245154E+02  0.60549615701E+03  0.59995684416E+03 0.  0.
        3    1    3    3  502    0 -0.55583702658E+02  0.26933142223E+03 -0.80073914010E+02  0.28642766087E+03  0.10100000352E+00 0. -1.
       -3    1    3    3    0  502  0.55583702658E+02 -0.26933142223E+03  0.16178915916E+03  0.31906849614E+03  0.10100000352E+00 0.  1.
</event>
<event>
 5   0  0.1418763E-03  0.6002590E+03  0.7818609E-02  0.9904869E-01
        1   -1    0    0  501    0  0.00000000000E+00  0.00000000000E+00  0.10669733685E+04  0.10669733685E+04  0.50400001928E-02 0.  1.
       -1   -1    0    0    0  501  0.00000000000E+00  0.00000000000E+00 -0.84423590731E+02  0.84423590881E+02  0.50400001928E-02 0. -1.
    10030    2    1    2    0    0  0.00000000000E+00  0.00000000000E+00  0.98254977776E+03  0.11513969594E+04  0.60025902101E+03 0.  0.
        5    1    3    3  502    0 -0.21741837879E+03  0.49346828093E+01  0.94624462764E+02  0.23721505323E+03  0.46999998093E+01 0. -1.
       -5    1    3    3    0  502  0.21741837879E+03 -0.49346828093E+01  0.88792531499E+03  0.91418190615E+03  0.46999998093E+01 0.  1.
</event>
<event>
 5   0  0.1423430E-03  0.6003091E+03  0.7818609E-02  0.9904765E-01
        1   -1    0    0  501    0  0.00000000000E+00  0.00000000000E+00  0.92775769059E+03  0.92775769060E+03  0.50400001928E-02 0. -1.
       -1   -1    0    0    0  501  0.00000000000E+00  0.00000000000E+00 -0.97108058646E+02  0.97108058777E+02  0.50400001928E-02 0.  1.
    10030    2    1    2    0    0  0.00000000000E+00  0.00000000000E+00  0.83064963194E+03  0.10248657494E+04  0.60030908139E+03 0.  0.
        1    1    3    3  502    0 -0.20976680194E+03  0.15123620180E+03  0.67546461004E+03  0.72327514777E+03  0.50400001928E-02 0. -1.
       -1    1    3    3    0  502  0.20976680194E+03 -0.15123620180E+03  0.15518502190E+03  0.30159060161E+03  0.50400001928E-02 0.  1.
</event>
<event>
 5   0  0.2406307E-03  0.6000381E+03  0.7818609E-02  0.9905327E-01
        2   -1    0    0  501    0  0.00000000000E+00  0.00000000000E+00  0.50959500076E+03  0.50959500077E+03  0.25500000920E-02 0. -1.
       -2   -1    0    0    0  501  0.00000000000E+00  0.00000000000E+00 -0.17663326375E+03  0.17663326377E+03  0.25500000920E-02 0.  1.
    10030    2    1    2    0    0  0.00000000000E+00  0.00000000000E+00  0.33296173701E+03  0.68622826454E+03  0.60003809274E+03 0.  0.
        5    1    3    3  502    0  0.18600805895E+03 -0.12727088350E+03  0.39288849672E+03  0.45296836163E+03  0.46999998093E+01 0. -1.
       -5    1    3    3    0  502 -0.18600805895E+03  0.12727088350E+03 -0.59926759708E+02  0.23325990292E+03  0.46999998093E+01 0.  1.
</event>
<event>
 5   0  0.2421210E-03  0.5999353E+03  0.7818609E-02  0.9905540E-01
        2   -1    0    0  501    0  0.00000000000E+00  0.00000000000E+00  0.14696551937E+04  0.14696551937E+04  0.25500000920E-02 0. -1.
       -2   -1    0    0    0  501  0.00000000000E+00  0.00000000000E+00 -0.61225640092E+02  0.61225640145E+02  0.25500000920E-02 0.  1.
    10030    2    1    2    0    0  0.00000000000E+00  0.00000000000E+00  0.14084295536E+04  0.15308808338E+04  0.59993526314E+03 0.  0.
        1    1    3    3  502    0  0.13758376789E+03 -0.13684346507E+03  0.12051134203E+03  0.22842594140E+03  0.50400001928E-02 0.  1.
       -1    1    3    3    0  502 -0.13758376789E+03  0.13684346507E+03  0.12879182116E+04  0.13024548924E+04  0.50400001928E-02 0. -1.
</event>
<event>
 5   0  0.2421210E-03  0.6002697E+03  0.7818609E-02  0.9904847E-01
       -2   -1    0    0    0  501  0.00000000000E+00  0.00000000000E+00  0.20713414615E+03  0.20713414616E+03  0.25500000920E-02 0. -1.
        2   -1    0    0  501    0  0.00000000000E+00  0.00000000000E+00 -0.43489175546E+03  0.43489175546E+03  0.25500000920E-02 0.  1.
    10030    2    1    2    0    0  0.00000000000E+00  0.00000000000E+00 -0.22775760931E+03  0.64202590163E+03  0.60026971418E+03 0.  0.
        1    1    3    3  502    0  0.24079299009E+03 -0.21875919144E+02  0.76314265904E+02  0.25354227876E+03  0.50400001928E-02 0. -1.
       -1    1    3    3    0  502 -0.24079299009E+03  0.21875919144E+02 -0.30407187521E+03  0.38848362287E+03  0.50400001928E-02 0.  1.
</event>
<event>
 5   0  0.1416315E-03  0.5999722E+03  0.7818609E-02  0.9905464E-01
       -1   -1    0    0    0  501  0.00000000000E+00  0.00000000000E+00  0.17692983620E+03  0.17692983627E+03  0.50400001928E-02 0. -1.
        1   -1    0    0  501    0  0.00000000000E+00  0.00000000000E+00 -0.50862909232E+03  0.50862909234E+03  0.50400001928E-02 0.  1.
    10030    2    1    2    0    0  0.00000000000E+00  0.00000000000E+00 -0.33169925612E+03  0.68555892861E+03  0.59997220610E+03 0.  0.
        2    1    3    3  502    0  0.31863921940E+02 -0.14734966713E+02 -0.50627383181E+03  0.50748952851E+03  0.25500000920E-02 0.  1.
       -2    1    3    3    0  502 -0.31863921940E+02  0.14734966713E+02  0.17457457569E+03  0.17806940010E+03  0.25500000920E-02 0. -1.
</event>
<event>
 5   0  0.9496750E-04  0.5999841E+03  0.7818609E-02  0.9905439E-01
       -4   -1    0    0    0  501  0.00000000000E+00  0.00000000000E+00  0.10530375805E+04  0.10530383464E+04  0.12699999809E+01 0. -1.
        4   -1    0    0  501    0  0.00000000000E+00  0.00000000000E+00 -0.85456986793E+02  0.85466423183E+02  0.12699999809E+01 0.  1.
    10030    2    1    2    0    0  0.00000000000E+00  0.00000000000E+00  0.96758059375E+03  0.11385047696E+04  0.59998408721E+03 0.  0.
        2    1    3    3  502    0 -0.22159620345E+02  0.84257138916E+02 -0.60927634783E+02  0.10631317378E+03  0.25500000920E-02 0.  1.
       -2    1    3    3    0  502  0.22159620345E+02 -0.84257138916E+02  0.10285082285E+04  0.10321915958E+04  0.25500000920E-02 0. -1.
</event>
<event>
 5   0  0.2313168E-03  0.6002184E+03  0.7818609E-02  0.9904953E-01
       -2   -1    0    0    0  501  0.00000000000E+00  0.00000000000E+00  0.11785103143E+03  0.11785103146E+03  0.25500000920E-02 0. -1.
        2   -1    0    0  501    0  0.00000000000E+00  0.00000000000E+00 -0.76423210019E+03  0.76423210019E+03  0.25500000920E-02 0.  1.
    10030    2    1    2    0    0  0.00000000000E+00  0.00000000000E+00 -0.64638106876E+03  0.88208313165E+03  0.60021843114E+03 0.  0.
        2    1    3    3  502    0 -0.13537969672E+03 -0.21404057168E+03 -0.86568333155E+02  0.26764735179E+03  0.25500000920E-02 0. -1.
       -2    1    3    3    0  502  0.13537969672E+03  0.21404057168E+03 -0.55981273561E+03  0.61443577985E+03  0.25500000920E-02 0.  1.
</event>
<event>
 5   0  0.1418763E-03  0.6000598E+03  0.7818609E-02  0.9905282E-01
       -1   -1    0    0    0  501  0.00000000000E+00  0.00000000000E+00  0.17820786773E+03  0.17820786780E+03  0.50400001928E-02 0. -1.
        1   -1    0    0  501    0  0.00000000000E+00  0.00000000000E+00 -0.50512889844E+03  0.50512889846E+03  0.50400001928E-02 0.  1.
    10030    2    1    2    0    0  0.00000000000E+00  0.00000000000E+00 -0.32692103071E+03  0.68333676626E+03  0.60005981019E+03 0.  0.
        5    1    3    3  502    0 -0.71054817144E+02 -0.14363761778E+03  0.12533962727E+03  0.20350101829E+03  0.46999998093E+01 0. -1.
       -5    1    3    3    0  502  0.71054817144E+02  0.14363761778E+03 -0.45226065798E+03  0.47983574798E+03  0.46999998093E+01 0.  1.
</event>
<event>
 5   0  0.1392854E-03  0.5997057E+03  0.7818609E-02  0.9906017E-01
        1   -1    0    0  501    0  0.00000000000E+00  0.00000000000E+00  0.39402269567E+03  0.39402269570E+03  0.50400001928E-02 0.  1.
       -1   -1    0    0    0  501  0.00000000000E+00  0.00000000000E+00 -0.22818925208E+03  0.22818925214E+03  0.50400001928E-02 0. -1.
    10030    2    1    2    0    0  0.00000000000E+00  0.00000000000E+00  0.16583344359E+03  0.62221194783E+03  0.59970574202E+03 0.  0.
        4    1    3    3  502    0  0.25784037329E+03  0.15235989872E+03  0.98127562628E+02  0.31516000426E+03  0.12699999809E+01 0. -1.
       -4    1    3    3    0  502 -0.25784037329E+03 -0.15235989872E+03  0.67705880957E+02  0.30705194358E+03  0.12699999809E+01 0.  1.
</event>
<event>
 5   0  0.1479385E-03  0.5996020E+03  0.7818609E-02  0.9906232E-01
       -1   -1    0    0    0  501  0.00000000000E+00  0.00000000000E+00  0.13613299282E+03  0.13613299292E+03  0.50400001928E-02 0.  1.
        1   -1    0    0  501    0  0.00000000000E+00  0.00000000000E+00 -0.66024139494E+03  0.66024139496E+03  0.50400001928E-02 0. -1.
    10030    2    1    2    0    0  0.00000000000E+00  0.00000000000E+00 -0.52410840212E+03  0.79637438788E+03  0.59960199173E+03 0.  0.
        3    1    3    3  502    0  0.19841404038E+03 -0.20893610120E+03 -0.15206265014E+03  0.32579976300E+03  0.10100000352E+00 0. -1.
       -3    1    3    3    0  502 -0.19841404038E+03  0.20893610120E+03 -0.37204575198E+03  0.47057462487E+03  0.10100000352E+00 0.  1.
</event>
<event>
 5   0  0.1479385E-03  0.5997724E+03  0.7818609E-02  0.9905878E-01
        1   -1    0    0  501    0  0.00000000000E+00  0.00000000000E+00  0.16592425070E+03  0.16592425078E+03  0.50400001928E-02 0.  1.
       -1   -1    0    0    0  501  0.00000000000E+00  0.00000000000E+00 -0.54200480805E+03  0.54200480807E+03  0.50400001928E-02 0. -1.
    10030    2    1    2    0    0  0.00000000000E+00  0.00000000000E+00 -0.37608055735E+03  0.70792905885E+03  0.59977242913E+03 0.  0.
        3    1    3    3  502    0 -0.87736781393E+01 -0.87968618571E+02 -0.52627474860E+03  0.53364836409E+03  0.10100000352E+00 0. -1.
       -3    1    3    3    0  502  0.87736781393E+01  0.87968618571E+02  0.15019419125E+03  0.17428069476E+03  0.10100000352E+00 0.  1.
</event>
<event>
 5   0  0.2313168E-03  0.6000032E+03  0.7818609E-02  0.9905399E-01
       -2   -1    0    0    0  501  0.00000000000E+00  0.00000000000E+00  0.47107911171E+03  0.47107911172E+03  0.25500000920E-02 0.  1.
        2   -1    0    0  501    0  0.00000000000E+00  0.00000000000E+00 -0.19105273987E+03  0.19105273989E+03  0.25500000920E-02 0. -1.
    10030    2    1    2    0    0  0.00000000000E+00  0.00000000000E+00  0.28002637184E+03  0.66213185160E+03  0.60000318331E+03 0.  0.
        2    1    3    3  502    0  0.15202083969E+03 -0.16711460978E+03  0.35784381175E+03  0.42319005437E+03  0.25500000920E-02 0.  1.
       -2    1    3    3    0  502 -0.15202083969E+03  0.16711460978E+03 -0.77817439912E+02  0.23894179723E+03  0.25500000920E-02 0. -1.
</event>
<event>
 5   0  0.2313168E-03  0.5996082E+03  0.7818609E-02  0.9906219E-01
        2   -1    0    0  501    0  0.00000000000E+00  0.00000000000E+00  0.19441362550E+04  0.19441362550E+04  0.25500000920E-02 0.  1.
       -2   -1    0    0    0  501  0.00000000000E+00  0.00000000000E+00 -0.46232619479E+02  0.46232619549E+02  0.25500000920E-02 0. -1.
    10030    2    1    2    0    0  0.00000000000E+00  0.00000000000E+00  0.18979036355E+04  0.19903688745E+04  0.59960824465E+03 0.  0.
        2    1    3    3  502    0  0.27361735878E+03  0.12096744933E+03  0.10139086843E+04  0.10571236460E+04  0.25500000920E-02 0. -1.
       -2    1    3    3    0  502 -0.27361735878E+03 -0.12096744933E+03  0.88399495116E+03  0.93324522849E+03  0.25500000920E-02 0.  1.
</event>
<event>
 5   0  0.1392854E-03  0.5997446E+03  0.7818609E-02  0.9905936E-01
        1   -1    0    0  501    0  0.00000000000E+00  0.00000000000E+00  0.43219853371E+03  0.43219853374E+03  0.50400001928E-02 0. -1.
       -1   -1    0    0    0  501  0.00000000000E+00  0.00000000000E+00 -0.20806041531E+03  0.20806041537E+03  0.50400001928E-02 0.  1.
    10030    2    1    2    0    0  0.00000000000E+00  0.00000000000E+00  0.22413811840E+03  0.64025894910E+03  0.59974463381E+03 0.  0.
        4    1    3    3  502    0  0.22084503975E+03 -0.10720040318E+03 -0.71777434676E+02  0.25576956632E+03  0.12699999809E+01 0.  1.
       -4    1    3    3    0  502 -0.22084503975E+03  0.10720040318E+03  0.29591555307E+03  0.38448938279E+03  0.12699999809E+01 0. -1.
</event>
<event>
 5   0  0.1423430E-03  0.5999989E+03  0.7818609E-02  0.9905408E-01
        1   -1    0    0  501    0  0.00000000000E+00  0.00000000000E+00  0.10970749874E+03  0.10970749885E+03  0.50400001928E-02 0. -1.
       -1   -1    0    0    0  501  0.00000000000E+00  0.00000000000E+00 -0.82036026732E+03  0.82036026733E+03  0.50400001928E-02 0.  1.
    10030    2    1    2    0    0  0.00000000000E+00  0.00000000000E+00 -0.71065276858E+03  0.93006776618E+03  0.59999891017E+03 0.  0.
        1    1    3    3  502    0  0.21413735564E+03  0.50200848175E+02 -0.39069562249E+02  0.22338612974E+03  0.50400001928E-02 0. -1.
       -1    1    3    3    0  502 -0.21413735564E+03 -0.50200848175E+02 -0.67158320633E+03  0.70668163645E+03  0.50400001928E-02 0.  1.
</event>
<event>
 5   0  0.9496750E-04  0.5994555E+03  0.7818609E-02  0.9906536E-01
       -3   -1    0    0    0  501  0.00000000000E+00  0.00000000000E+00  0.11646786066E+03  0.11646790445E+03  0.10100000352E+00 0.  1.
        3   -1    0    0  501    0  0.00000000000E+00  0.00000000000E+00 -0.77134331915E+03  0.77134332576E+03  0.10100000352E+00 0. -1.
    10030    2    1    2    0    0  0.00000000000E+00  0.00000000000E+00 -0.65487545849E+03  0.88781123021E+03  0.59945551490E+03 0.  0.
        5    1    3    3  502    0 -0.18133459069E+03  0.74292216901E+02  0.83775471641E+01  0.19619847239E+03  0.46999998093E+01 0.  1.
       -5    1    3    3    0  502  0.18133459069E+03 -0.74292216901E+02 -0.66325300566E+03  0.69161275782E+03  0.46999998093E+01 0. -1.
</event>
<event>
 5   0  0.1392854E-03  0.5986601E+03  0.7818609E-02  0.9908190E-01
        1   -1    0    0  501    0  0.00000000000E+00  0.00000000000E+00  0.55316959130E+03  0.55316959132E+03  0.50400001928E-02 0.  1.
       -1   -1    0    0    0  501  0.00000000000E+00  0.00000000000E+00 -0.16197286905E+03  0.16197286913E+03  0.50400001928E-02 0. -1.
    10030    2    1    2    0    0  0.00000000000E+00  0.00000000000E+00  0.39119672225E+03  0.71514246045E+03  0.59866005650E+03 0.  0.
        4    1    3    3  502    0 -0.13490961942E+03  0.13667368991E+03  0.46987307594E+03  0.50760479048E+03  0.12699999809E+01 0.  1.
       -4    1    3    3    0  502  0.13490961942E+03 -0.13667368991E+03 -0.78676353692E+02  0.20753766997E+03  0.12699999809E+01 0. -1.
</event>
<event>
 5   0  0.9496750E-04  0.6002135E+03  0.7818609E-02  0.9904963E-01
        3   -1    0    0  501    0  0.00000000000E+00  0.00000000000E+00  0.81736551103E+02  0.81736613505E+02  0.10100000352E+00 0. -1.
       -3   -1    0    0    0  501  0.00000000000E+00  0.00000000000E+00 -0.11018819439E+04  0.11018819485E+04  0.10100000352E+00 0.  1.
    10030    2    1    2    0    0  0.00000000000E+00  0.00000000000E+00 -0.10201453927E+04  0.11836185620E+04  0.60021352695E+03 0.  0.
        1    1    3    3  502    0  0.15671923986E+03  0.23767647540E+03 -0.32285724280E+03  0.43045072465E+03  0.50400001928E-02 0. -1.
       -1    1    3    3    0  502 -0.15671923986E+03 -0.23767647540E+03 -0.69728814995E+03  0.75316783733E+03  0.50400001928E-02 0.  1.
</event>
<event>
 5   0  0.9496750E-04  0.5998285E+03  0.7818609E-02  0.9905762E-01
        3   -1    0    0  501    0  0.00000000000E+00  0.00000000000E+00  0.69183526271E+03  0.69183527008E+03  0.10100000352E+00 0.  1.
       -3   -1    0    0    0  501  0.00000000000E+00  0.00000000000E+00 -0.13001439099E+03  0.13001443022E+03  0.10100000352E+00 0. -1.
    10030    2    1    2    0    0  0.00000000000E+00  0.00000000000E+00  0.56182087172E+03  0.82184970029E+03  0.59982850714E+03 0.  0.
        2    1    3    3  502    0 -0.57252901094E+02  0.21091424298E+03 -0.50549904238E+00  0.21854740473E+03  0.25500000920E-02 0. -1.
       -2    1    3    3    0  502  0.57252901094E+02 -0.21091424298E+03  0.56232637076E+03  0.60330229557E+03  0.25500000920E-02 0.  1.
</event>
<event>
 5   0  0.1479385E-03  0.5999702E+03  0.7818609E-02  0.9905468E-01
       -1   -1    0    0    0  501  0.00000000000E+00  0.00000000000E+00  0.46451351905E+02  0.46451352178E+02  0.50400001928E-02 0. -1.
        1   -1    0    0  501    0  0.00000000000E+00  0.00000000000E+00 -0.19373182160E+04  0.19373182160E+04  0.50400001928E-02 0.  1.
    10030    2    1    2    0    0  0.00000000000E+00  0.00000000000E+00 -0.18908668641E+04  0.19837695682E+04  0.59997016753E+03 0.  0.
        3    1    3    3  502    0 -0.24357398497E+03 -0.85402871800E+02 -0.14508885455E+04  0.14736687274E+04  0.10100000352E+00 0.  1.
       -3    1    3    3    0  502  0.24357398497E+03  0.85402871800E+02 -0.43997831862E+03  0.51010084074E+03  0.10100000352E+00 0. -1.
</event>
<event>
 5   0  0.2324616E-03  0.6044455E+03  0.7818609E-02  0.9896226E-01
       -2   -1    0    0    0  501  0.00000000000E+00  0.00000000000E+00  0.48445683790E+02  0.48445683857E+02  0.25500000920E-02 0. -1.
        2   -1    0    0  501    0  0.00000000000E+00  0.00000000000E+00 -0.18853811426E+04  0.18853811426E+04  0.25500000920E-02 0.  1.
    10030    2    1    2    0    0  0.00000000000E+00  0.00000000000E+00 -0.18369354588E+04  0.19338268264E+04  0.60444546064E+03 0.  0.
        4    1    3    3  502    0 -0.13717251968E+02  0.25997829799E+03 -0.42739150436E+03  0.50044179414E+03  0.12699999809E+01 0. -1.
       -4    1    3    3    0  502  0.13717251968E+02 -0.25997829799E+03 -0.14095439544E+04  0.14333850323E+04  0.12699999809E+01 0.  1.
</event>
<event>
 5   0  0.2346281E-03  0.5997940E+03  0.7818609E-02  0.9905834E-01
        2   -1    0    0  501    0  0.00000000000E+00  0.00000000000E+00  0.26492864305E+03  0.26492864306E+03  0.25500000920E-02 0. -1.
       -2   -1    0    0    0  501  0.00000000000E+00  0.00000000000E+00 -0.33948085531E+03  0.33948085532E+03  0.25500000920E-02 0.  1.
    10030    2    1    2    0    0  0.00000000000E+00  0.00000000000E+00 -0.74552212266E+02  0.60440949838E+03  0.59979397245E+03 0.  0.
        3    1    3    3  502    0  0.96161192499E+02 -0.22259501875E+03  0.14055475816E+03  0.28026981207E+03  0.10100000352E+00 0. -1.
       -3    1    3    3    0  502 -0.96161192499E+02  0.22259501875E+03 -0.21510697042E+03  0.32413968631E+03  0.10100000352E+00 0.  1.
</event>
<event>
 5   0  0.2421210E-03  0.5999997E+03  0.7818609E-02  0.9905407E-01
        2   -1    0    0  501    0  0.00000000000E+00  0.00000000000E+00  0.52922168512E+03  0.52922168512E+03  0.25500000920E-02 0.  1.
       -2   -1    0    0    0  501  0.00000000000E+00  0.00000000000E+00 -0.17006090788E+03  0.17006090790E+03  0.25500000920E-02 0. -1.
    10030    2    1    2    0    0  0.00000000000E+00  0.00000000000E+00  0.35916077724E+03  0.69928259302E+03  0.59999973417E+03 0.  0.
        1    1    3    3  502    0  0.27292715363E+03  0.12145282922E+03  0.14745268499E+03  0.33314008353E+03  0.50400001928E-02 0.  1.
       -1    1    3    3    0  502 -0.27292715363E+03 -0.12145282922E+03  0.21170809224E+03  0.36614250950E+03  0.50400001928E-02 0. -1.
</event>
<event>
 5   0  0.9496750E-04  0.5999532E+03  0.7818609E-02  0.9905503E-01
       -3   -1    0    0    0  501  0.00000000000E+00  0.00000000000E+00  0.17980744219E+03  0.17980747055E+03  0.10100000352E+00 0.  1.
        3   -1    0    0  501    0  0.00000000000E+00  0.00000000000E+00 -0.50045725481E+03  0.50045726500E+03  0.10100000352E+00 0. -1.
    10030    2    1    2    0    0  0.00000000000E+00  0.00000000000E+00 -0.32064981262E+03  0.68026473555E+03  0.59995317159E+03 0.  0.
        4    1    3    3  502    0  0.18798031901E+03 -0.21884233937E+03 -0.67128748211E+02  0.29620339561E+03  0.12699999809E+01 0. -1.
       -4    1    3    3    0  502 -0.18798031901E+03  0.21884233937E+03 -0.25352106441E+03  0.38406133994E+03  0.12699999809E+01 0.  1.
</event>
<event>
 5   0  0.2346281E-03  0.6001312E+03  0.7818609E-02  0.9905134E-01
       -2   -1    0    0    0  501  0.00000000000E+00  0.00000000000E+00  0.36157585725E+03  0.36157585726E+03  0.25500000920E-02 0.  1.
        2   -1    0    0  501    0  0.00000000000E+00  0.00000000000E+00 -0.24901931248E+03  0.24901931249E+03  0.25500000920E-02 0. -1.
    10030    2    1    2    0    0  0.00000000000E+00  0.00000000000E+00  0.11255654477E+03  0.61059516975E+03  0.60013122361E+03 0.  0.
        3    1    3    3  502    0 -0.11182669897E+03 -0.21914607853E+03  0.23105575042E+03  0.33751590235E+03  0.10100000352E+00 0.  1.
       -3    1    3    3    0  502  0.11182669897E+03  0.21914607853E+03 -0.11849920565E+03  0.27307926739E+03  0.10100000352E+00 0. -1.
</event>
<event>
 5   0  0.2406307E-03  0.6000111E+03  0.7818609E-02  0.9905383E-01
       -2   -1    0    0    0  501  0.00000000000E+00  0.00000000000E+00  0.10275564044E+03  0.10275564047E+03  0.25500000920E-02 0.  1.
        2   -1    0    0  501    0  0.00000000000E+00  0.00000000000E+00 -0.87589670129E+03  0.87589670129E+03  0.25500000920E-02 0. -1.
    10030    2    1    2    0    0  0.00000000000E+00  0.00000000000E+00 -0.77314106085E+03  0.97865234177E+03  0.60001108829E+03 0.  0.
        5    1    3    3  502    0  0.27560214402E+03  0.16753132457E+02 -0.19535367686E+03  0.33826374074E+03  0.46999998093E+01 0.  1.
       -5    1    3    3    0  502 -0.27560214402E+03 -0.16753132457E+02 -0.57778738399E+03  0.64038860103E+03  0.46999998093E+01 0. -1.
</event>
<event>
 5   0  0.9496750E-04  0.6002660E+03  0.7818609E-02  0.9904854E-01
        4   -1    0    0  501    0  0.00000000000E+00  0.00000000000E+00  0.13084500935E+03  0.13085117260E+03  0.12699999809E+01 0. -1.
       -4   -1    0    0    0  501  0.00000000000E+00  0.00000000000E+00 -0.68842384095E+03  0.68842501240E+03  0.12699999809E+01 0.  1.
    10030    2    1    2    0    0  0.00000000000E+00  0.00000000000E+00 -0.55757883161E+03  0.81927618500E+03  0.60026603589E+03 0.  0.
        2    1    3    3  502    0  0.28867555137E+03  0.68582677315E+00 -0.16669014701E+03  0.33334614057E+03  0.25500000920E-02 0. -1.
       -2    1    3    3    0  502 -0.28867555137E+03 -0.68582677315E+00 -0.39088868460E+03  0.48593004442E+03  0.25500000920E-02 0.  1.
</event>
<event>
 5   0  0.1423430E-03  0.6000081E+03  0.7818609E-02  0.9905389E-01
        1   -1    0    0  501    0  0.00000000000E+00  0.00000000000E+00  0.99322259460E+03  0.99322259462E+03  0.50400001928E-02 0.  1.
       -1   -1    0    0    0  501  0.00000000000E+00  0.00000000000E+00 -0.90616583435E+02  0.90616583575E+02  0.50400001928E-02 0. -1.
    10030    2    1    2    0    0  0.00000000000E+00  0.00000000000E+00  0.90260601117E+03  0.10838391782E+04  0.60000812726E+03 0.  0.
        1    1    3    3  502    0  0.94662469149E+02  0.11741406849E+02 -0.62494062010E+02  0.11403662356E+03  0.50400001928E-02 0. -1.
       -1    1    3    3    0  502 -0.94662469149E+02 -0.11741406849E+02  0.96510007318E+03  0.96980255463E+03  0.50400001928E-02 0.  1.
</event>
<event>
 5   0  0.2421210E-03  0.5999260E+03  0.7818609E-02  0.9905560E-01
        2   -1    0    0  501    0  0.00000000000E+00  0.00000000000E+00  0.10439281945E+04  0.10439281945E+04  0.25500000920E-02 0. -1.
       -2   -1    0    0    0  501  0.00000000000E+00  0.00000000000E+00 -0.86191557675E+02  0.86191557713E+02  0.25500000920E-02 0.  1.
    10030    2    1    2    0    0  0.00000000000E+00  0.00000000000E+00  0.95773663686E+03  0.11301197522E+04  0.59992598614E+03 0.  0.
        1    1    3    3  502    0  0.13784407150E+03  0.26119198785E+03  0.57775352011E+03  0.64886159741E+03  0.50400001928E-02 0. -1.
       -1    1    3    3    0  502 -0.13784407150E+03 -0.26119198785E+03  0.37998311674E+03  0.48125815484E+03  0.50400001928E-02 0.  1.
</event>
<event>
 5   0  0.1479385E-03  0.5999662E+03  0.7818609E-02  0.9905476E-01
        1   -1    0    0  501    0  0.00000000000E+00  0.00000000000E+00  0.57943079641E+03  0.57943079643E+03  0.50400001928E-02 0. -1.
       -1   -1    0    0    0  501  0.00000000000E+00  0.00000000000E+00 -0.15530733163E+03  0.15530733171E+03  0.50400001928E-02 0.  1.
    10030    2    1    2    0    0  0.00000000000E+00  0.00000000000E+00  0.42412346478E+03  0.73473812814E+03  0.59996616869E+03 0.  0.
        3    1    3    3  502    0 -0.24842531550E+03  0.93746332141E+02  0.41111055096E+02  0.26868874413E+03  0.10100000352E+00 0.  1.
       -3    1    3    3    0  502  0.24842531550E+03 -0.93746332141E+02  0.38301240968E+03  0.46604938402E+03  0.10100000352E+00 0. -1.
</event>
<event>
 5   0  0.9496750E-04  0.6000646E+03  0.7818609E-02  0.9905272E-01
       -3   -1    0    0    0  501  0.00000000000E+00  0.00000000000E+00  0.20503298223E+03  0.20503300710E+03  0.10100000352E+00 0.  1.
        3   -1    0    0  501    0  0.00000000000E+00  0.00000000000E+00 -0.43904830483E+03  0.43904831644E+03  0.10100000352E+00 0. -1.
    10030    2    1    2    0    0  0.00000000000E+00  0.00000000000E+00 -0.23401532260E+03  0.64408132355E+03  0.60006464663E+03 0.  0.
        5    1    3    3  502    0  0.53821411422E+02  0.41628295755E+02 -0.43061723900E+03  0.43598504087E+03  0.46999998093E+01 0. -1.
       -5    1    3    3    0  502 -0.53821411422E+02 -0.41628295755E+02  0.19660191640E+03  0.20809628268E+03  0.46999998093E+01 0.  1.
</event>
<event>
 5   0  0.1416315E-03  0.5999302E+03  0.7818609E-02  0.9905551E-01
        1   -1    0    0  501    0  0.00000000000E+00  0.00000000000E+00  0.28272513844E+03  0.28272513848E+03  0.50400001928E-02 0.  1.
       -1   -1    0    0    0  501  0.00000000000E+00  0.00000000000E+00 -0.31825628653E+03  0.31825628657E+03  0.50400001928E-02 0. -1.
    10030    2    1    2    0    0  0.00000000000E+00  0.00000000000E+00 -0.35531148090E+02  0.60098142505E+03  0.59993017158E+03 0.  0.
        2    1    3    3  502    0  0.20453647766E+03 -0.21923577655E+03 -0.26700635913E+02  0.30101897013E+03  0.25500000920E-02 0.  1.
       -2    1    3    3    0  502 -0.20453647766E+03  0.21923577655E+03 -0.88305121769E+01  0.29996245492E+03  0.25500000920E-02 0. -1.
</event>
<event>
 5   0  0.1392854E-03  0.5982236E+03  0.7818609E-02  0.9909098E-01
        1   -1    0    0  501    0  0.00000000000E+00  0.00000000000E+00  0.10154007017E+04  0.10154007017E+04  0.50400001928E-02 0.  1.
       -1   -1    0    0    0  501  0.00000000000E+00  0.00000000000E+00 -0.88110892954E+02  0.88110893098E+02  0.50400001928E-02 0. -1.
    10030    2    1    2    0    0  0.00000000000E+00  0.00000000000E+00  0.92728980871E+03  0.11035115948E+04  0.59822357899E+03 0.  0.
        4    1    3    3  502    0  0.26839831001E+03 -0.46395749490E+01  0.70702005166E+03  0.75626592202E+03  0.12699999809E+01 0.  1.
       -4    1    3    3    0  502 -0.26839831001E+03  0.46395749490E+01  0.22026975705E+03  0.34724567275E+03  0.12699999809E+01 0. -1.
</event>
<event>
 5   0  0.2324616E-03  0.5999975E+03  0.7818609E-02  0.9905411E-01
        2   -1    0    0  501    0  0.00000000000E+00  0.00000000000E+00  0.83647019546E+03  0.83647019546E+03  0.25500000920E-02 0.  1.
       -2   -1    0    0    0  501  0.00000000000E+00  0.00000000000E+00 -0.10759408452E+03  0.10759408455E+03  0.25500000920E-02 0. -1.
    10030    2    1    2    0    0  0.00000000000E+00  0.00000000000E+00  0.72887611094E+03  0.94406428001E+03  0.59999748308E+03 0.  0.
        4    1    3    3  502    0  0.15582716818E+03 -0.11146255883E+03  0.72766797407E+03  0.75246814002E+03  0.12699999809E+01 0.  1.
       -4    1    3    3    0  502 -0.15582716818E+03  0.11146255883E+03  0.12081368674E+01  0.19159613999E+03  0.12699999809E+01 0. -1.
</event>
<event>
 5   0  0.1418763E-03  0.6001506E+03  0.7818609E-02  0.9905094E-01
       -1   -1    0    0    0  501  0.00000000000E+00  0.00000000000E+00  0.14581789992E+03  0.14581790001E+03  0.50400001928E-02 0.  1.
        1   -1    0    0  501    0  0.00000000000E+00  0.00000000000E+00 -0.61751807287E+03  0.61751807289E+03  0.50400001928E-02 0. -1.
    10030    2    1    2    0    0  0.00000000000E+00  0.00000000000E+00 -0.47170017295E+03  0.76333597290E+03  0.60015060973E+03 0.  0.
        5    1    3    3  502    0  0.16189909805E+03 -0.23670520272E+03 -0.12364487631E+03  0.31233126065E+03  0.46999998093E+01 0.  1.
       -5    1    3    3    0  502 -0.16189909805E+03  0.23670520272E+03 -0.34805529665E+03  0.45100471225E+03  0.46999998093E+01 0. -1.
</event>
<event>
 5   0  0.9496750E-04  0.5999654E+03  0.7818609E-02  0.9905478E-01
        3   -1    0    0  501    0  0.00000000000E+00  0.00000000000E+00  0.53836416462E+03  0.53836417410E+03  0.10100000352E+00 0. -1.
       -3   -1    0    0    0  501  0.00000000000E+00  0.00000000000E+00 -0.16715376873E+03  0.16715379925E+03  0.10100000352E+00 0.  1.
    10030    2    1    2    0    0  0.00000000000E+00  0.00000000000E+00  0.37121039589E+03  0.70551797334E+03  0.59996537625E+03 0.  0.
        5    1    3    3  502    0  0.25544786212E+03  0.58585817728E+02  0.14057780756E+02  0.26249879904E+03  0.46999998093E+01 0.  1.
       -5    1    3    3    0  502 -0.25544786212E+03 -0.58585817728E+02  0.35715261513E+03  0.44301917430E+03  0.46999998093E+01 0. -1.
</event>
<event>
 5   0  0.1479385E-03  0.6002004E+03  0.7818609E-02  0.9904990E-01
       -1   -1    0    0    0  501  0.00000000000E+00  0.00000000000E+00  0.14797146002E+03  0.14797146010E+03  0.50400001928E-02 0.  1.
        1   -1    0    0  501    0  0.00000000000E+00  0.00000000000E+00 -0.60863173450E+03  0.60863173452E+03  0.50400001928E-02 0. -1.
    10030    2    1    2    0    0  0.00000000000E+00  0.00000000000E+00 -0.46066027448E+03  0.75660319462E+03  0.60020038789E+03 0.  0.
        3    1    3    3  502    0 -0.23384962089E+03  0.28879637412E+02 -0.46461046147E+03  0.52094392189E+03  0.10100000352E+00 0. -1.
       -3    1    3    3    0  502  0.23384962089E+03 -0.28879637412E+02  0.39501869858E+01  0.23565927273E+03  0.10100000352E+00 0.  1.
</event>
<event>
 5   0  0.1418763E-03  0.6000569E+03  0.7818609E-02  0.9905288E-01
        1   -1    0    0  501    0  0.00000000000E+00  0.00000000000E+00  0.91296958186E+03  0.91296958187E+03  0.50400001928E-02 0.  1.
       -1   -1    0    0    0  501  0.00000000000E+00  0.00000000000E+00 -0.98598094136E+02  0.98598094265E+02  0.50400001928E-02 0. -1.
    10030    2    1    2    0    0  0.00000000000E+00  0.00000000000E+00  0.81437148772E+03  0.10115676761E+04  0.60005686680E+03 0.  0.
        5    1    3    3  502    0  0.14974640661E+01  0.77624613231E+01 -0.98360398148E+02  0.98789453518E+02  0.46999998093E+01 0. -1.
       -5    1    3    3    0  502 -0.14974640661E+01 -0.77624613231E+01  0.91273188587E+03  0.91277822262E+03  0.46999998093E+01 0.  1.
</event>
<event>
 5   0  0.2406307E-03  0.5994751E+03  0.7818609E-02  0.9906496E-01
       -2   -1    0    0    0  501  0.00000000000E+00  0.00000000000E+00  0.11610804612E+03  0.11610804615E+03  0.25500000920E-02 0.  1.
        2   -1    0    0  501    0  0.00000000000E+00  0.00000000000E+00 -0.77378452387E+03  0.77378452387E+03  0.25500000920E-02 0. -1.
    10030    2    1    2    0    0  0.00000000000E+00  0.00000000000E+00 -0.65767647775E+03  0.88989257002E+03  0.59947513443E+03 0.  0.
        5    1    3    3  502    0 -0.10821925098E+03  0.14898554758E+03 -0.67984909617E+03  0.70436140101E+03  0.46999998093E+01 0. -1.
       -5    1    3    3    0  502  0.10821925098E+03 -0.14898554758E+03  0.22172618423E+02  0.18553116901E+03  0.46999998093E+01 0.  1.
</event>
<event>
 5   0  0.2421210E-03  0.5984468E+03  0.7818609E-02  0.9908634E-01
       -2   -1    0    0    0  501  0.00000000000E+00  0.00000000000E+00  0.59735610760E+02  0.59735610815E+02  0.25500000920E-02 0. -1.
        2   -1    0    0  501    0  0.00000000000E+00  0.00000000000E+00 -0.14988486839E+04  0.14988486839E+04  0.25500000920E-02 0.  1.
    10030    2    1    2    0    0  0.00000000000E+00  0.00000000000E+00 -0.14391130732E+04  0.15585842948E+04  0.59844679502E+03 0.  0.
        1    1    3    3  502    0  0.21401741960E+03 -0.13954170546E+03 -0.31391364847E+03  0.40474327934E+03  0.50400001928E-02 0. -1.
       -1    1    3    3    0  502 -0.21401741960E+03  0.13954170546E+03 -0.11251994247E+04  0.11538410154E+04  0.50400001928E-02 0.  1.
</event>
<event>
 5   0  0.1416315E-03  0.6000719E+03  0.7818609E-02  0.9905257E-01
       -1   -1    0    0    0  501  0.00000000000E+00  0.00000000000E+00  0.38651254445E+02  0.38651254774E+02  0.50400001928E-02 0.  1.
        1   -1    0    0  501    0  0.00000000000E+00  0.00000000000E+00 -0.23290724173E+04  0.23290724173E+04  0.50400001928E-02 0. -1.
    10030    2    1    2    0    0  0.00000000000E+00  0.00000000000E+00 -0.22904211629E+04  0.23677236721E+04  0.60007189909E+03 0.  0.
        2    1    3    3  502    0  0.79872077347E+02 -0.31377612203E+02 -0.10803902723E+02  0.86491777689E+02  0.25500000920E-02 0.  1.
       -2    1    3    3    0  502 -0.79872077347E+02  0.31377612203E+02 -0.22796172602E+04  0.22812318944E+04  0.25500000920E-02 0. -1.
</event>
<event>
 5   0  0.9496750E-04  0.6000176E+03  0.7818609E-02  0.9905370E-01
        4   -1    0    0  501    0  0.00000000000E+00  0.00000000000E+00  0.18770378187E+03  0.18770807821E+03  0.12699999809E+01 0.  1.
       -4   -1    0    0    0  501  0.00000000000E+00  0.00000000000E+00 -0.47949639014E+03  0.47949807201E+03  0.12699999809E+01 0. -1.
    10030    2    1    2    0    0  0.00000000000E+00  0.00000000000E+00 -0.29179260827E+03  0.66720615022E+03  0.60001760028E+03 0.  0.
        2    1    3    3  502    0 -0.16712009782E+03  0.39907867033E+02 -0.41936937228E+03  0.45320242206E+03  0.25500000920E-02 0. -1.
       -2    1    3    3    0  502  0.16712009782E+03 -0.39907867033E+02  0.12757676400E+03  0.21400372816E+03  0.25500000920E-02 0.  1.
</event>
<event>
 5   0  0.2421210E-03  0.6000780E+03  0.7818609E-02  0.9905244E-01
        2   -1    0    0  501    0  0.00000000000E+00  0.00000000000E+00  0.10745673181E+04  0.10745673181E+04  0.25500000920E-02 0.  1.
       -2   -1    0    0    0  501  0.00000000000E+00  0.00000000000E+00 -0.83776430085E+02  0.83776430123E+02  0.25500000920E-02 0. -1.
    10030    2    1    2    0    0  0.00000000000E+00  0.00000000000E+00  0.99079088804E+03  0.11583437483E+04  0.60007804100E+03 0.  0.
        1    1    3    3  502    0 -0.19793973300E+02  0.18052547036E+03  0.95642390006E+03  0.97351318607E+03  0.50400001928E-02 0.  1.
       -1    1    3    3    0  502  0.19793973300E+02 -0.18052547036E+03  0.34366987980E+02  0.18483056218E+03  0.50400001928E-02 0. -1.
</event>
<event>
 5   0  0.1418763E-03  0.6000725E+03  0.7818609E-02  0.9905256E-01
       -1   -1    0    0    0  501  0.00000000000E+00  0.00000000000E+00  0.55629543509E+02  0.55629543737E+02  0.50400001928E-02 0. -1.
        1   -1    0    0  501    0  0.00000000000E+00  0.00000000000E+00 -0.16182364796E+04  0.16182364796E+04  0.50400001928E-02 0.  1.
    10030    2    1    2    0    0  0.00000000000E+00  0.00000000000E+00 -0.15626069360E+04  0.16738660233E+04  0.60007251843E+03 0.  0.
        5    1    3    3  502    0 -0.17256118478E+03  0.28178606298E+02 -0.10129628236E+03  0.20212477128E+03  0.46999998093E+01 0. -1.
       -5    1    3    3    0  502  0.17256118478E+03 -0.28178606298E+02 -0.14613106537E+04  0.14717412520E+04  0.46999998093E+01 0.  1.
</event>
<event>
 5   0  0.2421210E-03  0.5999699E+03  0.7818609E-02  0.9905469E-01
        2   -1    0    0  501    0  0.00000000000E+00  0.00000000000E+00  0.60956564008E+03  0.60956564009E+03  0.25500000920E-02 0.  1.
       -2   -1    0    0    0  501  0.00000000000E+00  0.00000000000E+00 -0.14763129932E+03  0.14763129934E+03  0.25500000920E-02 0. -1.
    10030    2    1    2    0    0  0.00000000000E+00  0.00000000000E+00  0.46193434076E+03  0.75719693943E+03  0.59996989083E+03 0.  0.
        1    1    3    3  502    0  0.68936371659E+02 -0.63913258698E+02  0.59049617269E+03  0.59793215164E+03  0.50400001928E-02 0.  1.
       -1    1    3    3    0  502 -0.68936371659E+02  0.63913258698E+02 -0.12856183193E+03  0.15926478779E+03  0.50400001928E-02 0. -1.
</event>
<event>
 5   0  0.2346281E-03  0.6000333E+03  0.7818609E-02  0.9905337E-01
        2   -1    0    0  501    0  0.00000000000E+00  0.00000000000E+00  0.53358474447E+03  0.53358474448E+03  0.25500000920E-02 0.  1.
       -2   -1    0    0    0  501  0.00000000000E+00  0.00000000000E+00 -0.16868923046E+03  0.16868923048E+03  0.25500000920E-02 0. -1.
    10030    2    1    2    0    0  0.00000000000E+00  0.00000000000E+00  0.36489551401E+03  0.70227397495E+03  0.60003333220E+03 0.  0.
        3    1    3    3  502    0  0.55673155345E+02  0.11217167565E+03 -0.13663801200E+03  0.18534276778E+03  0.10100000352E+00 0. -1.
       -3    1    3    3    0  502 -0.55673155345E+02 -0.11217167565E+03  0.50153352601E+03  0.51693120718E+03  0.10100000352E+00 0.  1.
</event>
<event>
 5   0  0.1392854E-03  0.5999641E+03  0.7818609E-02  0.9905480E-01
        1   -1    0    0  501    0  0.00000000000E+00  0.00000000000E+00  0.16603702992E+03  0.16603703000E+03  0.50400001928E-02 0. -1.
       -1   -1    0    0    0  501  0.00000000000E+00  0.00000000000E+00 -0.54198296577E+03  0.54198296579E+03  0.50400001928E-02 0.  1.
    10030    2    1    2    0    0  0.00000000000E+00  0.00000000000E+00 -0.37594593585E+03  0.70801999579E+03  0.59996413873E+03 0.  0.
        4    1    3    3  502    0  0.11258736670E+02  0.10876343877E+03  0.14167840321E+03  0.17897102447E+03  0.12699999809E+01 0. -1.
       -4    1    3    3    0  502 -0.11258736670E+02 -0.10876343877E+03 -0.51762433906E+03  0.52904897132E+03  0.12699999809E+01 0.  1.
</event>
<event>
 5   0  0.1392854E-03  0.6000044E+03  0.7818609E-02  0.9905397E-01
       -1   -1    0    0    0  501  0.00000000000E+00  0.00000000000E+00  0.30799460300E+03  0.30799460304E+03  0.50400001928E-02 0.  1.
        1   -1    0    0  501    0  0.00000000000E+00  0.00000000000E+00 -0.29221722748E+03  0.29221722753E+03  0.50400001928E-02 0. -1.
    10030    2    1    2    0    0  0.00000000000E+00  0.00000000000E+00  0.15777375512E+02  0.60021183056E+03  0.60000442996E+03 0.  0.
        4    1    3    3  502    0 -0.73961632417E+02  0.19444051036E+03  0.22411677812E+03  0.30578976156E+03  0.12699999809E+01 0.  1.
       -4    1    3    3    0  502  0.73961632417E+02 -0.19444051036E+03 -0.20833940261E+03  0.29442206901E+03  0.12699999809E+01 0. -1.
</event>
<event>
 5   0  0.1423430E-03  0.5998445E+03  0.7818609E-02  0.9905729E-01
        1   -1    0    0  501    0  0.00000000000E+00  0.00000000000E+00  0.26514247675E+03  0.26514247680E+03  0.50400001928E-02 0. -1.
       -1   -1    0    0    0  501  0.00000000000E+00  0.00000000000E+00 -0.33926416571E+03  0.33926416575E+03  0.50400001928E-02 0.  1.
    10030    2    1    2    0    0  0.00000000000E+00  0.00000000000E+00 -0.74121688961E+02  0.60440664254E+03  0.59984445048E+03 0.  0.
        1    1    3    3  502    0  0.17405376141E+03 -0.23388648873E+02  0.20791707516E+03  0.27216034047E+03  0.50400001928E-02 0. -1.
       -1    1    3    3    0  502 -0.17405376141E+03  0.23388648873E+02 -0.28203876412E+03  0.33224630208E+03  0.50400001928E-02 0.  1.
</event>
<event>
 5   0  0.2406307E-03  0.6000064E+03  0.7818609E-02  0.9905393E-01
       -2   -1    0    0    0  501  0.00000000000E+00  0.00000000000E+00  0.95883417238E+02  0.95883417272E+02  0.25500000920E-02 0.  1.
        2   -1    0    0  501    0  0.00000000000E+00  0.00000000000E+00 -0.93865976928E+03  0.93865976928E+03  0.25500000920E-02 0. -1.
    10030    2    1    2    0    0  0.00000000000E+00  0.00000000000E+00 -0.84277635204E+03  0.10345431866E+04  0.60000635437E+03 0.  0.
        5    1    3    3  502    0  0.68330164119E+02  0.21550015954E+03 -0.81447791250E+02  0.24034384283E+03  0.46999998093E+01 0.  1.
       -5    1    3    3    0  502 -0.68330164119E+02 -0.21550015954E+03 -0.76132856079E+03  0.79419934372E+03  0.46999998093E+01 0. -1.
</event>
<event>
 5   0  0.1423430E-03  0.5997300E+03  0.7818609E-02  0.9905966E-01
       -1   -1    0    0    0  501  0.00000000000E+00  0.00000000000E+00  0.17655268185E+03  0.17655268193E+03  0.50400001928E-02 0.  1.
        1   -1    0    0  501    0  0.00000000000E+00  0.00000000000E+00 -0.50930417541E+03  0.50930417543E+03  0.50400001928E-02 0. -1.
    10030    2    1    2    0    0  0.00000000000E+00  0.00000000000E+00 -0.33275149355E+03  0.68585685736E+03  0.59972999952E+03 0.  0.
        1    1    3    3  502    0  0.25725560474E+03 -0.81664157267E+02 -0.31578881568E+03  0.41541793039E+03  0.50400001928E-02 0. -1.
       -1    1    3    3    0  502 -0.25725560474E+03  0.81664157267E+02 -0.16962677867E+02  0.27043892697E+03  0.50400001928E-02 0.  1.
</event>
<event>
 5   0  0.1418763E-03  0.6000536E+03  0.7818609E-02  0.9905295E-01
       -1   -1    0    0    0  501  0.00000000000E+00  0.00000000000E+00  0.11615519549E+03  0.11615519560E+03  0.50400001928E-02 0.  1.
        1   -1    0    0  501    0  0.00000000000E+00  0.00000000000E+00 -0.77496379522E+03  0.77496379523E+03  0.50400001928E-02 0. -1.
    10030    2    1    2    0    0  0.00000000000E+00  0.00000000000E+00 -0.65880859973E+03  0.89111899083E+03  0.60005356823E+03 0.  0.
        5    1    3    3  502    0  0.16928325264E+03 -0.24752571189E+03 -0.31714162025E+03  0.43649363679E+03  0.46999998093E+01 0. -1.
       -5    1    3    3    0  502 -0.16928325264E+03  0.24752571189E+03 -0.34166697948E+03  0.45462535404E+03  0.46999998093E+01 0.  1.
</event>
<event>
 5   0  0.2406307E-03  0.5999380E+03  0.7818609E-02  0.9905535E-01
       -2   -1    0    0    0  501  0.00000000000E+00  0.00000000000E+00  0.61616149487E+02  0.61616149540E+02  0.25500000920E-02 0.  1.
        2   -1    0    0  501    0  0.00000000000E+00  0.00000000000E+00 -0.14603542541E+04  0.14603542541E+04  0.25500000920E-02 0. -1.
    10030    2    1    2    0    0  0.00000000000E+00  0.00000000000E+00 -0.13987381046E+04  0.15219704036E+04  0.59993801701E+03 0.  0.
        5    1    3    3  502    0  0.24751607731E+03  0.84740230484E+01 -0.27016910149E+03  0.36653710725E+03  0.46999998093E+01 0.  1.
       -5    1    3    3    0  502 -0.24751607731E+03 -0.84740230484E+01 -0.11285690031E+04  0.11554332964E+04  0.46999998093E+01 0. -1.
</event>
<event>
 5   0  0.2421210E-03  0.5998017E+03  0.7818609E-02  0.9905817E-01
       -2   -1    0    0    0  501  0.00000000000E+00  0.00000000000E+00  0.11422078359E+03  0.11422078362E+03  0.25500000920E-02 0.  1.
        2   -1    0    0  501    0  0.00000000000E+00  0.00000000000E+00 -0.78742700111E+03  0.78742700112E+03  0.25500000920E-02 0. -1.
    10030    2    1    2    0    0  0.00000000000E+00  0.00000000000E+00 -0.67320621752E+03  0.90164778474E+03  0.59980173091E+03 0.  0.
        1    1    3    3  502    0  0.12290969915E+03 -0.24799177820E+03 -0.51018578636E+03  0.58042764650E+03  0.50400001928E-02 0.  1.
       -1    1    3    3    0  502 -0.12290969915E+03  0.24799177820E+03 -0.16302043117E+03  0.32122013823E+03  0.50400001928E-02 0. -1.
</event>
<event>
 5   0  0.2324616E-03  0.5999143E+03  0.7818609E-02  0.9905584E-01
        2   -1    0    0  501    0  0.00000000000E+00  0.00000000000E+00  0.54879491227E+03  0.54879491227E+03  0.25500000920E-02 0.  1.
       -2   -1    0    0    0  501  0.00000000000E+00  0.00000000000E+00 -0.16394882776E+03  0.16394882778E+03  0.25500000920E-02 0. -1.
    10030    2    1    2    0    0  0.00000000000E+00  0.00000000000E+00  0.38484608451E+03  0.71274374006E+03  0.59991426907E+03 0.  0.
        4    1    3    3  502    0  0.25825563056E+03 -0.15287946010E+02  0.37277195111E+03  0.45375128919E+03  0.12699999809E+01 0.  1.
       -4    1    3    3    0  502 -0.25825563056E+03  0.15287946010E+02  0.12074133397E+02  0.25899245087E+03  0.12699999809E+01 0. -1.
</event>
<event>
 5   0  0.2406307E-03  0.5998819E+03  0.7818609E-02  0.9905651E-01
       -2   -1    0    0    0  501  0.00000000000E+00  0.00000000000E+00  0.47872252164E+02  0.47872252232E+02  0.25500000920E-02 0.  1.
        2   -1    0    0  501    0  0.00000000000E+00  0.00000000000E+00 -0.18792632793E+04  0.18792632793E+04  0.25500000920E-02 0. -1.
    10030    2    1    2    0    0  0.00000000000E+00  0.00000000000E+00 -0.18313910271E+04  0.19271355315E+04  0.59988187390E+03 0.  0.
        5    1    3    3  502    0  0.21964713407E+03  0.49236872832E+00 -0.25970002962E+03  0.34016363903E+03  0.46999998093E+01 0.  1.
       -5    1    3    3    0  502 -0.21964713407E+03 -0.49236872832E+00 -0.15716909975E+04  0.15869718925E+04  0.46999998093E+01 0. -1.
</event>
<event>
 5   0  0.1392854E-03  0.6011410E+03  0.7818609E-02  0.9903042E-01
        1   -1    0    0  501    0  0.00000000000E+00  0.00000000000E+00  0.94876216810E+03  0.94876216811E+03  0.50400001928E-02 0.  1.
       -1   -1    0    0    0  501  0.00000000000E+00  0.00000000000E+00 -0.95221557863E+02  0.95221557996E+02  0.50400001928E-02 0. -1.
    10030    2    1    2    0    0  0.00000000000E+00  0.00000000000E+00  0.85354061024E+03  0.10439837261E+04  0.60114095440E+03 0.  0.
        4    1    3    3  502    0 -0.20308378502E+03 -0.13226070549E+03  0.73551241347E+03  0.77441335295E+03  0.12699999809E+01 0.  1.
       -4    1    3    3    0  502  0.20308378502E+03  0.13226070549E+03  0.11802819676E+03  0.26957037316E+03  0.12699999809E+01 0. -1.
</event>
<event>
 5   0  0.2421210E-03  0.6006843E+03  0.7818609E-02  0.9903987E-01
       -2   -1    0    0    0  501  0.00000000000E+00  0.00000000000E+00  0.13800390652E+03  0.13800390654E+03  0.25500000920E-02 0. -1.
        2   -1    0    0  501    0  0.00000000000E+00  0.00000000000E+00 -0.65364382148E+03  0.65364382149E+03  0.25500000920E-02 0.  1.
    10030    2    1    2    0    0  0.00000000000E+00  0.00000000000E+00 -0.51563991496E+03  0.79164772803E+03  0.60068427929E+03 0.  0.
        1    1    3    3  502    0 -0.18312892621E+03  0.18064334743E+03 -0.53492163781E+02  0.26273491240E+03  0.50400001928E-02 0. -1.
       -1    1    3    3    0  502  0.18312892621E+03 -0.18064334743E+03 -0.46214775118E+03  0.52891281562E+03  0.50400001928E-02 0.  1.
</event>
<event>
 5   0  0.1392854E-03  0.6000908E+03  0.7818609E-02  0.9905218E-01
        1   -1    0    0  501    0  0.00000000000E+00  0.00000000000E+00  0.84573744047E+03  0.84573744048E+03  0.50400001928E-02 0. -1.
       -1   -1    0    0    0  501  0.00000000000E+00  0.00000000000E+00 -0.10644822819E+03  0.10644822831E+03  0.50400001928E-02 0.  1.
    10030    2    1    2    0    0  0.00000000000E+00  0.00000000000E+00  0.73928921227E+03  0.95218566879E+03  0.60009083351E+03 0.  0.
        4    1    3    3  502    0 -0.27784656668E+03  0.96742317349E+02  0.46308501157E+03  0.54864116819E+03  0.12699999809E+01 0. -1.
       -4    1    3    3    0  502  0.27784656668E+03 -0.96742317349E+02  0.27620420070E+03  0.40354450061E+03  0.12699999809E+01 0.  1.
</event>
<event>
 5   0  0.1416315E-03  0.6000063E+03  0.7818609E-02  0.9905393E-01
       -1   -1    0    0    0  501  0.00000000000E+00  0.00000000000E+00  0.69448835385E+03  0.69448835387E+03  0.50400001928E-02 0. -1.
        1   -1    0    0  501    0  0.00000000000E+00  0.00000000000E+00 -0.12959452349E+03  0.12959452359E+03  0.50400001928E-02 0.  1.
    10030    2    1    2    0    0  0.00000000000E+00  0.00000000000E+00  0.56489383036E+03  0.82408287746E+03  0.60000629108E+03 0.  0.
        2    1    3    3  502    0  0.17990457531E+03 -0.23931204015E+03  0.25617190442E+03  0.39403039654E+03  0.25500000920E-02 0. -1.
       -2    1    3    3    0  502 -0.17990457531E+03  0.23931204015E+03  0.30872192595E+03  0.43005248092E+03  0.25500000920E-02 0.  1.
</event>
<event>
 5   0  0.9496750E-04  0.6001028E+03  0.7818609E-02  0.9905193E-01
       -4   -1    0    0    0  501  0.00000000000E+00  0.00000000000E+00  0.60153865836E+03  0.60153999900E+03  0.12699999809E+01 0. -1.
        4   -1    0    0  501    0  0.00000000000E+00  0.00000000000E+00 -0.14966340412E+03  0.14966879245E+03  0.12699999809E+01 0.  1.
    10030    2    1    2    0    0  0.00000000000E+00  0.00000000000E+00  0.45187525424E+03  0.75120879145E+03  0.60010282698E+03 0.  0.
        4    1    3    3  502    0 -0.10477057242E+03 -0.35019837086E+02 -0.12328090065E+03  0.16553868188E+03  0.12699999809E+01 0.  1.
       -4    1    3    3    0  502  0.10477057242E+03  0.35019837086E+02  0.57515615489E+03  0.58567010957E+03  0.12699999809E+01 0. -1.
</event>
<event>
 5   0  0.1392854E-03  0.6000487E+03  0.7818609E-02  0.9905305E-01
       -1   -1    0    0    0  501  0.00000000000E+00  0.00000000000E+00  0.46364646696E+03  0.46364646699E+03  0.50400001928E-02 0.  1.
        1   -1    0    0  501    0  0.00000000000E+00  0.00000000000E+00 -0.19414493816E+03  0.19414493823E+03  0.50400001928E-02 0. -1.
    10030    2    1    2    0    0  0.00000000000E+00  0.00000000000E+00  0.26950152879E+03  0.65779140521E+03  0.60004871365E+03 0.  0.
        4    1    3    3  502    0  0.21028955079E+03 -0.21126819690E+03  0.97461930786E+02  0.31361821861E+03  0.12699999809E+01 0. -1.
       -4    1    3    3    0  502 -0.21028955079E+03  0.21126819690E+03  0.17203959801E+03  0.34417318660E+03  0.12699999809E+01 0.  1.
</event>
<event>
 5   0  0.1392854E-03  0.5999496E+03  0.7818609E-02  0.9905511E-01
        1   -1    0    0  501    0  0.00000000000E+00  0.00000000000E+00  0.64745903338E+03  0.64745903340E+03  0.50400001928E-02 0. -1.
       -1   -1    0    0    0  501  0.00000000000E+00  0.00000000000E+00 -0.13898156298E+03  0.13898156307E+03  0.50400001928E-02 0.  1.
    10030    2    1    2    0    0  0.00000000000E+00  0.00000000000E+00  0.50847747040E+03  0.78644059648E+03  0.59994955945E+03 0.  0.
        4    1    3    3  502    0 -0.82085341496E+02  0.28438216303E+03  0.31808154209E+03  0.43449821433E+03  0.12699999809E+01 0.  1.
       -4    1    3    3    0  502  0.82085341496E+02 -0.28438216303E+03  0.19039592831E+03  0.35194238215E+03  0.12699999809E+01 0. -1.
</event>
<event>
 5   0  0.2324616E-03  0.6002650E+03  0.7818609E-02  0.9904856E-01
        2   -1    0    0  501    0  0.00000000000E+00  0.00000000000E+00  0.21917971495E+03  0.21917971496E+03  0.25500000920E-02 0.  1.
       -2   -1    0    0    0  501  0.00000000000E+00  0.00000000000E+00 -0.41098470196E+03  0.41098470196E+03  0.25500000920E-02 0. -1.
    10030    2    1    2    0    0  0.00000000000E+00  0.00000000000E+00 -0.19180498701E+03  0.63016441693E+03  0.60026497426E+03 0.  0.
        4    1    3    3  502    0 -0.33626020903E+02 -0.16389781570E+03  0.16567666900E+03  0.23546459357E+03  0.12699999809E+01 0.  1.
       -4    1    3    3    0  502  0.33626020903E+02  0.16389781570E+03 -0.35748165601E+03  0.39469982336E+03  0.12699999809E+01 0. -1.
</event>
<event>
 5   0  0.2313168E-03  0.5999771E+03  0.7818609E-02  0.9905454E-01
       -2   -1    0    0    0  501  0.00000000000E+00  0.00000000000E+00  0.15744623855E+03  0.15744623857E+03  0.25500000920E-02 0. -1.
        2   -1    0    0  501    0  0.00000000000E+00  0.00000000000E+00 -0.57158005076E+03  0.57158005077E+03  0.25500000920E-02 0.  1.
    10030    2    1    2    0    0  0.00000000000E+00  0.00000000000E+00 -0.41413381222E+03  0.72902628934E+03  0.59997709633E+03 0.  0.
        2    1    3    3  502    0  0.80491857654E+02  0.21389056844E+02 -0.55725054295E+03  0.56343996888E+03  0.25500000920E-02 0.  1.
       -2    1    3    3    0  502 -0.80491857654E+02 -0.21389056844E+02  0.14311673073E+03  0.16558632046E+03  0.25500000920E-02 0. -1.
</event>
<event>
 5   0  0.1479385E-03  0.6002008E+03  0.7818609E-02  0.9904990E-01
       -1   -1    0    0    0  501  0.00000000000E+00  0.00000000000E+00  0.84031810144E+02  0.84031810295E+02  0.50400001928E-02 0.  1.
        1   -1    0    0  501    0  0.00000000000E+00  0.00000000000E+00 -0.10717400426E+04  0.10717400426E+04  0.50400001928E-02 0. -1.
    10030    2    1    2    0    0  0.00000000000E+00  0.00000000000E+00 -0.98770823244E+03  0.11557718529E+04  0.60020081931E+03 0.  0.
        3    1    3    3  502    0 -0.17640797115E+03  0.20572332609E+03 -0.24561514811E+03  0.36574399566E+03  0.10100000352E+00 0.  1.
       -3    1    3    3    0  502  0.17640797115E+03 -0.20572332609E+03 -0.74209308433E+03  0.79002785723E+03  0.10100000352E+00 0. -1.
</event>
<event>
 5   0  0.2313168E-03  0.5999614E+03  0.7818609E-02  0.9905486E-01
       -2   -1    0    0    0  501  0.00000000000E+00  0.00000000000E+00  0.58631172686E+02  0.58631172741E+02  0.25500000920E-02 0. -1.
        2   -1    0    0  501    0  0.00000000000E+00  0.00000000000E+00 -0.15348222736E+04  0.15348222736E+04  0.25500000920E-02 0.  1.
    10030    2    1    2    0    0  0.00000000000E+00  0.00000000000E+00 -0.14761911009E+04  0.15934534463E+04  0.59996143146E+03 0.  0.
        2    1    3    3  502    0 -0.25905380377E+03 -0.13276708300E+03 -0.54561034683E+03  0.61840651852E+03  0.25500000920E-02 0. -1.
       -2    1    3    3    0  502  0.25905380377E+03  0.13276708300E+03 -0.93058075405E+03  0.97504692779E+03  0.25500000920E-02 0.  1.
</event>
<event>
 5   0  0.1418763E-03  0.5994669E+03  0.7818609E-02  0.9906513E-01
       -1   -1    0    0    0  501  0.00000000000E+00  0.00000000000E+00  0.48344862644E+03  0.48344862646E+03  0.50400001928E-02 0.  1.
        1   -1    0    0  501    0  0.00000000000E+00  0.00000000000E+00 -0.18583181508E+03  0.18583181515E+03  0.50400001928E-02 0. -1.
    10030    2    1    2    0    0  0.00000000000E+00  0.00000000000E+00  0.29761681136E+03  0.66928044161E+03  0.59946688242E+03 0.  0.
        5    1    3    3  502    0  0.17196938066E+03  0.22309880581E+03  0.26305608898E+03  0.38544408283E+03  0.46999998093E+01 0.  1.
       -5    1    3    3    0  502 -0.17196938066E+03 -0.22309880581E+03  0.34560722377E+02  0.28383635878E+03  0.46999998093E+01 0. -1.
</event>
<event>
 5   0  0.2421210E-03  0.5997308E+03  0.7818609E-02  0.9905965E-01
        2   -1    0    0  501    0  0.00000000000E+00  0.00000000000E+00  0.90579091789E+03  0.90579091790E+03  0.25500000920E-02 0.  1.
       -2   -1    0    0    0  501  0.00000000000E+00  0.00000000000E+00 -0.99271527731E+02  0.99271527764E+02  0.25500000920E-02 0. -1.
    10030    2    1    2    0    0  0.00000000000E+00  0.00000000000E+00  0.80651939016E+03  0.10050624457E+04  0.59973076707E+03 0.  0.
        1    1    3    3  502    0 -0.12639400118E+03 -0.11250246691E+00 -0.52449273411E+02  0.13684437327E+03  0.50400001928E-02 0. -1.
       -1    1    3    3    0  502  0.12639400118E+03  0.11250246691E+00  0.85896866358E+03  0.86821807239E+03  0.50400001928E-02 0.  1.
</event>
<event>
 5   0  0.2324616E-03  0.5999777E+03  0.7818609E-02  0.9905452E-01
        2   -1    0    0  501    0  0.00000000000E+00  0.00000000000E+00  0.21835298209E+04  0.21835298209E+04  0.25500000920E-02 0. -1.
       -2   -1    0    0    0  501  0.00000000000E+00  0.00000000000E+00 -0.41214597534E+02  0.41214597613E+02  0.25500000920E-02 0.  1.
    10030    2    1    2    0    0  0.00000000000E+00  0.00000000000E+00  0.21423152234E+04  0.22247444186E+04  0.59997767579E+03 0.  0.
        4    1    3    3  502    0 -0.65608053905E+02 -0.20288604341E+03  0.18535861634E+04  0.18658109340E+04  0.12699999809E+01 0. -1.
       -4    1    3    3    0  502  0.65608053905E+02  0.20288604341E+03  0.28872906001E+03  0.35893348457E+03  0.12699999809E+01 0.  1.
</event>
<event>
 5   0  0.1479385E-03  0.5998424E+03  0.7818609E-02  0.9905733E-01
        1   -1    0    0  501    0  0.00000000000E+00  0.00000000000E+00  0.20851180494E+03  0.20851180500E+03  0.50400001928E-02 0. -1.
       -1   -1    0    0    0  501  0.00000000000E+00  0.00000000000E+00 -0.43140358367E+03  0.43140358370E+03  0.50400001928E-02 0.  1.
    10030    2    1    2    0    0  0.00000000000E+00  0.00000000000E+00 -0.22289177873E+03  0.63991538869E+03  0.59984244570E+03 0.  0.
        3    1    3    3  502    0 -0.20415103774E+03  0.13519834147E+03  0.73319488398E+02  0.25560124281E+03  0.10100000352E+00 0. -1.
       -3    1    3    3    0  502  0.20415103774E+03 -0.13519834147E+03 -0.29621126713E+03  0.38431414588E+03  0.10100000352E+00 0.  1.
</event>
<event>
 5   0  0.2324616E-03  0.5997855E+03  0.7818609E-02  0.9905851E-01
        2   -1    0    0  501    0  0.00000000000E+00  0.00000000000E+00  0.63496067149E+03  0.63496067150E+03  0.25500000920E-02 0. -1.
       -2   -1    0    0    0  501  0.00000000000E+00  0.00000000000E+00 -0.14163974696E+03  0.14163974698E+03  0.25500000920E-02 0.  1.
    10030    2    1    2    0    0  0.00000000000E+00  0.00000000000E+00  0.49332092453E+03  0.77660041848E+03  0.59978552450E+03 0.  0.
        4    1    3    3  502    0  0.21361580001E+03 -0.74961750230E+02  0.50132130621E+03  0.55006875841E+03  0.12699999809E+01 0. -1.
       -4    1    3    3    0  502 -0.21361580001E+03  0.74961750230E+02 -0.80003816797E+01  0.22653166008E+03  0.12699999809E+01 0.  1.
</event>
<event>
 5   0  0.2406307E-03  0.6001066E+03  0.7818609E-02  0.9905185E-01
        2   -1    0    0  501    0  0.00000000000E+00  0.00000000000E+00  0.49795898329E+03  0.49795898330E+03  0.25500000920E-02 0.  1.
       -2   -1    0    0    0  501  0.00000000000E+00  0.00000000000E+00 -0.18080200714E+03  0.18080200715E+03  0.25500000920E-02 0. -1.
    10030    2    1    2    0    0  0.00000000000E+00  0.00000000000E+00  0.31715697615E+03  0.67876099045E+03  0.60010660273E+03 0.  0.
        5    1    3    3  502    0 -0.13944473288E+03  0.32335948942E+02  0.45680182305E+03  0.47872794222E+03  0.46999998093E+01 0.  1.
       -5    1    3    3    0  502  0.13944473288E+03 -0.32335948942E+02 -0.13964484690E+03  0.20003304823E+03  0.46999998093E+01 0. -1.
</event>
<event>
 5   0  0.2421210E-03  0.5998979E+03  0.7818609E-02  0.9905618E-01
       -2   -1    0    0    0  501  0.00000000000E+00  0.00000000000E+00  0.26536871144E+03  0.26536871145E+03  0.25500000920E-02 0. -1.
        2   -1    0    0  501    0  0.00000000000E+00  0.00000000000E+00 -0.33903533987E+03  0.33903533988E+03  0.25500000920E-02 0.  1.
    10030    2    1    2    0    0  0.00000000000E+00  0.00000000000E+00 -0.73666628430E+02  0.60440405133E+03  0.59989789557E+03 0.  0.
        1    1    3    3  502    0  0.17970269973E+03  0.12172745734E+03  0.17174526899E+03  0.27677982514E+03  0.50400001928E-02 0. -1.
       -1    1    3    3    0  502 -0.17970269973E+03 -0.12172745734E+03 -0.24541189742E+03  0.32762422618E+03  0.50400001928E-02 0.  1.
</event>
<event>
 5   0  0.1392854E-03  0.5975856E+03  0.7818609E-02  0.9910428E-01
       -1   -1    0    0    0  501  0.00000000000E+00  0.00000000000E+00  0.10289268635E+03  0.10289268647E+03  0.50400001928E-02 0.  1.
        1   -1    0    0  501    0  0.00000000000E+00  0.00000000000E+00 -0.86767247406E+03  0.86767247407E+03  0.50400001928E-02 0. -1.
    10030    2    1    2    0    0  0.00000000000E+00  0.00000000000E+00 -0.76477978771E+03  0.97056516054E+03  0.59758564840E+03 0.  0.
        4    1    3    3  502    0  0.71775899310E+02 -0.27988914905E+03 -0.25885002775E+03  0.38793641907E+03  0.12699999809E+01 0.  1.
       -4    1    3    3    0  502 -0.71775899310E+02  0.27988914905E+03 -0.50592975996E+03  0.58262874147E+03  0.12699999809E+01 0. -1.
</event>
<event>
 5   0  0.2421210E-03  0.5999857E+03  0.7818609E-02  0.9905436E-01
       -2   -1    0    0    0  501  0.00000000000E+00  0.00000000000E+00  0.23144236307E+03  0.23144236308E+03  0.25500000920E-02 0.  1.
        2   -1    0    0  501    0  0.00000000000E+00  0.00000000000E+00 -0.38884717465E+03  0.38884717466E+03  0.25500000920E-02 0. -1.
    10030    2    1    2    0    0  0.00000000000E+00  0.00000000000E+00 -0.15740481158E+03  0.62028953774E+03  0.59998569643E+03 0.  0.
        1    1    3    3  502    0 -0.72623124383E+02 -0.11684108253E+03 -0.35431303316E+03  0.38008378320E+03  0.50400001928E-02 0. -1.
       -1    1    3    3    0  502  0.72623124383E+02  0.11684108253E+03  0.19690822158E+03  0.24020575454E+03  0.50400001928E-02 0.  1.
</event>
<event>
 5   0  0.1416315E-03  0.6000332E+03  0.7818609E-02  0.9905337E-01
        1   -1    0    0  501    0  0.00000000000E+00  0.00000000000E+00  0.28371539040E+03  0.28371539044E+03  0.50400001928E-02 0.  1.
       -1   -1    0    0    0  501  0.00000000000E+00  0.00000000000E+00 -0.31725446698E+03  0.31725446702E+03  0.50400001928E-02 0. -1.
    10030    2    1    2    0    0  0.00000000000E+00  0.00000000000E+00 -0.33539076576E+02  0.60096985746E+03  0.60003324901E+03 0.  0.
        2    1    3    3  502    0 -0.17141988517E+03 -0.24363574562E+03  0.18878453488E+02  0.29849547666E+03  0.25500000920E-02 0. -1.
       -2    1    3    3    0  502  0.17141988517E+03  0.24363574562E+03 -0.52417530064E+02  0.30247438080E+03  0.25500000920E-02 0.  1.
</event>
<event>
 5   0  0.2346281E-03  0.5995153E+03  0.7818609E-02  0.9906412E-01
        2   -1    0    0  501    0  0.00000000000E+00  0.00000000000E+00  0.12315015458E+04  0.12315015458E+04  0.25500000920E-02 0. -1.
       -2   -1    0    0    0  501  0.00000000000E+00  0.00000000000E+00 -0.72963483115E+02  0.72963483160E+02  0.25500000920E-02 0.  1.
    10030    2    1    2    0    0  0.00000000000E+00  0.00000000000E+00  0.11585380626E+04  0.13044650289E+04  0.59951527844E+03 0.  0.
        3    1    3    3  502    0 -0.22976858709E+03  0.19082998048E+03  0.52401115347E+03  0.60315618560E+03  0.10100000352E+00 0.  1.
       -3    1    3    3    0  502  0.22976858709E+03 -0.19082998048E+03  0.63452690917E+03  0.70130884332E+03  0.10100000352E+00 0. -1.
</event>
<event>
 5   0  0.1392854E-03  0.6001588E+03  0.7818609E-02  0.9905077E-01
       -1   -1    0    0    0  501  0.00000000000E+00  0.00000000000E+00  0.16588254156E+03  0.16588254163E+03  0.50400001928E-02 0.  1.
        1   -1    0    0  501    0  0.00000000000E+00  0.00000000000E+00 -0.54283985710E+03  0.54283985713E+03  0.50400001928E-02 0. -1.
    10030    2    1    2    0    0  0.00000000000E+00  0.00000000000E+00 -0.37695731555E+03  0.70872239876E+03  0.60015882961E+03 0.  0.
        4    1    3    3  502    0  0.39989477140E+02 -0.29674760067E+03 -0.21173189082E+03  0.36672919610E+03  0.12699999809E+01 0. -1.
       -4    1    3    3    0  502 -0.39989477140E+02  0.29674760067E+03 -0.16522542473E+03  0.34199320266E+03  0.12699999809E+01 0.  1.
</event>
<event>
 5   0  0.1392854E-03  0.6000664E+03  0.7818609E-02  0.9905268E-01
       -1   -1    0    0    0  501  0.00000000000E+00  0.00000000000E+00  0.65264493197E+03  0.65264493199E+03  0.50400001928E-02 0.  1.
        1   -1    0    0  501    0  0.00000000000E+00  0.00000000000E+00 -0.13793093523E+03  0.13793093533E+03  0.50400001928E-02 0. -1.
    10030    2    1    2    0    0  0.00000000000E+00  0.00000000000E+00  0.51471399674E+03  0.79057586732E+03  0.60006641595E+03 0.  0.
        4    1    3    3  502    0 -0.47862447410E+02  0.17983713085E+03 -0.52702218816E+02  0.19342012375E+03  0.12699999809E+01 0. -1.
       -4    1    3    3    0  502  0.47862447410E+02 -0.17983713085E+03  0.56741621556E+03  0.59715574357E+03  0.12699999809E+01 0.  1.
</event>
<event>
 5   0  0.2421210E-03  0.5998355E+03  0.7818609E-02  0.9905747E-01
       -2   -1    0    0    0  501  0.00000000000E+00  0.00000000000E+00  0.26383567869E+03  0.26383567870E+03  0.25500000920E-02 0. -1.
        2   -1    0    0  501    0  0.00000000000E+00  0.00000000000E+00 -0.34093442945E+03  0.34093442946E+03  0.25500000920E-02 0.  1.
    10030    2    1    2    0    0  0.00000000000E+00  0.00000000000E+00 -0.77098750761E+02  0.60477010816E+03  0.59983553276E+03 0.  0.
        1    1    3    3  502    0 -0.11913091691E+03  0.22244077937E+01  0.23894846269E+03  0.26700841035E+03  0.50400001928E-02 0. -1.
       -1    1    3    3    0  502  0.11913091691E+03 -0.22244077937E+01 -0.31604721345E+03  0.33776169781E+03  0.50400001928E-02 0.  1.
</event>
<event>
 5   0  0.2324616E-03  0.5993003E+03  0.7818609E-02  0.9906859E-01
       -2   -1    0    0    0  501  0.00000000000E+00  0.00000000000E+00  0.13747037945E+03  0.13747037947E+03  0.25500000920E-02 0. -1.
        2   -1    0    0  501    0  0.00000000000E+00  0.00000000000E+00 -0.65316043172E+03  0.65316043173E+03  0.25500000920E-02 0.  1.
    10030    2    1    2    0    0  0.00000000000E+00  0.00000000000E+00 -0.51569005228E+03  0.79063081120E+03  0.59930030002E+03 0.  0.
        4    1    3    3  502    0  0.19292578230E+03 -0.10146985234E+03 -0.52908657053E+03  0.57223308225E+03  0.12699999809E+01 0.  1.
       -4    1    3    3    0  502 -0.19292578230E+03  0.10146985234E+03  0.13396518255E+02  0.21839772895E+03  0.12699999809E+01 0. -1.
</event>
<event>
 5   0  0.1418763E-03  0.5999220E+03  0.7818609E-02  0.9905568E-01
       -1   -1    0    0    0  501  0.00000000000E+00  0.00000000000E+00  0.35513300415E+03  0.35513300419E+03  0.50400001928E-02 0. -1.
        1   -1    0    0  501    0  0.00000000000E+00  0.00000000000E+00 -0.25336025829E+03  0.25336025834E+03  0.50400001928E-02 0.  1.
    10030    2    1    2    0    0  0.00000000000E+00  0.00000000000E+00  0.10177274586E+03  0.60849326253E+03  0.59992196055E+03 0.  0.
        5    1    3    3  502    0  0.26625001030E+02 -0.20336934217E+03 -0.17107001633E+03  0.26712360528E+03  0.46999998093E+01 0.  1.
       -5    1    3    3    0  502 -0.26625001030E+02  0.20336934217E+03  0.27284276219E+03  0.34136965725E+03  0.46999998093E+01 0. -1.
</event>
<event>
 5   0  0.2421210E-03  0.5998297E+03  0.7818609E-02  0.9905759E-01
       -2   -1    0    0    0  501  0.00000000000E+00  0.00000000000E+00  0.56609363895E+02  0.56609363953E+02  0.25500000920E-02 0. -1.
        2   -1    0    0  501    0  0.00000000000E+00  0.00000000000E+00 -0.15889404930E+04  0.15889404930E+04  0.25500000920E-02 0.  1.
    10030    2    1    2    0    0  0.00000000000E+00  0.00000000000E+00 -0.15323311291E+04  0.16455498569E+04  0.59982967790E+03 0.  0.
        1    1    3    3  502    0  0.11399522219E+03 -0.21692390871E+03 -0.29180967933E+03  0.38105613999E+03  0.50400001928E-02 0.  1.
       -1    1    3    3    0  502 -0.11399522219E+03  0.21692390871E+03 -0.12405214497E+04  0.12644937169E+04  0.50400001928E-02 0. -1.
</event>
<event>
 5   0  0.2346281E-03  0.6031983E+03  0.7818609E-02  0.9898793E-01
       -2   -1    0    0    0  501  0.00000000000E+00  0.00000000000E+00  0.29143843774E+03  0.29143843775E+03  0.25500000920E-02 0.  1.
        2   -1    0    0  501    0  0.00000000000E+00  0.00000000000E+00 -0.31211406669E+03  0.31211406670E+03  0.25500000920E-02 0. -1.
    10030    2    1    2    0    0  0.00000000000E+00  0.00000000000E+00 -0.20675628954E+02  0.60355250445E+03  0.60319826259E+03 0.  0.
        3    1    3    3  502    0 -0.88114952730E+02 -0.27461687630E+03  0.77937305098E+02  0.29875225082E+03  0.10100000352E+00 0.  1.
       -3    1    3    3    0  502  0.88114952730E+02  0.27461687630E+03 -0.98612934052E+02  0.30480025362E+03  0.10100000352E+00 0. -1.
</event>
<event>
 5   0  0.1392854E-03  0.6000175E+03  0.7818609E-02  0.9905370E-01
        1   -1    0    0  501    0  0.00000000000E+00  0.00000000000E+00  0.57675080120E+03  0.57675080122E+03  0.50400001928E-02 0.  1.
       -1   -1    0    0    0  501  0.00000000000E+00  0.00000000000E+00 -0.15605570006E+03  0.15605570015E+03  0.50400001928E-02 0. -1.
    10030    2    1    2    0    0  0.00000000000E+00  0.00000000000E+00  0.42069510113E+03  0.73280650137E+03  0.60001750002E+03 0.  0.
        4    1    3    3  502    0  0.91301224351E+01 -0.25358199566E+03  0.14875411994E+02  0.25418512632E+03  0.12699999809E+01 0. -1.
       -4    1    3    3    0  502 -0.91301224351E+01  0.25358199566E+03  0.40581968914E+03  0.47862137505E+03  0.12699999809E+01 0.  1.
</event>
<event>
 5   0  0.1392854E-03  0.5999320E+03  0.7818609E-02  0.9905547E-01
       -1   -1    0    0    0  501  0.00000000000E+00  0.00000000000E+00  0.13885733366E+03  0.13885733375E+03  0.50400001928E-02 0. -1.
        1   -1    0    0  501    0  0.00000000000E+00  0.00000000000E+00 -0.64800039738E+03  0.64800039740E+03  0.50400001928E-02 0.  1.
    10030    2    1    2    0    0  0.00000000000E+00  0.00000000000E+00 -0.50914306371E+03  0.78685773115E+03  0.59993202093E+03 0.  0.
        4    1    3    3  502    0  0.93230538114E+02 -0.14285115433E+03 -0.57818761776E+03  0.60282743779E+03  0.12699999809E+01 0.  1.
       -4    1    3    3    0  502 -0.93230538114E+02  0.14285115433E+03  0.69044554042E+02  0.18403029336E+03  0.12699999809E+01 0. -1.
</event>
<event>
 5   0  0.1423430E-03  0.6015484E+03  0.7818609E-02  0.9902199E-01
        1   -1    0    0  501    0  0.00000000000E+00  0.00000000000E+00  0.62166446970E+03  0.62166446972E+03  0.50400001928E-02 0.  1.
       -1   -1    0    0    0  501  0.00000000000E+00  0.00000000000E+00 -0.14552083369E+03  0.14552083378E+03  0.50400001928E-02 0. -1.
    10030    2    1    2    0    0  0.00000000000E+00  0.00000000000E+00  0.47614363601E+03  0.76718530349E+03  0.60154844176E+03 0.  0.
        1    1    3    3  502    0 -0.12271966517E+03 -0.37626071047E+02  0.58497965544E+03  0.59889651422E+03  0.50400001928E-02 0.  1.
       -1    1    3    3    0  502  0.12271966517E+03  0.37626071047E+02 -0.10883601943E+03  0.16828878927E+03  0.50400001928E-02 0. -1.
</event>
<event>
 5   0  0.1479385E-03  0.5997388E+03  0.7818609E-02  0.9905948E-01
        1   -1    0    0  501    0  0.00000000000E+00  0.00000000000E+00  0.10275354704E+04  0.10275354704E+04  0.50400001928E-02 0.  1.
       -1   -1    0    0    0  501  0.00000000000E+00  0.00000000000E+00 -0.87511968984E+02  0.87511969130E+02  0.50400001928E-02 0. -1.
    10030    2    1    2    0    0  0.00000000000E+00  0.00000000000E+00  0.94002350144E+03  0.11150474396E+04  0.59973878416E+03 0.  0.
        3    1    3    3  502    0  0.12802804966E+03 -0.74202544480E+02  0.95492461655E+03  0.96632201290E+03  0.10100000352E+00 0.  1.
       -3    1    3    3    0  502 -0.12802804966E+03  0.74202544480E+02 -0.14901115110E+02  0.14872542667E+03  0.10100000352E+00 0. -1.
</event>
<event>
 5   0  0.9496750E-04  0.5994224E+03  0.7818609E-02  0.9906605E-01
       -3   -1    0    0    0  501  0.00000000000E+00  0.00000000000E+00  0.22422381861E+03  0.22422384136E+03  0.10100000352E+00 0.  1.
        3   -1    0    0  501    0  0.00000000000E+00  0.00000000000E+00 -0.40061217187E+03  0.40061218460E+03  0.10100000352E+00 0. -1.
    10030    2    1    2    0    0  0.00000000000E+00  0.00000000000E+00 -0.17638835326E+03  0.62483602596E+03  0.59942239545E+03 0.  0.
        3    1    3    3  502    0 -0.89261725119E+02 -0.10642949216E+02 -0.38622829945E+03  0.39655168318E+03  0.10100000352E+00 0. -1.
       -3    1    3    3    0  502  0.89261725119E+02  0.10642949216E+02  0.20983994619E+03  0.22828434277E+03  0.10100000352E+00 0.  1.
</event>
<event>
 5   0  0.9496750E-04  0.5999145E+03  0.7818609E-02  0.9905583E-01
       -3   -1    0    0    0  501  0.00000000000E+00  0.00000000000E+00  0.12996748997E+03  0.12996752922E+03  0.10100000352E+00 0. -1.
        3   -1    0    0  501    0  0.00000000000E+00  0.00000000000E+00 -0.69228335589E+03  0.69228336325E+03  0.10100000352E+00 0.  1.
    10030    2    1    2    0    0  0.00000000000E+00  0.00000000000E+00 -0.56231586591E+03  0.82225089247E+03  0.59991449150E+03 0.  0.
        2    1    3    3  502    0 -0.16550185448E+01  0.35440227599E+02  0.12708154395E+03  0.13194115218E+03  0.25500000920E-02 0. -1.
       -2    1    3    3    0  502  0.16550185448E+01 -0.35440227599E+02 -0.68939740986E+03  0.69030974030E+03  0.25500000920E-02 0.  1.
</event>
<event>
 5   0  0.1479385E-03  0.6002915E+03  0.7818609E-02  0.9904801E-01
       -1   -1    0    0    0  501  0.00000000000E+00  0.00000000000E+00  0.76217043682E+02  0.76217043849E+02  0.50400001928E-02 0. -1.
        1   -1    0    0  501    0  0.00000000000E+00  0.00000000000E+00 -0.11819860760E+04  0.11819860760E+04  0.50400001928E-02 0.  1.
    10030    2    1    2    0    0  0.00000000000E+00  0.00000000000E+00 -0.11057690323E+04  0.12582031198E+04  0.60029154416E+03 0.  0.
        3    1    3    3  502    0  0.15813761306E+03 -0.25277706187E+03 -0.62499762844E+03  0.69247800935E+03  0.10100000352E+00 0.  1.
       -3    1    3    3    0  502 -0.15813761306E+03  0.25277706187E+03 -0.48077140386E+03  0.56572511049E+03  0.10100000352E+00 0. -1.
</event>
<event>
 5   0  0.2324616E-03  0.6001663E+03  0.7818609E-02  0.9905061E-01
       -2   -1    0    0    0  501  0.00000000000E+00  0.00000000000E+00  0.51843942718E+02  0.51843942781E+02  0.25500000920E-02 0. -1.
        2   -1    0    0  501    0  0.00000000000E+00  0.00000000000E+00 -0.17369417422E+04  0.17369417422E+04  0.25500000920E-02 0.  1.
    10030    2    1    2    0    0  0.00000000000E+00  0.00000000000E+00 -0.16850977994E+04  0.17887856849E+04  0.60016633775E+03 0.  0.
        4    1    3    3  502    0  0.19034734800E+03  0.13825719187E+03 -0.13977604532E+04  0.14174212717E+04  0.12699999809E+01 0. -1.
       -4    1    3    3    0  502 -0.19034734800E+03 -0.13825719187E+03 -0.28733734627E+03  0.37136441329E+03  0.12699999809E+01 0.  1.
</event>
<event>
 5   0  0.2421210E-03  0.5993567E+03  0.7818609E-02  0.9906742E-01
        2   -1    0    0  501    0  0.00000000000E+00  0.00000000000E+00  0.16236222418E+04  0.16236222418E+04  0.25500000920E-02 0. -1.
       -2   -1    0    0    0  501  0.00000000000E+00  0.00000000000E+00 -0.55312820383E+02  0.55312820442E+02  0.25500000920E-02 0.  1.
    10030    2    1    2    0    0  0.00000000000E+00  0.00000000000E+00  0.15683094214E+04  0.16789350622E+04  0.59935674011E+03 0.  0.
        1    1    3    3  502    0  0.57943470108E+02 -0.29386394505E+03  0.81126468558E+03  0.86479121991E+03  0.50400001928E-02 0. -1.
       -1    1    3    3    0  502 -0.57943470108E+02  0.29386394505E+03  0.75704473580E+03  0.81414384230E+03  0.50400001928E-02 0.  1.
</event>
<event>
 5   0  0.1416315E-03  0.5999885E+03  0.7818609E-02  0.9905430E-01
        1   -1    0    0  501    0  0.00000000000E+00  0.00000000000E+00  0.19696166429E+03  0.19696166435E+03  0.50400001928E-02 0. -1.
       -1   -1    0    0    0  501  0.00000000000E+00  0.00000000000E+00 -0.45692420202E+03  0.45692420205E+03  0.50400001928E-02 0.  1.
    10030    2    1    2    0    0  0.00000000000E+00  0.00000000000E+00 -0.25996253774E+03  0.65388586640E+03  0.59998850426E+03 0.  0.
        2    1    3    3  502    0 -0.16350633978E+02  0.24209757199E+03  0.62267990618E+02  0.25051123779E+03  0.25500000920E-02 0. -1.
       -2    1    3    3    0  502  0.16350633978E+02 -0.24209757199E+03 -0.32223052835E+03  0.40337462861E+03  0.25500000920E-02 0.  1.
</event>
<event>
 5   0  0.2406307E-03  0.6003445E+03  0.7818609E-02  0.9904691E-01
        2   -1    0    0  501    0  0.00000000000E+00  0.00000000000E+00  0.54824062340E+03  0.54824062341E+03  0.25500000920E-02 0. -1.
       -2   -1    0    0    0  501  0.00000000000E+00  0.00000000000E+00 -0.16435008476E+03  0.16435008478E+03  0.25500000920E-02 0.  1.
    10030    2    1    2    0    0  0.00000000000E+00  0.00000000000E+00  0.38389053864E+03  0.71259070819E+03  0.60034454420E+03 0.  0.
        5    1    3    3  502    0 -0.72544537225E+01  0.17697891094E+03 -0.95652194632E+02  0.20135936619E+03  0.46999998093E+01 0.  1.
       -5    1    3    3    0  502  0.72544537225E+01 -0.17697891094E+03  0.47954273327E+03  0.51123134200E+03  0.46999998093E+01 0. -1.
</event>
<event>
 5   0  0.9496750E-04  0.6007223E+03  0.7818609E-02  0.9903909E-01
       -3   -1    0    0    0  501  0.00000000000E+00  0.00000000000E+00  0.19726673363E+03  0.19726675949E+03  0.10100000352E+00 0. -1.
        3   -1    0    0  501    0  0.00000000000E+00  0.00000000000E+00 -0.45733407056E+03  0.45733408172E+03  0.10100000352E+00 0.  1.
    10030    2    1    2    0    0  0.00000000000E+00  0.00000000000E+00 -0.26006733693E+03  0.65460084121E+03  0.60072226658E+03 0.  0.
        3    1    3    3  502    0 -0.96075170204E+02 -0.20525941560E+03 -0.34482953410E+03  0.41263698793E+03  0.10100000352E+00 0.  1.
       -3    1    3    3    0  502  0.96075170204E+02  0.20525941560E+03  0.84762197168E+02  0.24196385327E+03  0.10100000352E+00 0. -1.
</event>
<event>
 5   0  0.9496750E-04  0.6002528E+03  0.7818609E-02  0.9904882E-01
        3   -1    0    0  501    0  0.00000000000E+00  0.00000000000E+00  0.14696438512E+03  0.14696441982E+03  0.10100000352E+00 0. -1.
       -3   -1    0    0    0  501  0.00000000000E+00  0.00000000000E+00 -0.61290927837E+03  0.61290928670E+03  0.10100000352E+00 0.  1.
    10030    2    1    2    0    0  0.00000000000E+00  0.00000000000E+00 -0.46594489326E+03  0.75987370652E+03  0.60025278534E+03 0.  0.
        3    1    3    3  502    0 -0.13308664798E+03  0.58028086930E+02 -0.56549480142E+03  0.58383533241E+03  0.10100000352E+00 0.  1.
       -3    1    3    3    0  502  0.13308664798E+03 -0.58028086930E+02  0.99549908161E+02  0.17603837411E+03  0.10100000352E+00 0. -1.
</event>
<event>
 5   0  0.1416315E-03  0.5998734E+03  0.7818609E-02  0.9905669E-01
        1   -1    0    0  501    0  0.00000000000E+00  0.00000000000E+00  0.76484702760E+03  0.76484702761E+03  0.50400001928E-02 0. -1.
       -1   -1    0    0    0  501  0.00000000000E+00  0.00000000000E+00 -0.11762092671E+03  0.11762092682E+03  0.50400001928E-02 0.  1.
    10030    2    1    2    0    0  0.00000000000E+00  0.00000000000E+00  0.64722610089E+03  0.88246795443E+03  0.59987337407E+03 0.  0.
        2    1    3    3  502    0  0.18144970987E+03 -0.17990354374E+03  0.92540692694E+02  0.27175919869E+03  0.25500000920E-02 0.  1.
       -2    1    3    3    0  502 -0.18144970987E+03  0.17990354374E+03  0.55468540819E+03  0.61070875574E+03  0.25500000920E-02 0. -1.
</event>
<event>
 5   0  0.2313168E-03  0.6001908E+03  0.7818609E-02  0.9905010E-01
       -2   -1    0    0    0  501  0.00000000000E+00  0.00000000000E+00  0.30246120210E+03  0.30246120212E+03  0.25500000920E-02 0. -1.
        2   -1    0    0  501    0  0.00000000000E+00  0.00000000000E+00 -0.29774809941E+03  0.29774809942E+03  0.25500000920E-02 0.  1.
    10030    2    1    2    0    0  0.00000000000E+00  0.00000000000E+00  0.47131026938E+01  0.60020930154E+03  0.60019079659E+03 0.  0.
        2    1    3    3  502    0 -0.46152839374E+02  0.29418845604E+03 -0.34797195930E+02  0.29981290350E+03  0.25500000920E-02 0.  1.
       -2    1    3    3    0  502  0.46152839374E+02 -0.29418845604E+03  0.39510298623E+02  0.30039639804E+03  0.25500000920E-02 0. -1.
</event>
<event>
 5   0  0.2346281E-03  0.5996858E+03  0.7818609E-02  0.9906058E-01
        2   -1    0    0  501    0  0.00000000000E+00  0.00000000000E+00  0.34635529107E+03  0.34635529108E+03  0.25500000920E-02 0. -1.
       -2   -1    0    0    0  501  0.00000000000E+00  0.00000000000E+00 -0.25957669933E+03  0.25957669935E+03  0.25500000920E-02 0.  1.
    10030    2    1    2    0    0  0.00000000000E+00  0.00000000000E+00  0.86778591738E+02  0.60593199043E+03  0.59968579526E+03 0.  0.
        3    1    3    3  502    0 -0.15253842306E+03 -0.10084427831E+03  0.28349481683E+03  0.33735272393E+03  0.10100000352E+00 0. -1.
       -3    1    3    3    0  502  0.15253842306E+03  0.10084427831E+03 -0.19671622509E+03  0.26857926649E+03  0.10100000352E+00 0.  1.
</event>
<event>
 5   0  0.1418763E-03  0.5999671E+03  0.7818609E-02  0.9905474E-01
       -1   -1    0    0    0  501  0.00000000000E+00  0.00000000000E+00  0.25892767551E+03  0.25892767556E+03  0.50400001928E-02 0. -1.
        1   -1    0    0  501    0  0.00000000000E+00  0.00000000000E+00 -0.34754931095E+03  0.34754931099E+03  0.50400001928E-02 0.  1.
    10030    2    1    2    0    0  0.00000000000E+00  0.00000000000E+00 -0.88621635436E+02  0.60647698655E+03  0.59996711655E+03 0.  0.
        5    1    3    3  502    0 -0.86749452549E+02  0.21726535334E+03  0.14544479168E+03  0.27551039672E+03  0.46999998093E+01 0. -1.
       -5    1    3    3    0  502  0.86749452549E+02 -0.21726535334E+03 -0.23406642712E+03  0.33096658982E+03  0.46999998093E+01 0.  1.
</event>
<event>
 5   0  0.2421210E-03  0.5999960E+03  0.7818609E-02  0.9905414E-01
        2   -1    0    0  501    0  0.00000000000E+00  0.00000000000E+00  0.74537294485E+03  0.74537294486E+03  0.25500000920E-02 0.  1.
       -2   -1    0    0    0  501  0.00000000000E+00  0.00000000000E+00 -0.12074331651E+03  0.12074331653E+03  0.25500000920E-02 0. -1.
    10030    2    1    2    0    0  0.00000000000E+00  0.00000000000E+00  0.62462962835E+03  0.86611626139E+03  0.59999600469E+03 0.  0.
        1    1    3    3  502    0  0.21002474858E+03 -0.19235940059E+03  0.17623693805E+03  0.33492087479E+03  0.50400001928E-02 0. -1.
       -1    1    3    3    0  502 -0.21002474858E+03  0.19235940059E+03  0.44839269030E+03  0.53119538661E+03  0.50400001928E-02 0.  1.
</event>
<event>
 5   0  0.2324616E-03  0.6001009E+03  0.7818609E-02  0.9905197E-01
       -2   -1    0    0    0  501  0.00000000000E+00  0.00000000000E+00  0.25150561494E+03  0.25150561495E+03  0.25500000920E-02 0.  1.
        2   -1    0    0  501    0  0.00000000000E+00  0.00000000000E+00 -0.35796524745E+03  0.35796524746E+03  0.25500000920E-02 0. -1.
    10030    2    1    2    0    0  0.00000000000E+00  0.00000000000E+00 -0.10645963252E+03  0.60947086241E+03  0.60010089050E+03 0.  0.
        4    1    3    3  502    0 -0.17120581309E+03  0.73564734739E+02  0.18561326532E+03  0.26301539460E+03  0.12699999809E+01 0.  1.
       -4    1    3    3    0  502  0.17120581309E+03 -0.73564734739E+02 -0.29207289783E+03  0.34645546782E+03  0.12699999809E+01 0. -1.
</event>
<event>
 5   0  0.1418763E-03  0.6004692E+03  0.7818609E-02  0.9904433E-01
       -1   -1    0    0    0  501  0.00000000000E+00  0.00000000000E+00  0.21736902021E+03  0.21736902027E+03  0.50400001928E-02 0.  1.
        1   -1    0    0  501    0  0.00000000000E+00  0.00000000000E+00 -0.41469022189E+03  0.41469022192E+03  0.50400001928E-02 0. -1.
    10030    2    1    2    0    0  0.00000000000E+00  0.00000000000E+00 -0.19732120168E+03  0.63205924219E+03  0.60046917406E+03 0.  0.
        5    1    3    3  502    0 -0.20281257773E+03  0.13457801884E+03 -0.28361610638E+03  0.37377047856E+03  0.46999998093E+01 0. -1.
       -5    1    3    3    0  502  0.20281257773E+03 -0.13457801884E+03  0.86294904705E+02  0.25828876363E+03  0.46999998093E+01 0.  1.
</event>
<event>
 5   0  0.1416315E-03  0.5998188E+03  0.7818609E-02  0.9905782E-01
       -1   -1    0    0    0  501  0.00000000000E+00  0.00000000000E+00  0.13329212124E+03  0.13329212134E+03  0.50400001928E-02 0.  1.
        1   -1    0    0  501    0  0.00000000000E+00  0.00000000000E+00 -0.67480088727E+03  0.67480088729E+03  0.50400001928E-02 0. -1.
    10030    2    1    2    0    0  0.00000000000E+00  0.00000000000E+00 -0.54150876603E+03  0.80809300863E+03  0.59981877839E+03 0.  0.
        2    1    3    3  502    0  0.29326954621E+03  0.59859629762E+02 -0.29615383038E+03  0.42106685130E+03  0.25500000920E-02 0. -1.
       -2    1    3    3    0  502 -0.29326954621E+03 -0.59859629762E+02 -0.24535493565E+03  0.38702615734E+03  0.25500000920E-02 0.  1.
</event>
<event>
 5   0  0.1418763E-03  0.6001432E+03  0.7818609E-02  0.9905109E-01
       -1   -1    0    0    0  501  0.00000000000E+00  0.00000000000E+00  0.32961685818E+03  0.32961685822E+03  0.50400001928E-02 0. -1.
        1   -1    0    0  501    0  0.00000000000E+00  0.00000000000E+00 -0.27317465362E+03  0.27317465367E+03  0.50400001928E-02 0.  1.
    10030    2    1    2    0    0  0.00000000000E+00  0.00000000000E+00  0.56442204562E+02  0.60279151189E+03  0.60014321987E+03 0.  0.
        5    1    3    3  502    0  0.20901427799E+03 -0.12472227129E+03  0.20443262770E+03  0.31789526990E+03  0.46999998093E+01 0. -1.
       -5    1    3    3    0  502 -0.20901427799E+03  0.12472227129E+03 -0.14799042314E+03  0.28489624199E+03  0.46999998093E+01 0.  1.
</event>
<event>
 5   0  0.2346281E-03  0.6003936E+03  0.7818609E-02  0.9904590E-01
       -2   -1    0    0    0  501  0.00000000000E+00  0.00000000000E+00  0.39804635775E+02  0.39804635857E+02  0.25500000920E-02 0. -1.
        2   -1    0    0  501    0  0.00000000000E+00  0.00000000000E+00 -0.22640109689E+04  0.22640109689E+04  0.25500000920E-02 0.  1.
    10030    2    1    2    0    0  0.00000000000E+00  0.00000000000E+00 -0.22242063331E+04  0.23038156047E+04  0.60039364455E+03 0.  0.
        3    1    3    3  502    0  0.25490682429E+03  0.36922194143E+02 -0.52041393035E+03  0.58066462488E+03  0.10100000352E+00 0. -1.
       -3    1    3    3    0  502 -0.25490682429E+03 -0.36922194143E+02 -0.17037924028E+04  0.17231509799E+04  0.10100000352E+00 0.  1.
</event>
<event>
 5   0  0.2313168E-03  0.6000496E+03  0.7818609E-02  0.9905303E-01
       -2   -1    0    0    0  501  0.00000000000E+00  0.00000000000E+00  0.59887014025E+02  0.59887014079E+02  0.25500000920E-02 0.  1.
        2   -1    0    0  501    0  0.00000000000E+00  0.00000000000E+00 -0.15030783843E+04  0.15030783843E+04  0.25500000920E-02 0. -1.
    10030    2    1    2    0    0  0.00000000000E+00  0.00000000000E+00 -0.14431913703E+04  0.15629653984E+04  0.60004958571E+03 0.  0.
        2    1    3    3  502    0  0.38782293666E+01 -0.27457190300E+03 -0.40675641071E+03  0.49077036202E+03  0.25500000920E-02 0. -1.
       -2    1    3    3    0  502 -0.38782293666E+01  0.27457190300E+03 -0.10364349596E+04  0.10721950364E+04  0.25500000920E-02 0.  1.
</event>
<event>
 5   0  0.2406307E-03  0.6004698E+03  0.7818609E-02  0.9904432E-01
       -2   -1    0    0    0  501  0.00000000000E+00  0.00000000000E+00  0.34102375745E+03  0.34102375746E+03  0.25500000920E-02 0. -1.
        2   -1    0    0  501    0  0.00000000000E+00  0.00000000000E+00 -0.26432466481E+03  0.26432466482E+03  0.25500000920E-02 0.  1.
    10030    2    1    2    0    0  0.00000000000E+00  0.00000000000E+00  0.76699092638E+02  0.60534842228E+03  0.60046978404E+03 0.  0.
        5    1    3    3  502    0  0.29284660427E+03  0.55588256140E+02  0.74272079979E+02  0.30722568206E+03  0.46999998093E+01 0. -1.
       -5    1    3    3    0  502 -0.29284660427E+03 -0.55588256140E+02  0.24270126587E+01  0.29812274023E+03  0.46999998093E+01 0.  1.
</event>
<event>
 5   0  0.9496750E-04  0.6000927E+03  0.7818609E-02  0.9905214E-01
        3   -1    0    0  501    0  0.00000000000E+00  0.00000000000E+00  0.92447402850E+03  0.92447403402E+03  0.10100000352E+00 0. -1.
       -3   -1    0    0    0  501  0.00000000000E+00  0.00000000000E+00 -0.97382692613E+02  0.97382744989E+02  0.10100000352E+00 0.  1.
    10030    2    1    2    0    0  0.00000000000E+00  0.00000000000E+00  0.82709133589E+03  0.10218567790E+04  0.60009265860E+03 0.  0.
        5    1    3    3  502    0 -0.17791603376E+03  0.75963175509E+02  0.80401499556E+03  0.82697443865E+03  0.46999998093E+01 0. -1.
       -5    1    3    3    0  502  0.17791603376E+03 -0.75963175509E+02  0.23076340331E+02  0.19488234036E+03  0.46999998093E+01 0.  1.
</event>
<event>
 5   0  0.1392854E-03  0.6002270E+03  0.7818609E-02  0.9904935E-01
        1   -1    0    0  501    0  0.00000000000E+00  0.00000000000E+00  0.13687561062E+04  0.13687561062E+04  0.50400001928E-02 0.  1.
       -1   -1    0    0    0  501  0.00000000000E+00  0.00000000000E+00 -0.65802889885E+02  0.65802890078E+02  0.50400001928E-02 0. -1.
    10030    2    1    2    0    0  0.00000000000E+00  0.00000000000E+00  0.13029532163E+04  0.14345589963E+04  0.60022698200E+03 0.  0.
        4    1    3    3  502    0  0.67057612481E+02  0.95841865944E+02  0.13120246424E+04  0.13172291607E+04  0.12699999809E+01 0.  1.
       -4    1    3    3    0  502 -0.67057612481E+02 -0.95841865944E+02 -0.90714260294E+01  0.11732983563E+03  0.12699999809E+01 0. -1.
</event>
<event>
 5   0  0.1423430E-03  0.5998895E+03  0.7818609E-02  0.9905635E-01
        1   -1    0    0  501    0  0.00000000000E+00  0.00000000000E+00  0.52534920747E+03  0.52534920749E+03  0.50400001928E-02 0.  1.
       -1   -1    0    0    0  501  0.00000000000E+00  0.00000000000E+00 -0.17125155247E+03  0.17125155254E+03  0.50400001928E-02 0. -1.
    10030    2    1    2    0    0  0.00000000000E+00  0.00000000000E+00  0.35409765500E+03  0.69660076004E+03  0.59988954784E+03 0.  0.
        1    1    3    3  502    0  0.62809932033E+02  0.29133972133E+03  0.13779105836E+03  0.32834478308E+03  0.50400001928E-02 0. -1.
       -1    1    3    3    0  502 -0.62809932033E+02 -0.29133972133E+03  0.21630659665E+03  0.36825597696E+03  0.50400001928E-02 0.  1.
</event>
<event>
 5   0  0.2313168E-03  0.6000302E+03  0.7818609E-02  0.9905343E-01
       -2   -1    0    0    0  501  0.00000000000E+00  0.00000000000E+00  0.12441037546E+03  0.12441037548E+03  0.25500000920E-02 0.  1.
        2   -1    0    0  501    0  0.00000000000E+00  0.00000000000E+00 -0.72348527136E+03  0.72348527137E+03  0.25500000920E-02 0. -1.
    10030    2    1    2    0    0  0.00000000000E+00  0.00000000000E+00 -0.59907489590E+03  0.84789564685E+03  0.60003024677E+03 0.  0.
        2    1    3    3  502    0 -0.56603809117E+02 -0.27125687813E+03 -0.13703360339E+03  0.30913183855E+03  0.25500000920E-02 0.  1.
       -2    1    3    3    0  502  0.56603809117E+02  0.27125687813E+03 -0.46204129251E+03  0.53876380830E+03  0.25500000920E-02 0. -1.
</event>
<event>
 5   0  0.1418763E-03  0.5998479E+03  0.7818609E-02  0.9905722E-01
       -1   -1    0    0    0  501  0.00000000000E+00  0.00000000000E+00  0.22762418903E+03  0.22762418909E+03  0.50400001928E-02 0. -1.
        1   -1    0    0  501    0  0.00000000000E+00  0.00000000000E+00 -0.39518811349E+03  0.39518811352E+03  0.50400001928E-02 0.  1.
    10030    2    1    2    0    0  0.00000000000E+00  0.00000000000E+00 -0.16756392446E+03  0.62281230261E+03  0.59984789364E+03 0.  0.
        5    1    3    3  502    0  0.26886178188E+03 -0.44133943410E+02 -0.21386951180E+03  0.34640542836E+03  0.46999998093E+01 0.  1.
       -5    1    3    3    0  502 -0.26886178188E+03  0.44133943410E+02  0.46305587341E+02  0.27640687426E+03  0.46999998093E+01 0. -1.
</event>
<event>
 5   0  0.1392854E-03  0.5997452E+03  0.7818609E-02  0.9905935E-01
        1   -1    0    0  501    0  0.00000000000E+00  0.00000000000E+00  0.12709967231E+04  0.12709967232E+04  0.50400001928E-02 0.  1.
       -1   -1    0    0    0  501  0.00000000000E+00  0.00000000000E+00 -0.70750434881E+02  0.70750435060E+02  0.50400001928E-02 0. -1.
    10030    2    1    2    0    0  0.00000000000E+00  0.00000000000E+00  0.12002462883E+04  0.13417471582E+04  0.59974518263E+03 0.  0.
        4    1    3    3  502    0 -0.21726102330E+03  0.19270649662E+02  0.10605086468E+04  0.10827067530E+04  0.12699999809E+01 0.  1.
       -4    1    3    3    0  502  0.21726102330E+03 -0.19270649662E+02  0.13973764145E+03  0.25904040519E+03  0.12699999809E+01 0. -1.
</event>
<event>
 5   0  0.2324616E-03  0.6001991E+03  0.7818609E-02  0.9904993E-01
        2   -1    0    0  501    0  0.00000000000E+00  0.00000000000E+00  0.76597371859E+03  0.76597371859E+03  0.25500000920E-02 0.  1.
       -2   -1    0    0    0  501  0.00000000000E+00  0.00000000000E+00 -0.11757549089E+03  0.11757549092E+03  0.25500000920E-02 0. -1.
    10030    2    1    2    0    0  0.00000000000E+00  0.00000000000E+00  0.64839822769E+03  0.88354920952E+03  0.60019908694E+03 0.  0.
        4    1    3    3  502    0  0.40742955287E+02 -0.20050927116E+03  0.10279139348E+01  0.20461335668E+03  0.12699999809E+01 0. -1.
       -4    1    3    3    0  502 -0.40742955287E+02  0.20050927116E+03  0.64737031376E+03  0.67893585283E+03  0.12699999809E+01 0.  1.
</event>
<event>
 5   0  0.1418763E-03  0.5990208E+03  0.7818609E-02  0.9907440E-01
       -1   -1    0    0    0  501  0.00000000000E+00  0.00000000000E+00  0.36295005244E+03  0.36295005247E+03  0.50400001928E-02 0. -1.
        1   -1    0    0  501    0  0.00000000000E+00  0.00000000000E+00 -0.24715929274E+03  0.24715929279E+03  0.50400001928E-02 0.  1.
    10030    2    1    2    0    0  0.00000000000E+00  0.00000000000E+00  0.11579075970E+03  0.61010934527E+03  0.59902079526E+03 0.  0.
        5    1    3    3  502    0  0.35286305718E+02 -0.25635720395E+03 -0.95627221378E+02  0.27591809447E+03  0.46999998093E+01 0.  1.
       -5    1    3    3    0  502 -0.35286305718E+02  0.25635720395E+03  0.21141798108E+03  0.33419125080E+03  0.46999998093E+01 0. -1.
</event>
<event>
 5   0  0.2346281E-03  0.6001462E+03  0.7818609E-02  0.9905103E-01
       -2   -1    0    0    0  501  0.00000000000E+00  0.00000000000E+00  0.10099343655E+03  0.10099343659E+03  0.25500000920E-02 0. -1.
        2   -1    0    0  501    0  0.00000000000E+00  0.00000000000E+00 -0.89158133123E+03  0.89158133124E+03  0.25500000920E-02 0.  1.
    10030    2    1    2    0    0  0.00000000000E+00  0.00000000000E+00 -0.79058789468E+03  0.99257476782E+03  0.60014619095E+03 0.  0.
        3    1    3    3  502    0 -0.89509327511E+02 -0.23286383448E+03 -0.11950408096E+03  0.27662017404E+03  0.10100000352E+00 0. -1.
       -3    1    3    3    0  502  0.89509327511E+02  0.23286383448E+03 -0.67108381372E+03  0.71595459378E+03  0.10100000352E+00 0.  1.
</event>
<event>
 5   0  0.2421210E-03  0.5999531E+03  0.7818609E-02  0.9905503E-01
        2   -1    0    0  501    0  0.00000000000E+00  0.00000000000E+00  0.52312942640E+03  0.52312942640E+03  0.25500000920E-02 0.  1.
       -2   -1    0    0    0  501  0.00000000000E+00  0.00000000000E+00 -0.17201463775E+03  0.17201463777E+03  0.25500000920E-02 0. -1.
    10030    2    1    2    0    0  0.00000000000E+00  0.00000000000E+00  0.35111478864E+03  0.69514406417E+03  0.59995306079E+03 0.  0.
        1    1    3    3  502    0 -0.17344077269E+03  0.10665882889E+03  0.43080062920E+03  0.47649448009E+03  0.50400001928E-02 0.  1.
       -1    1    3    3    0  502  0.17344077269E+03 -0.10665882889E+03 -0.79685840552E+02  0.21864958409E+03  0.50400001928E-02 0. -1.
</event>
<event>
 5   0  0.1423430E-03  0.5998266E+03  0.7818609E-02  0.9905766E-01
       -1   -1    0    0    0  501  0.00000000000E+00  0.00000000000E+00  0.47541281176E+02  0.47541281443E+02  0.50400001928E-02 0. -1.
        1   -1    0    0  501    0  0.00000000000E+00  0.00000000000E+00 -0.18919975408E+04  0.18919975408E+04  0.50400001928E-02 0.  1.
    10030    2    1    2    0    0  0.00000000000E+00  0.00000000000E+00 -0.18444562596E+04  0.19395388222E+04  0.59982659939E+03 0.  0.
        1    1    3    3  502    0  0.44555168529E+02 -0.74686682159E+01 -0.18809322475E+04  0.18814747045E+04  0.50400001928E-02 0.  1.
       -1    1    3    3    0  502 -0.44555168529E+02  0.74686682159E+01  0.36475987891E+02  0.58064117712E+02  0.50400001928E-02 0. -1.
</event>
<event>
 5   0  0.9496750E-04  0.6003003E+03  0.7818609E-02  0.9904783E-01
        3   -1    0    0  501    0  0.00000000000E+00  0.00000000000E+00  0.17698983112E+03  0.17698985993E+03  0.10100000352E+00 0.  1.
       -3   -1    0    0    0  501  0.00000000000E+00  0.00000000000E+00 -0.50901281157E+03  0.50901282159E+03  0.10100000352E+00 0. -1.
    10030    2    1    2    0    0  0.00000000000E+00  0.00000000000E+00 -0.33202298045E+03  0.68600268152E+03  0.60030027445E+03 0.  0.
        4    1    3    3  502    0 -0.15872807579E+03  0.15725502359E+03  0.63011875035E+02  0.23215480564E+03  0.12699999809E+01 0.  1.
       -4    1    3    3    0  502  0.15872807579E+03 -0.15725502359E+03 -0.39503485549E+03  0.45384787588E+03  0.12699999809E+01 0. -1.
</event>
<event>
 5   0  0.1416315E-03  0.5999973E+03  0.7818609E-02  0.9905412E-01
       -1   -1    0    0    0  501  0.00000000000E+00  0.00000000000E+00  0.25554216385E+03  0.25554216390E+03  0.50400001928E-02 0. -1.
        1   -1    0    0  501    0  0.00000000000E+00  0.00000000000E+00 -0.35218922746E+03  0.35218922750E+03  0.50400001928E-02 0.  1.
    10030    2    1    2    0    0  0.00000000000E+00  0.00000000000E+00 -0.96647063610E+02  0.60773139140E+03  0.59999732432E+03 0.  0.
        2    1    3    3  502    0  0.50536080273E+02 -0.18665299428E+03 -0.28063991506E+03  0.34081079445E+03  0.25500000920E-02 0.  1.
       -2    1    3    3    0  502 -0.50536080273E+02  0.18665299428E+03  0.18399285145E+03  0.26692059695E+03  0.25500000920E-02 0. -1.
</event>
<event>
 5   0  0.1392854E-03  0.6001470E+03  0.7818609E-02  0.9905101E-01
       -1   -1    0    0    0  501  0.00000000000E+00  0.00000000000E+00  0.97264064785E+02  0.97264064916E+02  0.50400001928E-02 0.  1.
        1   -1    0    0  501    0  0.00000000000E+00  0.00000000000E+00 -0.92576957113E+03  0.92576957114E+03  0.50400001928E-02 0. -1.
    10030    2    1    2    0    0  0.00000000000E+00  0.00000000000E+00 -0.82850550634E+03  0.10230336361E+04  0.60014702071E+03 0.  0.
        4    1    3    3  502    0  0.59223854898E+02  0.29252776442E+03 -0.36136661864E+03  0.46868689326E+03  0.12699999809E+01 0. -1.
       -4    1    3    3    0  502 -0.59223854898E+02 -0.29252776442E+03 -0.46713888770E+03  0.55434674280E+03  0.12699999809E+01 0.  1.
</event>
<event>
 5   0  0.1392854E-03  0.5999998E+03  0.7818609E-02  0.9905407E-01
        1   -1    0    0  501    0  0.00000000000E+00  0.00000000000E+00  0.15111862550E+04  0.15111862550E+04  0.50400001928E-02 0.  1.
       -1   -1    0    0    0  501  0.00000000000E+00  0.00000000000E+00 -0.59555814536E+02  0.59555814750E+02  0.50400001928E-02 0. -1.
    10030    2    1    2    0    0  0.00000000000E+00  0.00000000000E+00  0.14516304405E+04  0.15707420698E+04  0.59999976169E+03 0.  0.
        4    1    3    3  502    0  0.80719377687E+02 -0.24665255448E+03  0.33186438785E+03  0.42129406047E+03  0.12699999809E+01 0. -1.
       -4    1    3    3    0  502 -0.80719377687E+02  0.24665255448E+03  0.11197660526E+04  0.11494480093E+04  0.12699999809E+01 0.  1.
</event>
<event>
 5   0  0.1423430E-03  0.5998029E+03  0.7818609E-02  0.9905815E-01
       -1   -1    0    0    0  501  0.00000000000E+00  0.00000000000E+00  0.11195591886E+03  0.11195591897E+03  0.50400001928E-02 0.  1.
        1   -1    0    0  501    0  0.00000000000E+00  0.00000000000E+00 -0.80335984163E+03  0.80335984165E+03  0.50400001928E-02 0. -1.
    10030    2    1    2    0    0  0.00000000000E+00  0.00000000000E+00 -0.69140392277E+03  0.91531576062E+03  0.59980293197E+03 0.  0.
        1    1    3    3  502    0  0.19912283547E+02 -0.29539733338E+03 -0.27275839547E+03  0.40255835096E+03  0.50400001928E-02 0. -1.
       -1    1    3    3    0  502 -0.19912283547E+02  0.29539733338E+03 -0.41864552730E+03  0.51275740965E+03  0.50400001928E-02 0.  1.
</event>
<event>
 5   0  0.2406307E-03  0.6001399E+03  0.7818609E-02  0.9905116E-01
       -2   -1    0    0    0  501  0.00000000000E+00  0.00000000000E+00  0.62380857027E+03  0.62380857027E+03  0.25500000920E-02 0. -1.
        2   -1    0    0  501    0  0.00000000000E+00  0.00000000000E+00 -0.14434232361E+03  0.14434232363E+03  0.25500000920E-02 0.  1.
    10030    2    1    2    0    0  0.00000000000E+00  0.00000000000E+00  0.47946624665E+03  0.76815089390E+03  0.60013991213E+03 0.  0.
        5    1    3    3  502    0  0.11186809167E+03  0.43187687459E+02 -0.11228942740E+03  0.16434917641E+03  0.46999998093E+01 0.  1.
       -5    1    3    3    0  502 -0.11186809167E+03 -0.43187687459E+02  0.59175567405E+03  0.60380171750E+03  0.46999998093E+01 0. -1.
</event>
<event>
 5   0  0.2313168E-03  0.5997267E+03  0.7818609E-02  0.9905973E-01
        2   -1    0    0  501    0  0.00000000000E+00  0.00000000000E+00  0.36780545294E+03  0.36780545295E+03  0.25500000920E-02 0.  1.
       -2   -1    0    0    0  501  0.00000000000E+00  0.00000000000E+00 -0.24447174736E+03  0.24447174738E+03  0.25500000920E-02 0. -1.
    10030    2    1    2    0    0  0.00000000000E+00  0.00000000000E+00  0.12333370558E+03  0.61227720032E+03  0.59972674370E+03 0.  0.
        2    1    3    3  502    0 -0.21951203533E+01 -0.19579999157E+03 -0.17018830397E+03  0.25943499006E+03  0.25500000920E-02 0. -1.
       -2    1    3    3    0  502  0.21951203533E+01  0.19579999157E+03  0.29352200954E+03  0.35284221027E+03  0.25500000920E-02 0.  1.
</event>
<event>
 5   0  0.1416315E-03  0.5993850E+03  0.7818609E-02  0.9906683E-01
       -1   -1    0    0    0  501  0.00000000000E+00  0.00000000000E+00  0.22866078230E+03  0.22866078236E+03  0.50400001928E-02 0.  1.
        1   -1    0    0  501    0  0.00000000000E+00  0.00000000000E+00 -0.39278964382E+03  0.39278964385E+03  0.50400001928E-02 0. -1.
    10030    2    1    2    0    0  0.00000000000E+00  0.00000000000E+00 -0.16412886152E+03  0.62145042621E+03  0.59938497566E+03 0.  0.
        2    1    3    3  502    0  0.12005920981E+03  0.11383922643E+03 -0.34114751217E+03  0.37915064078E+03  0.25500000920E-02 0. -1.
       -2    1    3    3    0  502 -0.12005920981E+03 -0.11383922643E+03  0.17701865065E+03  0.24229978543E+03  0.25500000920E-02 0.  1.
</event>
<event>
 5   0  0.1392854E-03  0.6005444E+03  0.7818609E-02  0.9904277E-01
        1   -1    0    0  501    0  0.00000000000E+00  0.00000000000E+00  0.27350277351E+04  0.27350277351E+04  0.50400001928E-02 0.  1.
       -1   -1    0    0    0  501  0.00000000000E+00  0.00000000000E+00 -0.32966176423E+02  0.32966176809E+02  0.50400001928E-02 0. -1.
    10030    2    1    2    0    0  0.00000000000E+00  0.00000000000E+00  0.27020615587E+04  0.27679939119E+04  0.60054444424E+03 0.  0.
        4    1    3    3  502    0  0.92283207552E+02 -0.64426828369E+02  0.26341181312E+04  0.26365217519E+04  0.12699999809E+01 0.  1.
       -4    1    3    3    0  502 -0.92283207552E+02  0.64426828369E+02  0.67943427537E+02  0.13147216000E+03  0.12699999809E+01 0. -1.
</event>
<event>
 5   0  0.1423430E-03  0.5998337E+03  0.7818609E-02  0.9905751E-01
        1   -1    0    0  501    0  0.00000000000E+00  0.00000000000E+00  0.65993942663E+03  0.65993942665E+03  0.50400001928E-02 0. -1.
       -1   -1    0    0    0  501  0.00000000000E+00  0.00000000000E+00 -0.13630055808E+03  0.13630055817E+03  0.50400001928E-02 0.  1.
    10030    2    1    2    0    0  0.00000000000E+00  0.00000000000E+00  0.52363886855E+03  0.79623998482E+03  0.59983368426E+03 0.  0.
        1    1    3    3  502    0  0.95529669664E+02  0.37502608364E+02  0.63590583325E+03  0.64413398623E+03  0.50400001928E-02 0. -1.
       -1    1    3    3    0  502 -0.95529669664E+02 -0.37502608364E+02 -0.11226696470E+03  0.15210599860E+03  0.50400001928E-02 0.  1.
</event>
<event>
 5   0  0.1423430E-03  0.6005000E+03  0.7818609E-02  0.9904369E-01
       -1   -1    0    0    0  501  0.00000000000E+00  0.00000000000E+00  0.87727328053E+03  0.87727328054E+03  0.50400001928E-02 0. -1.
        1   -1    0    0  501    0  0.00000000000E+00  0.00000000000E+00 -0.10276166914E+03  0.10276166927E+03  0.50400001928E-02 0.  1.
    10030    2    1    2    0    0  0.00000000000E+00  0.00000000000E+00  0.77451161139E+03  0.98003494981E+03  0.60050001388E+03 0.  0.
        1    1    3    3  502    0  0.24606919520E+03 -0.14568709530E+01  0.66803114258E+03  0.71191135599E+03  0.50400001928E-02 0. -1.
       -1    1    3    3    0  502 -0.24606919520E+03  0.14568709530E+01  0.10648046881E+03  0.26812359382E+03  0.50400001928E-02 0.  1.
</event>
<event>
 5   0  0.9496750E-04  0.6005824E+03  0.7818609E-02  0.9904199E-01
        3   -1    0    0  501    0  0.00000000000E+00  0.00000000000E+00  0.10099295310E+04  0.10099295361E+04  0.10100000352E+00 0.  1.
       -3   -1    0    0    0  501  0.00000000000E+00  0.00000000000E+00 -0.89288168728E+02  0.89288225852E+02  0.10100000352E+00 0. -1.
    10030    2    1    2    0    0  0.00000000000E+00  0.00000000000E+00  0.92064136229E+03  0.10992177619E+04  0.60058235918E+03 0.  0.
        3    1    3    3  502    0 -0.20476818456E+03  0.14230776126E+03  0.15409753545E+03  0.29313404605E+03  0.10100000352E+00 0. -1.
       -3    1    3    3    0  502  0.20476818456E+03 -0.14230776126E+03  0.76654382684E+03  0.80608371587E+03  0.10100000352E+00 0.  1.
</event>
<event>
 5   0  0.1416315E-03  0.5996177E+03  0.7818609E-02  0.9906200E-01
        1   -1    0    0  501    0  0.00000000000E+00  0.00000000000E+00  0.54164794828E+03  0.54164794830E+03  0.50400001928E-02 0.  1.
       -1   -1    0    0    0  501  0.00000000000E+00  0.00000000000E+00 -0.16594790295E+03  0.16594790303E+03  0.50400001928E-02 0. -1.
    10030    2    1    2    0    0  0.00000000000E+00  0.00000000000E+00  0.37570004532E+03  0.70759585133E+03  0.59961768216E+03 0.  0.
        2    1    3    3  502    0  0.29624969634E+02 -0.49008468327E+02  0.53513381634E+03  0.53818925128E+03  0.25500000920E-02 0.  1.
       -2    1    3    3    0  502 -0.29624969634E+02  0.49008468327E+02 -0.15943377101E+03  0.16940660005E+03  0.25500000920E-02 0. -1.
</event>
<event>
 5   0  0.1392854E-03  0.6006396E+03  0.7818609E-02  0.9904080E-01
        1   -1    0    0  501    0  0.00000000000E+00  0.00000000000E+00  0.54340265539E+03  0.54340265542E+03  0.50400001928E-02 0.  1.
       -1   -1    0    0    0  501  0.00000000000E+00  0.00000000000E+00 -0.16597633337E+03  0.16597633345E+03  0.50400001928E-02 0. -1.
    10030    2    1    2    0    0  0.00000000000E+00  0.00000000000E+00  0.37742632203E+03  0.70937898886E+03  0.60063959350E+03 0.  0.
        4    1    3    3  502    0  0.23423965656E+03 -0.17097912780E+03  0.28086669157E+03  0.40371994028E+03  0.12699999809E+01 0.  1.
       -4    1    3    3    0  502 -0.23423965656E+03  0.17097912780E+03  0.96559630455E+02  0.30565904858E+03  0.12699999809E+01 0. -1.
</event>
<event>
 5   0  0.1479385E-03  0.6000111E+03  0.7818609E-02  0.9905383E-01
       -1   -1    0    0    0  501  0.00000000000E+00  0.00000000000E+00  0.96824770908E+02  0.96824771039E+02  0.50400001928E-02 0. -1.
        1   -1    0    0  501    0  0.00000000000E+00  0.00000000000E+00 -0.92954845857E+03  0.92954845859E+03  0.50400001928E-02 0.  1.
    10030    2    1    2    0    0  0.00000000000E+00  0.00000000000E+00 -0.83272368766E+03  0.10263732296E+04  0.60001105531E+03 0.  0.
        3    1    3    3  502    0  0.67008474125E+02 -0.20928940035E+03 -0.76572087733E+03  0.79663081844E+03  0.10100000352E+00 0.  1.
       -3    1    3    3    0  502 -0.67008474125E+02  0.20928940035E+03 -0.67002810330E+02  0.22974241118E+03  0.10100000352E+00 0. -1.
</event>
<event>
 5   0  0.2313168E-03  0.6001617E+03  0.7818609E-02  0.9905071E-01
        2   -1    0    0  501    0  0.00000000000E+00  0.00000000000E+00  0.87182681893E+03  0.87182681893E+03  0.25500000920E-02 0. -1.
       -2   -1    0    0    0  501  0.00000000000E+00  0.00000000000E+00 -0.10328714830E+03  0.10328714833E+03  0.25500000920E-02 0.  1.
    10030    2    1    2    0    0  0.00000000000E+00  0.00000000000E+00  0.76853967062E+03  0.97511396726E+03  0.60016166475E+03 0.  0.
        2    1    3    3  502    0 -0.15242085525E+03  0.22998058109E+03  0.57599968676E+03  0.63866957337E+03  0.25500000920E-02 0. -1.
       -2    1    3    3    0  502  0.15242085525E+03 -0.22998058109E+03  0.19253998386E+03  0.33644439390E+03  0.25500000920E-02 0.  1.
</event>
<event>
 5   0  0.1418763E-03  0.6000096E+03  0.7818609E-02  0.9905386E-01
       -1   -1    0    0    0  501  0.00000000000E+00  0.00000000000E+00  0.13406799069E+04  0.13406799069E+04  0.50400001928E-02 0. -1.
        1   -1    0    0  501    0  0.00000000000E+00  0.00000000000E+00 -0.67132266100E+02  0.67132266289E+02  0.50400001928E-02 0.  1.
    10030    2    1    2    0    0  0.00000000000E+00  0.00000000000E+00  0.12735476408E+04  0.14078121732E+04  0.60000960127E+03 0.  0.
        5    1    3    3  502    0  0.53560249893E+02 -0.95349965769E+02  0.12921502357E+04  0.12967785617E+04  0.46999998093E+01 0. -1.
       -5    1    3    3    0  502 -0.53560249893E+02  0.95349965769E+02 -0.18602594966E+02  0.11103361148E+03  0.46999998093E+01 0.  1.
</event>
<event>
 5   0  0.2421210E-03  0.6002254E+03  0.7818609E-02  0.9904939E-01
       -2   -1    0    0    0  501  0.00000000000E+00  0.00000000000E+00  0.87528059969E+03  0.87528059969E+03  0.25500000920E-02 0.  1.
        2   -1    0    0  501    0  0.00000000000E+00  0.00000000000E+00 -0.10290143043E+03  0.10290143046E+03  0.25500000920E-02 0. -1.
    10030    2    1    2    0    0  0.00000000000E+00  0.00000000000E+00  0.77237916926E+03  0.97818203015E+03  0.60022537684E+03 0.  0.
        1    1    3    3  502    0 -0.25862051100E+02 -0.16396170510E+03 -0.21283215399E+02  0.16734772693E+03  0.50400001928E-02 0. -1.
       -1    1    3    3    0  502  0.25862051100E+02  0.16396170510E+03  0.79366238466E+03  0.81083430322E+03  0.50400001928E-02 0.  1.
</event>
<event>
 5   0  0.1479385E-03  0.6000583E+03  0.7818609E-02  0.9905285E-01
        1   -1    0    0  501    0  0.00000000000E+00  0.00000000000E+00  0.19785394437E+04  0.19785394437E+04  0.50400001928E-02 0.  1.
       -1   -1    0    0    0  501  0.00000000000E+00  0.00000000000E+00 -0.45496935029E+02  0.45496935308E+02  0.50400001928E-02 0. -1.
    10030    2    1    2    0    0  0.00000000000E+00  0.00000000000E+00  0.19330425087E+04  0.20240363790E+04  0.60005826654E+03 0.  0.
        3    1    3    3  502    0 -0.61456324908E+02  0.26185334148E+03  0.51810105312E+03  0.58375745285E+03  0.10100000352E+00 0. -1.
       -3    1    3    3    0  502  0.61456324908E+02 -0.26185334148E+03  0.14149414555E+04  0.14402789261E+04  0.10100000352E+00 0.  1.
</event>
<event>
 5   0  0.2421210E-03  0.6002300E+03  0.7818609E-02  0.9904929E-01
        2   -1    0    0  501    0  0.00000000000E+00  0.00000000000E+00  0.78971704191E+03  0.78971704191E+03  0.25500000920E-02 0.  1.
       -2   -1    0    0    0  501  0.00000000000E+00  0.00000000000E+00 -0.11405224127E+03  0.11405224130E+03  0.25500000920E-02 0. -1.
    10030    2    1    2    0    0  0.00000000000E+00  0.00000000000E+00  0.67566480064E+03  0.90376928321E+03  0.60022995131E+03 0.  0.
        1    1    3    3  502    0 -0.16721584289E+03  0.10733550170E+03 -0.82390348451E+00  0.19870260915E+03  0.50400001928E-02 0. -1.
       -1    1    3    3    0  502  0.16721584289E+03 -0.10733550170E+03  0.67648870412E+03  0.70506667406E+03  0.50400001928E-02 0.  1.
</event>
<event>
 5   0  0.1423430E-03  0.6000245E+03  0.7818609E-02  0.9905355E-01
       -1   -1    0    0    0  501  0.00000000000E+00  0.00000000000E+00  0.15751921883E+03  0.15751921891E+03  0.50400001928E-02 0.  1.
        1   -1    0    0  501    0  0.00000000000E+00  0.00000000000E+00 -0.57140546296E+03  0.57140546298E+03  0.50400001928E-02 0. -1.
    10030    2    1    2    0    0  0.00000000000E+00  0.00000000000E+00 -0.41388624413E+03  0.72892468189E+03  0.60002447349E+03 0.  0.
        1    1    3    3  502    0 -0.43871714688E+02  0.17896946733E+03  0.80671762556E+02  0.20115350080E+03  0.50400001928E-02 0.  1.
       -1    1    3    3    0  502  0.43871714688E+02 -0.17896946733E+03 -0.49455800669E+03  0.52777118109E+03  0.50400001928E-02 0. -1.
</event>
<event>
 5   0  0.2406307E-03  0.6000369E+03  0.7818609E-02  0.9905330E-01
        2   -1    0    0  501    0  0.00000000000E+00  0.00000000000E+00  0.27643296657E+04  0.27643296657E+04  0.25500000920E-02 0.  1.
       -2   -1    0    0    0  501  0.00000000000E+00  0.00000000000E+00 -0.32561624073E+02  0.32561624173E+02  0.25500000920E-02 0. -1.
    10030    2    1    2    0    0  0.00000000000E+00  0.00000000000E+00  0.27317680417E+04  0.27968912899E+04  0.60003687730E+03 0.  0.
        5    1    3    3  502    0  0.21216090203E+03 -0.15039362497E+03  0.66890644000E+03  0.71769659763E+03  0.46999998093E+01 0.  1.
       -5    1    3    3    0  502 -0.21216090203E+03  0.15039362497E+03  0.20628616017E+04  0.20791946923E+04  0.46999998093E+01 0. -1.
</event>
<event>
 5   0  0.1416315E-03  0.5992941E+03  0.7818609E-02  0.9906872E-01
       -1   -1    0    0    0  501  0.00000000000E+00  0.00000000000E+00  0.29571427736E+03  0.29571427740E+03  0.50400001928E-02 0. -1.
        1   -1    0    0  501    0  0.00000000000E+00  0.00000000000E+00 -0.30363208513E+03  0.30363208517E+03  0.50400001928E-02 0.  1.
    10030    2    1    2    0    0  0.00000000000E+00  0.00000000000E+00 -0.79178077662E+01  0.59934636257E+03  0.59929406025E+03 0.  0.
        2    1    3    3  502    0 -0.21722955367E+01  0.29840418953E+03 -0.31137799753E+02  0.30003223456E+03  0.25500000920E-02 0. -1.
       -2    1    3    3    0  502  0.21722955367E+01 -0.29840418953E+03  0.23219991987E+02  0.29931412801E+03  0.25500000920E-02 0.  1.
</event>
<event>
 5   0  0.2346281E-03  0.5999424E+03  0.7818609E-02  0.9905526E-01
        2   -1    0    0  501    0  0.00000000000E+00  0.00000000000E+00  0.87482198876E+03  0.87482198876E+03  0.25500000920E-02 0.  1.
       -2   -1    0    0    0  501  0.00000000000E+00  0.00000000000E+00 -0.10285831621E+03  0.10285831624E+03  0.25500000920E-02 0. -1.
    10030    2    1    2    0    0  0.00000000000E+00  0.00000000000E+00  0.77196367254E+03  0.97768030501E+03  0.59994238646E+03 0.  0.
        3    1    3    3  502    0  0.13961796628E+03  0.12091518435E+03  0.79365180389E+00  0.18470056415E+03  0.10100000352E+00 0. -1.
       -3    1    3    3    0  502 -0.13961796628E+03 -0.12091518435E+03  0.77117002074E+03  0.79297974085E+03  0.10100000352E+00 0.  1.
</event>
<event>
 5   0  0.2313168E-03  0.6000279E+03  0.7818609E-02  0.9905348E-01
        2   -1    0    0  501    0  0.00000000000E+00  0.00000000000E+00  0.66863031157E+03  0.66863031157E+03  0.25500000920E-02 0. -1.
       -2   -1    0    0    0  501  0.00000000000E+00  0.00000000000E+00 -0.13461604132E+03  0.13461604134E+03  0.25500000920E-02 0.  1.
    10030    2    1    2    0    0  0.00000000000E+00  0.00000000000E+00  0.53401427025E+03  0.80324635291E+03  0.60002788489E+03 0.  0.
        2    1    3    3  502    0 -0.50808006779E+02 -0.24296220287E+03  0.41423259267E+02  0.25165049571E+03  0.25500000920E-02 0.  1.
       -2    1    3    3    0  502  0.50808006779E+02  0.24296220287E+03  0.49259101098E+03  0.55159585720E+03  0.25500000920E-02 0. -1.
</event>
<event>
 5   0  0.9496750E-04  0.5994857E+03  0.7818609E-02  0.9906474E-01
        4   -1    0    0  501    0  0.00000000000E+00  0.00000000000E+00  0.56635929667E+03  0.56636072059E+03  0.12699999809E+01 0. -1.
       -4   -1    0    0    0  501  0.00000000000E+00  0.00000000000E+00 -0.15863325501E+03  0.15863833867E+03  0.12699999809E+01 0.  1.
    10030    2    1    2    0    0  0.00000000000E+00  0.00000000000E+00  0.40772604166E+03  0.72499905926E+03  0.59948570532E+03 0.  0.
        1    1    3    3  502    0  0.26605497620E+03  0.31596728748E+02  0.41329245641E+02  0.27109354510E+03  0.50400001928E-02 0.  1.
       -1    1    3    3    0  502 -0.26605497620E+03 -0.31596728748E+02  0.36639679602E+03  0.45390551416E+03  0.50400001928E-02 0. -1.
</event>
<event>
 5   0  0.2406307E-03  0.6004705E+03  0.7818609E-02  0.9904430E-01
       -2   -1    0    0    0  501  0.00000000000E+00  0.00000000000E+00  0.30110573866E+03  0.30110573867E+03  0.25500000920E-02 0. -1.
        2   -1    0    0  501    0  0.00000000000E+00  0.00000000000E+00 -0.29936724923E+03  0.29936724924E+03  0.25500000920E-02 0.  1.
    10030    2    1    2    0    0  0.00000000000E+00  0.00000000000E+00  0.17384894374E+01  0.60047298791E+03  0.60047047127E+03 0.  0.
        5    1    3    3  502    0 -0.19027349243E+03 -0.16028650804E+03 -0.16712949550E+03  0.29975010399E+03  0.46999998093E+01 0.  1.
       -5    1    3    3    0  502  0.19027349243E+03  0.16028650804E+03  0.16886798494E+03  0.30072288392E+03  0.46999998093E+01 0. -1.
</event>
<event>
 5   0  0.2406307E-03  0.5999812E+03  0.7818609E-02  0.9905445E-01
        2   -1    0    0  501    0  0.00000000000E+00  0.00000000000E+00  0.76397533378E+03  0.76397533379E+03  0.25500000920E-02 0.  1.
       -2   -1    0    0    0  501  0.00000000000E+00  0.00000000000E+00 -0.11779746228E+03  0.11779746231E+03  0.25500000920E-02 0. -1.
    10030    2    1    2    0    0  0.00000000000E+00  0.00000000000E+00  0.64617787151E+03  0.88177279609E+03  0.59998118496E+03 0.  0.
        5    1    3    3  502    0 -0.61985155889E+02 -0.44784868430E+02 -0.10317649168E+03  0.12851195441E+03  0.46999998093E+01 0. -1.
       -5    1    3    3    0  502  0.61985155889E+02  0.44784868430E+02  0.74935436319E+03  0.75326084169E+03  0.46999998093E+01 0.  1.
</event>
<event>
 5   0  0.2346281E-03  0.6000248E+03  0.7818609E-02  0.9905355E-01
        2   -1    0    0  501    0  0.00000000000E+00  0.00000000000E+00  0.14419503752E+04  0.14419503752E+04  0.25500000920E-02 0. -1.
       -2   -1    0    0    0  501  0.00000000000E+00  0.00000000000E+00 -0.62420624899E+02  0.62420624951E+02  0.25500000920E-02 0.  1.
    10030    2    1    2    0    0  0.00000000000E+00  0.00000000000E+00  0.13795297503E+04  0.15043710001E+04  0.60002481126E+03 0.  0.
        3    1    3    3  502    0  0.21209071278E+03 -0.12738276435E+03  0.26429247983E+03  0.36202122064E+03  0.10100000352E+00 0.  1.
       -3    1    3    3    0  502 -0.21209071278E+03  0.12738276435E+03  0.11152372704E+04  0.11423497795E+04  0.10100000352E+00 0. -1.
</event>
<event>
 5   0  0.2421210E-03  0.5999689E+03  0.7818609E-02  0.9905471E-01
        2   -1    0    0  501    0  0.00000000000E+00  0.00000000000E+00  0.15200722010E+04  0.15200722010E+04  0.25500000920E-02 0. -1.
       -2   -1    0    0    0  501  0.00000000000E+00  0.00000000000E+00 -0.59201573657E+02  0.59201573712E+02  0.25500000920E-02 0.  1.
    10030    2    1    2    0    0  0.00000000000E+00  0.00000000000E+00  0.14608706274E+04  0.15792737747E+04  0.59996888725E+03 0.  0.
        1    1    3    3  502    0  0.59344977448E+02 -0.18333911637E+03  0.13356009126E+04  0.13494313082E+04  0.50400001928E-02 0. -1.
       -1    1    3    3    0  502 -0.59344977448E+02  0.18333911637E+03  0.12526971479E+03  0.22984246651E+03  0.50400001928E-02 0.  1.
</event>
<event>
 5   0  0.1418763E-03  0.5984047E+03  0.7818609E-02  0.9908721E-01
        1   -1    0    0  501    0  0.00000000000E+00  0.00000000000E+00  0.79415274867E+03  0.79415274869E+03  0.50400001928E-02 0.  1.
       -1   -1    0    0    0  501  0.00000000000E+00  0.00000000000E+00 -0.11272647295E+03  0.11272647306E+03  0.50400001928E-02 0. -1.
    10030    2    1    2    0    0  0.00000000000E+00  0.00000000000E+00  0.68142627572E+03  0.90687922175E+03  0.59840467378E+03 0.  0.
        5    1    3    3  502    0 -0.28821897361E+03 -0.74733753123E+02  0.29666883605E+03  0.42034485710E+03  0.46999998093E+01 0. -1.
       -5    1    3    3    0  502  0.28821897361E+03  0.74733753123E+02  0.38475743967E+03  0.48653436465E+03  0.46999998093E+01 0.  1.
</event>
<event>
 5   0  0.1423430E-03  0.5990278E+03  0.7818609E-02  0.9907425E-01
        1   -1    0    0  501    0  0.00000000000E+00  0.00000000000E+00  0.13516138882E+03  0.13516138891E+03  0.50400001928E-02 0. -1.
       -1   -1    0    0    0  501  0.00000000000E+00  0.00000000000E+00 -0.66371441526E+03  0.66371441528E+03  0.50400001928E-02 0.  1.
    10030    2    1    2    0    0  0.00000000000E+00  0.00000000000E+00 -0.52855302644E+03  0.79887580419E+03  0.59902775291E+03 0.  0.
        1    1    3    3  502    0  0.28109681467E+03 -0.10158177320E+03 -0.29007737958E+03  0.41650829768E+03  0.50400001928E-02 0.  1.
       -1    1    3    3    0  502 -0.28109681467E+03  0.10158177320E+03 -0.23847564687E+03  0.38236750652E+03  0.50400001928E-02 0. -1.
</event>
<event>
 5   0  0.9496750E-04  0.5997373E+03  0.7818609E-02  0.9905951E-01
       -3   -1    0    0    0  501  0.00000000000E+00  0.00000000000E+00  0.38493090170E+03  0.38493091495E+03  0.10100000352E+00 0. -1.
        3   -1    0    0  501    0  0.00000000000E+00  0.00000000000E+00 -0.23360351381E+03  0.23360353565E+03  0.10100000352E+00 0.  1.
    10030    2    1    2    0    0  0.00000000000E+00  0.00000000000E+00  0.15132738789E+03  0.61853445060E+03  0.59973734939E+03 0.  0.
        2    1    3    3  502    0 -0.11398038314E+03  0.24225559179E+03  0.21495951950E+03  0.34334660989E+03  0.25500000920E-02 0. -1.
       -2    1    3    3    0  502  0.11398038314E+03 -0.24225559179E+03 -0.63632131605E+02  0.27518784071E+03  0.25500000920E-02 0.  1.
</event>
<event>
 5   0  0.2313168E-03  0.5999085E+03  0.7818609E-02  0.9905596E-01
       -2   -1    0    0    0  501  0.00000000000E+00  0.00000000000E+00  0.13716708946E+03  0.13716708948E+03  0.25500000920E-02 0.  1.
        2   -1    0    0  501    0  0.00000000000E+00  0.00000000000E+00 -0.65593389300E+03  0.65593389300E+03  0.25500000920E-02 0. -1.
    10030    2    1    2    0    0  0.00000000000E+00  0.00000000000E+00 -0.51876680354E+03  0.79310098248E+03  0.59990846965E+03 0.  0.
        2    1    3    3  502    0 -0.18624002091E+03  0.22316477722E+03 -0.35729161697E+03  0.46059218702E+03  0.25500000920E-02 0. -1.
       -2    1    3    3    0  502  0.18624002091E+03 -0.22316477722E+03 -0.16147518657E+03  0.33250879547E+03  0.25500000920E-02 0.  1.
</event>
<event>
 5   0  0.1416315E-03  0.5999391E+03  0.7818609E-02  0.9905532E-01
       -1   -1    0    0    0  501  0.00000000000E+00  0.00000000000E+00  0.19991306693E+03  0.19991306700E+03  0.50400001928E-02 0.  1.
        1   -1    0    0  501    0  0.00000000000E+00  0.00000000000E+00 -0.45010434365E+03  0.45010434368E+03  0.50400001928E-02 0. -1.
    10030    2    1    2    0    0  0.00000000000E+00  0.00000000000E+00 -0.25019127672E+03  0.65001741067E+03  0.59993912961E+03 0.  0.
        2    1    3    3  502    0 -0.11358616327E+03 -0.70972301052E+02  0.16571698941E+03  0.21307511490E+03  0.25500000920E-02 0.  1.
       -2    1    3    3    0  502  0.11358616327E+03  0.70972301052E+02 -0.41590826612E+03  0.43694229578E+03  0.25500000920E-02 0. -1.
</event>
<event>
 5   0  0.2421210E-03  0.5995821E+03  0.7818609E-02  0.9906273E-01
       -2   -1    0    0    0  501  0.00000000000E+00  0.00000000000E+00  0.15123791001E+03  0.15123791003E+03  0.25500000920E-02 0.  1.
        2   -1    0    0  501    0  0.00000000000E+00  0.00000000000E+00 -0.59426018579E+03  0.59426018580E+03  0.25500000920E-02 0. -1.
    10030    2    1    2    0    0  0.00000000000E+00  0.00000000000E+00 -0.44302227579E+03  0.74549809582E+03  0.59958208282E+03 0.  0.
        1    1    3    3  502    0 -0.20909036614E+03  0.18573208738E+03 -0.35576830035E+03  0.45253317343E+03  0.50400001928E-02 0.  1.
       -1    1    3    3    0  502  0.20909036614E+03 -0.18573208738E+03 -0.87253975431E+02  0.29296492239E+03  0.50400001928E-02 0. -1.
</event>
<event>
 5   0  0.2406307E-03  0.6000721E+03  0.7818609E-02  0.9905256E-01
        2   -1    0    0  501    0  0.00000000000E+00  0.00000000000E+00  0.31323490387E+03  0.31323490388E+03  0.25500000920E-02 0. -1.
       -2   -1    0    0    0  501  0.00000000000E+00  0.00000000000E+00 -0.28739336377E+03  0.28739336378E+03  0.25500000920E-02 0.  1.
    10030    2    1    2    0    0  0.00000000000E+00  0.00000000000E+00  0.25841540104E+02  0.60062826766E+03  0.60007210460E+03 0.  0.
        5    1    3    3  502    0 -0.24795692439E+03  0.14796815987E+03  0.94373892692E+02  0.30381858783E+03  0.46999998093E+01 0. -1.
       -5    1    3    3    0  502  0.24795692439E+03 -0.14796815987E+03 -0.68532352588E+02  0.29680967983E+03  0.46999998093E+01 0.  1.
</event>
<event>
 5   0  0.9496750E-04  0.5998869E+03  0.7818609E-02  0.9905641E-01
       -3   -1    0    0    0  501  0.00000000000E+00  0.00000000000E+00  0.37307364948E+02  0.37307501664E+02  0.10100000352E+00 0.  1.
        3   -1    0    0  501    0  0.00000000000E+00  0.00000000000E+00 -0.24114781516E+04  0.24114781537E+04  0.10100000352E+00 0. -1.
    10030    2    1    2    0    0  0.00000000000E+00  0.00000000000E+00 -0.23741707867E+04  0.24487856554E+04  0.59988687417E+03 0.  0.
        2    1    3    3  502    0 -0.67556639230E+01  0.10672365184E+03 -0.43152461246E+02  0.11531570480E+03  0.25500000920E-02 0.  1.
       -2    1    3    3    0  502  0.67556639230E+01 -0.10672365184E+03 -0.23310183254E+04  0.23334699506E+04  0.25500000920E-02 0. -1.
</event>
<event>
 5   0  0.1479385E-03  0.6000854E+03  0.7818609E-02  0.9905229E-01
        1   -1    0    0  501    0  0.00000000000E+00  0.00000000000E+00  0.35868756364E+03  0.35868756368E+03  0.50400001928E-02 0. -1.
       -1   -1    0    0    0  501  0.00000000000E+00  0.00000000000E+00 -0.25098621521E+03  0.25098621526E+03  0.50400001928E-02 0.  1.
    10030    2    1    2    0    0  0.00000000000E+00  0.00000000000E+00  0.10770134844E+03  0.60967377894E+03  0.60008544081E+03 0.  0.
        3    1    3    3  502    0 -0.19976725081E+03 -0.45501508735E+01 -0.17355142616E+03  0.26466538514E+03  0.10100000352E+00 0.  1.
       -3    1    3    3    0  502  0.19976725081E+03  0.45501508735E+01  0.28125277460E+03  0.34500839379E+03  0.10100000352E+00 0. -1.
</event>
<event>
 5   0  0.1418763E-03  0.6003088E+03  0.7818609E-02  0.9904766E-01
        1   -1    0    0  501    0  0.00000000000E+00  0.00000000000E+00  0.22631085868E+03  0.22631085874E+03  0.50400001928E-02 0.  1.
       -1   -1    0    0    0  501  0.00000000000E+00  0.00000000000E+00 -0.39809257329E+03  0.39809257332E+03  0.50400001928E-02 0. -1.
    10030    2    1    2    0    0  0.00000000000E+00  0.00000000000E+00 -0.17178171461E+03  0.62440343206E+03  0.60030882760E+03 0.  0.
        5    1    3    3  502    0 -0.25424049527E+03  0.15654321203E+03 -0.11755231804E+03  0.32091220629E+03  0.46999998093E+01 0.  1.
       -5    1    3    3    0  502  0.25424049527E+03 -0.15654321203E+03 -0.54229396564E+02  0.30349122577E+03  0.46999998093E+01 0. -1.
</event>
<event>
 5   0  0.2421210E-03  0.5996618E+03  0.7818609E-02  0.9906108E-01
       -2   -1    0    0    0  501  0.00000000000E+00  0.00000000000E+00  0.47304081598E+03  0.47304081599E+03  0.25500000920E-02 0.  1.
        2   -1    0    0  501    0  0.00000000000E+00  0.00000000000E+00 -0.19004399821E+03  0.19004399823E+03  0.25500000920E-02 0. -1.
    10030    2    1    2    0    0  0.00000000000E+00  0.00000000000E+00  0.28299681777E+03  0.66308481422E+03  0.59966179800E+03 0.  0.
        1    1    3    3  502    0  0.74465373344E+02 -0.28785217896E+03  0.18424732162E+03  0.34978714143E+03  0.50400001928E-02 0. -1.
       -1    1    3    3    0  502 -0.74465373344E+02  0.28785217896E+03  0.98749496150E+02  0.31329767279E+03  0.50400001928E-02 0.  1.
</event>
<event>
 5   0  0.2324616E-03  0.5998383E+03  0.7818609E-02  0.9905742E-01
        2   -1    0    0  501    0  0.00000000000E+00  0.00000000000E+00  0.99919971227E+03  0.99919971227E+03  0.25500000920E-02 0. -1.
       -2   -1    0    0    0  501  0.00000000000E+00  0.00000000000E+00 -0.90023551031E+02  0.90023551067E+02  0.25500000920E-02 0.  1.
    10030    2    1    2    0    0  0.00000000000E+00  0.00000000000E+00  0.90917616124E+03  0.10892232633E+04  0.59983833258E+03 0.  0.
        4    1    3    3  502    0  0.28907251469E+03  0.56537602284E+02  0.35202045309E+03  0.45899829141E+03  0.12699999809E+01 0. -1.
       -4    1    3    3    0  502 -0.28907251469E+03 -0.56537602284E+02  0.55715570815E+03  0.63022497193E+03  0.12699999809E+01 0.  1.
</event>
<event>
 5   0  0.9496750E-04  0.6000133E+03  0.7818609E-02  0.9905378E-01
       -4   -1    0    0    0  501  0.00000000000E+00  0.00000000000E+00  0.15920025711E+03  0.15920532266E+03  0.12699999809E+01 0. -1.
        4   -1    0    0  501    0  0.00000000000E+00  0.00000000000E+00 -0.56533609039E+03  0.56533751688E+03  0.12699999809E+01 0.  1.
    10030    2    1    2    0    0  0.00000000000E+00  0.00000000000E+00 -0.40613583327E+03  0.72454283954E+03  0.60001334257E+03 0.  0.
        4    1    3    3  502    0  0.14857674111E+03  0.12154337795E+03 -0.48147057666E+03  0.51832747352E+03  0.12699999809E+01 0.  1.
       -4    1    3    3    0  502 -0.14857674111E+03 -0.12154337795E+03  0.75334743382E+02  0.20621536602E+03  0.12699999809E+01 0. -1.
</event>
<event>
 5   0  0.1416315E-03  0.5999937E+03  0.7818609E-02  0.9905419E-01
       -1   -1    0    0    0  501  0.00000000000E+00  0.00000000000E+00  0.95990866788E+02  0.95990866920E+02  0.50400001928E-02 0.  1.
        1   -1    0    0  501    0  0.00000000000E+00  0.00000000000E+00 -0.93756936754E+03  0.93756936755E+03  0.50400001928E-02 0. -1.
    10030    2    1    2    0    0  0.00000000000E+00  0.00000000000E+00 -0.84157850075E+03  0.10335602345E+04  0.59999365443E+03 0.  0.
        2    1    3    3  502    0  0.79166218133E+02  0.27999331828E+03 -0.54660585084E+03  0.61922653734E+03  0.25500000920E-02 0.  1.
       -2    1    3    3    0  502 -0.79166218133E+02 -0.27999331828E+03 -0.29497264991E+03  0.41433369713E+03  0.25500000920E-02 0. -1.
</event>
<event>
 5   0  0.2346281E-03  0.5997361E+03  0.7818609E-02  0.9905954E-01
        2   -1    0    0  501    0  0.00000000000E+00  0.00000000000E+00  0.12196314331E+04  0.12196314331E+04  0.25500000920E-02 0.  1.
       -2   -1    0    0    0  501  0.00000000000E+00  0.00000000000E+00 -0.73727874159E+02  0.73727874203E+02  0.25500000920E-02 0. -1.
    10030    2    1    2    0    0  0.00000000000E+00  0.00000000000E+00  0.11459035589E+04  0.12933593073E+04  0.59973605144E+03 0.  0.
        3    1    3    3  502    0 -0.24280715119E+03 -0.16855341119E+03  0.68196429906E+03  0.74326366821E+03  0.10100000352E+00 0. -1.
       -3    1    3    3    0  502  0.24280715119E+03  0.16855341119E+03  0.46393925988E+03  0.55009563909E+03  0.10100000352E+00 0.  1.
</event>
<event>
 5   0  0.1392854E-03  0.6000195E+03  0.7818609E-02  0.9905365E-01
       -1   -1    0    0    0  501  0.00000000000E+00  0.00000000000E+00  0.31301253512E+03  0.31301253517E+03  0.50400001928E-02 0. -1.
        1   -1    0    0  501    0  0.00000000000E+00  0.00000000000E+00 -0.28754715792E+03  0.28754715797E+03  0.50400001928E-02 0.  1.
    10030    2    1    2    0    0  0.00000000000E+00  0.00000000000E+00  0.25465377202E+02  0.60055969313E+03  0.60001954933E+03 0.  0.
        4    1    3    3  502    0  0.17378486404E+02 -0.29067530682E+03  0.84978732200E+02  0.30334327685E+03  0.12699999809E+01 0.  1.
       -4    1    3    3    0  502 -0.17378486404E+02  0.29067530682E+03 -0.59513354997E+02  0.29721641628E+03  0.12699999809E+01 0. -1.
</event>
<event>
 5   0  0.2406307E-03  0.6010590E+03  0.7818609E-02  0.9903211E-01
        2   -1    0    0  501    0  0.00000000000E+00  0.00000000000E+00  0.12555143425E+03  0.12555143428E+03  0.25500000920E-02 0. -1.
       -2   -1    0    0    0  501  0.00000000000E+00  0.00000000000E+00 -0.71937025400E+03  0.71937025401E+03  0.25500000920E-02 0.  1.
    10030    2    1    2    0    0  0.00000000000E+00  0.00000000000E+00 -0.59381881975E+03  0.84492168828E+03  0.60105895605E+03 0.  0.
        5    1    3    3  502    0 -0.44118567093E+02  0.92661379735E+02 -0.69391894406E+03  0.70148283670E+03  0.46999998093E+01 0.  1.
       -5    1    3    3    0  502  0.44118567093E+02 -0.92661379735E+02  0.10010012432E+03  0.14343885158E+03  0.46999998093E+01 0. -1.
</event>
<event>
 5   0  0.1416315E-03  0.6000945E+03  0.7818609E-02  0.9905210E-01
        1   -1    0    0  501    0  0.00000000000E+00  0.00000000000E+00  0.14207067143E+04  0.14207067143E+04  0.50400001928E-02 0. -1.
       -1   -1    0    0    0  501  0.00000000000E+00  0.00000000000E+00 -0.63368720441E+02  0.63368720642E+02  0.50400001928E-02 0.  1.
    10030    2    1    2    0    0  0.00000000000E+00  0.00000000000E+00  0.13573379939E+04  0.14840754350E+04  0.60009454843E+03 0.  0.
        2    1    3    3  502    0 -0.15235172173E+02 -0.27318625319E+03  0.37411447411E+03  0.46349161713E+03  0.25500000920E-02 0.  1.
       -2    1    3    3    0  502  0.15235172173E+02  0.27318625319E+03  0.98322351977E+03  0.10205838178E+04  0.25500000920E-02 0. -1.
</event>
<event>
 5   0  0.2421210E-03  0.5999854E+03  0.7818609E-02  0.9905436E-01
        2   -1    0    0  501    0  0.00000000000E+00  0.00000000000E+00  0.11450955457E+04  0.11450955457E+04  0.25500000920E-02 0.  1.
       -2   -1    0    0    0  501  0.00000000000E+00  0.00000000000E+00 -0.78592229759E+02  0.78592229800E+02  0.25500000920E-02 0. -1.
    10030    2    1    2    0    0  0.00000000000E+00  0.00000000000E+00  0.10665033160E+04  0.12236877755E+04  0.59998537399E+03 0.  0.
        1    1    3    3  502    0 -0.29114314062E+01  0.10996684388E+03 -0.35972282079E+02  0.11573758373E+03  0.50400001928E-02 0. -1.
       -1    1    3    3    0  502  0.29114314062E+01 -0.10996684388E+03  0.11024755980E+04  0.11079501918E+04  0.50400001928E-02 0.  1.
</event>
<event>
 5   0  0.2313168E-03  0.5998824E+03  0.7818609E-02  0.9905650E-01
       -2   -1    0    0    0  501  0.00000000000E+00  0.00000000000E+00  0.42696311501E+03  0.42696311502E+03  0.25500000920E-02 0.  1.
        2   -1    0    0  501    0  0.00000000000E+00  0.00000000000E+00 -0.21070843938E+03  0.21070843940E+03  0.25500000920E-02 0. -1.
    10030    2    1    2    0    0  0.00000000000E+00  0.00000000000E+00  0.21625467563E+03  0.63767155441E+03  0.59988242729E+03 0.  0.
        2    1    3    3  502    0 -0.23993598452E+03  0.13464846946E+03  0.23508839092E+03  0.36189230241E+03  0.25500000920E-02 0.  1.
       -2    1    3    3    0  502  0.23993598452E+03 -0.13464846946E+03 -0.18833715294E+02  0.27577925200E+03  0.25500000920E-02 0. -1.
</event>
<event>
 5   0  0.1418763E-03  0.6001815E+03  0.7818609E-02  0.9905030E-01
        1   -1    0    0  501    0  0.00000000000E+00  0.00000000000E+00  0.27153857864E+03  0.27153857868E+03  0.50400001928E-02 0.  1.
       -1   -1    0    0    0  501  0.00000000000E+00  0.00000000000E+00 -0.33164517793E+03  0.33164517797E+03  0.50400001928E-02 0. -1.
    10030    2    1    2    0    0  0.00000000000E+00  0.00000000000E+00 -0.60106599292E+02  0.60318375665E+03  0.60018150672E+03 0.  0.
        5    1    3    3  502    0 -0.11965172857E+03 -0.96441319427E+02  0.22894672743E+03  0.27578280991E+03  0.46999998093E+01 0.  1.
       -5    1    3    3    0  502  0.11965172857E+03  0.96441319427E+02 -0.28905332672E+03  0.32740094674E+03  0.46999998093E+01 0. -1.
</event>
<event>
 5   0  0.1392854E-03  0.5998933E+03  0.7818609E-02  0.9905628E-01
       -1   -1    0    0    0  501  0.00000000000E+00  0.00000000000E+00  0.47125327237E+03  0.47125327239E+03  0.50400001928E-02 0.  1.
        1   -1    0    0  501    0  0.00000000000E+00  0.00000000000E+00 -0.19091215735E+03  0.19091215741E+03  0.50400001928E-02 0. -1.
    10030    2    1    2    0    0  0.00000000000E+00  0.00000000000E+00  0.28034111502E+03  0.66216542981E+03  0.59989325355E+03 0.  0.
        4    1    3    3  502    0 -0.81304517163E+02 -0.17560957085E+03 -0.11278451367E+03  0.22398907408E+03  0.12699999809E+01 0. -1.
       -4    1    3    3    0  502  0.81304517163E+02  0.17560957085E+03  0.39312562869E+03  0.43817635572E+03  0.12699999809E+01 0.  1.
</event>
<event>
 5   0  0.1418763E-03  0.5984356E+03  0.7818609E-02  0.9908657E-01
       -1   -1    0    0    0  501  0.00000000000E+00  0.00000000000E+00  0.33890056880E+03  0.33890056884E+03  0.50400001928E-02 0.  1.
        1   -1    0    0  501    0  0.00000000000E+00  0.00000000000E+00 -0.26418156240E+03  0.26418156245E+03  0.50400001928E-02 0. -1.
    10030    2    1    2    0    0  0.00000000000E+00  0.00000000000E+00  0.74719006397E+02  0.60308213129E+03  0.59843556642E+03 0.  0.
        5    1    3    3  502    0  0.28329839453E+02  0.55059338508E+02  0.33233526176E+03  0.33808715853E+03  0.46999998093E+01 0.  1.
       -5    1    3    3    0  502 -0.28329839453E+02 -0.55059338508E+02 -0.25761625536E+03  0.26499497275E+03  0.46999998093E+01 0. -1.
</event>
<event>
 5   0  0.2324616E-03  0.5998363E+03  0.7818609E-02  0.9905746E-01
        2   -1    0    0  501    0  0.00000000000E+00  0.00000000000E+00  0.70300191684E+03  0.70300191684E+03  0.25500000920E-02 0.  1.
       -2   -1    0    0    0  501  0.00000000000E+00  0.00000000000E+00 -0.12795258140E+03  0.12795258143E+03  0.25500000920E-02 0. -1.
    10030    2    1    2    0    0  0.00000000000E+00  0.00000000000E+00  0.57504933543E+03  0.83095449827E+03  0.59983634435E+03 0.  0.
        4    1    3    3  502    0  0.26870352036E+03 -0.13035569779E+03  0.24945765465E+03  0.38913355569E+03  0.12699999809E+01 0.  1.
       -4    1    3    3    0  502 -0.26870352036E+03  0.13035569779E+03  0.32559168078E+03  0.44182094257E+03  0.12699999809E+01 0. -1.
</event>
<event>
 5   0  0.2406307E-03  0.6000390E+03  0.7818609E-02  0.9905325E-01
       -2   -1    0    0    0  501  0.00000000000E+00  0.00000000000E+00  0.12895714165E+03  0.12895714168E+03  0.25500000920E-02 0. -1.
        2   -1    0    0  501    0  0.00000000000E+00  0.00000000000E+00 -0.69799696547E+03  0.69799696547E+03  0.25500000920E-02 0.  1.
    10030    2    1    2    0    0  0.00000000000E+00  0.00000000000E+00 -0.56903982382E+03  0.82695410715E+03  0.60003897727E+03 0.  0.
        5    1    3    3  502    0 -0.20749691944E+03  0.23543315901E+02  0.12283528168E+02  0.20924204732E+03  0.46999998093E+01 0. -1.
       -5    1    3    3    0  502  0.20749691944E+03 -0.23543315901E+02 -0.58132335199E+03  0.61771205984E+03  0.46999998093E+01 0.  1.
</event>
<event>
 5   0  0.1392854E-03  0.5999025E+03  0.7818609E-02  0.9905608E-01
        1   -1    0    0  501    0  0.00000000000E+00  0.00000000000E+00  0.46450082769E+03  0.46450082772E+03  0.50400001928E-02 0. -1.
       -1   -1    0    0    0  501  0.00000000000E+00  0.00000000000E+00 -0.19369342603E+03  0.19369342610E+03  0.50400001928E-02 0.  1.
    10030    2    1    2    0    0  0.00000000000E+00  0.00000000000E+00  0.27080740166E+03  0.65819425382E+03  0.59990251455E+03 0.  0.
        4    1    3    3  502    0  0.23280597318E+03 -0.18159692050E+03  0.77418764887E+02  0.30523980858E+03  0.12699999809E+01 0. -1.
       -4    1    3    3    0  502 -0.23280597318E+03  0.18159692050E+03  0.19338863678E+03  0.35295444524E+03  0.12699999809E+01 0.  1.
</event>
<event>
 5   0  0.2324616E-03  0.5999199E+03  0.7818609E-02  0.9905572E-01
        2   -1    0    0  501    0  0.00000000000E+00  0.00000000000E+00  0.17681818430E+04  0.17681818430E+04  0.25500000920E-02 0.  1.
       -2   -1    0    0    0  501  0.00000000000E+00  0.00000000000E+00 -0.50886155159E+02  0.50886155223E+02  0.25500000920E-02 0. -1.
    10030    2    1    2    0    0  0.00000000000E+00  0.00000000000E+00  0.17172956878E+04  0.18190679982E+04  0.59991991355E+03 0.  0.
        4    1    3    3  502    0  0.79381878307E+02  0.15309756209E+03  0.16028254002E+04  0.16120766801E+04  0.12699999809E+01 0. -1.
       -4    1    3    3    0  502 -0.79381878307E+02 -0.15309756209E+03  0.11447028764E+03  0.20699131811E+03  0.12699999809E+01 0.  1.
</event>
<event>
 5   0  0.1418763E-03  0.6003383E+03  0.7818609E-02  0.9904705E-01
        1   -1    0    0  501    0  0.00000000000E+00  0.00000000000E+00  0.43834240553E+03  0.43834240556E+03  0.50400001928E-02 0. -1.
       -1   -1    0    0    0  501  0.00000000000E+00  0.00000000000E+00 -0.20555052107E+03  0.20555052113E+03  0.50400001928E-02 0.  1.
    10030    2    1    2    0    0  0.00000000000E+00  0.00000000000E+00  0.23279188446E+03  0.64389292669E+03  0.60033827096E+03 0.  0.
        5    1    3    3  502    0 -0.16662911946E+03 -0.73898042161E+02  0.37213391490E+03  0.41440550757E+03  0.46999998093E+01 0. -1.
       -5    1    3    3    0  502  0.16662911946E+03  0.73898042161E+02 -0.13934203045E+03  0.22948741912E+03  0.46999998093E+01 0.  1.
</event>
<event>
 5   0  0.1479385E-03  0.5999431E+03  0.7818609E-02  0.9905524E-01
        1   -1    0    0  501    0  0.00000000000E+00  0.00000000000E+00  0.33783452250E+03  0.33783452254E+03  0.50400001928E-02 0.  1.
       -1   -1    0    0    0  501  0.00000000000E+00  0.00000000000E+00 -0.26635211429E+03  0.26635211433E+03  0.50400001928E-02 0. -1.
    10030    2    1    2    0    0  0.00000000000E+00  0.00000000000E+00  0.71482408216E+02  0.60418663687E+03  0.59994312855E+03 0.  0.
        3    1    3    3  502    0  0.14423363260E+03  0.24707640127E+03 -0.55078933394E+02  0.29134822454E+03  0.10100000352E+00 0. -1.
       -3    1    3    3    0  502 -0.14423363260E+03 -0.24707640127E+03  0.12656134161E+03  0.31283841233E+03  0.10100000352E+00 0.  1.
</event>
<event>
 5   0  0.1416315E-03  0.5999066E+03  0.7818609E-02  0.9905600E-01
       -1   -1    0    0    0  501  0.00000000000E+00  0.00000000000E+00  0.19061064464E+03  0.19061064470E+03  0.50400001928E-02 0. -1.
        1   -1    0    0  501    0  0.00000000000E+00  0.00000000000E+00 -0.47201968783E+03  0.47201968785E+03  0.50400001928E-02 0.  1.
    10030    2    1    2    0    0  0.00000000000E+00  0.00000000000E+00 -0.28140904319E+03  0.66263033256E+03  0.59990658276E+03 0.  0.
        2    1    3    3  502    0 -0.29366048209E+03  0.35183129353E+02 -0.19590630368E+03  0.35475852514E+03  0.25500000920E-02 0.  1.
       -2    1    3    3    0  502  0.29366048209E+03 -0.35183129353E+02 -0.85502739511E+02  0.30787180742E+03  0.25500000920E-02 0. -1.
</event>
<event>
 5   0  0.1416315E-03  0.5999058E+03  0.7818609E-02  0.9905601E-01
        1   -1    0    0  501    0  0.00000000000E+00  0.00000000000E+00  0.47920977516E+03  0.47920977519E+03  0.50400001928E-02 0.  1.
       -1   -1    0    0    0  501  0.00000000000E+00  0.00000000000E+00 -0.18775022831E+03  0.18775022838E+03  0.50400001928E-02 0. -1.
    10030    2    1    2    0    0  0.00000000000E+00  0.00000000000E+00  0.29145954685E+03  0.66696000356E+03  0.59990580836E+03 0.  0.
        2    1    3    3  502    0  0.25554708369E+03  0.13024037893E+03  0.24331848025E+03  0.37612597772E+03  0.25500000920E-02 0.  1.
       -2    1    3    3    0  502 -0.25554708369E+03 -0.13024037893E+03  0.48141066606E+02  0.29083402584E+03  0.25500000920E-02 0. -1.
</event>
<event>
 5   0  0.1423430E-03  0.6008546E+03  0.7818609E-02  0.9903635E-01
        1   -1    0    0  501    0  0.00000000000E+00  0.00000000000E+00  0.96938187263E+03  0.96938187264E+03  0.50400001928E-02 0.  1.
       -1   -1    0    0    0  501  0.00000000000E+00  0.00000000000E+00 -0.93107345878E+02  0.93107346015E+02  0.50400001928E-02 0. -1.
    10030    2    1    2    0    0  0.00000000000E+00  0.00000000000E+00  0.87627452675E+03  0.10624892187E+04  0.60085463594E+03 0.  0.
        1    1    3    3  502    0 -0.26736498997E+03  0.29243612287E+02  0.67483383273E+03  0.72645710716E+03  0.50400001928E-02 0.  1.
       -1    1    3    3    0  502  0.26736498997E+03 -0.29243612287E+02  0.20144069402E+03  0.33603211150E+03  0.50400001928E-02 0. -1.
</event>
<event>
 5   0  0.1418763E-03  0.5970567E+03  0.7818609E-02  0.9911531E-01
        1   -1    0    0  501    0  0.00000000000E+00  0.00000000000E+00  0.73640929568E+03  0.73640929569E+03  0.50400001928E-02 0. -1.
       -1   -1    0    0    0  501  0.00000000000E+00  0.00000000000E+00 -0.12101851750E+03  0.12101851761E+03  0.50400001928E-02 0.  1.
    10030    2    1    2    0    0  0.00000000000E+00  0.00000000000E+00  0.61539077818E+03  0.85742781330E+03  0.59705665155E+03 0.  0.
        5    1    3    3  502    0  0.82513292462E+02  0.22596485100E+03  0.53915218275E+02  0.24657148675E+03  0.46999998093E+01 0.  1.
       -5    1    3    3    0  502 -0.82513292462E+02 -0.22596485100E+03  0.56147555990E+03  0.61085632655E+03  0.46999998093E+01 0. -1.
</event>
<event>
 5   0  0.1416315E-03  0.6000436E+03  0.7818609E-02  0.9905316E-01
        1   -1    0    0  501    0  0.00000000000E+00  0.00000000000E+00  0.90321590747E+03  0.90321590748E+03  0.50400001928E-02 0.  1.
       -1   -1    0    0    0  501  0.00000000000E+00  0.00000000000E+00 -0.99658416925E+02  0.99658417053E+02  0.50400001928E-02 0. -1.
    10030    2    1    2    0    0  0.00000000000E+00  0.00000000000E+00  0.80355749054E+03  0.10028743245E+04  0.60004355692E+03 0.  0.
        2    1    3    3  502    0 -0.24337357530E+03  0.90610445989E+02  0.15067691008E+03  0.30024070563E+03  0.25500000920E-02 0. -1.
       -2    1    3    3    0  502  0.24337357530E+03 -0.90610445989E+02  0.65288058046E+03  0.70263361891E+03  0.25500000920E-02 0.  1.
</event>
<event>
 5   0  0.2324616E-03  0.6000690E+03  0.7818609E-02  0.9905263E-01
        2   -1    0    0  501    0  0.00000000000E+00  0.00000000000E+00  0.31154304517E+03  0.31154304518E+03  0.25500000920E-02 0.  1.
       -2   -1    0    0    0  501  0.00000000000E+00  0.00000000000E+00 -0.28895107783E+03  0.28895107784E+03  0.25500000920E-02 0. -1.
    10030    2    1    2    0    0  0.00000000000E+00  0.00000000000E+00  0.22591967343E+02  0.60049412302E+03  0.60006899170E+03 0.  0.
        4    1    3    3  502    0  0.79414675935E+02  0.20682526705E+03 -0.19117309544E+03  0.29262970999E+03  0.12699999809E+01 0. -1.
       -4    1    3    3    0  502 -0.79414675935E+02 -0.20682526705E+03  0.21376506279E+03  0.30786441304E+03  0.12699999809E+01 0.  1.
</event>
<event>
 5   0  0.2324616E-03  0.5995953E+03  0.7818609E-02  0.9906246E-01
        2   -1    0    0  501    0  0.00000000000E+00  0.00000000000E+00  0.34534197009E+03  0.34534197010E+03  0.25500000920E-02 0. -1.
       -2   -1    0    0    0  501  0.00000000000E+00  0.00000000000E+00 -0.26025980601E+03  0.26025980603E+03  0.25500000920E-02 0.  1.
    10030    2    1    2    0    0  0.00000000000E+00  0.00000000000E+00  0.85082164078E+02  0.60560177612E+03  0.59959531069E+03 0.  0.
        4    1    3    3  502    0 -0.15328970821E+03  0.18089077537E+03  0.22783956576E+03  0.32883383020E+03  0.12699999809E+01 0. -1.
       -4    1    3    3    0  502  0.15328970821E+03 -0.18089077537E+03 -0.14275740169E+03  0.27676794593E+03  0.12699999809E+01 0.  1.
</event>
<event>
 5   0  0.2421210E-03  0.5999722E+03  0.7818609E-02  0.9905464E-01
        2   -1    0    0  501    0  0.00000000000E+00  0.00000000000E+00  0.15052872053E+04  0.15052872053E+04  0.25500000920E-02 0. -1.
       -2   -1    0    0    0  501  0.00000000000E+00  0.00000000000E+00 -0.59783705553E+02  0.59783705607E+02  0.25500000920E-02 0.  1.
    10030    2    1    2    0    0  0.00000000000E+00  0.00000000000E+00  0.14455034998E+04  0.15650709109E+04  0.59997215635E+03 0.  0.
        1    1    3    3  502    0 -0.29900439256E+02  0.29797651116E+03  0.76850298998E+03  0.82479141794E+03  0.50400001928E-02 0. -1.
       -1    1    3    3    0  502  0.29900439256E+02 -0.29797651116E+03  0.67700050979E+03  0.74027949300E+03  0.50400001928E-02 0.  1.
</event>
<event>
 5   0  0.1392854E-03  0.6001672E+03  0.7818609E-02  0.9905059E-01
       -1   -1    0    0    0  501  0.00000000000E+00  0.00000000000E+00  0.10749243335E+03  0.10749243347E+03  0.50400001928E-02 0.  1.
        1   -1    0    0  501    0  0.00000000000E+00  0.00000000000E+00 -0.83773483482E+03  0.83773483484E+03  0.50400001928E-02 0. -1.
    10030    2    1    2    0    0  0.00000000000E+00  0.00000000000E+00 -0.73024240147E+03  0.94522726830E+03  0.60016716325E+03 0.  0.
        4    1    3    3  502    0 -0.30876834482E+02  0.10879288507E+03  0.72642067616E+02  0.13441634438E+03  0.12699999809E+01 0.  1.
       -4    1    3    3    0  502  0.30876834482E+02 -0.10879288507E+03 -0.80288446909E+03  0.81081092392E+03  0.12699999809E+01 0. -1.
</event>
<event>
 5   0  0.1392854E-03  0.5998883E+03  0.7818609E-02  0.9905638E-01
       -1   -1    0    0    0  501  0.00000000000E+00  0.00000000000E+00  0.57179192632E+02  0.57179192854E+02  0.50400001928E-02 0. -1.
        1   -1    0    0  501    0  0.00000000000E+00  0.00000000000E+00 -0.15734129459E+04  0.15734129459E+04  0.50400001928E-02 0.  1.
    10030    2    1    2    0    0  0.00000000000E+00  0.00000000000E+00 -0.15162337533E+04  0.16305921388E+04  0.59988826331E+03 0.  0.
        4    1    3    3  502    0  0.53472698765E+02 -0.28005295730E+03 -0.50493549381E+03  0.57987106688E+03  0.12699999809E+01 0. -1.
       -4    1    3    3    0  502 -0.53472698765E+02  0.28005295730E+03 -0.10112982595E+04  0.10507210719E+04  0.12699999809E+01 0.  1.
</event>
<event>
 5   0  0.2406307E-03  0.5999045E+03  0.7818609E-02  0.9905604E-01
       -2   -1    0    0    0  501  0.00000000000E+00  0.00000000000E+00  0.21303125877E+03  0.21303125879E+03  0.25500000920E-02 0. -1.
        2   -1    0    0  501    0  0.00000000000E+00  0.00000000000E+00 -0.42233876850E+03  0.42233876851E+03  0.25500000920E-02 0.  1.
    10030    2    1    2    0    0  0.00000000000E+00  0.00000000000E+00 -0.20930750973E+03  0.63537002730E+03  0.59990452404E+03 0.  0.
        5    1    3    3  502    0 -0.16811130389E+03  0.26396883015E+02  0.15691007634E+03  0.23151904454E+03  0.46999998093E+01 0. -1.
       -5    1    3    3    0  502  0.16811130389E+03 -0.26396883015E+02 -0.36621758607E+03  0.40385098276E+03  0.46999998093E+01 0.  1.
</event>
<event>
 5   0  0.1418763E-03  0.5993736E+03  0.7818609E-02  0.9906706E-01
       -1   -1    0    0    0  501  0.00000000000E+00  0.00000000000E+00  0.29333601341E+03  0.29333601345E+03  0.50400001928E-02 0. -1.
        1   -1    0    0  501    0  0.00000000000E+00  0.00000000000E+00 -0.30617513261E+03  0.30617513265E+03  0.50400001928E-02 0.  1.
    10030    2    1    2    0    0  0.00000000000E+00  0.00000000000E+00 -0.12839119196E+02  0.59951114610E+03  0.59937364917E+03 0.  0.
        5    1    3    3  502    0 -0.23696912129E+03  0.15036803890E+03  0.98605438491E+02  0.29750635971E+03  0.46999998093E+01 0. -1.
       -5    1    3    3    0  502  0.23696912129E+03 -0.15036803890E+03 -0.11144455769E+03  0.30200478639E+03  0.46999998093E+01 0.  1.
</event>
<event>
 5   0  0.1418763E-03  0.6000388E+03  0.7818609E-02  0.9905325E-01
        1   -1    0    0  501    0  0.00000000000E+00  0.00000000000E+00  0.77991286851E+02  0.77991287014E+02  0.50400001928E-02 0.  1.
       -1   -1    0    0    0  501  0.00000000000E+00  0.00000000000E+00 -0.11541244648E+04  0.11541244649E+04  0.50400001928E-02 0. -1.
    10030    2    1    2    0    0  0.00000000000E+00  0.00000000000E+00 -0.10761331780E+04  0.12321157519E+04  0.60003883977E+03 0.  0.
        5    1    3    3  502    0  0.36876631215E+02 -0.58303895854E+02  0.61405872789E+02  0.92477031812E+02  0.46999998093E+01 0.  1.
       -5    1    3    3    0  502 -0.36876631215E+02  0.58303895854E+02 -0.11375390508E+04  0.11396387201E+04  0.46999998093E+01 0. -1.
</event>
<event>
 5   0  0.2313168E-03  0.5994215E+03  0.7818609E-02  0.9906607E-01
       -2   -1    0    0    0  501  0.00000000000E+00  0.00000000000E+00  0.93534468678E+02  0.93534468713E+02  0.25500000920E-02 0. -1.
        2   -1    0    0  501    0  0.00000000000E+00  0.00000000000E+00 -0.96035766649E+03  0.96035766649E+03  0.25500000920E-02 0.  1.
    10030    2    1    2    0    0  0.00000000000E+00  0.00000000000E+00 -0.86682319781E+03  0.10538921352E+04  0.59942153480E+03 0.  0.
        2    1    3    3  502    0 -0.21335609878E+03  0.11873039496E+03 -0.73899562546E+03  0.77828803539E+03  0.25500000920E-02 0.  1.
       -2    1    3    3    0  502  0.21335609878E+03 -0.11873039496E+03 -0.12782757235E+03  0.27560409981E+03  0.25500000920E-02 0. -1.
</event>
<event>
 5   0  0.1479385E-03  0.5998395E+03  0.7818609E-02  0.9905739E-01
       -1   -1    0    0    0  501  0.00000000000E+00  0.00000000000E+00  0.31022585823E+03  0.31022585827E+03  0.50400001928E-02 0. -1.
        1   -1    0    0  501    0  0.00000000000E+00  0.00000000000E+00 -0.28995603048E+03  0.28995603052E+03  0.50400001928E-02 0.  1.
    10030    2    1    2    0    0  0.00000000000E+00  0.00000000000E+00  0.20269827756E+02  0.60018188879E+03  0.59983950663E+03 0.  0.
        3    1    3    3  502    0  0.12550978954E+03 -0.22764933420E+02  0.28173210708E+03  0.30926354428E+03  0.10100000352E+00 0. -1.
       -3    1    3    3    0  502 -0.12550978954E+03  0.22764933420E+02 -0.26146227932E+03  0.29091834451E+03  0.10100000352E+00 0.  1.
</event>
<event>
 5   0  0.2346281E-03  0.6000335E+03  0.7818609E-02  0.9905337E-01
        2   -1    0    0  501    0  0.00000000000E+00  0.00000000000E+00  0.11758431374E+04  0.11758431374E+04  0.25500000920E-02 0.  1.
       -2   -1    0    0    0  501  0.00000000000E+00  0.00000000000E+00 -0.76549360572E+02  0.76549360614E+02  0.25500000920E-02 0. -1.
    10030    2    1    2    0    0  0.00000000000E+00  0.00000000000E+00  0.10992937768E+04  0.12523924980E+04  0.60003346682E+03 0.  0.
        3    1    3    3  502    0 -0.92786598647E+02  0.95388904179E+02 -0.11580737263E+02  0.13357589455E+03  0.10100000352E+00 0. -1.
       -3    1    3    3    0  502  0.92786598647E+02 -0.95388904179E+02  0.11108745141E+04  0.11188166034E+04  0.10100000352E+00 0.  1.
</event>
<event>
 5   0  0.1418763E-03  0.6029640E+03  0.7818609E-02  0.9899276E-01
        1   -1    0    0  501    0  0.00000000000E+00  0.00000000000E+00  0.10777037446E+04  0.10777037446E+04  0.50400001928E-02 0. -1.
       -1   -1    0    0    0  501  0.00000000000E+00  0.00000000000E+00 -0.84338002772E+02  0.84338002923E+02  0.50400001928E-02 0.  1.
    10030    2    1    2    0    0  0.00000000000E+00  0.00000000000E+00  0.99336574181E+03  0.11620417475E+04  0.60296395080E+03 0.  0.
        5    1    3    3  502    0 -0.46235917854E+02 -0.21560428665E+03  0.89280111052E+03  0.91964062626E+03  0.46999998093E+01 0. -1.
       -5    1    3    3    0  502  0.46235917854E+02  0.21560428665E+03  0.10056463129E+03  0.24240112126E+03  0.46999998093E+01 0.  1.
</event>
<event>
 5   0  0.2324616E-03  0.6000509E+03  0.7818609E-02  0.9905301E-01
        2   -1    0    0  501    0  0.00000000000E+00  0.00000000000E+00  0.21158054581E+03  0.21158054583E+03  0.25500000920E-02 0.  1.
       -2   -1    0    0    0  501  0.00000000000E+00  0.00000000000E+00 -0.42544205309E+03  0.42544205310E+03  0.25500000920E-02 0. -1.
    10030    2    1    2    0    0  0.00000000000E+00  0.00000000000E+00 -0.21386150728E+03  0.63702259893E+03  0.60005087055E+03 0.  0.
        4    1    3    3  502    0  0.14303157530E+03 -0.18750208692E+03 -0.30382682784E+03  0.38461333615E+03  0.12699999809E+01 0. -1.
       -4    1    3    3    0  502 -0.14303157530E+03  0.18750208692E+03  0.89965320560E+02  0.25240926277E+03  0.12699999809E+01 0.  1.
</event>
<event>
 5   0  0.2324616E-03  0.5999260E+03  0.7818609E-02  0.9905560E-01
       -2   -1    0    0    0  501  0.00000000000E+00  0.00000000000E+00  0.13331147553E+03  0.13331147556E+03  0.25500000920E-02 0.  1.
        2   -1    0    0  501    0  0.00000000000E+00  0.00000000000E+00 -0.67494416831E+03  0.67494416831E+03  0.25500000920E-02 0. -1.
    10030    2    1    2    0    0  0.00000000000E+00  0.00000000000E+00 -0.54163269278E+03  0.80825564387E+03  0.59992600541E+03 0.  0.
        4    1    3    3  502    0  0.15678166701E+03  0.22002287929E+03 -0.44640316402E+03  0.52179302053E+03  0.12699999809E+01 0.  1.
       -4    1    3    3    0  502 -0.15678166701E+03 -0.22002287929E+03 -0.95229528753E+02  0.28646262334E+03  0.12699999809E+01 0. -1.
</event>
<event>
 5   0  0.1416315E-03  0.5992869E+03  0.7818609E-02  0.9906887E-01
       -1   -1    0    0    0  501  0.00000000000E+00  0.00000000000E+00  0.10855153676E+03  0.10855153688E+03  0.50400001928E-02 0.  1.
        1   -1    0    0  501    0  0.00000000000E+00  0.00000000000E+00 -0.82712960917E+03  0.82712960919E+03  0.50400001928E-02 0. -1.
    10030    2    1    2    0    0  0.00000000000E+00  0.00000000000E+00 -0.71857807241E+03  0.93568114606E+03  0.59928687700E+03 0.  0.
        2    1    3    3  502    0 -0.21344522492E+03 -0.18540883932E+03 -0.20432503824E+03  0.34883237091E+03  0.25500000920E-02 0. -1.
       -2    1    3    3    0  502  0.21344522492E+03  0.18540883932E+03 -0.51425303417E+03  0.58684877515E+03  0.25500000920E-02 0.  1.
</event>
<event>
 5   0  0.2421210E-03  0.6001072E+03  0.7818609E-02  0.9905184E-01
       -2   -1    0    0    0  501  0.00000000000E+00  0.00000000000E+00  0.46212247256E+03  0.46212247257E+03  0.25500000920E-02 0. -1.
        2   -1    0    0  501    0  0.00000000000E+00  0.00000000000E+00 -0.19482316813E+03  0.19482316815E+03  0.25500000920E-02 0.  1.
    10030    2    1    2    0    0  0.00000000000E+00  0.00000000000E+00  0.26729930443E+03  0.65694564072E+03  0.60010720434E+03 0.  0.
        1    1    3    3  502    0  0.18318468709E+03 -0.12912271197E+03  0.35205221649E+03  0.41733687531E+03  0.50400001928E-02 0. -1.
       -1    1    3    3    0  502 -0.18318468709E+03  0.12912271197E+03 -0.84752912055E+02  0.23960876541E+03  0.50400001928E-02 0.  1.
</event>
<event>
 5   0  0.1423430E-03  0.5997650E+03  0.7818609E-02  0.9905894E-01
       -1   -1    0    0    0  501  0.00000000000E+00  0.00000000000E+00  0.10752426459E+03  0.10752426471E+03  0.50400001928E-02 0.  1.
        1   -1    0    0  501    0  0.00000000000E+00  0.00000000000E+00 -0.83636472129E+03  0.83636472131E+03  0.50400001928E-02 0. -1.
    10030    2    1    2    0    0  0.00000000000E+00  0.00000000000E+00 -0.72884045670E+03  0.94388898602E+03  0.59976495947E+03 0.  0.
        1    1    3    3  502    0  0.56629880964E+02 -0.25418902429E+03 -0.59843274813E+03  0.65264136978E+03  0.50400001928E-02 0. -1.
       -1    1    3    3    0  502 -0.56629880964E+02  0.25418902429E+03 -0.13040770857E+03  0.29124761624E+03  0.50400001928E-02 0.  1.
</event>
<event>
 5   0  0.1418763E-03  0.5971782E+03  0.7818609E-02  0.9911278E-01
       -1   -1    0    0    0  501  0.00000000000E+00  0.00000000000E+00  0.60338593529E+02  0.60338593739E+02  0.50400001928E-02 0.  1.
        1   -1    0    0  501    0  0.00000000000E+00  0.00000000000E+00 -0.14775857313E+04  0.14775857313E+04  0.50400001928E-02 0. -1.
    10030    2    1    2    0    0  0.00000000000E+00  0.00000000000E+00 -0.14172471377E+04  0.15379243250E+04  0.59717818115E+03 0.  0.
        5    1    3    3  502    0  0.18894276816E+03 -0.13874597763E+03 -0.23247822008E+03  0.33017878302E+03  0.46999998093E+01 0.  1.
       -5    1    3    3    0  502 -0.18894276816E+03  0.13874597763E+03 -0.11847689177E+04  0.12077455420E+04  0.46999998093E+01 0. -1.
</event>
<event>
 5   0  0.2421210E-03  0.5999464E+03  0.7818609E-02  0.9905517E-01
       -2   -1    0    0    0  501  0.00000000000E+00  0.00000000000E+00  0.91310689168E+03  0.91310689169E+03  0.25500000920E-02 0. -1.
        2   -1    0    0  501    0  0.00000000000E+00  0.00000000000E+00 -0.98546962668E+02  0.98546962701E+02  0.25500000920E-02 0.  1.
    10030    2    1    2    0    0  0.00000000000E+00  0.00000000000E+00  0.81455992902E+03  0.10116538544E+04  0.59994636689E+03 0.  0.
        1    1    3    3  502    0 -0.16418190913E+03  0.61438082390E+02 -0.31856548488E+01  0.17532964859E+03  0.50400001928E-02 0.  1.
       -1    1    3    3    0  502  0.16418190913E+03 -0.61438082390E+02  0.81774558386E+03  0.83632420580E+03  0.50400001928E-02 0. -1.
</event>
<event>
 5   0  0.1418763E-03  0.5985857E+03  0.7818609E-02  0.9908345E-01
        1   -1    0    0  501    0  0.00000000000E+00  0.00000000000E+00  0.69272216727E+03  0.69272216729E+03  0.50400001928E-02 0. -1.
       -1   -1    0    0    0  501  0.00000000000E+00  0.00000000000E+00 -0.12931044694E+03  0.12931044704E+03  0.50400001928E-02 0.  1.
    10030    2    1    2    0    0  0.00000000000E+00  0.00000000000E+00  0.56341172033E+03  0.82203261432E+03  0.59858571016E+03 0.  0.
        5    1    3    3  502    0 -0.23035407338E+03 -0.17871684581E+03  0.37435381281E+03  0.47451615069E+03  0.46999998093E+01 0. -1.
       -5    1    3    3    0  502  0.23035407338E+03  0.17871684581E+03  0.18905790752E+03  0.34751646363E+03  0.46999998093E+01 0.  1.
</event>
<event>
 5   0  0.1479385E-03  0.6001951E+03  0.7818609E-02  0.9905001E-01
        1   -1    0    0  501    0  0.00000000000E+00  0.00000000000E+00  0.83442796139E+03  0.83442796140E+03  0.50400001928E-02 0. -1.
       -1   -1    0    0    0  501  0.00000000000E+00  0.00000000000E+00 -0.10792848702E+03  0.10792848714E+03  0.50400001928E-02 0.  1.
    10030    2    1    2    0    0  0.00000000000E+00  0.00000000000E+00  0.72649947436E+03  0.94235644854E+03  0.60019512648E+03 0.  0.
        3    1    3    3  502    0 -0.36346667663E+02 -0.12285780520E+02  0.83056132952E+03  0.83144702354E+03  0.10100000352E+00 0. -1.
       -3    1    3    3    0  502  0.36346667663E+02  0.12285780520E+02 -0.10406185516E+03  0.11090942500E+03  0.10100000352E+00 0.  1.
</event>
<event>
 5   0  0.1392854E-03  0.5999719E+03  0.7818609E-02  0.9905464E-01
        1   -1    0    0  501    0  0.00000000000E+00  0.00000000000E+00  0.34738510812E+03  0.34738510815E+03  0.50400001928E-02 0. -1.
       -1   -1    0    0    0  501  0.00000000000E+00  0.00000000000E+00 -0.25905420601E+03  0.25905420605E+03  0.50400001928E-02 0.  1.
    10030    2    1    2    0    0  0.00000000000E+00  0.00000000000E+00  0.88330902111E+02  0.60643931421E+03  0.59997191063E+03 0.  0.
        4    1    3    3  502    0 -0.27218836798E+03  0.91703509717E+02  0.13166603087E+03  0.31596455172E+03  0.12699999809E+01 0. -1.
       -4    1    3    3    0  502  0.27218836798E+03 -0.91703509717E+02 -0.43335128760E+02  0.29047476249E+03  0.12699999809E+01 0.  1.
</event>
<event>
 5   0  0.2406307E-03  0.6000379E+03  0.7818609E-02  0.9905327E-01
       -2   -1    0    0    0  501  0.00000000000E+00  0.00000000000E+00  0.56619120397E+03  0.56619120397E+03  0.25500000920E-02 0. -1.
        2   -1    0    0  501    0  0.00000000000E+00  0.00000000000E+00 -0.15897699046E+03  0.15897699048E+03  0.25500000920E-02 0.  1.
    10030    2    1    2    0    0  0.00000000000E+00  0.00000000000E+00  0.40721421350E+03  0.72516819445E+03  0.60003791094E+03 0.  0.
        5    1    3    3  502    0  0.95345806919E+02 -0.91854416346E+01  0.54716789992E+03  0.55550877215E+03  0.46999998093E+01 0. -1.
       -5    1    3    3    0  502 -0.95345806919E+02  0.91854416346E+01 -0.13995368642E+03  0.16965942230E+03  0.46999998093E+01 0.  1.
</event>
<event>
 5   0  0.2421210E-03  0.6000663E+03  0.7818609E-02  0.9905268E-01
        2   -1    0    0  501    0  0.00000000000E+00  0.00000000000E+00  0.19384164841E+03  0.19384164842E+03  0.25500000920E-02 0. -1.
       -2   -1    0    0    0  501  0.00000000000E+00  0.00000000000E+00 -0.46439916804E+03  0.46439916804E+03  0.25500000920E-02 0.  1.
    10030    2    1    2    0    0  0.00000000000E+00  0.00000000000E+00 -0.27055751963E+03  0.65824081647E+03  0.60006633053E+03 0.  0.
        1    1    3    3  502    0  0.25830897425E+03  0.15195283399E+03 -0.11950749202E+03  0.32263792494E+03  0.50400001928E-02 0. -1.
       -1    1    3    3    0  502 -0.25830897425E+03 -0.15195283399E+03 -0.15105002761E+03  0.33560289153E+03  0.50400001928E-02 0.  1.
</event>
<event>
 5   0  0.1416315E-03  0.5998852E+03  0.7818609E-02  0.9905644E-01
       -1   -1    0    0    0  501  0.00000000000E+00  0.00000000000E+00  0.11677617887E+03  0.11677617898E+03  0.50400001928E-02 0. -1.
        1   -1    0    0  501    0  0.00000000000E+00  0.00000000000E+00 -0.77041027128E+03  0.77041027130E+03  0.50400001928E-02 0.  1.
    10030    2    1    2    0    0  0.00000000000E+00  0.00000000000E+00 -0.65363409241E+03  0.88718645027E+03  0.59988521467E+03 0.  0.
        2    1    3    3  502    0  0.24492864057E+02  0.27103960463E+03 -0.51332141222E+03  0.58100020647E+03  0.25500000920E-02 0. -1.
       -2    1    3    3    0  502 -0.24492864057E+02 -0.27103960463E+03 -0.14031268019E+03  0.30618624380E+03  0.25500000920E-02 0.  1.
</event>
<event>
 5   0  0.1418763E-03  0.6000768E+03  0.7818609E-02  0.9905247E-01
        1   -1    0    0  501    0  0.00000000000E+00  0.00000000000E+00  0.10943209661E+04  0.10943209661E+04  0.50400001928E-02 0. -1.
       -1   -1    0    0    0  501  0.00000000000E+00  0.00000000000E+00 -0.82263842287E+02  0.82263842441E+02  0.50400001928E-02 0.  1.
    10030    2    1    2    0    0  0.00000000000E+00  0.00000000000E+00  0.10120571238E+04  0.11765848086E+04  0.60007681997E+03 0.  0.
        5    1    3    3  502    0 -0.15944831935E+03  0.11071429213E+03  0.95451398243E+03  0.97406388583E+03  0.46999998093E+01 0. -1.
       -5    1    3    3    0  502  0.15944831935E+03 -0.11071429213E+03  0.57543141399E+02  0.20252092274E+03  0.46999998093E+01 0.  1.
</event>
<event>
 5   0  0.2346281E-03  0.6000952E+03  0.7818609E-02  0.9905209E-01
       -2   -1    0    0    0  501  0.00000000000E+00  0.00000000000E+00  0.13101788782E+03  0.13101788784E+03  0.25500000920E-02 0. -1.
        2   -1    0    0  501    0  0.00000000000E+00  0.00000000000E+00 -0.68714714199E+03  0.68714714200E+03  0.25500000920E-02 0.  1.
    10030    2    1    2    0    0  0.00000000000E+00  0.00000000000E+00 -0.55612925417E+03  0.81816502984E+03  0.60009521637E+03 0.  0.
        3    1    3    3  502    0 -0.23815983601E+03 -0.18105228160E+03 -0.30940843783E+03  0.43038776442E+03  0.10100000352E+00 0. -1.
       -3    1    3    3    0  502  0.23815983601E+03  0.18105228160E+03 -0.24672081634E+03  0.38777726542E+03  0.10100000352E+00 0.  1.
</event>
<event>
 5   0  0.2421210E-03  0.6000580E+03  0.7818609E-02  0.9905286E-01
       -2   -1    0    0    0  501  0.00000000000E+00  0.00000000000E+00  0.48081791224E+02  0.48081791292E+02  0.25500000920E-02 0. -1.
        2   -1    0    0  501    0  0.00000000000E+00  0.00000000000E+00 -0.18721723880E+04  0.18721723880E+04  0.25500000920E-02 0.  1.
    10030    2    1    2    0    0  0.00000000000E+00  0.00000000000E+00 -0.18240905968E+04  0.19202541793E+04  0.60005800375E+03 0.  0.
        1    1    3    3  502    0  0.47768269690E+02 -0.11267278809E+03 -0.35421687162E+02  0.12740353493E+03  0.50400001928E-02 0. -1.
       -1    1    3    3    0  502 -0.47768269690E+02  0.11267278809E+03 -0.17886689097E+04  0.17928506444E+04  0.50400001928E-02 0.  1.
</event>
<event>
 5   0  0.9496750E-04  0.5999440E+03  0.7818609E-02  0.9905522E-01
        3   -1    0    0  501    0  0.00000000000E+00  0.00000000000E+00  0.16713060908E+03  0.16713063960E+03  0.10100000352E+00 0. -1.
       -3   -1    0    0    0  501  0.00000000000E+00  0.00000000000E+00 -0.53840034691E+03  0.53840035639E+03  0.10100000352E+00 0.  1.
    10030    2    1    2    0    0  0.00000000000E+00  0.00000000000E+00 -0.37126973783E+03  0.70553099599E+03  0.59994397077E+03 0.  0.
        4    1    3    3  502    0  0.16280798486E+03 -0.23185208911E+03 -0.30157476500E+03  0.41377624744E+03  0.12699999809E+01 0.  1.
       -4    1    3    3    0  502 -0.16280798486E+03  0.23185208911E+03 -0.69694972835E+02  0.29175474855E+03  0.12699999809E+01 0. -1.
</event>
<event>
 5   0  0.1418763E-03  0.6006071E+03  0.7818609E-02  0.9904147E-01
       -1   -1    0    0    0  501  0.00000000000E+00  0.00000000000E+00  0.14269118343E+03  0.14269118352E+03  0.50400001928E-02 0. -1.
        1   -1    0    0  501    0  0.00000000000E+00  0.00000000000E+00 -0.63200968110E+03  0.63200968112E+03  0.50400001928E-02 0.  1.
    10030    2    1    2    0    0  0.00000000000E+00  0.00000000000E+00 -0.48931849767E+03  0.77470086464E+03  0.60060705749E+03 0.  0.
        5    1    3    3  502    0 -0.93220527642E+02 -0.24374634520E+03 -0.43622789467E+03  0.50834949952E+03  0.46999998093E+01 0. -1.
       -5    1    3    3    0  502  0.93220527642E+02  0.24374634520E+03 -0.53090603000E+02  0.26635136512E+03  0.46999998093E+01 0.  1.
</event>
<event>
 5   0  0.1416315E-03  0.6000974E+03  0.7818609E-02  0.9905204E-01
       -1   -1    0    0    0  501  0.00000000000E+00  0.00000000000E+00  0.12546023043E+03  0.12546023053E+03  0.50400001928E-02 0.  1.
        1   -1    0    0  501    0  0.00000000000E+00  0.00000000000E+00 -0.71759163808E+03  0.71759163809E+03  0.50400001928E-02 0. -1.
    10030    2    1    2    0    0  0.00000000000E+00  0.00000000000E+00 -0.59213140764E+03  0.84305186863E+03  0.60009736650E+03 0.  0.
        2    1    3    3  502    0  0.93224132980E+02 -0.28020141740E+03 -0.37074340062E+03  0.47397704838E+03  0.25500000920E-02 0.  1.
       -2    1    3    3    0  502 -0.93224132980E+02  0.28020141740E+03 -0.22138800702E+03  0.36907482025E+03  0.25500000920E-02 0. -1.
</event>
<event>
 5   0  0.1418763E-03  0.5998654E+03  0.7818609E-02  0.9905685E-01
        1   -1    0    0  501    0  0.00000000000E+00  0.00000000000E+00  0.31575876194E+03  0.31575876198E+03  0.50400001928E-02 0.  1.
       -1   -1    0    0    0  501  0.00000000000E+00  0.00000000000E+00 -0.28489982875E+03  0.28489982879E+03  0.50400001928E-02 0. -1.
    10030    2    1    2    0    0  0.00000000000E+00  0.00000000000E+00  0.30858933194E+02  0.60065859077E+03  0.59986537565E+03 0.  0.
        5    1    3    3  502    0  0.84266121520E+02 -0.28513187977E+03  0.54680268774E+02  0.30234581176E+03  0.46999998093E+01 0. -1.
       -5    1    3    3    0  502 -0.84266121520E+02  0.28513187977E+03 -0.23821335579E+02  0.29831277901E+03  0.46999998093E+01 0.  1.
</event>
<event>
 5   0  0.1416315E-03  0.6002506E+03  0.7818609E-02  0.9904886E-01
        1   -1    0    0  501    0  0.00000000000E+00  0.00000000000E+00  0.17934340315E+03  0.17934340322E+03  0.50400001928E-02 0.  1.
       -1   -1    0    0    0  501  0.00000000000E+00  0.00000000000E+00 -0.50224986988E+03  0.50224986991E+03  0.50400001928E-02 0. -1.
    10030    2    1    2    0    0  0.00000000000E+00  0.00000000000E+00 -0.32290646673E+03  0.68159327313E+03  0.60025061743E+03 0.  0.
        2    1    3    3  502    0  0.43443234758E+02  0.18322342038E+03  0.10391984195E+03  0.21507549833E+03  0.25500000920E-02 0.  1.
       -2    1    3    3    0  502 -0.43443234758E+02 -0.18322342038E+03 -0.42682630868E+03  0.46651777481E+03  0.25500000920E-02 0. -1.
</event>
<event>
 5   0  0.1418763E-03  0.6001379E+03  0.7818609E-02  0.9905120E-01
       -1   -1    0    0    0  501  0.00000000000E+00  0.00000000000E+00  0.13875205905E+03  0.13875205914E+03  0.50400001928E-02 0. -1.
        1   -1    0    0  501    0  0.00000000000E+00  0.00000000000E+00 -0.64893715259E+03  0.64893715261E+03  0.50400001928E-02 0.  1.
    10030    2    1    2    0    0  0.00000000000E+00  0.00000000000E+00 -0.51018509354E+03  0.78768921175E+03  0.60013787135E+03 0.  0.
        5    1    3    3  502    0 -0.20563743193E+02 -0.73682628348E+02 -0.63587375474E+03  0.64047600987E+03  0.46999998093E+01 0.  1.
       -5    1    3    3    0  502  0.20563743193E+02  0.73682628348E+02  0.12568866120E+03  0.14721320188E+03  0.46999998093E+01 0. -1.
</event>
<event>
 5   0  0.9496750E-04  0.5998214E+03  0.7818609E-02  0.9905777E-01
        4   -1    0    0  501    0  0.00000000000E+00  0.00000000000E+00  0.15643910398E+03  0.15644425893E+03  0.12699999809E+01 0. -1.
       -4   -1    0    0    0  501  0.00000000000E+00  0.00000000000E+00 -0.57494599618E+03  0.57494739883E+03  0.12699999809E+01 0.  1.
    10030    2    1    2    0    0  0.00000000000E+00  0.00000000000E+00 -0.41850689220E+03  0.73139165777E+03  0.59982142195E+03 0.  0.
        1    1    3    3  502    0  0.24181553674E+03 -0.12024465390E+03 -0.36829743345E+03  0.45670179561E+03  0.50400001928E-02 0.  1.
       -1    1    3    3    0  502 -0.24181553674E+03  0.12024465390E+03 -0.50209458750E+02  0.27468986216E+03  0.50400001928E-02 0. -1.
</event>
<event>
 5   0  0.2346281E-03  0.6000241E+03  0.7818609E-02  0.9905356E-01
        2   -1    0    0  501    0  0.00000000000E+00  0.00000000000E+00  0.80799496615E+03  0.80799496616E+03  0.25500000920E-02 0.  1.
       -2   -1    0    0    0  501  0.00000000000E+00  0.00000000000E+00 -0.11139579395E+03  0.11139579398E+03  0.25500000920E-02 0. -1.
    10030    2    1    2    0    0  0.00000000000E+00  0.00000000000E+00  0.69659917220E+03  0.91939076013E+03  0.60002413543E+03 0.  0.
        3    1    3    3  502    0  0.29781307879E+03  0.33602358516E+02  0.36916766697E+03  0.47550659820E+03  0.10100000352E+00 0.  1.
       -3    1    3    3    0  502 -0.29781307879E+03 -0.33602358516E+02  0.32743150524E+03  0.44388416194E+03  0.10100000352E+00 0. -1.
</event>
<event>
 5   0  0.2313168E-03  0.6000175E+03  0.7818609E-02  0.9905370E-01
       -2   -1    0    0    0  501  0.00000000000E+00  0.00000000000E+00  0.68575806873E+02  0.68575806920E+02  0.25500000920E-02 0.  1.
        2   -1    0    0  501    0  0.00000000000E+00  0.00000000000E+00 -0.13124926643E+04  0.13124926643E+04  0.25500000920E-02 0. -1.
    10030    2    1    2    0    0  0.00000000000E+00  0.00000000000E+00 -0.12439168574E+04  0.13810684712E+04  0.60001747808E+03 0.  0.
        2    1    3    3  502    0  0.10201272416E+02 -0.18186850151E+03 -0.11706409553E+04  0.11847280127E+04  0.25500000920E-02 0. -1.
       -2    1    3    3    0  502 -0.10201272416E+02  0.18186850151E+03 -0.73275902049E+02  0.19634045846E+03  0.25500000920E-02 0.  1.
</event>
<event>
 5   0  0.2421210E-03  0.6001128E+03  0.7818609E-02  0.9905172E-01
       -2   -1    0    0    0  501  0.00000000000E+00  0.00000000000E+00  0.15830875533E+03  0.15830875535E+03  0.25500000920E-02 0. -1.
        2   -1    0    0  501    0  0.00000000000E+00  0.00000000000E+00 -0.56872300295E+03  0.56872300296E+03  0.25500000920E-02 0.  1.
    10030    2    1    2    0    0  0.00000000000E+00  0.00000000000E+00 -0.41041424763E+03  0.72703175831E+03  0.60011275851E+03 0.  0.
        1    1    3    3  502    0 -0.22252169087E+03  0.11121296637E+03 -0.40846934463E+03  0.47825875039E+03  0.50400001928E-02 0.  1.
       -1    1    3    3    0  502  0.22252169087E+03 -0.11121296637E+03 -0.19449029993E+01  0.24877300792E+03  0.50400001928E-02 0. -1.
</event>
<event>
 5   0  0.1416315E-03  0.5999402E+03  0.7818609E-02  0.9905530E-01
       -1   -1    0    0    0  501  0.00000000000E+00  0.00000000000E+00  0.19097795665E+03  0.19097795672E+03  0.50400001928E-02 0. -1.
        1   -1    0    0  501    0  0.00000000000E+00  0.00000000000E+00 -0.47116463989E+03  0.47116463992E+03  0.50400001928E-02 0.  1.
    10030    2    1    2    0    0  0.00000000000E+00  0.00000000000E+00 -0.28018668324E+03  0.66214259663E+03  0.59994019770E+03 0.  0.
        2    1    3    3  502    0  0.54586732862E+02  0.28450657795E+03 -0.22599883905E+03  0.36742234493E+03  0.25500000920E-02 0. -1.
       -2    1    3    3    0  502 -0.54586732862E+02 -0.28450657795E+03 -0.54187844194E+02  0.29472025170E+03  0.25500000920E-02 0.  1.
</event>
<event>
 5   0  0.2324616E-03  0.6000939E+03  0.7818609E-02  0.9905211E-01
        2   -1    0    0  501    0  0.00000000000E+00  0.00000000000E+00  0.11959329393E+04  0.11959329393E+04  0.25500000920E-02 0.  1.
       -2   -1    0    0    0  501  0.00000000000E+00  0.00000000000E+00 -0.75278616740E+02  0.75278616783E+02  0.25500000920E-02 0. -1.
    10030    2    1    2    0    0  0.00000000000E+00  0.00000000000E+00  0.11206543225E+04  0.12712115561E+04  0.60009391735E+03 0.  0.
        4    1    3    3  502    0 -0.13864156065E+03  0.15322285231E+03  0.10211743560E+04  0.10418720665E+04  0.12699999809E+01 0.  1.
       -4    1    3    3    0  502  0.13864156065E+03 -0.15322285231E+03  0.99479966550E+02  0.22933948952E+03  0.12699999809E+01 0. -1.
</event>
<event>
 5   0  0.1392854E-03  0.6000441E+03  0.7818609E-02  0.9905315E-01
        1   -1    0    0  501    0  0.00000000000E+00  0.00000000000E+00  0.41222954084E+03  0.41222954087E+03  0.50400001928E-02 0.  1.
       -1   -1    0    0    0  501  0.00000000000E+00  0.00000000000E+00 -0.21835703754E+03  0.21835703760E+03  0.50400001928E-02 0. -1.
    10030    2    1    2    0    0  0.00000000000E+00  0.00000000000E+00  0.19387250329E+03  0.63058657847E+03  0.60004406956E+03 0.  0.
        4    1    3    3  502    0  0.25577246853E+03  0.43555030929E+01 -0.67800839613E+02  0.26464522066E+03  0.12699999809E+01 0. -1.
       -4    1    3    3    0  502 -0.25577246853E+03 -0.43555030929E+01  0.26167334291E+03  0.36594135781E+03  0.12699999809E+01 0.  1.
</event>
<event>
 5   0  0.1416315E-03  0.5997593E+03  0.7818609E-02  0.9905905E-01
        1   -1    0    0  501    0  0.00000000000E+00  0.00000000000E+00  0.92294366094E+03  0.92294366095E+03  0.50400001928E-02 0. -1.
       -1   -1    0    0    0  501  0.00000000000E+00  0.00000000000E+00 -0.97435867323E+02  0.97435867454E+02  0.50400001928E-02 0.  1.
    10030    2    1    2    0    0  0.00000000000E+00  0.00000000000E+00  0.82550779361E+03  0.10203795284E+04  0.59975933896E+03 0.  0.
        2    1    3    3  502    0 -0.19002857593E+03 -0.76789923008E+02  0.78518360752E+03  0.81149297561E+03  0.25500000920E-02 0. -1.
       -2    1    3    3    0  502  0.19002857593E+03  0.76789923008E+02  0.40324186094E+02  0.20888655279E+03  0.25500000920E-02 0.  1.
</event>
<event>
 5   0  0.2346281E-03  0.6000939E+03  0.7818609E-02  0.9905211E-01
       -2   -1    0    0    0  501  0.00000000000E+00  0.00000000000E+00  0.15430240447E+03  0.15430240449E+03  0.25500000920E-02 0. -1.
        2   -1    0    0  501    0  0.00000000000E+00  0.00000000000E+00 -0.58345290256E+03  0.58345290257E+03  0.25500000920E-02 0.  1.
    10030    2    1    2    0    0  0.00000000000E+00  0.00000000000E+00 -0.42915049809E+03  0.73775530706E+03  0.60009394522E+03 0.  0.
        3    1    3    3  502    0 -0.25156548980E+03  0.11754804363E+03 -0.35434581410E+03  0.45018185702E+03  0.10100000352E+00 0.  1.
       -3    1    3    3    0  502  0.25156548980E+03 -0.11754804363E+03 -0.74804683989E+02  0.28757345004E+03  0.10100000352E+00 0. -1.
</event>
<event>
 5   0  0.1479385E-03  0.6001793E+03  0.7818609E-02  0.9905034E-01
       -1   -1    0    0    0  501  0.00000000000E+00  0.00000000000E+00  0.45178639367E+03  0.45178639370E+03  0.50400001928E-02 0. -1.
        1   -1    0    0  501    0  0.00000000000E+00  0.00000000000E+00 -0.19932825237E+03  0.19932825243E+03  0.50400001928E-02 0.  1.
    10030    2    1    2    0    0  0.00000000000E+00  0.00000000000E+00  0.25245814130E+03  0.65111464613E+03  0.60017928096E+03 0.  0.
        3    1    3    3  502    0  0.20638337753E+03  0.61713651233E+02 -0.10043052296E+03  0.23767409074E+03  0.10100000352E+00 0.  1.
       -3    1    3    3    0  502 -0.20638337753E+03 -0.61713651233E+02  0.35288866426E+03  0.41344055538E+03  0.10100000352E+00 0. -1.
</event>
<event>
 5   0  0.2346281E-03  0.6001194E+03  0.7818609E-02  0.9905158E-01
        2   -1    0    0  501    0  0.00000000000E+00  0.00000000000E+00  0.20235061367E+04  0.20235061368E+04  0.25500000920E-02 0.  1.
       -2   -1    0    0    0  501  0.00000000000E+00  0.00000000000E+00 -0.44494956843E+02  0.44494956916E+02  0.25500000920E-02 0. -1.
    10030    2    1    2    0    0  0.00000000000E+00  0.00000000000E+00  0.19790111799E+04  0.20680010937E+04  0.60011938247E+03 0.  0.
        3    1    3    3  502    0  0.87343186284E+02  0.21518318076E+03  0.16442711176E+04  0.16605903022E+04  0.10100000352E+00 0.  1.
       -3    1    3    3    0  502 -0.87343186284E+02 -0.21518318076E+03  0.33474006232E+03  0.40741079146E+03  0.10100000352E+00 0. -1.
</event>
<event>
 5   0  0.9496750E-04  0.5998601E+03  0.7818609E-02  0.9905696E-01
        3   -1    0    0  501    0  0.00000000000E+00  0.00000000000E+00  0.28154976446E+03  0.28154978257E+03  0.10100000352E+00 0.  1.
       -3   -1    0    0    0  501  0.00000000000E+00  0.00000000000E+00 -0.31951019136E+03  0.31951020733E+03  0.10100000352E+00 0. -1.
    10030    2    1    2    0    0  0.00000000000E+00  0.00000000000E+00 -0.37960426907E+02  0.60105998990E+03  0.59986008156E+03 0.  0.
        4    1    3    3  502    0  0.19741642962E+03  0.22278645140E+03 -0.55787421527E+02  0.30285458377E+03  0.12699999809E+01 0. -1.
       -4    1    3    3    0  502 -0.19741642962E+03 -0.22278645140E+03  0.17826994620E+02  0.29820540613E+03  0.12699999809E+01 0.  1.
</event>
<event>
 5   0  0.1392854E-03  0.5998417E+03  0.7818609E-02  0.9905734E-01
       -1   -1    0    0    0  501  0.00000000000E+00  0.00000000000E+00  0.47242964868E+02  0.47242965137E+02  0.50400001928E-02 0.  1.
        1   -1    0    0  501    0  0.00000000000E+00  0.00000000000E+00 -0.19040406756E+04  0.19040406756E+04  0.50400001928E-02 0. -1.
    10030    2    1    2    0    0  0.00000000000E+00  0.00000000000E+00 -0.18567977107E+04  0.19512836407E+04  0.59984173584E+03 0.  0.
        4    1    3    3  502    0 -0.38389671995E+02  0.33488057844E+02  0.33056982394E+02  0.60742027617E+02  0.12699999809E+01 0.  1.
       -4    1    3    3    0  502  0.38389671995E+02 -0.33488057844E+02 -0.18898546931E+04  0.18905416131E+04  0.12699999809E+01 0. -1.
</event>
<event>
 5   0  0.1418763E-03  0.5997318E+03  0.7818609E-02  0.9905963E-01
        1   -1    0    0  501    0  0.00000000000E+00  0.00000000000E+00  0.93944068352E+03  0.93944068353E+03  0.50400001928E-02 0.  1.
       -1   -1    0    0    0  501  0.00000000000E+00  0.00000000000E+00 -0.95716065386E+02  0.95716065519E+02  0.50400001928E-02 0. -1.
    10030    2    1    2    0    0  0.00000000000E+00  0.00000000000E+00  0.84372461813E+03  0.10351567490E+04  0.59973182662E+03 0.  0.
        5    1    3    3  502    0  0.14117515788E+03 -0.73309172475E+02  0.86053553724E+03  0.87512751118E+03  0.46999998093E+01 0.  1.
       -5    1    3    3    0  502 -0.14117515788E+03  0.73309172475E+02 -0.16810919113E+02  0.16002923787E+03  0.46999998093E+01 0. -1.
</event>
<event>
 5   0  0.2406307E-03  0.6000462E+03  0.7818609E-02  0.9905310E-01
       -2   -1    0    0    0  501  0.00000000000E+00  0.00000000000E+00  0.33521348228E+03  0.33521348229E+03  0.25500000920E-02 0.  1.
        2   -1    0    0  501    0  0.00000000000E+00  0.00000000000E+00 -0.26852694845E+03  0.26852694846E+03  0.25500000920E-02 0. -1.
    10030    2    1    2    0    0  0.00000000000E+00  0.00000000000E+00  0.66686533836E+02  0.60374043075E+03  0.60004617650E+03 0.  0.
        5    1    3    3  502    0  0.12184593556E+03 -0.27317560212E+03  0.10390060638E+02  0.29933490436E+03  0.46999998093E+01 0. -1.
       -5    1    3    3    0  502 -0.12184593556E+03  0.27317560212E+03  0.56296473198E+02  0.30440552640E+03  0.46999998093E+01 0.  1.
</event>
<event>
 5   0  0.1423430E-03  0.6000352E+03  0.7818609E-02  0.9905333E-01
        1   -1    0    0  501    0  0.00000000000E+00  0.00000000000E+00  0.36610074678E+03  0.36610074682E+03  0.50400001928E-02 0.  1.
       -1   -1    0    0    0  501  0.00000000000E+00  0.00000000000E+00 -0.24586283239E+03  0.24586283244E+03  0.50400001928E-02 0. -1.
    10030    2    1    2    0    0  0.00000000000E+00  0.00000000000E+00  0.12023791439E+03  0.61196357926E+03  0.60003522087E+03 0.  0.
        1    1    3    3  502    0  0.62377567700E+02 -0.17910243655E+03 -0.17697158462E+03  0.25939850717E+03  0.50400001928E-02 0. -1.
       -1    1    3    3    0  502 -0.62377567700E+02  0.17910243655E+03  0.29720949901E+03  0.35256507209E+03  0.50400001928E-02 0.  1.
</event>
<event>
 5   0  0.2406307E-03  0.6000103E+03  0.7818609E-02  0.9905385E-01
       -2   -1    0    0    0  501  0.00000000000E+00  0.00000000000E+00  0.10618849371E+04  0.10618849371E+04  0.25500000920E-02 0.  1.
        2   -1    0    0  501    0  0.00000000000E+00  0.00000000000E+00 -0.84757860949E+02  0.84757860988E+02  0.25500000920E-02 0. -1.
    10030    2    1    2    0    0  0.00000000000E+00  0.00000000000E+00  0.97712707613E+03  0.11466427981E+04  0.60001031946E+03 0.  0.
        5    1    3    3  502    0 -0.80486003967E+01  0.22158080111E+03  0.87466035100E+03  0.90233898896E+03  0.46999998093E+01 0.  1.
       -5    1    3    3    0  502  0.80486003967E+01 -0.22158080111E+03  0.10246672513E+03  0.24430380911E+03  0.46999998093E+01 0. -1.
</event>
<event>
 5   0  0.1416315E-03  0.6000669E+03  0.7818609E-02  0.9905267E-01
        1   -1    0    0  501    0  0.00000000000E+00  0.00000000000E+00  0.12793075153E+04  0.12793075153E+04  0.50400001928E-02 0.  1.
       -1   -1    0    0    0  501  0.00000000000E+00  0.00000000000E+00 -0.70366256967E+02  0.70366257148E+02  0.50400001928E-02 0. -1.
    10030    2    1    2    0    0  0.00000000000E+00  0.00000000000E+00  0.12089412583E+04  0.13496737724E+04  0.60006693456E+03 0.  0.
        2    1    3    3  502    0  0.11427738925E+03 -0.84518380693E+02  0.11987777823E+04  0.12071747387E+04  0.25500000920E-02 0.  1.
       -2    1    3    3    0  502 -0.11427738925E+03  0.84518380693E+02  0.10163476011E+02  0.14249903375E+03  0.25500000920E-02 0. -1.
</event>
<event>
 5   0  0.1423430E-03  0.5997186E+03  0.7818609E-02  0.9905990E-01
        1   -1    0    0  501    0  0.00000000000E+00  0.00000000000E+00  0.97044915344E+03  0.97044915345E+03  0.50400001928E-02 0. -1.
       -1   -1    0    0    0  501  0.00000000000E+00  0.00000000000E+00 -0.92653599135E+02  0.92653599272E+02  0.50400001928E-02 0.  1.
    10030    2    1    2    0    0  0.00000000000E+00  0.00000000000E+00  0.87779555431E+03  0.10631027527E+04  0.59971862377E+03 0.  0.
        1    1    3    3  502    0 -0.10235169381E+03  0.21433886680E+02 -0.59283232471E+02  0.12020724771E+03  0.50400001928E-02 0.  1.
       -1    1    3    3    0  502  0.10235169381E+03 -0.21433886680E+02  0.93707878678E+03  0.94289550501E+03  0.50400001928E-02 0. -1.
</event>
<event>
 5   0  0.9496750E-04  0.5998355E+03  0.7818609E-02  0.9905747E-01
        3   -1    0    0  501    0  0.00000000000E+00  0.00000000000E+00  0.14287455034E+03  0.14287458604E+03  0.10100000352E+00 0. -1.
       -3   -1    0    0    0  501  0.00000000000E+00  0.00000000000E+00 -0.62957783582E+03  0.62957784392E+03  0.10100000352E+00 0.  1.
    10030    2    1    2    0    0  0.00000000000E+00  0.00000000000E+00 -0.48670328548E+03  0.77245242996E+03  0.59983553451E+03 0.  0.
        4    1    3    3  502    0 -0.20124894095E+03  0.52121101234E+01 -0.52963376495E+03  0.56660554198E+03  0.12699999809E+01 0.  1.
       -4    1    3    3    0  502  0.20124894095E+03 -0.52121101234E+01  0.42930479464E+02  0.20584688799E+03  0.12699999809E+01 0. -1.
</event>
<event>
 5   0  0.1479385E-03  0.5997810E+03  0.7818609E-02  0.9905861E-01
       -1   -1    0    0    0  501  0.00000000000E+00  0.00000000000E+00  0.12599668983E+04  0.12599668983E+04  0.50400001928E-02 0.  1.
        1   -1    0    0  501    0  0.00000000000E+00  0.00000000000E+00 -0.71378303142E+02  0.71378303320E+02  0.50400001928E-02 0. -1.
    10030    2    1    2    0    0  0.00000000000E+00  0.00000000000E+00  0.11885885951E+04  0.13313452016E+04  0.59978095782E+03 0.  0.
        3    1    3    3  502    0 -0.15323803713E+03  0.73962781470E+02  0.11424431130E+04  0.11550448761E+04  0.10100000352E+00 0.  1.
       -3    1    3    3    0  502  0.15323803713E+03 -0.73962781470E+02  0.46145482133E+02  0.17630032555E+03  0.10100000352E+00 0. -1.
</event>
<event>
 5   0  0.2313168E-03  0.5997044E+03  0.7818609E-02  0.9906020E-01
       -2   -1    0    0    0  501  0.00000000000E+00  0.00000000000E+00  0.87481254763E+02  0.87481254800E+02  0.25500000920E-02 0. -1.
        2   -1    0    0  501    0  0.00000000000E+00  0.00000000000E+00 -0.10277782782E+04  0.10277782782E+04  0.25500000920E-02 0.  1.
    10030    2    1    2    0    0  0.00000000000E+00  0.00000000000E+00 -0.94029702345E+03  0.11152595330E+04  0.59970437190E+03 0.  0.
        2    1    3    3  502    0  0.25014539837E+03 -0.16490291319E+03 -0.44770542910E+03  0.53870756664E+03  0.25500000920E-02 0. -1.
       -2    1    3    3    0  502 -0.25014539837E+03  0.16490291319E+03 -0.49259159435E+03  0.57655196638E+03  0.25500000920E-02 0.  1.
</event>
<event>
 5   0  0.2421210E-03  0.5994836E+03  0.7818609E-02  0.9906478E-01
       -2   -1    0    0    0  501  0.00000000000E+00  0.00000000000E+00  0.70411908230E+02  0.70411908276E+02  0.25500000920E-02 0. -1.
        2   -1    0    0  501    0  0.00000000000E+00  0.00000000000E+00 -0.12759937177E+04  0.12759937177E+04  0.25500000920E-02 0.  1.
    10030    2    1    2    0    0  0.00000000000E+00  0.00000000000E+00 -0.12055818095E+04  0.13464056260E+04  0.59948361975E+03 0.  0.
        1    1    3    3  502    0  0.11700116959E+03 -0.27245043280E+03 -0.50420860529E+03  0.58493147435E+03  0.50400001928E-02 0. -1.
       -1    1    3    3    0  502 -0.11700116959E+03  0.27245043280E+03 -0.70137320419E+03  0.76147415163E+03  0.50400001928E-02 0.  1.
</event>
<event>
 5   0  0.1392854E-03  0.6002879E+03  0.7818609E-02  0.9904809E-01
       -1   -1    0    0    0  501  0.00000000000E+00  0.00000000000E+00  0.19835195866E+03  0.19835195873E+03  0.50400001928E-02 0. -1.
        1   -1    0    0  501    0  0.00000000000E+00  0.00000000000E+00 -0.45417449872E+03  0.45417449875E+03  0.50400001928E-02 0.  1.
    10030    2    1    2    0    0  0.00000000000E+00  0.00000000000E+00 -0.25582254005E+03  0.65252645747E+03  0.60028793566E+03 0.  0.
        4    1    3    3  502    0  0.29861294857E+03 -0.64833760395E+01 -0.16003018611E+03  0.33885542726E+03  0.12699999809E+01 0.  1.
       -4    1    3    3    0  502 -0.29861294857E+03  0.64833760395E+01 -0.95792353941E+02  0.31367103021E+03  0.12699999809E+01 0. -1.
</event>
<event>
 5   0  0.1479385E-03  0.5999482E+03  0.7818609E-02  0.9905514E-01
       -1   -1    0    0    0  501  0.00000000000E+00  0.00000000000E+00  0.10486994711E+03  0.10486994724E+03  0.50400001928E-02 0.  1.
        1   -1    0    0  501    0  0.00000000000E+00  0.00000000000E+00 -0.85805763233E+03  0.85805763235E+03  0.50400001928E-02 0. -1.
    10030    2    1    2    0    0  0.00000000000E+00  0.00000000000E+00 -0.75318768522E+03  0.96292757958E+03  0.59994819306E+03 0.  0.
        3    1    3    3  502    0  0.19052595148E+03 -0.20493342967E+03 -0.20308406289E+03  0.34574701096E+03  0.10100000352E+00 0. -1.
       -3    1    3    3    0  502 -0.19052595148E+03  0.20493342967E+03 -0.55010362233E+03  0.61718056862E+03  0.10100000352E+00 0.  1.
</event>
<event>
 5   0  0.1423430E-03  0.5998943E+03  0.7818609E-02  0.9905625E-01
       -1   -1    0    0    0  501  0.00000000000E+00  0.00000000000E+00  0.11955500719E+03  0.11955500730E+03  0.50400001928E-02 0. -1.
        1   -1    0    0  501    0  0.00000000000E+00  0.00000000000E+00 -0.75252633371E+03  0.75252633373E+03  0.50400001928E-02 0.  1.
    10030    2    1    2    0    0  0.00000000000E+00  0.00000000000E+00 -0.63297132652E+03  0.87208134103E+03  0.59989429500E+03 0.  0.
        1    1    3    3  502    0 -0.28543626563E+03 -0.32836910606E+02 -0.19129498043E+03  0.34517516423E+03  0.50400001928E-02 0. -1.
       -1    1    3    3    0  502  0.28543626563E+03  0.32836910606E+02 -0.44167634608E+03  0.52690617680E+03  0.50400001928E-02 0.  1.
</event>
<event>
 5   0  0.1416315E-03  0.6000936E+03  0.7818609E-02  0.9905212E-01
       -1   -1    0    0    0  501  0.00000000000E+00  0.00000000000E+00  0.22604816366E+03  0.22604816371E+03  0.50400001928E-02 0. -1.
        1   -1    0    0  501    0  0.00000000000E+00  0.00000000000E+00 -0.39826951742E+03  0.39826951746E+03  0.50400001928E-02 0.  1.
    10030    2    1    2    0    0  0.00000000000E+00  0.00000000000E+00 -0.17222135377E+03  0.62431768117E+03  0.60009363630E+03 0.  0.
        2    1    3    3  502    0  0.25914010412E+03 -0.10968377630E+03 -0.19444865886E+03  0.34204444928E+03  0.25500000920E-02 0.  1.
       -2    1    3    3    0  502 -0.25914010412E+03  0.10968377630E+03  0.22227305094E+02  0.28227323189E+03  0.25500000920E-02 0. -1.
</event>
<event>
 5   0  0.2421210E-03  0.5999730E+03  0.7818609E-02  0.9905462E-01
       -2   -1    0    0    0  501  0.00000000000E+00  0.00000000000E+00  0.67065387399E+03  0.67065387400E+03  0.25500000920E-02 0. -1.
        2   -1    0    0  501    0  0.00000000000E+00  0.00000000000E+00 -0.13418529942E+03  0.13418529944E+03  0.25500000920E-02 0.  1.
    10030    2    1    2    0    0  0.00000000000E+00  0.00000000000E+00  0.53646857457E+03  0.80483917344E+03  0.59997296906E+03 0.  0.
        1    1    3    3  502    0 -0.21530961217E+03 -0.11787781775E+03  0.36901697845E+02  0.24822398019E+03  0.50400001928E-02 0.  1.
       -1    1    3    3    0  502  0.21530961217E+03  0.11787781775E+03  0.49956687673E+03  0.55661519326E+03  0.50400001928E-02 0. -1.
</event>
<event>
 5   0  0.2346281E-03  0.5988740E+03  0.7818609E-02  0.9907745E-01
       -2   -1    0    0    0  501  0.00000000000E+00  0.00000000000E+00  0.12195467095E+03  0.12195467097E+03  0.25500000920E-02 0.  1.
        2   -1    0    0  501    0  0.00000000000E+00  0.00000000000E+00 -0.73521177447E+03  0.73521177448E+03  0.25500000920E-02 0. -1.
    10030    2    1    2    0    0  0.00000000000E+00  0.00000000000E+00 -0.61325710353E+03  0.85716644545E+03  0.59887397688E+03 0.  0.
        3    1    3    3  502    0 -0.68982803951E+02  0.26301212173E+03 -0.12712488522E+03  0.30015787523E+03  0.10100000352E+00 0.  1.
       -3    1    3    3    0  502  0.68982803951E+02 -0.26301212173E+03 -0.48613221831E+03  0.55700857022E+03  0.10100000352E+00 0. -1.
</event>
<event>
 5   0  0.1479385E-03  0.6000020E+03  0.7818609E-02  0.9905402E-01
       -1   -1    0    0    0  501  0.00000000000E+00  0.00000000000E+00  0.18540998066E+03  0.18540998073E+03  0.50400001928E-02 0. -1.
        1   -1    0    0  501    0  0.00000000000E+00  0.00000000000E+00 -0.48541393750E+03  0.48541393753E+03  0.50400001928E-02 0.  1.
    10030    2    1    2    0    0  0.00000000000E+00  0.00000000000E+00 -0.30000395684E+03  0.67082391826E+03  0.60000196265E+03 0.  0.
        3    1    3    3  502    0  0.12689960030E+03  0.18877297144E+03 -0.36869693461E+03  0.43321609284E+03  0.10100000352E+00 0.  1.
       -3    1    3    3    0  502 -0.12689960030E+03 -0.18877297144E+03  0.68692977770E+02  0.23760782541E+03  0.10100000352E+00 0. -1.
</event>
<event>
 5   0  0.2324616E-03  0.6003818E+03  0.7818609E-02  0.9904614E-01
       -2   -1    0    0    0  501  0.00000000000E+00  0.00000000000E+00  0.12856744204E+04  0.12856744204E+04  0.25500000920E-02 0.  1.
        2   -1    0    0  501    0  0.00000000000E+00  0.00000000000E+00 -0.70091291994E+02  0.70091292040E+02  0.25500000920E-02 0. -1.
    10030    2    1    2    0    0  0.00000000000E+00  0.00000000000E+00  0.12155831284E+04  0.13557657125E+04  0.60038181600E+03 0.  0.
        4    1    3    3  502    0  0.15234285817E+03  0.25076207745E+02  0.26445650322E+02  0.15664657019E+03  0.12699999809E+01 0. -1.
       -4    1    3    3    0  502 -0.15234285817E+03 -0.25076207745E+02  0.11891374781E+04  0.11991191423E+04  0.12699999809E+01 0.  1.
</event>
<event>
 5   0  0.1479385E-03  0.5998582E+03  0.7818609E-02  0.9905700E-01
        1   -1    0    0  501    0  0.00000000000E+00  0.00000000000E+00  0.10669119757E+04  0.10669119757E+04  0.50400001928E-02 0.  1.
       -1   -1    0    0    0  501  0.00000000000E+00  0.00000000000E+00 -0.84315734406E+02  0.84315734556E+02  0.50400001928E-02 0. -1.
    10030    2    1    2    0    0  0.00000000000E+00  0.00000000000E+00  0.98259624127E+03  0.11512277102E+04  0.59985820614E+03 0.  0.
        3    1    3    3  502    0  0.25501492762E+03  0.51944393402E+02  0.20517735718E+03  0.33140397013E+03  0.10100000352E+00 0. -1.
       -3    1    3    3    0  502 -0.25501492762E+03 -0.51944393402E+02  0.77741888409E+03  0.81982374012E+03  0.10100000352E+00 0.  1.
</event>
<event>
 5   0  0.1479385E-03  0.5999326E+03  0.7818609E-02  0.9905546E-01
        1   -1    0    0  501    0  0.00000000000E+00  0.00000000000E+00  0.10630550848E+04  0.10630550848E+04  0.50400001928E-02 0. -1.
       -1   -1    0    0    0  501  0.00000000000E+00  0.00000000000E+00 -0.84642639254E+02  0.84642639404E+02  0.50400001928E-02 0.  1.
    10030    2    1    2    0    0  0.00000000000E+00  0.00000000000E+00  0.97841244557E+03  0.11476977242E+04  0.59993262337E+03 0.  0.
        3    1    3    3  502    0 -0.56376799365E+02 -0.23081550099E+03  0.83948479711E+03  0.87246138813E+03  0.10100000352E+00 0. -1.
       -3    1    3    3    0  502  0.56376799365E+02  0.23081550099E+03  0.13892764846E+03  0.27523633611E+03  0.10100000352E+00 0.  1.
</event>
<event>
 5   0  0.2346281E-03  0.6000109E+03  0.7818609E-02  0.9905383E-01
       -2   -1    0    0    0  501  0.00000000000E+00  0.00000000000E+00  0.25007164229E+03  0.25007164230E+03  0.25500000920E-02 0.  1.
        2   -1    0    0  501    0  0.00000000000E+00  0.00000000000E+00 -0.35990999426E+03  0.35990999427E+03  0.25500000920E-02 0. -1.
    10030    2    1    2    0    0  0.00000000000E+00  0.00000000000E+00 -0.10983835197E+03  0.60998163657E+03  0.60001094439E+03 0.  0.
        3    1    3    3  502    0 -0.64272445750E+02  0.27905169454E+03  0.36023938540E+02  0.28861484691E+03  0.10100000352E+00 0.  1.
       -3    1    3    3    0  502  0.64272445750E+02 -0.27905169454E+03 -0.14586229051E+03  0.32136678967E+03  0.10100000352E+00 0. -1.
</event>
<event>
 5   0  0.1392854E-03  0.5997680E+03  0.7818609E-02  0.9905888E-01
       -1   -1    0    0    0  501  0.00000000000E+00  0.00000000000E+00  0.97754728748E+02  0.97754728878E+02  0.50400001928E-02 0.  1.
        1   -1    0    0  501    0  0.00000000000E+00  0.00000000000E+00 -0.91995960598E+03  0.91995960600E+03  0.50400001928E-02 0. -1.
    10030    2    1    2    0    0  0.00000000000E+00  0.00000000000E+00 -0.82220487724E+03  0.10177143349E+04  0.59976796118E+03 0.  0.
        4    1    3    3  502    0 -0.35505209685E+02 -0.56685206907E+02 -0.90713622361E+03  0.90959967771E+03  0.12699999809E+01 0. -1.
       -4    1    3    3    0  502  0.35505209685E+02  0.56685206907E+02  0.84931346378E+02  0.10811465717E+03  0.12699999809E+01 0.  1.
</event>
<event>
 5   0  0.1479385E-03  0.5986621E+03  0.7818609E-02  0.9908186E-01
       -1   -1    0    0    0  501  0.00000000000E+00  0.00000000000E+00  0.36592350078E+03  0.36592350082E+03  0.50400001928E-02 0.  1.
        1   -1    0    0  501    0  0.00000000000E+00  0.00000000000E+00 -0.24485736630E+03  0.24485736635E+03  0.50400001928E-02 0. -1.
    10030    2    1    2    0    0  0.00000000000E+00  0.00000000000E+00  0.12106613448E+03  0.61078086717E+03  0.59866205724E+03 0.  0.
        3    1    3    3  502    0 -0.21399185579E+03 -0.20310949683E+03  0.11208384952E+03  0.31560858919E+03  0.10100000352E+00 0. -1.
       -3    1    3    3    0  502  0.21399185579E+03  0.20310949683E+03  0.89822849688E+01  0.29517227798E+03  0.10100000352E+00 0.  1.
</event>
<event>
 5   0  0.2313168E-03  0.6001447E+03  0.7818609E-02  0.9905106E-01
        2   -1    0    0  501    0  0.00000000000E+00  0.00000000000E+00  0.91398982162E+03  0.91398982162E+03  0.25500000920E-02 0.  1.
       -2   -1    0    0    0  501  0.00000000000E+00  0.00000000000E+00 -0.98516859390E+02  0.98516859423E+02  0.25500000920E-02 0. -1.
    10030    2    1    2    0    0  0.00000000000E+00  0.00000000000E+00  0.81547296223E+03  0.10125066810E+04  0.60014467175E+03 0.  0.
        2    1    3    3  502    0 -0.14244139912E+03  0.10001410773E+02  0.85299725045E+03  0.86486639991E+03  0.25500000920E-02 0.  1.
       -2    1    3    3    0  502  0.14244139912E+03 -0.10001410773E+02 -0.37524288226E+02  0.14764028114E+03  0.25500000920E-02 0. -1.
</event>
<event>
 5   0  0.1392854E-03  0.5998101E+03  0.7818609E-02  0.9905800E-01
        1   -1    0    0  501    0  0.00000000000E+00  0.00000000000E+00  0.68167696995E+02  0.68167697181E+02  0.50400001928E-02 0.  1.
       -1   -1    0    0    0  501  0.00000000000E+00  0.00000000000E+00 -0.13194379876E+04  0.13194379876E+04  0.50400001928E-02 0. -1.
    10030    2    1    2    0    0  0.00000000000E+00  0.00000000000E+00 -0.12512702906E+04  0.13876056848E+04  0.59981013355E+03 0.  0.
        4    1    3    3  502    0  0.16763466088E+02 -0.14050329237E+03 -0.12373522772E+04  0.12454173837E+04  0.12699999809E+01 0. -1.
       -4    1    3    3    0  502 -0.16763466088E+02  0.14050329237E+03 -0.13918013436E+02  0.14218830107E+03  0.12699999809E+01 0.  1.
</event>
<event>
 5   0  0.2421210E-03  0.5999399E+03  0.7818609E-02  0.9905531E-01
        2   -1    0    0  501    0  0.00000000000E+00  0.00000000000E+00  0.23425687411E+03  0.23425687413E+03  0.25500000920E-02 0.  1.
       -2   -1    0    0    0  501  0.00000000000E+00  0.00000000000E+00 -0.38411669516E+03  0.38411669517E+03  0.25500000920E-02 0. -1.
    10030    2    1    2    0    0  0.00000000000E+00  0.00000000000E+00 -0.14985982105E+03  0.61837356929E+03  0.59993991802E+03 0.  0.
        1    1    3    3  502    0  0.23610008636E+03  0.17084450324E+03 -0.16766876655E+01  0.29143422307E+03  0.50400001928E-02 0. -1.
       -1    1    3    3    0  502 -0.23610008636E+03 -0.17084450324E+03 -0.14818313338E+03  0.32693934623E+03  0.50400001928E-02 0.  1.
</event>
<event>
 5   0  0.9496750E-04  0.6003900E+03  0.7818609E-02  0.9904597E-01
        4   -1    0    0  501    0  0.00000000000E+00  0.00000000000E+00  0.14134125658E+03  0.14134696216E+03  0.12699999809E+01 0. -1.
       -4   -1    0    0    0  501  0.00000000000E+00  0.00000000000E+00 -0.63756566794E+03  0.63756693283E+03  0.12699999809E+01 0.  1.
    10030    2    1    2    0    0  0.00000000000E+00  0.00000000000E+00 -0.49622441136E+03  0.77891389498E+03  0.60039003104E+03 0.  0.
        1    1    3    3  502    0  0.22083726193E+03 -0.41112612469E+02 -0.50646892613E+03  0.55404883930E+03  0.50400001928E-02 0.  1.
       -1    1    3    3    0  502 -0.22083726193E+03  0.41112612469E+02  0.10244514774E+02  0.22486505569E+03  0.50400001928E-02 0. -1.
</event>
<event>
 5   0  0.1392854E-03  0.5999920E+03  0.7818609E-02  0.9905423E-01
        1   -1    0    0  501    0  0.00000000000E+00  0.00000000000E+00  0.30518701282E+03  0.30518701286E+03  0.50400001928E-02 0. -1.
       -1   -1    0    0    0  501  0.00000000000E+00  0.00000000000E+00 -0.29489324269E+03  0.29489324273E+03  0.50400001928E-02 0.  1.
    10030    2    1    2    0    0  0.00000000000E+00  0.00000000000E+00  0.10293770135E+02  0.60008025559E+03  0.59999195949E+03 0.  0.
        4    1    3    3  502    0  0.21203721833E+03 -0.10134865124E+02  0.21715326115E+03  0.30367688285E+03  0.12699999809E+01 0. -1.
       -4    1    3    3    0  502 -0.21203721833E+03  0.10134865124E+02 -0.20685949102E+03  0.29640337274E+03  0.12699999809E+01 0.  1.
</event>
<event>
 5   0  0.2346281E-03  0.5998081E+03  0.7818609E-02  0.9905804E-01
        2   -1    0    0  501    0  0.00000000000E+00  0.00000000000E+00  0.22364865093E+03  0.22364865094E+03  0.25500000920E-02 0. -1.
       -2   -1    0    0    0  501  0.00000000000E+00  0.00000000000E+00 -0.40215948577E+03  0.40215948577E+03  0.25500000920E-02 0.  1.
    10030    2    1    2    0    0  0.00000000000E+00  0.00000000000E+00 -0.17851083484E+03  0.62580813672E+03  0.59980805749E+03 0.  0.
        3    1    3    3  502    0 -0.11416568791E+03 -0.18445801732E+03  0.12680529475E+03  0.25127307342E+03  0.10100000352E+00 0. -1.
       -3    1    3    3    0  502  0.11416568791E+03  0.18445801732E+03 -0.30531612959E+03  0.37453506329E+03  0.10100000352E+00 0.  1.
</event>
<event>
 5   0  0.1479385E-03  0.6002600E+03  0.7818609E-02  0.9904867E-01
        1   -1    0    0  501    0  0.00000000000E+00  0.00000000000E+00  0.15025929022E+03  0.15025929030E+03  0.50400001928E-02 0. -1.
       -1   -1    0    0    0  501  0.00000000000E+00  0.00000000000E+00 -0.59948379358E+03  0.59948379361E+03  0.50400001928E-02 0.  1.
    10030    2    1    2    0    0  0.00000000000E+00  0.00000000000E+00 -0.44922450337E+03  0.74974308391E+03  0.60025997488E+03 0.  0.
        3    1    3    3  502    0  0.13614502104E+01 -0.26676269486E+02  0.14877170327E+03  0.15115060964E+03  0.10100000352E+00 0. -1.
       -3    1    3    3    0  502 -0.13614502104E+01  0.26676269486E+02 -0.59799620663E+03  0.59859247427E+03  0.10100000352E+00 0.  1.
</event>
<event>
 5   0  0.2313168E-03  0.5998681E+03  0.7818609E-02  0.9905680E-01
        2   -1    0    0  501    0  0.00000000000E+00  0.00000000000E+00  0.53757451422E+03  0.53757451422E+03  0.25500000920E-02 0.  1.
       -2   -1    0    0    0  501  0.00000000000E+00  0.00000000000E+00 -0.16734507509E+03  0.16734507511E+03  0.25500000920E-02 0. -1.
    10030    2    1    2    0    0  0.00000000000E+00  0.00000000000E+00  0.37022943913E+03  0.70491958933E+03  0.59986814370E+03 0.  0.
        2    1    3    3  502    0  0.11115303272E+03 -0.75226121691E+02  0.50031642600E+03  0.51800626657E+03  0.25500000920E-02 0.  1.
       -2    1    3    3    0  502 -0.11115303272E+03  0.75226121691E+02 -0.13008698687E+03  0.18691332277E+03  0.25500000920E-02 0. -1.
</event>
<event>
 5   0  0.2346281E-03  0.5998855E+03  0.7818609E-02  0.9905644E-01
       -2   -1    0    0    0  501  0.00000000000E+00  0.00000000000E+00  0.46600792850E+03  0.46600792850E+03  0.25500000920E-02 0. -1.
        2   -1    0    0  501    0  0.00000000000E+00  0.00000000000E+00 -0.19305603718E+03  0.19305603720E+03  0.25500000920E-02 0.  1.
    10030    2    1    2    0    0  0.00000000000E+00  0.00000000000E+00  0.27295189131E+03  0.65906396570E+03  0.59988546900E+03 0.  0.
        3    1    3    3  502    0  0.10855077443E+03 -0.24132967312E+02 -0.16957236196E+03  0.20278182089E+03  0.10100000352E+00 0.  1.
       -3    1    3    3    0  502 -0.10855077443E+03  0.24132967312E+02  0.44252425327E+03  0.45628214481E+03  0.10100000352E+00 0. -1.
</event>
<event>
 5   0  0.2313168E-03  0.5987979E+03  0.7818609E-02  0.9907903E-01
        2   -1    0    0  501    0  0.00000000000E+00  0.00000000000E+00  0.27542201172E+03  0.27542201173E+03  0.25500000920E-02 0.  1.
       -2   -1    0    0    0  501  0.00000000000E+00  0.00000000000E+00 -0.32546326093E+03  0.32546326094E+03  0.25500000920E-02 0. -1.
    10030    2    1    2    0    0  0.00000000000E+00  0.00000000000E+00 -0.50041249214E+02  0.60088527267E+03  0.59879794947E+03 0.  0.
        2    1    3    3  502    0 -0.13764467960E+01 -0.17766269435E+03  0.21680451481E+03  0.28030363041E+03  0.25500000920E-02 0.  1.
       -2    1    3    3    0  502  0.13764467960E+01  0.17766269435E+03 -0.26684576402E+03  0.32058164226E+03  0.25500000920E-02 0. -1.
</event>
<event>
 5   0  0.2313168E-03  0.5999832E+03  0.7818609E-02  0.9905441E-01
       -2   -1    0    0    0  501  0.00000000000E+00  0.00000000000E+00  0.14470363607E+03  0.14470363609E+03  0.25500000920E-02 0.  1.
        2   -1    0    0  501    0  0.00000000000E+00  0.00000000000E+00 -0.62192598448E+03  0.62192598448E+03  0.25500000920E-02 0. -1.
    10030    2    1    2    0    0  0.00000000000E+00  0.00000000000E+00 -0.47722234841E+03  0.76662962057E+03  0.59998317086E+03 0.  0.
        2    1    3    3  502    0  0.15762099036E+03 -0.55839701005E+01  0.87451962078E+02  0.18034246034E+03  0.25500000920E-02 0.  1.
       -2    1    3    3    0  502 -0.15762099036E+03  0.55839701005E+01 -0.56467431049E+03  0.58628716023E+03  0.25500000920E-02 0. -1.
</event>
<event>
 5   0  0.1418763E-03  0.6000735E+03  0.7818609E-02  0.9905254E-01
        1   -1    0    0  501    0  0.00000000000E+00  0.00000000000E+00  0.23017769602E+03  0.23017769608E+03  0.50400001928E-02 0.  1.
       -1   -1    0    0    0  501  0.00000000000E+00  0.00000000000E+00 -0.39109800454E+03  0.39109800457E+03  0.50400001928E-02 0. -1.
    10030    2    1    2    0    0  0.00000000000E+00  0.00000000000E+00 -0.16092030852E+03  0.62127570065E+03  0.60007345427E+03 0.  0.
        5    1    3    3  502    0  0.99930941971E+02 -0.16470710943E+03  0.15763334152E+03  0.24896784012E+03  0.46999998093E+01 0.  1.
       -5    1    3    3    0  502 -0.99930941971E+02  0.16470710943E+03 -0.31855365004E+03  0.37230786053E+03  0.46999998093E+01 0. -1.
</event>
<event>
 5   0  0.1392854E-03  0.6000016E+03  0.7818609E-02  0.9905403E-01
        1   -1    0    0  501    0  0.00000000000E+00  0.00000000000E+00  0.28911552061E+03  0.28911552066E+03  0.50400001928E-02 0. -1.
       -1   -1    0    0    0  501  0.00000000000E+00  0.00000000000E+00 -0.31129595825E+03  0.31129595830E+03  0.50400001928E-02 0.  1.
    10030    2    1    2    0    0  0.00000000000E+00  0.00000000000E+00 -0.22180437641E+02  0.60041147895E+03  0.60000164353E+03 0.  0.
        4    1    3    3  502    0 -0.25798835517E+03  0.85193062302E+02  0.11620921682E+03  0.29550303593E+03  0.12699999809E+01 0.  1.
       -4    1    3    3    0  502  0.25798835517E+03 -0.85193062302E+02 -0.13838965446E+03  0.30490844303E+03  0.12699999809E+01 0. -1.
</event>
<event>
 5   0  0.2313168E-03  0.5999986E+03  0.7818609E-02  0.9905409E-01
       -2   -1    0    0    0  501  0.00000000000E+00  0.00000000000E+00  0.85433810344E+02  0.85433810382E+02  0.25500000920E-02 0. -1.
        2   -1    0    0  501    0  0.00000000000E+00  0.00000000000E+00 -0.10534421280E+04  0.10534421280E+04  0.25500000920E-02 0.  1.
    10030    2    1    2    0    0  0.00000000000E+00  0.00000000000E+00 -0.96800831766E+03  0.11388759384E+04  0.59999858331E+03 0.  0.
        2    1    3    3  502    0  0.50891031498E+02 -0.28765324434E+03 -0.61365205236E+03  0.67963455433E+03  0.25500000920E-02 0. -1.
       -2    1    3    3    0  502 -0.50891031498E+02  0.28765324434E+03 -0.35435626530E+03  0.45924138406E+03  0.25500000920E-02 0.  1.
</event>
<event>
 5   0  0.2313168E-03  0.6001364E+03  0.7818609E-02  0.9905123E-01
       -2   -1    0    0    0  501  0.00000000000E+00  0.00000000000E+00  0.13365369105E+03  0.13365369108E+03  0.25500000920E-02 0.  1.
        2   -1    0    0  501    0  0.00000000000E+00  0.00000000000E+00 -0.67368832882E+03  0.67368832882E+03  0.25500000920E-02 0. -1.
    10030    2    1    2    0    0  0.00000000000E+00  0.00000000000E+00 -0.54003463777E+03  0.80734201990E+03  0.60013642375E+03 0.  0.
        2    1    3    3  502    0  0.22210334125E+03 -0.20056442394E+03 -0.29964214404E+03  0.42348718615E+03  0.25500000920E-02 0.  1.
       -2    1    3    3    0  502 -0.22210334125E+03  0.20056442394E+03 -0.24039249373E+03  0.38385483375E+03  0.25500000920E-02 0. -1.
</event>
<event>
 5   0  0.1418763E-03  0.5998286E+03  0.7818609E-02  0.9905762E-01
       -1   -1    0    0    0  501  0.00000000000E+00  0.00000000000E+00  0.19553977639E+03  0.19553977646E+03  0.50400001928E-02 0.  1.
        1   -1    0    0  501    0  0.00000000000E+00  0.00000000000E+00 -0.46000149649E+03  0.46000149652E+03  0.50400001928E-02 0. -1.
    10030    2    1    2    0    0  0.00000000000E+00  0.00000000000E+00 -0.26446172010E+03  0.65554127297E+03  0.59982860817E+03 0.  0.
        5    1    3    3  502    0 -0.53055812245E+02 -0.75915647435E+02  0.17947671716E+03  0.20202001569E+03  0.46999998093E+01 0.  1.
       -5    1    3    3    0  502  0.53055812245E+02  0.75915647435E+02 -0.44393843726E+03  0.45352125729E+03  0.46999998093E+01 0. -1.
</event>
<event>
 5   0  0.2346281E-03  0.6005432E+03  0.7818609E-02  0.9904280E-01
        2   -1    0    0  501    0  0.00000000000E+00  0.00000000000E+00  0.86730134428E+03  0.86730134429E+03  0.25500000920E-02 0. -1.
       -2   -1    0    0    0  501  0.00000000000E+00  0.00000000000E+00 -0.10395813654E+03  0.10395813657E+03  0.25500000920E-02 0.  1.
    10030    2    1    2    0    0  0.00000000000E+00  0.00000000000E+00  0.76334320775E+03  0.97125948086E+03  0.60054319273E+03 0.  0.
        3    1    3    3  502    0  0.56946996649E+02 -0.16021875594E+03 -0.18590163650E+02  0.17105149683E+03  0.10100000352E+00 0.  1.
       -3    1    3    3    0  502 -0.56946996649E+02  0.16021875594E+03  0.78193337140E+03  0.80020798402E+03  0.10100000352E+00 0. -1.
</event>
<event>
 5   0  0.9496750E-04  0.5990155E+03  0.7818609E-02  0.9907451E-01
       -4   -1    0    0    0  501  0.00000000000E+00  0.00000000000E+00  0.25069861994E+03  0.25070183673E+03  0.12699999809E+01 0.  1.
        4   -1    0    0  501    0  0.00000000000E+00  0.00000000000E+00 -0.35781295079E+03  0.35781520462E+03  0.12699999809E+01 0. -1.
    10030    2    1    2    0    0  0.00000000000E+00  0.00000000000E+00 -0.10711433085E+03  0.60851704135E+03  0.59901545033E+03 0.  0.
        4    1    3    3  502    0 -0.19027299939E+03 -0.21458015250E+02  0.18039787167E+03  0.26307653966E+03  0.12699999809E+01 0.  1.
       -4    1    3    3    0  502  0.19027299939E+03  0.21458015250E+02 -0.28751220251E+03  0.34544050169E+03  0.12699999809E+01 0. -1.
</event>
<event>
 5   0  0.1392854E-03  0.6001950E+03  0.7818609E-02  0.9905002E-01
       -1   -1    0    0    0  501  0.00000000000E+00  0.00000000000E+00  0.13043630460E+03  0.13043630470E+03  0.50400001928E-02 0. -1.
        1   -1    0    0  501    0  0.00000000000E+00  0.00000000000E+00 -0.69044040148E+03  0.69044040150E+03  0.50400001928E-02 0.  1.
    10030    2    1    2    0    0  0.00000000000E+00  0.00000000000E+00 -0.56000409688E+03  0.82087670620E+03  0.60019495021E+03 0.  0.
        4    1    3    3  502    0  0.25492297880E+03  0.15384016227E+03 -0.22874837740E+03  0.37547297334E+03  0.12699999809E+01 0.  1.
       -4    1    3    3    0  502 -0.25492297880E+03 -0.15384016227E+03 -0.33125571948E+03  0.44540373285E+03  0.12699999809E+01 0. -1.
</event>
<event>
 5   0  0.2313168E-03  0.5999883E+03  0.7818609E-02  0.9905430E-01
       -2   -1    0    0    0  501  0.00000000000E+00  0.00000000000E+00  0.10256341643E+03  0.10256341646E+03  0.25500000920E-02 0.  1.
        2   -1    0    0  501    0  0.00000000000E+00  0.00000000000E+00 -0.87747174279E+03  0.87747174280E+03  0.25500000920E-02 0. -1.
    10030    2    1    2    0    0  0.00000000000E+00  0.00000000000E+00 -0.77490832636E+03  0.98003515926E+03  0.59998833249E+03 0.  0.
        2    1    3    3  502    0 -0.41382029103E+02  0.40844122875E+02 -0.86817990080E+03  0.87012473523E+03  0.25500000920E-02 0. -1.
       -2    1    3    3    0  502  0.41382029103E+02 -0.40844122875E+02  0.93271574437E+02  0.10991042403E+03  0.25500000920E-02 0.  1.
</event>
<event>
 5   0  0.2406307E-03  0.5998525E+03  0.7818609E-02  0.9905712E-01
       -2   -1    0    0    0  501  0.00000000000E+00  0.00000000000E+00  0.96699902510E+03  0.96699902511E+03  0.25500000920E-02 0.  1.
        2   -1    0    0  501    0  0.00000000000E+00  0.00000000000E+00 -0.93025682704E+02  0.93025682739E+02  0.25500000920E-02 0. -1.
    10030    2    1    2    0    0  0.00000000000E+00  0.00000000000E+00  0.87397334240E+03  0.10600247078E+04  0.59985246354E+03 0.  0.
        5    1    3    3  502    0  0.26277344492E+02  0.23620600846E+03  0.76018477609E+03  0.79648399925E+03  0.46999998093E+01 0. -1.
       -5    1    3    3    0  502 -0.26277344492E+02 -0.23620600846E+03  0.11378856631E+03  0.26354070859E+03  0.46999998093E+01 0.  1.
</event>
<event>
 5   0  0.9496750E-04  0.5998537E+03  0.7818609E-02  0.9905710E-01
        4   -1    0    0  501    0  0.00000000000E+00  0.00000000000E+00  0.40366751152E+03  0.40366950932E+03  0.12699999809E+01 0. -1.
       -4   -1    0    0    0  501  0.00000000000E+00  0.00000000000E+00 -0.22284269244E+03  0.22284631133E+03  0.12699999809E+01 0.  1.
    10030    2    1    2    0    0  0.00000000000E+00  0.00000000000E+00  0.18082481908E+03  0.62651582065E+03  0.59985369744E+03 0.  0.
        4    1    3    3  502    0 -0.29875271525E+03  0.11866077115E+02  0.65684946763E+02  0.30612107701E+03  0.12699999809E+01 0.  1.
       -4    1    3    3    0  502  0.29875271525E+03 -0.11866077115E+02  0.11513987232E+03  0.32039474364E+03  0.12699999809E+01 0. -1.
</event>
<event>
 5   0  0.1418763E-03  0.5999579E+03  0.7818609E-02  0.9905493E-01
       -1   -1    0    0    0  501  0.00000000000E+00  0.00000000000E+00  0.14019072022E+03  0.14019072031E+03  0.50400001928E-02 0.  1.
        1   -1    0    0  501    0  0.00000000000E+00  0.00000000000E+00 -0.64189247783E+03  0.64189247785E+03  0.50400001928E-02 0. -1.
    10030    2    1    2    0    0  0.00000000000E+00  0.00000000000E+00 -0.50170175762E+03  0.78208319816E+03  0.59995789456E+03 0.  0.
        5    1    3    3  502    0 -0.28370552008E+01 -0.18946877632E+03  0.52234813416E+02  0.19661391561E+03  0.46999998093E+01 0.  1.
       -5    1    3    3    0  502  0.28370552008E+01  0.18946877632E+03 -0.55393657103E+03  0.58546928255E+03  0.46999998093E+01 0. -1.
</event>
<event>
 5   0  0.2324616E-03  0.5999870E+03  0.7818609E-02  0.9905433E-01
       -2   -1    0    0    0  501  0.00000000000E+00  0.00000000000E+00  0.87472739501E+02  0.87472739538E+02  0.25500000920E-02 0. -1.
        2   -1    0    0  501    0  0.00000000000E+00  0.00000000000E+00 -0.10288475635E+04  0.10288475635E+04  0.25500000920E-02 0.  1.
    10030    2    1    2    0    0  0.00000000000E+00  0.00000000000E+00 -0.94137482397E+03  0.11163203030E+04  0.59998704962E+03 0.  0.
        4    1    3    3  502    0 -0.41566612325E+02 -0.26340710498E+03 -0.21501302388E+03  0.34255408267E+03  0.12699999809E+01 0. -1.
       -4    1    3    3    0  502  0.41566612325E+02  0.26340710498E+03 -0.72636180009E+03  0.77376622034E+03  0.12699999809E+01 0.  1.
</event>
<event>
 5   0  0.1479385E-03  0.5991790E+03  0.7818609E-02  0.9907111E-01
       -1   -1    0    0    0  501  0.00000000000E+00  0.00000000000E+00  0.62634304600E+02  0.62634304803E+02  0.50400001928E-02 0.  1.
        1   -1    0    0  501    0  0.00000000000E+00  0.00000000000E+00 -0.14329825575E+04  0.14329825575E+04  0.50400001928E-02 0. -1.
    10030    2    1    2    0    0  0.00000000000E+00  0.00000000000E+00 -0.13703482529E+04  0.14956168623E+04  0.59917899212E+03 0.  0.
        3    1    3    3  502    0 -0.20895208912E+03  0.15054002861E+03 -0.10672549984E+04  0.10978872973E+04  0.10100000352E+00 0. -1.
       -3    1    3    3    0  502  0.20895208912E+03 -0.15054002861E+03 -0.30309325451E+03  0.39772956502E+03  0.10100000352E+00 0.  1.
</event>
<event>
 5   0  0.1416315E-03  0.5974035E+03  0.7818609E-02  0.9910808E-01
        1   -1    0    0  501    0  0.00000000000E+00  0.00000000000E+00  0.25728930935E+04  0.25728930935E+04  0.50400001928E-02 0. -1.
       -1   -1    0    0    0  501  0.00000000000E+00  0.00000000000E+00 -0.34677984114E+02  0.34677984480E+02  0.50400001928E-02 0.  1.
    10030    2    1    2    0    0  0.00000000000E+00  0.00000000000E+00  0.25382151094E+04  0.26075710780E+04  0.59740353634E+03 0.  0.
        2    1    3    3  502    0 -0.15674860643E+03 -0.43182304817E+02  0.17538699205E+03  0.23915566908E+03  0.25500000920E-02 0.  1.
       -2    1    3    3    0  502  0.15674860643E+03  0.43182304817E+02  0.23628281173E+04  0.23684154089E+04  0.25500000920E-02 0. -1.
</event>
<event>
 5   0  0.2313168E-03  0.6000733E+03  0.7818609E-02  0.9905254E-01
       -2   -1    0    0    0  501  0.00000000000E+00  0.00000000000E+00  0.17863452269E+03  0.17863452271E+03  0.25500000920E-02 0.  1.
        2   -1    0    0  501    0  0.00000000000E+00  0.00000000000E+00 -0.50394505136E+03  0.50394505136E+03  0.25500000920E-02 0. -1.
    10030    2    1    2    0    0  0.00000000000E+00  0.00000000000E+00 -0.32531052867E+03  0.68257957407E+03  0.60007327459E+03 0.  0.
        2    1    3    3  502    0  0.89487778085E+02 -0.28532640850E+03 -0.13472841775E+03  0.32798013411E+03  0.25500000920E-02 0. -1.
       -2    1    3    3    0  502 -0.89487778085E+02  0.28532640850E+03 -0.19058211092E+03  0.35459943996E+03  0.25500000920E-02 0.  1.
</event>
<event>
 5   0  0.2406307E-03  0.6000505E+03  0.7818609E-02  0.9905301E-01
       -2   -1    0    0    0  501  0.00000000000E+00  0.00000000000E+00  0.45742059908E+02  0.45742059979E+02  0.25500000920E-02 0. -1.
        2   -1    0    0  501    0  0.00000000000E+00  0.00000000000E+00 -0.19678857513E+04  0.19678857513E+04  0.25500000920E-02 0.  1.
    10030    2    1    2    0    0  0.00000000000E+00  0.00000000000E+00 -0.19221436914E+04  0.20136278113E+04  0.60005049121E+03 0.  0.
        5    1    3    3  502    0 -0.20840258559E+03  0.20150669949E+03 -0.70208011453E+03  0.75958881300E+03  0.46999998093E+01 0. -1.
       -5    1    3    3    0  502  0.20840258559E+03 -0.20150669949E+03 -0.12200635769E+04  0.12540389983E+04  0.46999998093E+01 0.  1.
</event>
<event>
 5   0  0.1392854E-03  0.5997588E+03  0.7818609E-02  0.9905907E-01
       -1   -1    0    0    0  501  0.00000000000E+00  0.00000000000E+00  0.73799426370E+02  0.73799426542E+02  0.50400001928E-02 0.  1.
        1   -1    0    0  501    0  0.00000000000E+00  0.00000000000E+00 -0.12185415523E+04  0.12185415523E+04  0.50400001928E-02 0. -1.
    10030    2    1    2    0    0  0.00000000000E+00  0.00000000000E+00 -0.11447421259E+04  0.12923409788E+04  0.59975884382E+03 0.  0.
        4    1    3    3  502    0 -0.75852801803E+02 -0.24858317554E+03 -0.89471460194E+03  0.93169902572E+03  0.12699999809E+01 0. -1.
       -4    1    3    3    0  502  0.75852801803E+02  0.24858317554E+03 -0.25002752399E+03  0.36064195313E+03  0.12699999809E+01 0.  1.
</event>
<event>
 5   0  0.2406307E-03  0.5999779E+03  0.7818609E-02  0.9905452E-01
       -2   -1    0    0    0  501  0.00000000000E+00  0.00000000000E+00  0.19311030453E+03  0.19311030454E+03  0.25500000920E-02 0.  1.
        2   -1    0    0  501    0  0.00000000000E+00  0.00000000000E+00 -0.46602055274E+03  0.46602055275E+03  0.25500000920E-02 0. -1.
    10030    2    1    2    0    0  0.00000000000E+00  0.00000000000E+00 -0.27291024821E+03  0.65913085729E+03  0.59997790247E+03 0.  0.
        5    1    3    3  502    0  0.26818104505E+03 -0.11922357540E+03 -0.20449643747E+03  0.35773763681E+03  0.46999998093E+01 0. -1.
       -5    1    3    3    0  502 -0.26818104505E+03  0.11922357540E+03 -0.68413810742E+02  0.30139322048E+03  0.46999998093E+01 0.  1.
</event>
<event>
 5   0  0.9496750E-04  0.5999717E+03  0.7818609E-02  0.9905465E-01
       -3   -1    0    0    0  501  0.00000000000E+00  0.00000000000E+00  0.16708896260E+03  0.16708899313E+03  0.10100000352E+00 0.  1.
        3   -1    0    0  501    0  0.00000000000E+00  0.00000000000E+00 -0.53858428231E+03  0.53858429178E+03  0.10100000352E+00 0. -1.
    10030    2    1    2    0    0  0.00000000000E+00  0.00000000000E+00 -0.37149531971E+03  0.70567328491E+03  0.59997167639E+03 0.  0.
        4    1    3    3  502    0 -0.21828611031E+03  0.16493752204E+03 -0.33045421844E+03  0.42901610170E+03  0.12699999809E+01 0. -1.
       -4    1    3    3    0  502  0.21828611031E+03 -0.16493752204E+03 -0.41041101266E+02  0.27665718321E+03  0.12699999809E+01 0.  1.
</event>
<event>
 5   0  0.1423430E-03  0.6009281E+03  0.7818609E-02  0.9903482E-01
        1   -1    0    0  501    0  0.00000000000E+00  0.00000000000E+00  0.61471465803E+03  0.61471465805E+03  0.50400001928E-02 0. -1.
       -1   -1    0    0    0  501  0.00000000000E+00  0.00000000000E+00 -0.14686269551E+03  0.14686269559E+03  0.50400001928E-02 0.  1.
    10030    2    1    2    0    0  0.00000000000E+00  0.00000000000E+00  0.46785196252E+03  0.76157735364E+03  0.60092812111E+03 0.  0.
        1    1    3    3  502    0  0.24058216401E+02 -0.11364928030E+03  0.58510292688E+03  0.59652358860E+03  0.50400001928E-02 0. -1.
       -1    1    3    3    0  502 -0.24058216401E+02  0.11364928030E+03 -0.11725096435E+03  0.16505376505E+03  0.50400001928E-02 0.  1.
</event>
<event>
 5   0  0.2313168E-03  0.6000423E+03  0.7818609E-02  0.9905318E-01
        2   -1    0    0  501    0  0.00000000000E+00  0.00000000000E+00  0.94155199869E+03  0.94155199869E+03  0.25500000920E-02 0. -1.
       -2   -1    0    0    0  501  0.00000000000E+00  0.00000000000E+00 -0.95600340427E+02  0.95600340461E+02  0.25500000920E-02 0.  1.
    10030    2    1    2    0    0  0.00000000000E+00  0.00000000000E+00  0.84595165826E+03  0.10371523392E+04  0.60004230392E+03 0.  0.
        2    1    3    3  502    0  0.12171754897E+03  0.23774604434E+03  0.18677391731E+03  0.32591845532E+03  0.25500000920E-02 0. -1.
       -2    1    3    3    0  502 -0.12171754897E+03 -0.23774604434E+03  0.65917774096E+03  0.71123388383E+03  0.25500000920E-02 0.  1.
</event>
<event>
 5   0  0.2346281E-03  0.6005892E+03  0.7818609E-02  0.9904184E-01
       -2   -1    0    0    0  501  0.00000000000E+00  0.00000000000E+00  0.25053516917E+03  0.25053516919E+03  0.25500000920E-02 0. -1.
        2   -1    0    0  501    0  0.00000000000E+00  0.00000000000E+00 -0.35993686730E+03  0.35993686731E+03  0.25500000920E-02 0.  1.
    10030    2    1    2    0    0  0.00000000000E+00  0.00000000000E+00 -0.10940169813E+03  0.61047203649E+03  0.60058919053E+03 0.  0.
        3    1    3    3  502    0  0.21503748334E+02  0.10908773097E+03 -0.33824320400E+03  0.35604918128E+03  0.10100000352E+00 0.  1.
       -3    1    3    3    0  502 -0.21503748334E+02 -0.10908773097E+03  0.22884150588E+03  0.25442285521E+03  0.10100000352E+00 0. -1.
</event>
<event>
 5   0  0.2421210E-03  0.5991791E+03  0.7818609E-02  0.9907111E-01
       -2   -1    0    0    0  501  0.00000000000E+00  0.00000000000E+00  0.24650280020E+03  0.24650280022E+03  0.25500000920E-02 0.  1.
        2   -1    0    0  501    0  0.00000000000E+00  0.00000000000E+00 -0.36410902126E+03  0.36410902127E+03  0.25500000920E-02 0. -1.
    10030    2    1    2    0    0  0.00000000000E+00  0.00000000000E+00 -0.11760622106E+03  0.61061182149E+03  0.59917908284E+03 0.  0.
        1    1    3    3  502    0 -0.63821833717E+02  0.15572711856E+03  0.19377625751E+03  0.25665813822E+03  0.50400001928E-02 0.  1.
       -1    1    3    3    0  502  0.63821833717E+02 -0.15572711856E+03 -0.31138247857E+03  0.35395368327E+03  0.50400001928E-02 0. -1.
</event>
<event>
 5   0  0.1392854E-03  0.5999053E+03  0.7818609E-02  0.9905602E-01
       -1   -1    0    0    0  501  0.00000000000E+00  0.00000000000E+00  0.12265063481E+03  0.12265063491E+03  0.50400001928E-02 0.  1.
        1   -1    0    0  501    0  0.00000000000E+00  0.00000000000E+00 -0.73356000677E+03  0.73356000679E+03  0.50400001928E-02 0. -1.
    10030    2    1    2    0    0  0.00000000000E+00  0.00000000000E+00 -0.61090937196E+03  0.85621064170E+03  0.59990532770E+03 0.  0.
        4    1    3    3  502    0  0.92373396252E+02 -0.12979752690E+03  0.57272150741E+02  0.16929841841E+03  0.12699999809E+01 0.  1.
       -4    1    3    3    0  502 -0.92373396252E+02  0.12979752690E+03 -0.66818152270E+03  0.68691222329E+03  0.12699999809E+01 0. -1.
</event>
<event>
 5   0  0.2346281E-03  0.6000366E+03  0.7818609E-02  0.9905330E-01
        2   -1    0    0  501    0  0.00000000000E+00  0.00000000000E+00  0.30476962916E+03  0.30476962917E+03  0.25500000920E-02 0. -1.
       -2   -1    0    0    0  501  0.00000000000E+00  0.00000000000E+00 -0.29534108781E+03  0.29534108783E+03  0.25500000920E-02 0.  1.
    10030    2    1    2    0    0  0.00000000000E+00  0.00000000000E+00  0.94285413463E+01  0.60011071700E+03  0.60003664493E+03 0.  0.
        3    1    3    3  502    0  0.12275814017E+02  0.19184221829E+03  0.23508343397E+03  0.30367476592E+03  0.10100000352E+00 0. -1.
       -3    1    3    3    0  502 -0.12275814017E+02 -0.19184221829E+03 -0.22565489262E+03  0.29643595108E+03  0.10100000352E+00 0.  1.
</event>
<event>
 5   0  0.1392854E-03  0.5998904E+03  0.7818609E-02  0.9905633E-01
        1   -1    0    0  501    0  0.00000000000E+00  0.00000000000E+00  0.92827743539E+03  0.92827743540E+03  0.50400001928E-02 0.  1.
       -1   -1    0    0    0  501  0.00000000000E+00  0.00000000000E+00 -0.96918365295E+02  0.96918365426E+02  0.50400001928E-02 0. -1.
    10030    2    1    2    0    0  0.00000000000E+00  0.00000000000E+00  0.83135907009E+03  0.10251958008E+04  0.59989042883E+03 0.  0.
        4    1    3    3  502    0 -0.28826908353E+03 -0.41043430279E+02  0.29265859957E+03  0.41283688848E+03  0.12699999809E+01 0. -1.
       -4    1    3    3    0  502  0.28826908353E+03  0.41043430279E+02  0.53870047052E+03  0.61235891235E+03  0.12699999809E+01 0.  1.
</event>
<event>
 5   0  0.2406307E-03  0.6000635E+03  0.7818609E-02  0.9905274E-01
        2   -1    0    0  501    0  0.00000000000E+00  0.00000000000E+00  0.12694339648E+03  0.12694339651E+03  0.25500000920E-02 0.  1.
       -2   -1    0    0    0  501  0.00000000000E+00  0.00000000000E+00 -0.70912746464E+03  0.70912746464E+03  0.25500000920E-02 0. -1.
    10030    2    1    2    0    0  0.00000000000E+00  0.00000000000E+00 -0.58218406815E+03  0.83607086115E+03  0.60006349302E+03 0.  0.
        5    1    3    3  502    0 -0.12290490370E+03  0.13888081346E+03 -0.61963850223E+03  0.64681331089E+03  0.46999998093E+01 0. -1.
       -5    1    3    3    0  502  0.12290490370E+03 -0.13888081346E+03  0.37454434075E+02  0.18925755026E+03  0.46999998093E+01 0.  1.
</event>
<event>
 5   0  0.1392854E-03  0.5999126E+03  0.7818609E-02  0.9905587E-01
       -1   -1    0    0    0  501  0.00000000000E+00  0.00000000000E+00  0.22613394179E+03  0.22613394185E+03  0.50400001928E-02 0. -1.
        1   -1    0    0  501    0  0.00000000000E+00  0.00000000000E+00 -0.39787830866E+03  0.39787830869E+03  0.50400001928E-02 0.  1.
    10030    2    1    2    0    0  0.00000000000E+00  0.00000000000E+00 -0.17174436687E+03  0.62401225054E+03  0.59991262803E+03 0.  0.
        4    1    3    3  502    0 -0.11570370055E+03  0.15942099511E+03  0.14942237084E+03  0.24724695713E+03  0.12699999809E+01 0. -1.
       -4    1    3    3    0  502  0.11570370055E+03 -0.15942099511E+03 -0.32116673771E+03  0.37676529341E+03  0.12699999809E+01 0.  1.
</event>
<event>
 5   0  0.1479385E-03  0.6016915E+03  0.7818609E-02  0.9901903E-01
       -1   -1    0    0    0  501  0.00000000000E+00  0.00000000000E+00  0.33026615360E+03  0.33026615364E+03  0.50400001928E-02 0. -1.
        1   -1    0    0  501    0  0.00000000000E+00  0.00000000000E+00 -0.27404615828E+03  0.27404615833E+03  0.50400001928E-02 0.  1.
    10030    2    1    2    0    0  0.00000000000E+00  0.00000000000E+00  0.56219995316E+02  0.60431231197E+03  0.60169151774E+03 0.  0.
        3    1    3    3  502    0  0.88090377077E+02 -0.10035977017E+03 -0.24264940466E+03  0.27696704097E+03  0.10100000352E+00 0.  1.
       -3    1    3    3    0  502 -0.88090377077E+02  0.10035977017E+03  0.29886939997E+03  0.32734527100E+03  0.10100000352E+00 0. -1.
</event>
<event>
 5   0  0.2421210E-03  0.5999229E+03  0.7818609E-02  0.9905566E-01
       -2   -1    0    0    0  501  0.00000000000E+00  0.00000000000E+00  0.27430319063E+03  0.27430319064E+03  0.25500000920E-02 0.  1.
        2   -1    0    0  501    0  0.00000000000E+00  0.00000000000E+00 -0.32801981077E+03  0.32801981078E+03  0.25500000920E-02 0. -1.
    10030    2    1    2    0    0  0.00000000000E+00  0.00000000000E+00 -0.53716620143E+02  0.60232300143E+03  0.59992293069E+03 0.  0.
        1    1    3    3  502    0 -0.93207482997E+02 -0.12176957092E+03 -0.28569079724E+03  0.32424480711E+03  0.50400001928E-02 0. -1.
       -1    1    3    3    0  502  0.93207482997E+02  0.12176957092E+03  0.23197417709E+03  0.27807819431E+03  0.50400001928E-02 0.  1.
</event>
<event>
 5   0  0.2324616E-03  0.6000019E+03  0.7818609E-02  0.9905402E-01
       -2   -1    0    0    0  501  0.00000000000E+00  0.00000000000E+00  0.11572499059E+03  0.11572499062E+03  0.25500000920E-02 0. -1.
        2   -1    0    0  501    0  0.00000000000E+00  0.00000000000E+00 -0.77771086146E+03  0.77771086147E+03  0.25500000920E-02 0.  1.
    10030    2    1    2    0    0  0.00000000000E+00  0.00000000000E+00 -0.66198587087E+03  0.89343585209E+03  0.60000194047E+03 0.  0.
        4    1    3    3  502    0 -0.22748897749E+03  0.17170556618E+03 -0.47040007589E+03  0.55001080047E+03  0.12699999809E+01 0.  1.
       -4    1    3    3    0  502  0.22748897749E+03 -0.17170556618E+03 -0.19158579498E+03  0.34342505162E+03  0.12699999809E+01 0. -1.
</event>
<event>
 5   0  0.2346281E-03  0.5997789E+03  0.7818609E-02  0.9905865E-01
        2   -1    0    0  501    0  0.00000000000E+00  0.00000000000E+00  0.38628280702E+03  0.38628280703E+03  0.25500000920E-02 0.  1.
       -2   -1    0    0    0  501  0.00000000000E+00  0.00000000000E+00 -0.23281821470E+03  0.23281821471E+03  0.25500000920E-02 0. -1.
    10030    2    1    2    0    0  0.00000000000E+00  0.00000000000E+00  0.15346459232E+03  0.61910102174E+03  0.59977887094E+03 0.  0.
        3    1    3    3  502    0 -0.40341225820E+02  0.27754030767E+03 -0.32885031584E+02  0.28237824347E+03  0.10100000352E+00 0. -1.
       -3    1    3    3    0  502  0.40341225820E+02 -0.27754030767E+03  0.18634962390E+03  0.33672277827E+03  0.10100000352E+00 0.  1.
</event>
<event>
 5   0  0.1416315E-03  0.5996430E+03  0.7818609E-02  0.9906147E-01
        1   -1    0    0  501    0  0.00000000000E+00  0.00000000000E+00  0.22296886052E+03  0.22296886058E+03  0.50400001928E-02 0.  1.
       -1   -1    0    0    0  501  0.00000000000E+00  0.00000000000E+00 -0.40316357374E+03  0.40316357377E+03  0.50400001928E-02 0. -1.
    10030    2    1    2    0    0  0.00000000000E+00  0.00000000000E+00 -0.18019471322E+03  0.62613243435E+03  0.59964296933E+03 0.  0.
        2    1    3    3  502    0 -0.19246097621E+03 -0.22911294306E+03 -0.70314307428E+02  0.30737285156E+03  0.25500000920E-02 0.  1.
       -2    1    3    3    0  502  0.19246097621E+03  0.22911294306E+03 -0.10988040579E+03  0.31875958279E+03  0.25500000920E-02 0. -1.
</event>
<event>
 5   0  0.1416315E-03  0.5999702E+03  0.7818609E-02  0.9905468E-01
       -1   -1    0    0    0  501  0.00000000000E+00  0.00000000000E+00  0.90334344220E+03  0.90334344222E+03  0.50400001928E-02 0.  1.
        1   -1    0    0  501    0  0.00000000000E+00  0.00000000000E+00 -0.99619991623E+02  0.99619991751E+02  0.50400001928E-02 0. -1.
    10030    2    1    2    0    0  0.00000000000E+00  0.00000000000E+00  0.80372345058E+03  0.10029634340E+04  0.59997021998E+03 0.  0.
        2    1    3    3  502    0  0.11490742696E+03 -0.21256751633E+03  0.69903889441E+03  0.73962425709E+03  0.25500000920E-02 0.  1.
       -2    1    3    3    0  502 -0.11490742696E+03  0.21256751633E+03  0.10468455617E+03  0.26333917688E+03  0.25500000920E-02 0. -1.
</event>
<event>
 5   0  0.2406307E-03  0.5998343E+03  0.7818609E-02  0.9905750E-01
        2   -1    0    0  501    0  0.00000000000E+00  0.00000000000E+00  0.65473740779E+02  0.65473740828E+02  0.25500000920E-02 0.  1.
       -2   -1    0    0    0  501  0.00000000000E+00  0.00000000000E+00 -0.13738376002E+04  0.13738376002E+04  0.25500000920E-02 0. -1.
    10030    2    1    2    0    0  0.00000000000E+00  0.00000000000E+00 -0.13083638594E+04  0.14393113410E+04  0.59983426692E+03 0.  0.
        5    1    3    3  502    0 -0.18367292740E+03 -0.23009869402E+03 -0.51745075604E+03  0.59536419793E+03  0.46999998093E+01 0.  1.
       -5    1    3    3    0  502  0.18367292740E+03  0.23009869402E+03 -0.79091310333E+03  0.84394714306E+03  0.46999998093E+01 0. -1.
</event>
<event>
 5   0  0.1423430E-03  0.5997090E+03  0.7818609E-02  0.9906010E-01
        1   -1    0    0  501    0  0.00000000000E+00  0.00000000000E+00  0.11113754915E+04  0.11113754915E+04  0.50400001928E-02 0.  1.
       -1   -1    0    0    0  501  0.00000000000E+00  0.00000000000E+00 -0.80902200885E+02  0.80902201042E+02  0.50400001928E-02 0. -1.
    10030    2    1    2    0    0  0.00000000000E+00  0.00000000000E+00  0.10304732906E+04  0.11922776925E+04  0.59970900734E+03 0.  0.
        1    1    3    3  502    0  0.37415786387E+02  0.20641633416E+03  0.89278215488E+02  0.22798737655E+03  0.50400001928E-02 0. -1.
       -1    1    3    3    0  502 -0.37415786387E+02 -0.20641633416E+03  0.94119507509E+03  0.96429031597E+03  0.50400001928E-02 0.  1.
</event>
<event>
 5   0  0.2346281E-03  0.5997135E+03  0.7818609E-02  0.9906001E-01
        2   -1    0    0  501    0  0.00000000000E+00  0.00000000000E+00  0.33842355156E+03  0.33842355157E+03  0.25500000920E-02 0.  1.
       -2   -1    0    0    0  501  0.00000000000E+00  0.00000000000E+00 -0.26568498645E+03  0.26568498646E+03  0.25500000920E-02 0. -1.
    10030    2    1    2    0    0  0.00000000000E+00  0.00000000000E+00  0.72738565111E+02  0.60410853803E+03  0.59971345397E+03 0.  0.
        3    1    3    3  502    0  0.24547135264E+03  0.70722972934E+02 -0.12180416212E+03  0.28300916589E+03  0.10100000352E+00 0. -1.
       -3    1    3    3    0  502 -0.24547135264E+03 -0.70722972934E+02  0.19454272723E+03  0.32109937214E+03  0.10100000352E+00 0.  1.
</event>
<event>
 5   0  0.9496750E-04  0.5998552E+03  0.7818609E-02  0.9905706E-01
        4   -1    0    0  501    0  0.00000000000E+00  0.00000000000E+00  0.27462711187E+03  0.27463004838E+03  0.12699999809E+01 0. -1.
       -4   -1    0    0    0  501  0.00000000000E+00  0.00000000000E+00 -0.32755303832E+03  0.32755550035E+03  0.12699999809E+01 0.  1.
    10030    2    1    2    0    0  0.00000000000E+00  0.00000000000E+00 -0.52925926450E+02  0.60218554873E+03  0.59985521704E+03 0.  0.
        1    1    3    3  502    0 -0.22975688656E+03 -0.18927840449E+03  0.10313066309E+02  0.29786053899E+03  0.50400001928E-02 0. -1.
       -1    1    3    3    0  502  0.22975688656E+03  0.18927840449E+03 -0.63238992759E+02  0.30432500974E+03  0.50400001928E-02 0.  1.
</event>
<event>
 5   0  0.1392854E-03  0.6005915E+03  0.7818609E-02  0.9904180E-01
        1   -1    0    0  501    0  0.00000000000E+00  0.00000000000E+00  0.56754565997E+03  0.56754566000E+03  0.50400001928E-02 0.  1.
       -1   -1    0    0    0  501  0.00000000000E+00  0.00000000000E+00 -0.15889035872E+03  0.15889035880E+03  0.50400001928E-02 0. -1.
    10030    2    1    2    0    0  0.00000000000E+00  0.00000000000E+00  0.40865530125E+03  0.72643601880E+03  0.60059148693E+03 0.  0.
        4    1    3    3  502    0  0.78854206817E+02 -0.25516295414E+03  0.38265144142E+02  0.26979983924E+03  0.12699999809E+01 0. -1.
       -4    1    3    3    0  502 -0.78854206817E+02  0.25516295414E+03  0.37039015711E+03  0.45663617956E+03  0.12699999809E+01 0.  1.
</event>
<event>
 5   0  0.1418763E-03  0.5999355E+03  0.7818609E-02  0.9905540E-01
        1   -1    0    0  501    0  0.00000000000E+00  0.00000000000E+00  0.22896637540E+03  0.22896637545E+03  0.50400001928E-02 0. -1.
       -1   -1    0    0    0  501  0.00000000000E+00  0.00000000000E+00 -0.39298634501E+03  0.39298634504E+03  0.50400001928E-02 0.  1.
    10030    2    1    2    0    0  0.00000000000E+00  0.00000000000E+00 -0.16401996961E+03  0.62195272049E+03  0.59993552662E+03 0.  0.
        5    1    3    3  502    0 -0.14872414050E+03  0.17365671364E+02  0.18740845403E+03  0.23992593680E+03  0.46999998093E+01 0. -1.
       -5    1    3    3    0  502  0.14872414050E+03 -0.17365671364E+02 -0.35142842365E+03  0.38202678369E+03  0.46999998093E+01 0.  1.
</event>
<event>
 5   0  0.2324616E-03  0.6001540E+03  0.7818609E-02  0.9905087E-01
       -2   -1    0    0    0  501  0.00000000000E+00  0.00000000000E+00  0.10169518133E+03  0.10169518136E+03  0.25500000920E-02 0. -1.
        2   -1    0    0  501    0  0.00000000000E+00  0.00000000000E+00 -0.88545207347E+03  0.88545207348E+03  0.25500000920E-02 0.  1.
    10030    2    1    2    0    0  0.00000000000E+00  0.00000000000E+00 -0.78375689214E+03  0.98714725484E+03  0.60015401086E+03 0.  0.
        4    1    3    3  502    0  0.23658576912E+03  0.17833450877E+03 -0.47022062031E+03  0.55577429576E+03  0.12699999809E+01 0.  1.
       -4    1    3    3    0  502 -0.23658576912E+03 -0.17833450877E+03 -0.31353627184E+03  0.43137295908E+03  0.12699999809E+01 0. -1.
</event>
<event>
 5   0  0.1418763E-03  0.5997044E+03  0.7818609E-02  0.9906020E-01
        1   -1    0    0  501    0  0.00000000000E+00  0.00000000000E+00  0.17471016605E+03  0.17471016612E+03  0.50400001928E-02 0.  1.
       -1   -1    0    0    0  501  0.00000000000E+00  0.00000000000E+00 -0.51463134040E+03  0.51463134042E+03  0.50400001928E-02 0. -1.
    10030    2    1    2    0    0  0.00000000000E+00  0.00000000000E+00 -0.33992117435E+03  0.68934150654E+03  0.59970435038E+03 0.  0.
        5    1    3    3  502    0 -0.19773993604E+02 -0.20999713566E+03  0.74958383616E+02  0.22389876525E+03  0.46999998093E+01 0.  1.
       -5    1    3    3    0  502  0.19773993604E+02  0.20999713566E+03 -0.41487955797E+03  0.46544274130E+03  0.46999998093E+01 0. -1.
</event>
<event>
 5   0  0.2313168E-03  0.5996211E+03  0.7818609E-02  0.9906192E-01
        2   -1    0    0  501    0  0.00000000000E+00  0.00000000000E+00  0.39851671015E+03  0.39851671016E+03  0.25500000920E-02 0. -1.
       -2   -1    0    0    0  501  0.00000000000E+00  0.00000000000E+00 -0.22555231712E+03  0.22555231714E+03  0.25500000920E-02 0.  1.
    10030    2    1    2    0    0  0.00000000000E+00  0.00000000000E+00  0.17296439303E+03  0.62406902730E+03  0.59962110502E+03 0.  0.
        2    1    3    3  502    0 -0.71253919127E+02  0.13147334632E+03 -0.18396645303E+03  0.23707808340E+03  0.25500000920E-02 0.  1.
       -2    1    3    3    0  502  0.71253919127E+02 -0.13147334632E+03  0.35693084606E+03  0.38699094390E+03  0.25500000920E-02 0. -1.
</event>
<event>
 5   0  0.1416315E-03  0.6001929E+03  0.7818609E-02  0.9905006E-01
        1   -1    0    0  501    0  0.00000000000E+00  0.00000000000E+00  0.45803897007E+03  0.45803897010E+03  0.50400001928E-02 0.  1.
       -1   -1    0    0    0  501  0.00000000000E+00  0.00000000000E+00 -0.19661618939E+03  0.19661618945E+03  0.50400001928E-02 0. -1.
    10030    2    1    2    0    0  0.00000000000E+00  0.00000000000E+00  0.26142278069E+03  0.65465515955E+03  0.60019289205E+03 0.  0.
        2    1    3    3  502    0 -0.15089238436E+03 -0.19260531779E+03  0.32023865437E+03  0.40301130984E+03  0.25500000920E-02 0.  1.
       -2    1    3    3    0  502  0.15089238436E+03  0.19260531779E+03 -0.58815873685E+02  0.25164384972E+03  0.25500000920E-02 0. -1.
</event>
<event>
 5   0  0.1392854E-03  0.5980455E+03  0.7818609E-02  0.9909469E-01
        1   -1    0    0  501    0  0.00000000000E+00  0.00000000000E+00  0.56228417423E+03  0.56228417425E+03  0.50400001928E-02 0. -1.
       -1   -1    0    0    0  501  0.00000000000E+00  0.00000000000E+00 -0.15902031042E+03  0.15902031050E+03  0.50400001928E-02 0.  1.
    10030    2    1    2    0    0  0.00000000000E+00  0.00000000000E+00  0.40326386381E+03  0.72130448475E+03  0.59804549649E+03 0.  0.
        4    1    3    3  502    0  0.29696609655E+02 -0.46605759989E+02  0.55606825661E+03  0.55880900529E+03  0.12699999809E+01 0. -1.
       -4    1    3    3    0  502 -0.29696609655E+02  0.46605759989E+02 -0.15280439279E+03  0.16249547946E+03  0.12699999809E+01 0.  1.
</event>
<event>
 5   0  0.2313168E-03  0.5998080E+03  0.7818609E-02  0.9905804E-01
        2   -1    0    0  501    0  0.00000000000E+00  0.00000000000E+00  0.23172856343E+03  0.23172856344E+03  0.25500000920E-02 0. -1.
       -2   -1    0    0    0  501  0.00000000000E+00  0.00000000000E+00 -0.38813694373E+03  0.38813694374E+03  0.25500000920E-02 0.  1.
    10030    2    1    2    0    0  0.00000000000E+00  0.00000000000E+00 -0.15640838031E+03  0.61986550718E+03  0.59980802392E+03 0.  0.
        2    1    3    3  502    0  0.50576210704E+02 -0.29397103885E+03 -0.46092774543E+02  0.30183019836E+03  0.25500000920E-02 0.  1.
       -2    1    3    3    0  502 -0.50576210704E+02  0.29397103885E+03 -0.11031560576E+03  0.31803530882E+03  0.25500000920E-02 0. -1.
</event>
<event>
 5   0  0.2324616E-03  0.5999883E+03  0.7818609E-02  0.9905430E-01
       -2   -1    0    0    0  501  0.00000000000E+00  0.00000000000E+00  0.84154042856E+02  0.84154042895E+02  0.25500000920E-02 0.  1.
        2   -1    0    0  501    0  0.00000000000E+00  0.00000000000E+00 -0.10694257844E+04  0.10694257844E+04  0.25500000920E-02 0. -1.
    10030    2    1    2    0    0  0.00000000000E+00  0.00000000000E+00 -0.98527174154E+03  0.11535798273E+04  0.59998834427E+03 0.  0.
        4    1    3    3  502    0  0.10853380854E+03  0.15747261760E+03 -0.48263201397E+02  0.19725152065E+03  0.12699999809E+01 0.  1.
       -4    1    3    3    0  502 -0.10853380854E+03 -0.15747261760E+03 -0.93700854014E+03  0.95632830664E+03  0.12699999809E+01 0. -1.
</event>
<event>
 5   0  0.9496750E-04  0.5999135E+03  0.7818609E-02  0.9905585E-01
        3   -1    0    0  501    0  0.00000000000E+00  0.00000000000E+00  0.18758632682E+03  0.18758635401E+03  0.10100000352E+00 0. -1.
       -3   -1    0    0    0  501  0.00000000000E+00  0.00000000000E+00 -0.47964074681E+03  0.47964075745E+03  0.10100000352E+00 0.  1.
    10030    2    1    2    0    0  0.00000000000E+00  0.00000000000E+00 -0.29205442000E+03  0.66722711145E+03  0.59991352212E+03 0.  0.
        3    1    3    3  502    0 -0.83076123103E+02  0.72546570045E+02  0.16421513206E+03  0.19781624517E+03  0.10100000352E+00 0. -1.
       -3    1    3    3    0  502  0.83076123103E+02 -0.72546570045E+02 -0.45626955205E+03  0.46941086628E+03  0.10100000352E+00 0.  1.
</event>
<event>
 5   0  0.1416315E-03  0.5990344E+03  0.7818609E-02  0.9907411E-01
       -1   -1    0    0    0  501  0.00000000000E+00  0.00000000000E+00  0.12243212390E+03  0.12243212400E+03  0.50400001928E-02 0. -1.
        1   -1    0    0  501    0  0.00000000000E+00  0.00000000000E+00 -0.73273706044E+03  0.73273706046E+03  0.50400001928E-02 0.  1.
    10030    2    1    2    0    0  0.00000000000E+00  0.00000000000E+00 -0.61030493654E+03  0.85516918446E+03  0.59903440509E+03 0.  0.
        2    1    3    3  502    0 -0.23924118456E+03 -0.28266353056E+02 -0.55922640716E+03  0.60890845418E+03  0.25500000920E-02 0.  1.
       -2    1    3    3    0  502  0.23924118456E+03  0.28266353056E+02 -0.51078529383E+02  0.24626073028E+03  0.25500000920E-02 0. -1.
</event>
<event>
 5   0  0.1423430E-03  0.6003173E+03  0.7818609E-02  0.9904748E-01
        1   -1    0    0  501    0  0.00000000000E+00  0.00000000000E+00  0.15121184645E+03  0.15121184653E+03  0.50400001928E-02 0. -1.
       -1   -1    0    0    0  501  0.00000000000E+00  0.00000000000E+00 -0.59582116663E+03  0.59582116665E+03  0.50400001928E-02 0.  1.
    10030    2    1    2    0    0  0.00000000000E+00  0.00000000000E+00 -0.44460932018E+03  0.74703301318E+03  0.60031731209E+03 0.  0.
        1    1    3    3  502    0  0.25148248123E+03  0.12749129610E+03 -0.94199755152E+02  0.29727270787E+03  0.50400001928E-02 0. -1.
       -1    1    3    3    0  502 -0.25148248123E+03 -0.12749129610E+03 -0.35040956503E+03  0.44976030531E+03  0.50400001928E-02 0.  1.
</event>
<event>
 5   0  0.1392854E-03  0.6002153E+03  0.7818609E-02  0.9904960E-01
        1   -1    0    0  501    0  0.00000000000E+00  0.00000000000E+00  0.74109401015E+03  0.74109401016E+03  0.50400001928E-02 0.  1.
       -1   -1    0    0    0  501  0.00000000000E+00  0.00000000000E+00 -0.12152924758E+03  0.12152924768E+03  0.50400001928E-02 0. -1.
    10030    2    1    2    0    0  0.00000000000E+00  0.00000000000E+00  0.61956476257E+03  0.86262325784E+03  0.60021528634E+03 0.  0.
        4    1    3    3  502    0 -0.42012248092E+02  0.28503688275E+03  0.18909325569E+03  0.34462867809E+03  0.12699999809E+01 0.  1.
       -4    1    3    3    0  502  0.42012248092E+02 -0.28503688275E+03  0.43047150688E+03  0.51799457975E+03  0.12699999809E+01 0. -1.
</event>
<event>
 5   0  0.2324616E-03  0.5980450E+03  0.7818609E-02  0.9909470E-01
        2   -1    0    0  501    0  0.00000000000E+00  0.00000000000E+00  0.73774075101E+02  0.73774075145E+02  0.25500000920E-02 0.  1.
       -2   -1    0    0    0  501  0.00000000000E+00  0.00000000000E+00 -0.12120039467E+04  0.12120039467E+04  0.25500000920E-02 0. -1.
    10030    2    1    2    0    0  0.00000000000E+00  0.00000000000E+00 -0.11382298715E+04  0.12857780218E+04  0.59804504918E+03 0.  0.
        4    1    3    3  502    0  0.21358665306E+03 -0.14683306103E+03 -0.88969572366E+03  0.92668187625E+03  0.12699999809E+01 0. -1.
       -4    1    3    3    0  502 -0.21358665306E+03  0.14683306103E+03 -0.24853414789E+03  0.35909614554E+03  0.12699999809E+01 0.  1.
</event>
<event>
 5   0  0.1479385E-03  0.5997986E+03  0.7818609E-02  0.9905824E-01
        1   -1    0    0  501    0  0.00000000000E+00  0.00000000000E+00  0.10100180891E+03  0.10100180903E+03  0.50400001928E-02 0.  1.
       -1   -1    0    0    0  501  0.00000000000E+00  0.00000000000E+00 -0.89047499201E+03  0.89047499202E+03  0.50400001928E-02 0. -1.
    10030    2    1    2    0    0  0.00000000000E+00  0.00000000000E+00 -0.78947318310E+03  0.99147680105E+03  0.59979858302E+03 0.  0.
        3    1    3    3  502    0  0.67128165177E+02  0.15011329270E+03 -0.80930892530E+03  0.82584571076E+03  0.10100000352E+00 0. -1.
       -3    1    3    3    0  502 -0.67128165177E+02 -0.15011329270E+03  0.19835742198E+02  0.16563109030E+03  0.10100000352E+00 0.  1.
</event>
<event>
 5   0  0.1423430E-03  0.5999578E+03  0.7818609E-02  0.9905494E-01
        1   -1    0    0  501    0  0.00000000000E+00  0.00000000000E+00  0.82511975449E+03  0.82511975451E+03  0.50400001928E-02 0.  1.
       -1   -1    0    0    0  501  0.00000000000E+00  0.00000000000E+00 -0.10905972183E+03  0.10905972195E+03  0.50400001928E-02 0. -1.
    10030    2    1    2    0    0  0.00000000000E+00  0.00000000000E+00  0.71606003267E+03  0.93417947645E+03  0.59995776839E+03 0.  0.
        1    1    3    3  502    0  0.10862699179E+03 -0.10210970134E+03  0.76335177402E+03  0.77777383948E+03  0.50400001928E-02 0.  1.
       -1    1    3    3    0  502 -0.10862699179E+03  0.10210970134E+03 -0.47291741356E+02  0.15640563697E+03  0.50400001928E-02 0. -1.
</event>
<event>
 5   0  0.1423430E-03  0.5998580E+03  0.7818609E-02  0.9905701E-01
        1   -1    0    0  501    0  0.00000000000E+00  0.00000000000E+00  0.20922134426E+03  0.20922134432E+03  0.50400001928E-02 0. -1.
       -1   -1    0    0    0  501  0.00000000000E+00  0.00000000000E+00 -0.42996280929E+03  0.42996280932E+03  0.50400001928E-02 0.  1.
    10030    2    1    2    0    0  0.00000000000E+00  0.00000000000E+00 -0.22074146503E+03  0.63918415364E+03  0.59985797309E+03 0.  0.
        1    1    3    3  502    0 -0.23979012127E+03  0.14505782849E+03 -0.22422272913E+03  0.35891072448E+03  0.50400001928E-02 0.  1.
       -1    1    3    3    0  502  0.23979012127E+03 -0.14505782849E+03  0.34812641059E+01  0.28027342915E+03  0.50400001928E-02 0. -1.
</event>
<event>
 5   0  0.2324616E-03  0.5994937E+03  0.7818609E-02  0.9906457E-01
        2   -1    0    0  501    0  0.00000000000E+00  0.00000000000E+00  0.47077645197E+03  0.47077645198E+03  0.25500000920E-02 0.  1.
       -2   -1    0    0    0  501  0.00000000000E+00  0.00000000000E+00 -0.19085106816E+03  0.19085106817E+03  0.25500000920E-02 0. -1.
    10030    2    1    2    0    0  0.00000000000E+00  0.00000000000E+00  0.27992538381E+03  0.66162752015E+03  0.59949374886E+03 0.  0.
        4    1    3    3  502    0 -0.94326647306E+02  0.10670200601E+03 -0.15112267131E+03  0.20765959925E+03  0.12699999809E+01 0. -1.
       -4    1    3    3    0  502  0.94326647306E+02 -0.10670200601E+03  0.43104805512E+03  0.45396792090E+03  0.12699999809E+01 0.  1.
</event>
<event>
 5   0  0.2346281E-03  0.6000642E+03  0.7818609E-02  0.9905273E-01
       -2   -1    0    0    0  501  0.00000000000E+00  0.00000000000E+00  0.45870357513E+03  0.45870357514E+03  0.25500000920E-02 0. -1.
        2   -1    0    0  501    0  0.00000000000E+00  0.00000000000E+00 -0.19624716413E+03  0.19624716415E+03  0.25500000920E-02 0.  1.
    10030    2    1    2    0    0  0.00000000000E+00  0.00000000000E+00  0.26245641100E+03  0.65495073929E+03  0.60006424924E+03 0.  0.
        3    1    3    3  502    0  0.97595542551E+02 -0.21543408835E+03  0.33272901339E+03  0.40822217346E+03  0.10100000352E+00 0. -1.
       -3    1    3    3    0  502 -0.97595542551E+02  0.21543408835E+03 -0.70272602395E+02  0.24672856583E+03  0.10100000352E+00 0.  1.
</event>
<event>
 5   0  0.9496750E-04  0.5998688E+03  0.7818609E-02  0.9905678E-01
        3   -1    0    0  501    0  0.00000000000E+00  0.00000000000E+00  0.14326382040E+04  0.14326382075E+04  0.10100000352E+00 0. -1.
       -3   -1    0    0    0  501  0.00000000000E+00  0.00000000000E+00 -0.62793653643E+02  0.62793734870E+02  0.10100000352E+00 0.  1.
    10030    2    1    2    0    0  0.00000000000E+00  0.00000000000E+00  0.13698445503E+04  0.14954319424E+04  0.59986882090E+03 0.  0.
        4    1    3    3  502    0 -0.29168657028E+03 -0.34832434893E+02  0.53400859089E+03  0.60947612081E+03  0.12699999809E+01 0. -1.
       -4    1    3    3    0  502  0.29168657028E+03  0.34832434893E+02  0.83583595943E+03  0.88595582157E+03  0.12699999809E+01 0.  1.
</event>
<event>
 5   0  0.2406307E-03  0.6000239E+03  0.7818609E-02  0.9905356E-01
       -2   -1    0    0    0  501  0.00000000000E+00  0.00000000000E+00  0.40353958379E+02  0.40353958460E+02  0.25500000920E-02 0.  1.
        2   -1    0    0  501    0  0.00000000000E+00  0.00000000000E+00 -0.22304422350E+04  0.22304422350E+04  0.25500000920E-02 0. -1.
    10030    2    1    2    0    0  0.00000000000E+00  0.00000000000E+00 -0.21900882766E+04  0.22707961935E+04  0.60002391023E+03 0.  0.
        5    1    3    3  502    0  0.81571628843E+02 -0.26714323442E+03 -0.15090225135E+04  0.15346629840E+04  0.46999998093E+01 0.  1.
       -5    1    3    3    0  502 -0.81571628843E+02  0.26714323442E+03 -0.68106576317E+03  0.73613320947E+03  0.46999998093E+01 0. -1.
</event>
<event>
 5   0  0.2346281E-03  0.6018925E+03  0.7818609E-02  0.9901487E-01
       -2   -1    0    0    0  501  0.00000000000E+00  0.00000000000E+00  0.13210670998E+03  0.13210671001E+03  0.25500000920E-02 0.  1.
        2   -1    0    0  501    0  0.00000000000E+00  0.00000000000E+00 -0.68557198060E+03  0.68557198060E+03  0.25500000920E-02 0. -1.
    10030    2    1    2    0    0  0.00000000000E+00  0.00000000000E+00 -0.55346527062E+03  0.81767869061E+03  0.60189254465E+03 0.  0.
        3    1    3    3  502    0  0.71332510745E+02  0.20126918688E+03 -0.56482394762E+03  0.60384080243E+03  0.10100000352E+00 0. -1.
       -3    1    3    3    0  502 -0.71332510745E+02 -0.20126918688E+03  0.11358677003E+02  0.21383788818E+03  0.10100000352E+00 0.  1.
</event>
<event>
 5   0  0.1479385E-03  0.5997795E+03  0.7818609E-02  0.9905864E-01
        1   -1    0    0  501    0  0.00000000000E+00  0.00000000000E+00  0.29394305250E+03  0.29394305254E+03  0.50400001928E-02 0. -1.
       -1   -1    0    0    0  501  0.00000000000E+00  0.00000000000E+00 -0.30595677093E+03  0.30595677097E+03  0.50400001928E-02 0.  1.
    10030    2    1    2    0    0  0.00000000000E+00  0.00000000000E+00 -0.12013718427E+02  0.59989982351E+03  0.59977951684E+03 0.  0.
        3    1    3    3  502    0  0.10699011894E+03  0.32535344895E+02  0.27230858742E+03  0.29437630883E+03  0.10100000352E+00 0. -1.
       -3    1    3    3    0  502 -0.10699011894E+03 -0.32535344895E+02 -0.28432230585E+03  0.30552351468E+03  0.10100000352E+00 0.  1.
</event>
<event>
 5   0  0.2406307E-03  0.5998547E+03  0.7818609E-02  0.9905708E-01
        2   -1    0    0  501    0  0.00000000000E+00  0.00000000000E+00  0.59330705113E+03  0.59330705114E+03  0.25500000920E-02 0. -1.
       -2   -1    0    0    0  501  0.00000000000E+00  0.00000000000E+00 -0.15161864551E+03  0.15161864553E+03  0.25500000920E-02 0.  1.
    10030    2    1    2    0    0  0.00000000000E+00  0.00000000000E+00  0.44168840563E+03  0.74492569667E+03  0.59985468732E+03 0.  0.
        5    1    3    3  502    0  0.62968115764E+02 -0.37118350552E+02 -0.14034140051E+03  0.15830525654E+03  0.46999998093E+01 0.  1.
       -5    1    3    3    0  502 -0.62968115764E+02  0.37118350552E+02  0.58202980614E+03  0.58662044013E+03  0.46999998093E+01 0. -1.
</event>
<event>
 5   0  0.2313168E-03  0.5999762E+03  0.7818609E-02  0.9905455E-01
       -2   -1    0    0    0  501  0.00000000000E+00  0.00000000000E+00  0.56475659328E+02  0.56475659386E+02  0.25500000920E-02 0.  1.
        2   -1    0    0  501    0  0.00000000000E+00  0.00000000000E+00 -0.15934807180E+04  0.15934807180E+04  0.25500000920E-02 0. -1.
    10030    2    1    2    0    0  0.00000000000E+00  0.00000000000E+00 -0.15370050587E+04  0.16499563774E+04  0.59997624695E+03 0.  0.
        2    1    3    3  502    0  0.17377810279E+03 -0.24423993414E+03 -0.73585926603E+03  0.79456959031E+03  0.25500000920E-02 0.  1.
       -2    1    3    3    0  502 -0.17377810279E+03  0.24423993414E+03 -0.80114579264E+03  0.85538678708E+03  0.25500000920E-02 0. -1.
</event>
<event>
 5   0  0.2406307E-03  0.5999744E+03  0.7818609E-02  0.9905459E-01
       -2   -1    0    0    0  501  0.00000000000E+00  0.00000000000E+00  0.68223299001E+03  0.68223299002E+03  0.25500000920E-02 0.  1.
        2   -1    0    0  501    0  0.00000000000E+00  0.00000000000E+00 -0.13190848390E+03  0.13190848393E+03  0.25500000920E-02 0. -1.
    10030    2    1    2    0    0  0.00000000000E+00  0.00000000000E+00  0.55032450611E+03  0.81414147394E+03  0.59997439743E+03 0.  0.
        5    1    3    3  502    0  0.18021488706E+03 -0.25185592518E+02  0.59872975607E+03  0.62578840704E+03  0.46999998093E+01 0.  1.
       -5    1    3    3    0  502 -0.18021488706E+03  0.25185592518E+02 -0.48405249956E+02  0.18835306690E+03  0.46999998093E+01 0. -1.
</event>
<event>
 5   0  0.1392854E-03  0.6000443E+03  0.7818609E-02  0.9905314E-01
        1   -1    0    0  501    0  0.00000000000E+00  0.00000000000E+00  0.42846219011E+03  0.42846219014E+03  0.50400001928E-02 0. -1.
       -1   -1    0    0    0  501  0.00000000000E+00  0.00000000000E+00 -0.21008454719E+03  0.21008454725E+03  0.50400001928E-02 0.  1.
    10030    2    1    2    0    0  0.00000000000E+00  0.00000000000E+00  0.21837764292E+03  0.63854673739E+03  0.60004428246E+03 0.  0.
        4    1    3    3  502    0  0.21485069327E+03  0.20900192116E+03  0.95352662748E+02  0.31454151815E+03  0.12699999809E+01 0. -1.
       -4    1    3    3    0  502 -0.21485069327E+03 -0.20900192116E+03  0.12302498017E+03  0.32400521924E+03  0.12699999809E+01 0.  1.
</event>
<event>
 5   0  0.9496750E-04  0.5997082E+03  0.7818609E-02  0.9906012E-01
       -3   -1    0    0    0  501  0.00000000000E+00  0.00000000000E+00  0.35523469826E+03  0.35523471262E+03  0.10100000352E+00 0.  1.
        3   -1    0    0  501    0  0.00000000000E+00  0.00000000000E+00 -0.25310724156E+03  0.25310726172E+03  0.10100000352E+00 0. -1.
    10030    2    1    2    0    0  0.00000000000E+00  0.00000000000E+00  0.10212745669E+03  0.60834197433E+03  0.59970821265E+03 0.  0.
        1    1    3    3  502    0 -0.24778777796E+03  0.47764209274E+02  0.21535928821E+03  0.33175265732E+03  0.50400001928E-02 0.  1.
       -1    1    3    3    0  502  0.24778777796E+03 -0.47764209274E+02 -0.11323183151E+03  0.27658931702E+03  0.50400001928E-02 0. -1.
</event>
<event>
 5   0  0.2313168E-03  0.6000060E+03  0.7818609E-02  0.9905394E-01
        2   -1    0    0  501    0  0.00000000000E+00  0.00000000000E+00  0.13689717080E+03  0.13689717083E+03  0.25500000920E-02 0. -1.
       -2   -1    0    0    0  501  0.00000000000E+00  0.00000000000E+00 -0.65744090016E+03  0.65744090016E+03  0.25500000920E-02 0.  1.
    10030    2    1    2    0    0  0.00000000000E+00  0.00000000000E+00 -0.52054372935E+03  0.79433807099E+03  0.60000599735E+03 0.  0.
        2    1    3    3  502    0 -0.25389752632E+03 -0.14641677149E+03 -0.17550222110E+03  0.34161799493E+03  0.25500000920E-02 0. -1.
       -2    1    3    3    0  502  0.25389752632E+03  0.14641677149E+03 -0.34504150825E+03  0.45272007606E+03  0.25500000920E-02 0.  1.
</event>
<event>
 5   0  0.1418763E-03  0.6004244E+03  0.7818609E-02  0.9904526E-01
       -1   -1    0    0    0  501  0.00000000000E+00  0.00000000000E+00  0.57625290589E+03  0.57625290591E+03  0.50400001928E-02 0. -1.
        1   -1    0    0  501    0  0.00000000000E+00  0.00000000000E+00 -0.15640247352E+03  0.15640247360E+03  0.50400001928E-02 0.  1.
    10030    2    1    2    0    0  0.00000000000E+00  0.00000000000E+00  0.41985043237E+03  0.73265537951E+03  0.60042444951E+03 0.  0.
        5    1    3    3  502    0 -0.59109538783E+02  0.57309414714E+00 -0.14918516551E+03  0.16053837429E+03  0.46999998093E+01 0.  1.
       -5    1    3    3    0  502  0.59109538783E+02 -0.57309414714E+00  0.56903559788E+03  0.57211700522E+03  0.46999998093E+01 0. -1.
</event>
<event>
 5   0  0.1479385E-03  0.5998724E+03  0.7818609E-02  0.9905671E-01
       -1   -1    0    0    0  501  0.00000000000E+00  0.00000000000E+00  0.38467585004E+03  0.38467585008E+03  0.50400001928E-02 0.  1.
        1   -1    0    0  501    0  0.00000000000E+00  0.00000000000E+00 -0.23386375468E+03  0.23386375473E+03  0.50400001928E-02 0. -1.
    10030    2    1    2    0    0  0.00000000000E+00  0.00000000000E+00  0.15081209537E+03  0.61853960481E+03  0.59987244862E+03 0.  0.
        3    1    3    3  502    0 -0.63332689303E+02 -0.29218263135E+03  0.50573235259E+02  0.30321507536E+03  0.10100000352E+00 0. -1.
       -3    1    3    3    0  502  0.63332689303E+02  0.29218263135E+03  0.10023886011E+03  0.31532452945E+03  0.10100000352E+00 0.  1.
</event>
<event>
 5   0  0.2324616E-03  0.5998799E+03  0.7818609E-02  0.9905655E-01
        2   -1    0    0  501    0  0.00000000000E+00  0.00000000000E+00  0.42142531804E+03  0.42142531805E+03  0.25500000920E-02 0. -1.
       -2   -1    0    0    0  501  0.00000000000E+00  0.00000000000E+00 -0.21347549262E+03  0.21347549264E+03  0.25500000920E-02 0.  1.
    10030    2    1    2    0    0  0.00000000000E+00  0.00000000000E+00  0.20794982541E+03  0.63490081068E+03  0.59987991258E+03 0.  0.
        4    1    3    3  502    0  0.18507780521E+03 -0.80332712589E+02  0.33886663875E+03  0.39438477462E+03  0.12699999809E+01 0. -1.
       -4    1    3    3    0  502 -0.18507780521E+03  0.80332712589E+02 -0.13091681333E+03  0.24051603607E+03  0.12699999809E+01 0.  1.
</event>
<event>
 5   0  0.1479385E-03  0.6000130E+03  0.7818609E-02  0.9905379E-01
        1   -1    0    0  501    0  0.00000000000E+00  0.00000000000E+00  0.72322549682E+03  0.72322549684E+03  0.50400001928E-02 0. -1.
       -1   -1    0    0    0  501  0.00000000000E+00  0.00000000000E+00 -0.12444789984E+03  0.12444789994E+03  0.50400001928E-02 0.  1.
    10030    2    1    2    0    0  0.00000000000E+00  0.00000000000E+00  0.59877759698E+03  0.84767339678E+03  0.60001298066E+03 0.  0.
        3    1    3    3  502    0 -0.57840916694E+02 -0.18896470178E+03 -0.19502587819E+02  0.19857892964E+03  0.10100000352E+00 0.  1.
       -3    1    3    3    0  502  0.57840916694E+02  0.18896470178E+03  0.61828018480E+03  0.64909446715E+03  0.10100000352E+00 0. -1.
</event>
<event>
 5   0  0.1392854E-03  0.6006043E+03  0.7818609E-02  0.9904153E-01
        1   -1    0    0  501    0  0.00000000000E+00  0.00000000000E+00  0.25459484440E+03  0.25459484445E+03  0.50400001928E-02 0.  1.
       -1   -1    0    0    0  501  0.00000000000E+00  0.00000000000E+00 -0.35421529222E+03  0.35421529226E+03  0.50400001928E-02 0. -1.
    10030    2    1    2    0    0  0.00000000000E+00  0.00000000000E+00 -0.99620447822E+02  0.60881013670E+03  0.60060431977E+03 0.  0.
        4    1    3    3  502    0  0.10387664560E+03  0.18067750375E+02 -0.33483328139E+03  0.35104378692E+03  0.12699999809E+01 0. -1.
       -4    1    3    3    0  502 -0.10387664560E+03 -0.18067750375E+02  0.23521283357E+03  0.25776634978E+03  0.12699999809E+01 0.  1.
</event>
<event>
 5   0  0.1479385E-03  0.5996895E+03  0.7818609E-02  0.9906050E-01
        1   -1    0    0  501    0  0.00000000000E+00  0.00000000000E+00  0.66072258927E+03  0.66072258929E+03  0.50400001928E-02 0. -1.
       -1   -1    0    0    0  501  0.00000000000E+00  0.00000000000E+00 -0.13607355631E+03  0.13607355641E+03  0.50400001928E-02 0.  1.
    10030    2    1    2    0    0  0.00000000000E+00  0.00000000000E+00  0.52464903296E+03  0.79679614570E+03  0.59968949467E+03 0.  0.
        3    1    3    3  502    0 -0.17566773772E+03 -0.16916354394E+02 -0.59758175472E+02  0.18632328587E+03  0.10100000352E+00 0.  1.
       -3    1    3    3    0  502  0.17566773772E+03  0.16916354394E+02  0.58440720843E+03  0.61047285983E+03  0.10100000352E+00 0. -1.
</event>
<event>
 5   0  0.2406307E-03  0.5998083E+03  0.7818609E-02  0.9905804E-01
       -2   -1    0    0    0  501  0.00000000000E+00  0.00000000000E+00  0.15171452218E+03  0.15171452221E+03  0.25500000920E-02 0. -1.
        2   -1    0    0  501    0  0.00000000000E+00  0.00000000000E+00 -0.59284038234E+03  0.59284038235E+03  0.25500000920E-02 0.  1.
    10030    2    1    2    0    0  0.00000000000E+00  0.00000000000E+00 -0.44112586015E+03  0.74455490455E+03  0.59980828720E+03 0.  0.
        5    1    3    3  502    0  0.28557973859E+03  0.52782025717E+02 -0.31327789474E+03  0.42720821465E+03  0.46999998093E+01 0.  1.
       -5    1    3    3    0  502 -0.28557973859E+03 -0.52782025717E+02 -0.12784796542E+03  0.31734668990E+03  0.46999998093E+01 0. -1.
</event>
<event>
 5   0  0.1392854E-03  0.6000059E+03  0.7818609E-02  0.9905394E-01
       -1   -1    0    0    0  501  0.00000000000E+00  0.00000000000E+00  0.14522788609E+03  0.14522788618E+03  0.50400001928E-02 0. -1.
        1   -1    0    0  501    0  0.00000000000E+00  0.00000000000E+00 -0.61972781168E+03  0.61972781170E+03  0.50400001928E-02 0.  1.
    10030    2    1    2    0    0  0.00000000000E+00  0.00000000000E+00 -0.47449992559E+03  0.76495569788E+03  0.60000586691E+03 0.  0.
        4    1    3    3  502    0  0.21826172951E+02  0.29915039526E+03 -0.22994765915E+03  0.37794824998E+03  0.12699999809E+01 0.  1.
       -4    1    3    3    0  502 -0.21826172951E+02 -0.29915039526E+03 -0.24455226644E+03  0.38700744790E+03  0.12699999809E+01 0. -1.
</event>
<event>
 5   0  0.1418763E-03  0.6001836E+03  0.7818609E-02  0.9905025E-01
       -1   -1    0    0    0  501  0.00000000000E+00  0.00000000000E+00  0.45294190283E+03  0.45294190285E+03  0.50400001928E-02 0. -1.
        1   -1    0    0  501    0  0.00000000000E+00  0.00000000000E+00 -0.19882261469E+03  0.19882261475E+03  0.50400001928E-02 0.  1.
    10030    2    1    2    0    0  0.00000000000E+00  0.00000000000E+00  0.25411928814E+03  0.65176451761E+03  0.60018361674E+03 0.  0.
        5    1    3    3  502    0  0.53776299211E+02 -0.12163152774E+03  0.41914951330E+03  0.43976644187E+03  0.46999998093E+01 0. -1.
       -5    1    3    3    0  502 -0.53776299211E+02  0.12163152774E+03 -0.16503022517E+03  0.21199807573E+03  0.46999998093E+01 0.  1.
</event>
<event>
 5   0  0.2406307E-03  0.6006440E+03  0.7818609E-02  0.9904071E-01
       -2   -1    0    0    0  501  0.00000000000E+00  0.00000000000E+00  0.13069504153E+03  0.13069504156E+03  0.25500000920E-02 0. -1.
        2   -1    0    0  501    0  0.00000000000E+00  0.00000000000E+00 -0.69010508840E+03  0.69010508841E+03  0.25500000920E-02 0.  1.
    10030    2    1    2    0    0  0.00000000000E+00  0.00000000000E+00 -0.55941004687E+03  0.82080012997E+03  0.60064403170E+03 0.  0.
        5    1    3    3  502    0 -0.13403707157E+03 -0.26812175510E+03 -0.30399747885E+03  0.42695640205E+03  0.46999998093E+01 0. -1.
       -5    1    3    3    0  502  0.13403707157E+03  0.26812175510E+03 -0.25541256802E+03  0.39384372791E+03  0.46999998093E+01 0.  1.
</event>
<event>
 5   0  0.1418763E-03  0.6010689E+03  0.7818609E-02  0.9903191E-01
       -1   -1    0    0    0  501  0.00000000000E+00  0.00000000000E+00  0.21027212648E+03  0.21027212654E+03  0.50400001928E-02 0. -1.
        1   -1    0    0  501    0  0.00000000000E+00  0.00000000000E+00 -0.42954311809E+03  0.42954311812E+03  0.50400001928E-02 0.  1.
    10030    2    1    2    0    0  0.00000000000E+00  0.00000000000E+00 -0.21927099161E+03  0.63981524466E+03  0.60106886422E+03 0.  0.
        5    1    3    3  502    0 -0.26241372235E+03  0.12084352682E+03 -0.19763722372E+03  0.35006668200E+03  0.46999998093E+01 0.  1.
       -5    1    3    3    0  502  0.26241372235E+03 -0.12084352682E+03 -0.21633767884E+02  0.28974856266E+03  0.46999998093E+01 0. -1.
</event>
<event>
 5   0  0.2324616E-03  0.6002012E+03  0.7818609E-02  0.9904989E-01
       -2   -1    0    0    0  501  0.00000000000E+00  0.00000000000E+00  0.15633150504E+03  0.15633150506E+03  0.25500000920E-02 0.  1.
        2   -1    0    0  501    0  0.00000000000E+00  0.00000000000E+00 -0.57608587142E+03  0.57608587142E+03  0.25500000920E-02 0. -1.
    10030    2    1    2    0    0  0.00000000000E+00  0.00000000000E+00 -0.41975436638E+03  0.73241737648E+03  0.60020120400E+03 0.  0.
        4    1    3    3  502    0  0.47637487854E+02  0.10130519893E+02  0.15147350784E+03  0.15911566284E+03  0.12699999809E+01 0.  1.
       -4    1    3    3    0  502 -0.47637487854E+02 -0.10130519893E+02 -0.57122787422E+03  0.57330171364E+03  0.12699999809E+01 0. -1.
</event>
<event>
 5   0  0.1416315E-03  0.6000252E+03  0.7818609E-02  0.9905354E-01
       -1   -1    0    0    0  501  0.00000000000E+00  0.00000000000E+00  0.94772577263E+02  0.94772577397E+02  0.50400001928E-02 0.  1.
        1   -1    0    0  501    0  0.00000000000E+00  0.00000000000E+00 -0.94972164665E+03  0.94972164667E+03  0.50400001928E-02 0. -1.
    10030    2    1    2    0    0  0.00000000000E+00  0.00000000000E+00 -0.85494906939E+03  0.10444942241E+04  0.60002522685E+03 0.  0.
        2    1    3    3  502    0  0.15593049836E+03 -0.17502218993E+02 -0.87259952171E+03  0.88659493191E+03  0.25500000920E-02 0. -1.
       -2    1    3    3    0  502 -0.15593049836E+03  0.17502218993E+02  0.17650452320E+02  0.15789929216E+03  0.25500000920E-02 0.  1.
</event>
<event>
 5   0  0.1416315E-03  0.6000436E+03  0.7818609E-02  0.9905316E-01
        1   -1    0    0  501    0  0.00000000000E+00  0.00000000000E+00  0.72204465659E+03  0.72204465661E+03  0.50400001928E-02 0.  1.
       -1   -1    0    0    0  501  0.00000000000E+00  0.00000000000E+00 -0.12466413063E+03  0.12466413073E+03  0.50400001928E-02 0. -1.
    10030    2    1    2    0    0  0.00000000000E+00  0.00000000000E+00  0.59738052596E+03  0.84670878734E+03  0.60004356322E+03 0.  0.
        2    1    3    3  502    0 -0.58201437823E+02 -0.15062041111E+03  0.65549838192E+03  0.67509410034E+03  0.25500000920E-02 0.  1.
       -2    1    3    3    0  502  0.58201437823E+02  0.15062041111E+03 -0.58117855961E+02  0.17161468700E+03  0.25500000920E-02 0. -1.
</event>
<event>
 5   0  0.1423430E-03  0.6001150E+03  0.7818609E-02  0.9905167E-01
        1   -1    0    0  501    0  0.00000000000E+00  0.00000000000E+00  0.57862893078E+03  0.57862893080E+03  0.50400001928E-02 0. -1.
       -1   -1    0    0    0  501  0.00000000000E+00  0.00000000000E+00 -0.15559973009E+03  0.15559973017E+03  0.50400001928E-02 0.  1.
    10030    2    1    2    0    0  0.00000000000E+00  0.00000000000E+00  0.42302920069E+03  0.73422866097E+03  0.60011500727E+03 0.  0.
        1    1    3    3  502    0 -0.47230006009E+02  0.25563218073E+03  0.39485713912E+03  0.47274797264E+03  0.50400001928E-02 0. -1.
       -1    1    3    3    0  502  0.47230006009E+02 -0.25563218073E+03  0.28172061572E+02  0.26148068833E+03  0.50400001928E-02 0.  1.
</event>
<event>
 5   0  0.2346281E-03  0.6003566E+03  0.7818609E-02  0.9904667E-01
       -2   -1    0    0    0  501  0.00000000000E+00  0.00000000000E+00  0.80378962160E+02  0.80378962200E+02  0.25500000920E-02 0.  1.
        2   -1    0    0  501    0  0.00000000000E+00  0.00000000000E+00 -0.11210271414E+04  0.11210271414E+04  0.25500000920E-02 0. -1.
    10030    2    1    2    0    0  0.00000000000E+00  0.00000000000E+00 -0.10406481792E+04  0.12014061036E+04  0.60035655473E+03 0.  0.
        3    1    3    3  502    0 -0.64618752349E+02 -0.14027242049E+03 -0.52258331425E+01  0.15452913848E+03  0.10100000352E+00 0.  1.
       -3    1    3    3    0  502  0.64618752349E+02  0.14027242049E+03 -0.10354223461E+04  0.10468769651E+04  0.10100000352E+00 0. -1.
</event>
<event>
 5   0  0.1416315E-03  0.5999814E+03  0.7818609E-02  0.9905445E-01
       -1   -1    0    0    0  501  0.00000000000E+00  0.00000000000E+00  0.89168946229E+02  0.89168946372E+02  0.50400001928E-02 0. -1.
        1   -1    0    0  501    0  0.00000000000E+00  0.00000000000E+00 -0.10092574661E+04  0.10092574661E+04  0.50400001928E-02 0.  1.
    10030    2    1    2    0    0  0.00000000000E+00  0.00000000000E+00 -0.92008851988E+03  0.10984264125E+04  0.59998141575E+03 0.  0.
        2    1    3    3  502    0 -0.20371396487E+03 -0.13216171187E+03 -0.78253136256E+03  0.81934207201E+03  0.25500000920E-02 0.  1.
       -2    1    3    3    0  502  0.20371396487E+03  0.13216171187E+03 -0.13755715733E+03  0.27908434049E+03  0.25500000920E-02 0. -1.
</event>
<event>
 5   0  0.9496750E-04  0.6006832E+03  0.7818609E-02  0.9903990E-01
        3   -1    0    0  501    0  0.00000000000E+00  0.00000000000E+00  0.60955976214E+03  0.60955977051E+03  0.10100000352E+00 0. -1.
       -3   -1    0    0    0  501  0.00000000000E+00  0.00000000000E+00 -0.14798395114E+03  0.14798398561E+03  0.10100000352E+00 0.  1.
    10030    2    1    2    0    0  0.00000000000E+00  0.00000000000E+00  0.46157581099E+03  0.75754375612E+03  0.60068320531E+03 0.  0.
        2    1    3    3  502    0 -0.74672342163E+02  0.14790244190E+03  0.54671210671E+03  0.57126632899E+03  0.25500000920E-02 0. -1.
       -2    1    3    3    0  502  0.74672342163E+02 -0.14790244190E+03 -0.85136295714E+02  0.18627742713E+03  0.25500000920E-02 0.  1.
</event>
<event>
 5   0  0.1416315E-03  0.5999699E+03  0.7818609E-02  0.9905468E-01
        1   -1    0    0  501    0  0.00000000000E+00  0.00000000000E+00  0.18122393070E+04  0.18122393070E+04  0.50400001928E-02 0.  1.
       -1   -1    0    0    0  501  0.00000000000E+00  0.00000000000E+00 -0.49657335272E+02  0.49657335528E+02  0.50400001928E-02 0. -1.
    10030    2    1    2    0    0  0.00000000000E+00  0.00000000000E+00  0.17625819717E+04  0.18618966425E+04  0.59996991626E+03 0.  0.
        2    1    3    3  502    0  0.15876957088E+02 -0.15321358773E+03  0.82438599522E+02  0.17470719484E+03  0.25500000920E-02 0. -1.
       -2    1    3    3    0  502 -0.15876957088E+02  0.15321358773E+03  0.16801433722E+04  0.16871894477E+04  0.25500000920E-02 0.  1.
</event>
<event>
 5   0  0.2406307E-03  0.5997122E+03  0.7818609E-02  0.9906003E-01
       -2   -1    0    0    0  501  0.00000000000E+00  0.00000000000E+00  0.40231917668E+03  0.40231917669E+03  0.25500000920E-02 0. -1.
        2   -1    0    0  501    0  0.00000000000E+00  0.00000000000E+00 -0.22348844867E+03  0.22348844868E+03  0.25500000920E-02 0.  1.
    10030    2    1    2    0    0  0.00000000000E+00  0.00000000000E+00  0.17883072801E+03  0.62580762537E+03  0.59971222657E+03 0.  0.
        5    1    3    3  502    0 -0.16953006218E+03  0.24149358625E+03  0.33883159225E+02  0.29703493508E+03  0.46999998093E+01 0.  1.
       -5    1    3    3    0  502  0.16953006218E+03 -0.24149358625E+03  0.14494756879E+03  0.32877269029E+03  0.46999998093E+01 0. -1.
</event>
<event>
 5   0  0.2324616E-03  0.5998179E+03  0.7818609E-02  0.9905784E-01
        2   -1    0    0  501    0  0.00000000000E+00  0.00000000000E+00  0.24243610937E+03  0.24243610938E+03  0.25500000920E-02 0.  1.
       -2   -1    0    0    0  501  0.00000000000E+00  0.00000000000E+00 -0.37100651378E+03  0.37100651379E+03  0.25500000920E-02 0. -1.
    10030    2    1    2    0    0  0.00000000000E+00  0.00000000000E+00 -0.12857040442E+03  0.61344262317E+03  0.59981789156E+03 0.  0.
        4    1    3    3  502    0  0.31798688642E+02 -0.11345653317E+03  0.21776948734E+03  0.24760594507E+03  0.12699999809E+01 0.  1.
       -4    1    3    3    0  502 -0.31798688642E+02  0.11345653317E+03 -0.34633989176E+03  0.36583667810E+03  0.12699999809E+01 0. -1.
</event>
<event>
 5   0  0.1416315E-03  0.6002514E+03  0.7818609E-02  0.9904885E-01
       -1   -1    0    0    0  501  0.00000000000E+00  0.00000000000E+00  0.47670129889E+03  0.47670129892E+03  0.50400001928E-02 0. -1.
        1   -1    0    0  501    0  0.00000000000E+00  0.00000000000E+00 -0.18895574563E+03  0.18895574570E+03  0.50400001928E-02 0.  1.
    10030    2    1    2    0    0  0.00000000000E+00  0.00000000000E+00  0.28774555326E+03  0.66565704461E+03  0.60025144533E+03 0.  0.
        2    1    3    3  502    0 -0.26335194880E+03  0.88956749043E+01  0.30320144052E+03  0.40170199839E+03  0.25500000920E-02 0. -1.
       -2    1    3    3    0  502  0.26335194880E+03 -0.88956749043E+01 -0.15455887263E+02  0.26395504622E+03  0.25500000920E-02 0.  1.
</event>
<event>
 5   0  0.1423430E-03  0.5996159E+03  0.7818609E-02  0.9906203E-01
        1   -1    0    0  501    0  0.00000000000E+00  0.00000000000E+00  0.16887396002E+03  0.16887396009E+03  0.50400001928E-02 0.  1.
       -1   -1    0    0    0  501  0.00000000000E+00  0.00000000000E+00 -0.53225977611E+03  0.53225977613E+03  0.50400001928E-02 0. -1.
    10030    2    1    2    0    0  0.00000000000E+00  0.00000000000E+00 -0.36338581609E+03  0.70113373622E+03  0.59961593102E+03 0.  0.
        1    1    3    3  502    0  0.52528421841E+02  0.84292615072E+02  0.14907844291E+03  0.17913364347E+03  0.50400001928E-02 0.  1.
       -1    1    3    3    0  502 -0.52528421841E+02 -0.84292615072E+02 -0.51246425900E+03  0.52200009275E+03  0.50400001928E-02 0. -1.
</event>
<event>
 5   0  0.1479385E-03  0.6000868E+03  0.7818609E-02  0.9905226E-01
       -1   -1    0    0    0  501  0.00000000000E+00  0.00000000000E+00  0.33395671907E+03  0.33395671910E+03  0.50400001928E-02 0.  1.
        1   -1    0    0  501    0  0.00000000000E+00  0.00000000000E+00 -0.26957397937E+03  0.26957397942E+03  0.50400001928E-02 0. -1.
    10030    2    1    2    0    0  0.00000000000E+00  0.00000000000E+00  0.64382739696E+02  0.60353069852E+03  0.60008679946E+03 0.  0.
        3    1    3    3  502    0 -0.14679535552E+03 -0.45114864931E+01 -0.23095270417E+03  0.27369397450E+03  0.10100000352E+00 0. -1.
       -3    1    3    3    0  502  0.14679535552E+03  0.45114864931E+01  0.29533544386E+03  0.32983672402E+03  0.10100000352E+00 0.  1.
</event>
<event>
 5   0  0.2313168E-03  0.6001337E+03  0.7818609E-02  0.9905129E-01
       -2   -1    0    0    0  501  0.00000000000E+00  0.00000000000E+00  0.70127600514E+02  0.70127600561E+02  0.25500000920E-02 0. -1.
        2   -1    0    0  501    0  0.00000000000E+00  0.00000000000E+00 -0.12839467201E+04  0.12839467201E+04  0.25500000920E-02 0.  1.
    10030    2    1    2    0    0  0.00000000000E+00  0.00000000000E+00 -0.12138191196E+04  0.13540743207E+04  0.60013366079E+03 0.  0.
        2    1    3    3  502    0  0.12401978336E+03  0.12774038318E+03 -0.61925690602E+02  0.18850279394E+03  0.25500000920E-02 0. -1.
       -2    1    3    3    0  502 -0.12401978336E+03 -0.12774038318E+03 -0.11518934290E+04  0.11655715267E+04  0.25500000920E-02 0.  1.
</event>
<event>
 5   0  0.1423430E-03  0.5993688E+03  0.7818609E-02  0.9906716E-01
       -1   -1    0    0    0  501  0.00000000000E+00  0.00000000000E+00  0.16647275572E+03  0.16647275580E+03  0.50400001928E-02 0.  1.
        1   -1    0    0  501    0  0.00000000000E+00  0.00000000000E+00 -0.53949208919E+03  0.53949208921E+03  0.50400001928E-02 0. -1.
    10030    2    1    2    0    0  0.00000000000E+00  0.00000000000E+00 -0.37301933346E+03  0.70596484501E+03  0.59936878402E+03 0.  0.
        1    1    3    3  502    0  0.12449458103E+03 -0.62411752272E+02  0.12604537066E+03  0.18783387079E+03  0.50400001928E-02 0.  1.
       -1    1    3    3    0  502 -0.12449458103E+03  0.62411752272E+02 -0.49906470412E+03  0.51813097422E+03  0.50400001928E-02 0. -1.
</event>
<event>
 5   0  0.2406307E-03  0.5999103E+03  0.7818609E-02  0.9905592E-01
        2   -1    0    0  501    0  0.00000000000E+00  0.00000000000E+00  0.54125919289E+03  0.54125919290E+03  0.25500000920E-02 0.  1.
       -2   -1    0    0    0  501  0.00000000000E+00  0.00000000000E+00 -0.16622921074E+03  0.16622921076E+03  0.25500000920E-02 0. -1.
    10030    2    1    2    0    0  0.00000000000E+00  0.00000000000E+00  0.37502998215E+03  0.70748840366E+03  0.59991028813E+03 0.  0.
        5    1    3    3  502    0  0.18004565691E+03 -0.23072195306E+03  0.11016412098E+03  0.31274155743E+03  0.46999998093E+01 0. -1.
       -5    1    3    3    0  502 -0.18004565691E+03  0.23072195306E+03  0.26486586117E+03  0.39474684623E+03  0.46999998093E+01 0.  1.
</event>
<event>
 5   0  0.1423430E-03  0.5999595E+03  0.7818609E-02  0.9905490E-01
       -1   -1    0    0    0  501  0.00000000000E+00  0.00000000000E+00  0.43310012345E+03  0.43310012348E+03  0.50400001928E-02 0. -1.
        1   -1    0    0  501    0  0.00000000000E+00  0.00000000000E+00 -0.20777612425E+03  0.20777612431E+03  0.50400001928E-02 0.  1.
    10030    2    1    2    0    0  0.00000000000E+00  0.00000000000E+00  0.22532399920E+03  0.64087624779E+03  0.59995954894E+03 0.  0.
        1    1    3    3  502    0 -0.20653132140E+03 -0.14644997450E+02  0.34453306780E+03  0.40196106466E+03  0.50400001928E-02 0. -1.
       -1    1    3    3    0  502  0.20653132140E+03  0.14644997450E+02 -0.11920906860E+03  0.23891518313E+03  0.50400001928E-02 0.  1.
</event>
<event>
 5   0  0.2313168E-03  0.5999732E+03  0.7818609E-02  0.9905462E-01
        2   -1    0    0  501    0  0.00000000000E+00  0.00000000000E+00  0.51084692078E+03  0.51084692078E+03  0.25500000920E-02 0.  1.
       -2   -1    0    0    0  501  0.00000000000E+00  0.00000000000E+00 -0.17616225627E+03  0.17616225629E+03  0.25500000920E-02 0. -1.
    10030    2    1    2    0    0  0.00000000000E+00  0.00000000000E+00  0.33468466450E+03  0.68700917707E+03  0.59997315334E+03 0.  0.
        2    1    3    3  502    0  0.63694212806E+02  0.11917318947E+03 -0.13934048484E+03  0.19410041874E+03  0.25500000920E-02 0. -1.
       -2    1    3    3    0  502 -0.63694212806E+02 -0.11917318947E+03  0.47402514934E+03  0.49290875834E+03  0.25500000920E-02 0.  1.
</event>
<event>
 5   0  0.1418763E-03  0.6007946E+03  0.7818609E-02  0.9903759E-01
        1   -1    0    0  501    0  0.00000000000E+00  0.00000000000E+00  0.34770187738E+03  0.34770187741E+03  0.50400001928E-02 0. -1.
       -1   -1    0    0    0  501  0.00000000000E+00  0.00000000000E+00 -0.25952845770E+03  0.25952845775E+03  0.50400001928E-02 0.  1.
    10030    2    1    2    0    0  0.00000000000E+00  0.00000000000E+00  0.88173419675E+02  0.60723033516E+03  0.60079458054E+03 0.  0.
        5    1    3    3  502    0 -0.29011418642E+01  0.69859131473E+02 -0.25115148521E+03  0.26074484347E+03  0.46999998093E+01 0.  1.
       -5    1    3    3    0  502  0.29011418642E+01 -0.69859131473E+02  0.33932490489E+03  0.34648549169E+03  0.46999998093E+01 0. -1.
</event>
<event>
 5   0  0.2406307E-03  0.5997653E+03  0.7818609E-02  0.9905893E-01
       -2   -1    0    0    0  501  0.00000000000E+00  0.00000000000E+00  0.20257405394E+03  0.20257405395E+03  0.25500000920E-02 0.  1.
        2   -1    0    0  501    0  0.00000000000E+00  0.00000000000E+00 -0.44393442360E+03  0.44393442361E+03  0.25500000920E-02 0. -1.
    10030    2    1    2    0    0  0.00000000000E+00  0.00000000000E+00 -0.24136036967E+03  0.64650847756E+03  0.59976527368E+03 0.  0.
        5    1    3    3  502    0 -0.25924702594E+03 -0.10295113889E+03 -0.23925091342E+03  0.36752013146E+03  0.46999998093E+01 0. -1.
       -5    1    3    3    0  502  0.25924702594E+03  0.10295113889E+03 -0.21094562503E+01  0.27898834611E+03  0.46999998093E+01 0.  1.
</event>
<event>
 5   0  0.1423430E-03  0.5972875E+03  0.7818609E-02  0.9911050E-01
        1   -1    0    0  501    0  0.00000000000E+00  0.00000000000E+00  0.42710418982E+03  0.42710418985E+03  0.50400001928E-02 0.  1.
       -1   -1    0    0    0  501  0.00000000000E+00  0.00000000000E+00 -0.20882045726E+03  0.20882045732E+03  0.50400001928E-02 0. -1.
    10030    2    1    2    0    0  0.00000000000E+00  0.00000000000E+00  0.21828373256E+03  0.63592464717E+03  0.59728750948E+03 0.  0.
        1    1    3    3  502    0  0.89325122755E+02 -0.17871176776E+02  0.41195097371E+03  0.42190278653E+03  0.50400001928E-02 0.  1.
       -1    1    3    3    0  502 -0.89325122755E+02  0.17871176776E+02 -0.19366724115E+03  0.21402186065E+03  0.50400001928E-02 0. -1.
</event>
<event>
 5   0  0.1416315E-03  0.5998542E+03  0.7818609E-02  0.9905709E-01
        1   -1    0    0  501    0  0.00000000000E+00  0.00000000000E+00  0.89759783528E+03  0.89759783530E+03  0.50400001928E-02 0. -1.
       -1   -1    0    0    0  501  0.00000000000E+00  0.00000000000E+00 -0.10021890013E+03  0.10021890025E+03  0.50400001928E-02 0.  1.
    10030    2    1    2    0    0  0.00000000000E+00  0.00000000000E+00  0.79737893516E+03  0.99781673555E+03  0.59985420855E+03 0.  0.
        2    1    3    3  502    0 -0.26481373812E+03  0.12770904667E+03  0.49738513322E+03  0.57777840670E+03  0.25500000920E-02 0. -1.
       -2    1    3    3    0  502  0.26481373812E+03 -0.12770904667E+03  0.29999380193E+03  0.42003832885E+03  0.25500000920E-02 0.  1.
</event>
<event>
 5   0  0.2346281E-03  0.6014366E+03  0.7818609E-02  0.9902430E-01
        2   -1    0    0  501    0  0.00000000000E+00  0.00000000000E+00  0.12940709631E+04  0.12940709631E+04  0.25500000920E-02 0.  1.
       -2   -1    0    0    0  501  0.00000000000E+00  0.00000000000E+00 -0.69881397159E+02  0.69881397205E+02  0.25500000920E-02 0. -1.
    10030    2    1    2    0    0  0.00000000000E+00  0.00000000000E+00  0.12241895659E+04  0.13639523603E+04  0.60143657008E+03 0.  0.
        3    1    3    3  502    0 -0.24724453701E+03 -0.16556525447E+03  0.51350930482E+03  0.59349265447E+03  0.10100000352E+00 0. -1.
       -3    1    3    3    0  502  0.24724453701E+03  0.16556525447E+03  0.71068026110E+03  0.77045970582E+03  0.10100000352E+00 0.  1.
</event>
<event>
 5   0  0.1479385E-03  0.6012306E+03  0.7818609E-02  0.9902856E-01
       -1   -1    0    0    0  501  0.00000000000E+00  0.00000000000E+00  0.12794713676E+04  0.12794713676E+04  0.50400001928E-02 0.  1.
        1   -1    0    0  501    0  0.00000000000E+00  0.00000000000E+00 -0.70630395428E+02  0.70630395607E+02  0.50400001928E-02 0. -1.
    10030    2    1    2    0    0  0.00000000000E+00  0.00000000000E+00  0.12088409722E+04  0.13501017632E+04  0.60123063381E+03 0.  0.
        3    1    3    3  502    0 -0.57409687509E+02 -0.17710622555E+03  0.11344262186E+04  0.11496022542E+04  0.10100000352E+00 0.  1.
       -3    1    3    3    0  502  0.57409687509E+02  0.17710622555E+03  0.74414753594E+02  0.20049950898E+03  0.10100000352E+00 0. -1.
</event>
<event>
 5   0  0.9496750E-04  0.6023676E+03  0.7818609E-02  0.9900506E-01
        3   -1    0    0  501    0  0.00000000000E+00  0.00000000000E+00  0.54919354422E+03  0.54919355351E+03  0.10100000352E+00 0.  1.
       -3   -1    0    0    0  501  0.00000000000E+00  0.00000000000E+00 -0.16517248419E+03  0.16517251507E+03  0.10100000352E+00 0. -1.
    10030    2    1    2    0    0  0.00000000000E+00  0.00000000000E+00  0.38402106004E+03  0.71436606857E+03  0.60236758327E+03 0.  0.
        5    1    3    3  502    0  0.29629910953E+02  0.79007541410E+02  0.53484385600E+03  0.54147960582E+03  0.46999998093E+01 0.  1.
       -5    1    3    3    0  502 -0.29629910953E+02 -0.79007541410E+02 -0.15082279596E+03  0.17288646275E+03  0.46999998093E+01 0. -1.
</event>
<event>
 5   0  0.2421210E-03  0.6002589E+03  0.7818609E-02  0.9904869E-01
       -2   -1    0    0    0  501  0.00000000000E+00  0.00000000000E+00  0.68041838738E+02  0.68041838786E+02  0.25500000920E-02 0.  1.
        2   -1    0    0  501    0  0.00000000000E+00  0.00000000000E+00 -0.13238572745E+04  0.13238572745E+04  0.25500000920E-02 0. -1.
    10030    2    1    2    0    0  0.00000000000E+00  0.00000000000E+00 -0.12558154358E+04  0.13918991133E+04  0.60025888822E+03 0.  0.
        1    1    3    3  502    0 -0.54733184781E+02  0.16696005894E+03 -0.11921337516E+04  0.12050121429E+04  0.50400001928E-02 0. -1.
       -1    1    3    3    0  502  0.54733184781E+02 -0.16696005894E+03 -0.63681684240E+02  0.18688697047E+03  0.50400001928E-02 0.  1.
</event>
<event>
 5   0  0.1423430E-03  0.6000429E+03  0.7818609E-02  0.9905317E-01
        1   -1    0    0  501    0  0.00000000000E+00  0.00000000000E+00  0.42601637450E+03  0.42601637453E+03  0.50400001928E-02 0. -1.
       -1   -1    0    0    0  501  0.00000000000E+00  0.00000000000E+00 -0.21128968583E+03  0.21128968589E+03  0.50400001928E-02 0.  1.
    10030    2    1    2    0    0  0.00000000000E+00  0.00000000000E+00  0.21472668867E+03  0.63730606043E+03  0.60004288499E+03 0.  0.
        1    1    3    3  502    0  0.60774516274E+02 -0.28503349365E+03  0.18302810989E+03  0.34414665967E+03  0.50400001928E-02 0. -1.
       -1    1    3    3    0  502 -0.60774516274E+02  0.28503349365E+03  0.31698578787E+02  0.29315940076E+03  0.50400001928E-02 0.  1.
</event>
<event>
 5   0  0.2313168E-03  0.6017672E+03  0.7818609E-02  0.9901746E-01
       -2   -1    0    0    0  501  0.00000000000E+00  0.00000000000E+00  0.98305598237E+02  0.98305598270E+02  0.25500000920E-02 0.  1.
        2   -1    0    0  501    0  0.00000000000E+00  0.00000000000E+00 -0.92091345294E+03  0.92091345294E+03  0.25500000920E-02 0. -1.
    10030    2    1    2    0    0  0.00000000000E+00  0.00000000000E+00 -0.82260785470E+03  0.10192190512E+04  0.60176722388E+03 0.  0.
        2    1    3    3  502    0  0.12295030911E+03  0.95328954054E+02  0.24893138390E+02  0.15755651791E+03  0.25500000920E-02 0.  1.
       -2    1    3    3    0  502 -0.12295030911E+03 -0.95328954054E+02 -0.84750099309E+03  0.86166253330E+03  0.25500000920E-02 0. -1.
</event>
<event>
 5   0  0.1479385E-03  0.5999671E+03  0.7818609E-02  0.9905474E-01
       -1   -1    0    0    0  501  0.00000000000E+00  0.00000000000E+00  0.14028573687E+03  0.14028573696E+03  0.50400001928E-02 0. -1.
        1   -1    0    0  501    0  0.00000000000E+00  0.00000000000E+00 -0.64147749991E+03  0.64147749993E+03  0.50400001928E-02 0.  1.
    10030    2    1    2    0    0  0.00000000000E+00  0.00000000000E+00 -0.50119176304E+03  0.78176323690E+03  0.59996714512E+03 0.  0.
        3    1    3    3  502    0  0.83717785695E+02  0.21859845393E+03 -0.61427800413E+01  0.23416168698E+03  0.10100000352E+00 0. -1.
       -3    1    3    3    0  502 -0.83717785695E+02 -0.21859845393E+03 -0.49504898300E+03  0.54760154992E+03  0.10100000352E+00 0.  1.
</event>
<event>
 5   0  0.2324616E-03  0.5997034E+03  0.7818609E-02  0.9906022E-01
       -2   -1    0    0    0  501  0.00000000000E+00  0.00000000000E+00  0.15346756954E+03  0.15346756956E+03  0.25500000920E-02 0.  1.
        2   -1    0    0  501    0  0.00000000000E+00  0.00000000000E+00 -0.58586340380E+03  0.58586340380E+03  0.25500000920E-02 0. -1.
    10030    2    1    2    0    0  0.00000000000E+00  0.00000000000E+00 -0.43239583426E+03  0.73933097337E+03  0.59970336892E+03 0.  0.
        4    1    3    3  502    0  0.18413949193E+01 -0.25878352952E+03 -0.40290973085E+03  0.47886341477E+03  0.12699999809E+01 0. -1.
       -4    1    3    3    0  502 -0.18413949193E+01  0.25878352952E+03 -0.29486103407E+02  0.26046755860E+03  0.12699999809E+01 0.  1.
</event>
<event>
 5   0  0.2421210E-03  0.6000587E+03  0.7818609E-02  0.9905284E-01
        2   -1    0    0  501    0  0.00000000000E+00  0.00000000000E+00  0.29128491680E+03  0.29128491682E+03  0.25500000920E-02 0. -1.
       -2   -1    0    0    0  501  0.00000000000E+00  0.00000000000E+00 -0.30903624372E+03  0.30903624373E+03  0.25500000920E-02 0.  1.
    10030    2    1    2    0    0  0.00000000000E+00  0.00000000000E+00 -0.17751326920E+02  0.60032116055E+03  0.60005865230E+03 0.  0.
        1    1    3    3  502    0  0.23887472657E+03 -0.18146521419E+03 -0.14058428844E+02  0.30031383318E+03  0.50400001928E-02 0. -1.
       -1    1    3    3    0  502 -0.23887472657E+03  0.18146521419E+03 -0.36928980755E+01  0.30000732737E+03  0.50400001928E-02 0.  1.
</event>
<event>
 5   0  0.1479385E-03  0.5996756E+03  0.7818609E-02  0.9906079E-01
       -1   -1    0    0    0  501  0.00000000000E+00  0.00000000000E+00  0.59976429338E+02  0.59976429550E+02  0.50400001928E-02 0.  1.
        1   -1    0    0  501    0  0.00000000000E+00  0.00000000000E+00 -0.14989674290E+04  0.14989674290E+04  0.50400001928E-02 0. -1.
    10030    2    1    2    0    0  0.00000000000E+00  0.00000000000E+00 -0.14389909997E+04  0.15589438586E+04  0.59967562652E+03 0.  0.
        3    1    3    3  502    0  0.20047005208E+03 -0.19178527664E+03 -0.42385663028E+03  0.50658097808E+03  0.10100000352E+00 0.  1.
       -3    1    3    3    0  502 -0.20047005208E+03  0.19178527664E+03 -0.10151343694E+04  0.10523628805E+04  0.10100000352E+00 0. -1.
</event>
<event>
 5   0  0.1418763E-03  0.5998731E+03  0.7818609E-02  0.9905669E-01
       -1   -1    0    0    0  501  0.00000000000E+00  0.00000000000E+00  0.10194292877E+03  0.10194292890E+03  0.50400001928E-02 0.  1.
        1   -1    0    0  501    0  0.00000000000E+00  0.00000000000E+00 -0.88247361703E+03  0.88247361704E+03  0.50400001928E-02 0. -1.
    10030    2    1    2    0    0  0.00000000000E+00  0.00000000000E+00 -0.78053068826E+03  0.98441654594E+03  0.59987313710E+03 0.  0.
        5    1    3    3  502    0 -0.15537729564E+03 -0.21470888759E+02  0.29202101405E+02  0.15961815620E+03  0.46999998093E+01 0.  1.
       -5    1    3    3    0  502  0.15537729564E+03  0.21470888759E+02 -0.80973278966E+03  0.82479838974E+03  0.46999998093E+01 0. -1.
</event>
<event>
 5   0  0.1479385E-03  0.6001100E+03  0.7818609E-02  0.9905178E-01
       -1   -1    0    0    0  501  0.00000000000E+00  0.00000000000E+00  0.18891401970E+03  0.18891401976E+03  0.50400001928E-02 0. -1.
        1   -1    0    0  501    0  0.00000000000E+00  0.00000000000E+00 -0.47658184024E+03  0.47658184026E+03  0.50400001928E-02 0.  1.
    10030    2    1    2    0    0  0.00000000000E+00  0.00000000000E+00 -0.28766782054E+03  0.66549586003E+03  0.60010996054E+03 0.  0.
        3    1    3    3  502    0  0.16899115670E+03  0.18222795506E+03  0.42615760705E+02  0.25215303272E+03  0.10100000352E+00 0. -1.
       -3    1    3    3    0  502 -0.16899115670E+03 -0.18222795506E+03 -0.33028358125E+03  0.41334282731E+03  0.10100000352E+00 0.  1.
</event>
<event>
 5   0  0.1418763E-03  0.5998041E+03  0.7818609E-02  0.9905813E-01
       -1   -1    0    0    0  501  0.00000000000E+00  0.00000000000E+00  0.23520250485E+03  0.23520250491E+03  0.50400001928E-02 0.  1.
        1   -1    0    0  501    0  0.00000000000E+00  0.00000000000E+00 -0.38239917332E+03  0.38239917335E+03  0.50400001928E-02 0. -1.
    10030    2    1    2    0    0  0.00000000000E+00  0.00000000000E+00 -0.14719666847E+03  0.61760167826E+03  0.59980411284E+03 0.  0.
        5    1    3    3  502    0 -0.27945985278E+03  0.95018622701E+02 -0.19183241755E+02  0.29583176763E+03  0.46999998093E+01 0.  1.
       -5    1    3    3    0  502  0.27945985278E+03 -0.95018622701E+02 -0.12801342671E+03  0.32176991064E+03  0.46999998093E+01 0. -1.
</event>
<event>
 5   0  0.2313168E-03  0.6001422E+03  0.7818609E-02  0.9905111E-01
        2   -1    0    0  501    0  0.00000000000E+00  0.00000000000E+00  0.19051909425E+03  0.19051909427E+03  0.25500000920E-02 0.  1.
       -2   -1    0    0    0  501  0.00000000000E+00  0.00000000000E+00 -0.47261758532E+03  0.47261758532E+03  0.25500000920E-02 0. -1.
    10030    2    1    2    0    0  0.00000000000E+00  0.00000000000E+00 -0.28209849107E+03  0.66313667959E+03  0.60014223077E+03 0.  0.
        2    1    3    3  502    0 -0.83578205900E+02 -0.22359831946E+03  0.59863660623E+02  0.24609994481E+03  0.25500000920E-02 0.  1.
       -2    1    3    3    0  502  0.83578205900E+02  0.22359831946E+03 -0.34196215169E+03  0.41703673478E+03  0.25500000920E-02 0. -1.
</event>
<event>
 5   0  0.1423430E-03  0.6010388E+03  0.7818609E-02  0.9903253E-01
       -1   -1    0    0    0  501  0.00000000000E+00  0.00000000000E+00  0.36216701223E+03  0.36216701227E+03  0.50400001928E-02 0.  1.
        1   -1    0    0  501    0  0.00000000000E+00  0.00000000000E+00 -0.24936537361E+03  0.24936537366E+03  0.50400001928E-02 0. -1.
    10030    2    1    2    0    0  0.00000000000E+00  0.00000000000E+00  0.11280163862E+03  0.61153238593E+03  0.60103880853E+03 0.  0.
        1    1    3    3  502    0 -0.12524951020E+02 -0.14953494533E+03  0.32132015601E+03  0.35463250973E+03  0.50400001928E-02 0.  1.
       -1    1    3    3    0  502  0.12524951020E+02  0.14953494533E+03 -0.20851851739E+03  0.25689987620E+03  0.50400001928E-02 0. -1.
</event>
<event>
 5   0  0.2421210E-03  0.6000412E+03  0.7818609E-02  0.9905321E-01
       -2   -1    0    0    0  501  0.00000000000E+00  0.00000000000E+00  0.77015373011E+02  0.77015373053E+02  0.25500000920E-02 0.  1.
        2   -1    0    0  501    0  0.00000000000E+00  0.00000000000E+00 -0.11687583551E+04  0.11687583551E+04  0.25500000920E-02 0. -1.
    10030    2    1    2    0    0  0.00000000000E+00  0.00000000000E+00 -0.10917429821E+04  0.12457737282E+04  0.60004120095E+03 0.  0.
        1    1    3    3  502    0 -0.15517092145E+03 -0.25044956944E+03 -0.42825526354E+03  0.51981301684E+03  0.50400001928E-02 0. -1.
       -1    1    3    3    0  502  0.15517092145E+03  0.25044956944E+03 -0.66348771858E+03  0.72596071135E+03  0.50400001928E-02 0.  1.
</event>
<event>
 5   0  0.2324616E-03  0.6003039E+03  0.7818609E-02  0.9904776E-01
       -2   -1    0    0    0  501  0.00000000000E+00  0.00000000000E+00  0.15973454220E+03  0.15973454222E+03  0.25500000920E-02 0. -1.
        2   -1    0    0  501    0  0.00000000000E+00  0.00000000000E+00 -0.56400568654E+03  0.56400568654E+03  0.25500000920E-02 0.  1.
    10030    2    1    2    0    0  0.00000000000E+00  0.00000000000E+00 -0.40427114433E+03  0.72374022877E+03  0.60030389021E+03 0.  0.
        4    1    3    3  502    0  0.68445500431E+02 -0.20430394350E+03  0.49792604328E+02  0.22114656724E+03  0.12699999809E+01 0. -1.
       -4    1    3    3    0  502 -0.68445500431E+02  0.20430394350E+03 -0.45406374866E+03  0.50259366153E+03  0.12699999809E+01 0.  1.
</event>
<event>
 5   0  0.1479385E-03  0.6000931E+03  0.7818609E-02  0.9905213E-01
        1   -1    0    0  501    0  0.00000000000E+00  0.00000000000E+00  0.92772896964E+03  0.92772896966E+03  0.50400001928E-02 0.  1.
       -1   -1    0    0    0  501  0.00000000000E+00  0.00000000000E+00 -0.97041186731E+02  0.97041186862E+02  0.50400001928E-02 0. -1.
    10030    2    1    2    0    0  0.00000000000E+00  0.00000000000E+00  0.83068778291E+03  0.10247701565E+04  0.60009306029E+03 0.  0.
        3    1    3    3  502    0 -0.17296946585E+03 -0.47815788893E+02  0.47063589064E+01  0.17951865029E+03  0.10100000352E+00 0. -1.
       -3    1    3    3    0  502  0.17296946585E+03  0.47815788893E+02  0.82598142401E+03  0.84525150623E+03  0.10100000352E+00 0.  1.
</event>
<event>
 5   0  0.2346281E-03  0.5998568E+03  0.7818609E-02  0.9905703E-01
        2   -1    0    0  501    0  0.00000000000E+00  0.00000000000E+00  0.13860662742E+04  0.13860662742E+04  0.25500000920E-02 0.  1.
       -2   -1    0    0    0  501  0.00000000000E+00  0.00000000000E+00 -0.64900963983E+02  0.64900964033E+02  0.25500000920E-02 0. -1.
    10030    2    1    2    0    0  0.00000000000E+00  0.00000000000E+00  0.13211653102E+04  0.14509672382E+04  0.59985677415E+03 0.  0.
        3    1    3    3  502    0  0.15197953075E+03  0.57870302770E+01  0.35291923889E+02  0.15613070672E+03  0.10100000352E+00 0. -1.
       -3    1    3    3    0  502 -0.15197953075E+03 -0.57870302770E+01  0.12858733863E+04  0.12948365315E+04  0.10100000352E+00 0.  1.
</event>
<event>
 5   0  0.2346281E-03  0.5998288E+03  0.7818609E-02  0.9905761E-01
        2   -1    0    0  501    0  0.00000000000E+00  0.00000000000E+00  0.28034123727E+03  0.28034123728E+03  0.25500000920E-02 0. -1.
       -2   -1    0    0    0  501  0.00000000000E+00  0.00000000000E+00 -0.32085413221E+03  0.32085413222E+03  0.25500000920E-02 0.  1.
    10030    2    1    2    0    0  0.00000000000E+00  0.00000000000E+00 -0.40512894946E+02  0.60119536950E+03  0.59982879028E+03 0.  0.
        3    1    3    3  502    0  0.61534377810E+02  0.51751896407E+02 -0.30985052345E+03  0.32011262943E+03  0.10100000352E+00 0.  1.
       -3    1    3    3    0  502 -0.61534377810E+02 -0.51751896407E+02  0.26933762851E+03  0.28108274007E+03  0.10100000352E+00 0. -1.
</event>
<event>
 5   0  0.1416315E-03  0.6001708E+03  0.7818609E-02  0.9905052E-01
       -1   -1    0    0    0  501  0.00000000000E+00  0.00000000000E+00  0.48887221865E+02  0.48887222124E+02  0.50400001928E-02 0.  1.
        1   -1    0    0  501    0  0.00000000000E+00  0.00000000000E+00 -0.18420202764E+04  0.18420202764E+04  0.50400001928E-02 0. -1.
    10030    2    1    2    0    0  0.00000000000E+00  0.00000000000E+00 -0.17931330546E+04  0.18909074986E+04  0.60017082297E+03 0.  0.
        2    1    3    3  502    0 -0.10146652726E+03 -0.10954247281E+03 -0.17166726785E+04  0.17231541122E+04  0.25500000920E-02 0. -1.
       -2    1    3    3    0  502  0.10146652726E+03  0.10954247281E+03 -0.76460376092E+02  0.16775338632E+03  0.25500000920E-02 0.  1.
</event>
<event>
 5   0  0.1479385E-03  0.5999902E+03  0.7818609E-02  0.9905426E-01
        1   -1    0    0  501    0  0.00000000000E+00  0.00000000000E+00  0.14971353210E+04  0.14971353210E+04  0.50400001928E-02 0. -1.
       -1   -1    0    0    0  501  0.00000000000E+00  0.00000000000E+00 -0.60112851805E+02  0.60112852016E+02  0.50400001928E-02 0.  1.
    10030    2    1    2    0    0  0.00000000000E+00  0.00000000000E+00  0.14370224692E+04  0.15572481730E+04  0.59999024610E+03 0.  0.
        3    1    3    3  502    0  0.22227069396E+03  0.16794911714E+03  0.10073645520E+04  0.10451767880E+04  0.10100000352E+00 0. -1.
       -3    1    3    3    0  502 -0.22227069396E+03 -0.16794911714E+03  0.42965791713E+03  0.51207138497E+03  0.10100000352E+00 0.  1.
</event>
<event>
 5   0  0.1392854E-03  0.6002059E+03  0.7818609E-02  0.9904979E-01
        1   -1    0    0  501    0  0.00000000000E+00  0.00000000000E+00  0.34213624648E+03  0.34213624652E+03  0.50400001928E-02 0. -1.
       -1   -1    0    0    0  501  0.00000000000E+00  0.00000000000E+00 -0.26323363309E+03  0.26323363314E+03  0.50400001928E-02 0.  1.
    10030    2    1    2    0    0  0.00000000000E+00  0.00000000000E+00  0.78902613389E+02  0.60536987965E+03  0.60020585535E+03 0.  0.
        4    1    3    3  502    0  0.24442976260E+03  0.77643109273E+02 -0.11772849107E+03  0.28219846167E+03  0.12699999809E+01 0. -1.
       -4    1    3    3    0  502 -0.24442976260E+03 -0.77643109273E+02  0.19663110446E+03  0.32317141798E+03  0.12699999809E+01 0.  1.
</event>
<event>
 5   0  0.2406307E-03  0.5999965E+03  0.7818609E-02  0.9905413E-01
       -2   -1    0    0    0  501  0.00000000000E+00  0.00000000000E+00  0.13238234389E+03  0.13238234392E+03  0.25500000920E-02 0.  1.
        2   -1    0    0  501    0  0.00000000000E+00  0.00000000000E+00 -0.67984097406E+03  0.67984097406E+03  0.25500000920E-02 0. -1.
    10030    2    1    2    0    0  0.00000000000E+00  0.00000000000E+00 -0.54745863017E+03  0.81222331798E+03  0.59999647209E+03 0.  0.
        5    1    3    3  502    0  0.11330931535E+03  0.23556570845E+03 -0.47289847019E+03  0.54035660175E+03  0.46999998093E+01 0. -1.
       -5    1    3    3    0  502 -0.11330931535E+03 -0.23556570845E+03 -0.74560159973E+02  0.27186671623E+03  0.46999998093E+01 0.  1.
</event>
<event>
 5   0  0.2346281E-03  0.5996672E+03  0.7818609E-02  0.9906097E-01
       -2   -1    0    0    0  501  0.00000000000E+00  0.00000000000E+00  0.91690160468E+02  0.91690160504E+02  0.25500000920E-02 0.  1.
        2   -1    0    0  501    0  0.00000000000E+00  0.00000000000E+00 -0.98047812611E+03  0.98047812611E+03  0.25500000920E-02 0. -1.
    10030    2    1    2    0    0  0.00000000000E+00  0.00000000000E+00 -0.88878796564E+03  0.10721682866E+04  0.59966723018E+03 0.  0.
        3    1    3    3  502    0 -0.29875697113E+03  0.11305664853E+02 -0.48503335037E+03  0.56977268014E+03  0.10100000352E+00 0. -1.
       -3    1    3    3    0  502  0.29875697113E+03 -0.11305664853E+02 -0.40375461527E+03  0.50239560648E+03  0.10100000352E+00 0.  1.
</event>
<event>
 5   0  0.2324616E-03  0.6000893E+03  0.7818609E-02  0.9905221E-01
        2   -1    0    0  501    0  0.00000000000E+00  0.00000000000E+00  0.72850837529E+03  0.72850837529E+03  0.25500000920E-02 0. -1.
       -2   -1    0    0    0  501  0.00000000000E+00  0.00000000000E+00 -0.12357689954E+03  0.12357689957E+03  0.25500000920E-02 0.  1.
    10030    2    1    2    0    0  0.00000000000E+00  0.00000000000E+00  0.60493147575E+03  0.85208527486E+03  0.60008934775E+03 0.  0.
        4    1    3    3  502    0  0.16406433712E+02  0.27791042809E+03  0.14357418594E+03  0.31323878571E+03  0.12699999809E+01 0.  1.
       -4    1    3    3    0  502 -0.16406433712E+02 -0.27791042809E+03  0.46135728981E+03  0.53884648915E+03  0.12699999809E+01 0. -1.
</event>
<event>
 5   0  0.2346281E-03  0.6006025E+03  0.7818609E-02  0.9904157E-01
        2   -1    0    0  501    0  0.00000000000E+00  0.00000000000E+00  0.67385326801E+03  0.67385326802E+03  0.25500000920E-02 0.  1.
       -2   -1    0    0    0  501  0.00000000000E+00  0.00000000000E+00 -0.13382858819E+03  0.13382858821E+03  0.25500000920E-02 0. -1.
    10030    2    1    2    0    0  0.00000000000E+00  0.00000000000E+00  0.54002467982E+03  0.80768185623E+03  0.60060246925E+03 0.  0.
        3    1    3    3  502    0 -0.17272211317E+03 -0.10549308327E+03 -0.28333549067E+02  0.20436369345E+03  0.10100000352E+00 0. -1.
       -3    1    3    3    0  502  0.17272211317E+03  0.10549308327E+03  0.56835822889E+03  0.60331816278E+03  0.10100000352E+00 0.  1.
</event>
<event>
 5   0  0.1418763E-03  0.5997765E+03  0.7818609E-02  0.9905870E-01
       -1   -1    0    0    0  501  0.00000000000E+00  0.00000000000E+00  0.18903042947E+03  0.18903042954E+03  0.50400001928E-02 0.  1.
        1   -1    0    0  501    0  0.00000000000E+00  0.00000000000E+00 -0.47575923246E+03  0.47575923248E+03  0.50400001928E-02 0. -1.
    10030    2    1    2    0    0  0.00000000000E+00  0.00000000000E+00 -0.28672880299E+03  0.66478966202E+03  0.59977653194E+03 0.  0.
        5    1    3    3  502    0  0.18689585102E+03 -0.19857035051E+03 -0.28158377051E+03  0.39200988896E+03  0.46999998093E+01 0. -1.
       -5    1    3    3    0  502 -0.18689585102E+03  0.19857035051E+03 -0.51450324798E+01  0.27277977306E+03  0.46999998093E+01 0.  1.
</event>
<event>
 5   0  0.1392854E-03  0.6000817E+03  0.7818609E-02  0.9905237E-01
        1   -1    0    0  501    0  0.00000000000E+00  0.00000000000E+00  0.14481810799E+04  0.14481810799E+04  0.50400001928E-02 0. -1.
       -1   -1    0    0    0  501  0.00000000000E+00  0.00000000000E+00 -0.62163844883E+02  0.62163845087E+02  0.50400001928E-02 0.  1.
    10030    2    1    2    0    0  0.00000000000E+00  0.00000000000E+00  0.13860172350E+04  0.15103449250E+04  0.60008167501E+03 0.  0.
        4    1    3    3  502    0  0.18127453181E+03  0.74847908483E+02  0.12149947534E+03  0.23070847556E+03  0.12699999809E+01 0.  1.
       -4    1    3    3    0  502 -0.18127453181E+03 -0.74847908483E+02  0.12645177596E+04  0.12796364494E+04  0.12699999809E+01 0. -1.
</event>
<event>
 5   0  0.1418763E-03  0.5954941E+03  0.7818609E-02  0.9914799E-01
        1   -1    0    0  501    0  0.00000000000E+00  0.00000000000E+00  0.28011906838E+03  0.28011906843E+03  0.50400001928E-02 0.  1.
       -1   -1    0    0    0  501  0.00000000000E+00  0.00000000000E+00 -0.31648440530E+03  0.31648440535E+03  0.50400001928E-02 0. -1.
    10030    2    1    2    0    0  0.00000000000E+00  0.00000000000E+00 -0.36365336920E+02  0.59660347377E+03  0.59549413699E+03 0.  0.
        5    1    3    3  502    0 -0.93862691301E+02 -0.27635934360E+03  0.40633895017E+02  0.29471663516E+03  0.46999998093E+01 0. -1.
       -5    1    3    3    0  502  0.93862691301E+02  0.27635934360E+03 -0.76999231937E+02  0.30188683862E+03  0.46999998093E+01 0.  1.
</event>
<event>
 5   0  0.1392854E-03  0.5999842E+03  0.7818609E-02  0.9905439E-01
       -1   -1    0    0    0  501  0.00000000000E+00  0.00000000000E+00  0.13568409369E+03  0.13568409378E+03  0.50400001928E-02 0.  1.
        1   -1    0    0  501    0  0.00000000000E+00  0.00000000000E+00 -0.66327046756E+03  0.66327046758E+03  0.50400001928E-02 0. -1.
    10030    2    1    2    0    0  0.00000000000E+00  0.00000000000E+00 -0.52758637387E+03  0.79895456136E+03  0.59998417414E+03 0.  0.
        4    1    3    3  502    0  0.18871554690E+03  0.11066139422E+03  0.95443898868E+01  0.21897993080E+03  0.12699999809E+01 0.  1.
       -4    1    3    3    0  502 -0.18871554690E+03 -0.11066139422E+03 -0.53713076376E+03  0.57997463056E+03  0.12699999809E+01 0. -1.
</event>
<event>
 5   0  0.2346281E-03  0.5998101E+03  0.7818609E-02  0.9905800E-01
       -2   -1    0    0    0  501  0.00000000000E+00  0.00000000000E+00  0.14577266908E+03  0.14577266911E+03  0.25500000920E-02 0.  1.
        2   -1    0    0  501    0  0.00000000000E+00  0.00000000000E+00 -0.61700888383E+03  0.61700888384E+03  0.25500000920E-02 0. -1.
    10030    2    1    2    0    0  0.00000000000E+00  0.00000000000E+00 -0.47123621475E+03  0.76278155294E+03  0.59981007613E+03 0.  0.
        3    1    3    3  502    0 -0.68292934675E+02  0.26834702874E+03 -0.89129108029E+02  0.29089183705E+03  0.10100000352E+00 0. -1.
       -3    1    3    3    0  502  0.68292934675E+02 -0.26834702874E+03 -0.38210710672E+03  0.47188971590E+03  0.10100000352E+00 0.  1.
</event>
<event>
 5   0  0.1479385E-03  0.5999273E+03  0.7818609E-02  0.9905557E-01
        1   -1    0    0  501    0  0.00000000000E+00  0.00000000000E+00  0.55606794406E+03  0.55606794408E+03  0.50400001928E-02 0. -1.
       -1   -1    0    0    0  501  0.00000000000E+00  0.00000000000E+00 -0.16181147917E+03  0.16181147925E+03  0.50400001928E-02 0.  1.
    10030    2    1    2    0    0  0.00000000000E+00  0.00000000000E+00  0.39425646489E+03  0.71787942334E+03  0.59992725088E+03 0.  0.
        3    1    3    3  502    0 -0.11910258482E+03 -0.17347599121E+03 -0.58674638402E+02  0.21845381350E+03  0.10100000352E+00 0.  1.
       -3    1    3    3    0  502  0.11910258482E+03  0.17347599121E+03  0.45293110329E+03  0.49942560984E+03  0.10100000352E+00 0. -1.
</event>
<event>
 5   0  0.2406307E-03  0.6015843E+03  0.7818609E-02  0.9902125E-01
        2   -1    0    0  501    0  0.00000000000E+00  0.00000000000E+00  0.59685990091E+03  0.59685990092E+03  0.25500000920E-02 0. -1.
       -2   -1    0    0    0  501  0.00000000000E+00  0.00000000000E+00 -0.15158651056E+03  0.15158651058E+03  0.25500000920E-02 0.  1.
    10030    2    1    2    0    0  0.00000000000E+00  0.00000000000E+00  0.44527339035E+03  0.74844641150E+03  0.60158427400E+03 0.  0.
        5    1    3    3  502    0  0.16116146238E+03  0.61030558186E+02  0.52929807518E+03  0.55666532888E+03  0.46999998093E+01 0. -1.
       -5    1    3    3    0  502 -0.16116146238E+03 -0.61030558186E+02 -0.84024684829E+02  0.19178108261E+03  0.46999998093E+01 0.  1.
</event>
<event>
 5   0  0.2346281E-03  0.5996046E+03  0.7818609E-02  0.9906227E-01
       -2   -1    0    0    0  501  0.00000000000E+00  0.00000000000E+00  0.79129782298E+02  0.79129782339E+02  0.25500000920E-02 0.  1.
        2   -1    0    0  501    0  0.00000000000E+00  0.00000000000E+00 -0.11358733404E+04  0.11358733404E+04  0.25500000920E-02 0. -1.
    10030    2    1    2    0    0  0.00000000000E+00  0.00000000000E+00 -0.10567435581E+04  0.12150031227E+04  0.59960457025E+03 0.  0.
        3    1    3    3  502    0  0.11906886631E+03 -0.58797030160E+02  0.16283993804E+02  0.13378962716E+03  0.10100000352E+00 0.  1.
       -3    1    3    3    0  502 -0.11906886631E+03  0.58797030160E+02 -0.10730275519E+04  0.10812134955E+04  0.10100000352E+00 0. -1.
</event>
<event>
 5   0  0.1479385E-03  0.6000913E+03  0.7818609E-02  0.9905217E-01
       -1   -1    0    0    0  501  0.00000000000E+00  0.00000000000E+00  0.51453899767E+03  0.51453899769E+03  0.50400001928E-02 0. -1.
        1   -1    0    0  501    0  0.00000000000E+00  0.00000000000E+00 -0.17496710336E+03  0.17496710343E+03  0.50400001928E-02 0.  1.
    10030    2    1    2    0    0  0.00000000000E+00  0.00000000000E+00  0.33957189430E+03  0.68950610112E+03  0.60009131979E+03 0.  0.
        3    1    3    3  502    0  0.16544984568E+03 -0.10799489857E+03  0.42924381472E+03  0.47253233988E+03  0.10100000352E+00 0. -1.
       -3    1    3    3    0  502 -0.16544984568E+03  0.10799489857E+03 -0.89671920418E+02  0.21697376124E+03  0.10100000352E+00 0.  1.
</event>
<event>
 5   0  0.2324616E-03  0.6000365E+03  0.7818609E-02  0.9905330E-01
       -2   -1    0    0    0  501  0.00000000000E+00  0.00000000000E+00  0.15957223602E+03  0.15957223604E+03  0.25500000920E-02 0. -1.
        2   -1    0    0  501    0  0.00000000000E+00  0.00000000000E+00 -0.56407659058E+03  0.56407659059E+03  0.25500000920E-02 0.  1.
    10030    2    1    2    0    0  0.00000000000E+00  0.00000000000E+00 -0.40450435456E+03  0.72364882663E+03  0.60003654174E+03 0.  0.
        4    1    3    3  502    0  0.21966146560E+03  0.15532670764E+03 -0.36239170461E+03  0.45133901454E+03  0.12699999809E+01 0.  1.
       -4    1    3    3    0  502 -0.21966146560E+03 -0.15532670764E+03 -0.42112649954E+02  0.27230981209E+03  0.12699999809E+01 0. -1.
</event>
<event>
 5   0  0.9496750E-04  0.6001291E+03  0.7818609E-02  0.9905138E-01
        4   -1    0    0  501    0  0.00000000000E+00  0.00000000000E+00  0.17087097431E+03  0.17087569389E+03  0.12699999809E+01 0. -1.
       -4   -1    0    0    0  501  0.00000000000E+00  0.00000000000E+00 -0.52692709953E+03  0.52692863000E+03  0.12699999809E+01 0.  1.
    10030    2    1    2    0    0  0.00000000000E+00  0.00000000000E+00 -0.35605612521E+03  0.69780432389E+03  0.60012907790E+03 0.  0.
        2    1    3    3  502    0 -0.15660644182E+03  0.25575935485E+03 -0.16638292921E+03  0.34296020812E+03  0.25500000920E-02 0.  1.
       -2    1    3    3    0  502  0.15660644182E+03 -0.25575935485E+03 -0.18967319600E+03  0.35484411577E+03  0.25500000920E-02 0. -1.
</event>
<event>
 5   0  0.1416315E-03  0.6001775E+03  0.7818609E-02  0.9905038E-01
        1   -1    0    0  501    0  0.00000000000E+00  0.00000000000E+00  0.58546546724E+03  0.58546546726E+03  0.50400001928E-02 0.  1.
       -1   -1    0    0    0  501  0.00000000000E+00  0.00000000000E+00 -0.15381480349E+03  0.15381480358E+03  0.50400001928E-02 0. -1.
    10030    2    1    2    0    0  0.00000000000E+00  0.00000000000E+00  0.43165066375E+03  0.73928027084E+03  0.60017749320E+03 0.  0.
        2    1    3    3  502    0 -0.17627861902E+02 -0.21678705418E+03 -0.38843959626E+02  0.22094393312E+03  0.25500000920E-02 0.  1.
       -2    1    3    3    0  502  0.17627861902E+02  0.21678705418E+03  0.47049462337E+03  0.51833633772E+03  0.25500000920E-02 0. -1.
</event>
<event>
 5   0  0.1392854E-03  0.6000625E+03  0.7818609E-02  0.9905276E-01
        1   -1    0    0  501    0  0.00000000000E+00  0.00000000000E+00  0.11983201221E+03  0.11983201232E+03  0.50400001928E-02 0. -1.
       -1   -1    0    0    0  501  0.00000000000E+00  0.00000000000E+00 -0.75120780732E+03  0.75120780734E+03  0.50400001928E-02 0.  1.
    10030    2    1    2    0    0  0.00000000000E+00  0.00000000000E+00 -0.63137579511E+03  0.87103981966E+03  0.60006247406E+03 0.  0.
        4    1    3    3  502    0 -0.25882590131E+03  0.15083640070E+03 -0.33974492034E+03  0.45295771410E+03  0.12699999809E+01 0. -1.
       -4    1    3    3    0  502  0.25882590131E+03 -0.15083640070E+03 -0.29163087477E+03  0.41808210556E+03  0.12699999809E+01 0.  1.
</event>
<event>
 5   0  0.1423430E-03  0.6000341E+03  0.7818609E-02  0.9905335E-01
       -1   -1    0    0    0  501  0.00000000000E+00  0.00000000000E+00  0.67560920899E+02  0.67560921087E+02  0.50400001928E-02 0. -1.
        1   -1    0    0  501    0  0.00000000000E+00  0.00000000000E+00 -0.13322824547E+04  0.13322824547E+04  0.50400001928E-02 0.  1.
    10030    2    1    2    0    0  0.00000000000E+00  0.00000000000E+00 -0.12647215338E+04  0.13998433758E+04  0.60003409796E+03 0.  0.
        1    1    3    3  502    0  0.23858464653E+03  0.69244819164E+02 -0.10247717060E+04  0.10544546116E+04  0.50400001928E-02 0.  1.
       -1    1    3    3    0  502 -0.23858464653E+03 -0.69244819164E+02 -0.23994982786E+03  0.34538876423E+03  0.50400001928E-02 0. -1.
</event>
<event>
 5   0  0.1418763E-03  0.6007113E+03  0.7818609E-02  0.9903931E-01
       -1   -1    0    0    0  501  0.00000000000E+00  0.00000000000E+00  0.10447391135E+03  0.10447391147E+03  0.50400001928E-02 0.  1.
        1   -1    0    0  501    0  0.00000000000E+00  0.00000000000E+00 -0.86350273980E+03  0.86350273981E+03  0.50400001928E-02 0. -1.
    10030    2    1    2    0    0  0.00000000000E+00  0.00000000000E+00 -0.75902882845E+03  0.96797665128E+03  0.60071127424E+03 0.  0.
        5    1    3    3  502    0  0.18822921354E+03  0.79161223739E+02 -0.24663311369E+02  0.20573552221E+03  0.46999998093E+01 0.  1.
       -5    1    3    3    0  502 -0.18822921354E+03 -0.79161223739E+02 -0.73436551708E+03  0.76224112907E+03  0.46999998093E+01 0. -1.
</event>
<event>
 5   0  0.2346281E-03  0.5997884E+03  0.7818609E-02  0.9905845E-01
        2   -1    0    0  501    0  0.00000000000E+00  0.00000000000E+00  0.18783826375E+04  0.18783826375E+04  0.25500000920E-02 0.  1.
       -2   -1    0    0    0  501  0.00000000000E+00  0.00000000000E+00 -0.47879768654E+02  0.47879768722E+02  0.25500000920E-02 0. -1.
    10030    2    1    2    0    0  0.00000000000E+00  0.00000000000E+00  0.18305028689E+04  0.19262624063E+04  0.59978838334E+03 0.  0.
        3    1    3    3  502    0 -0.21727342032E+03 -0.12940838985E+03  0.39757816618E+03  0.47119282567E+03  0.10100000352E+00 0. -1.
       -3    1    3    3    0  502  0.21727342032E+03  0.12940838985E+03  0.14329247027E+04  0.14550695806E+04  0.10100000352E+00 0.  1.
</event>
<event>
 5   0  0.1423430E-03  0.5995667E+03  0.7818609E-02  0.9906305E-01
        1   -1    0    0  501    0  0.00000000000E+00  0.00000000000E+00  0.10747761672E+03  0.10747761684E+03  0.50400001928E-02 0. -1.
       -1   -1    0    0    0  501  0.00000000000E+00  0.00000000000E+00 -0.83617465972E+03  0.83617465973E+03  0.50400001928E-02 0.  1.
    10030    2    1    2    0    0  0.00000000000E+00  0.00000000000E+00 -0.72869704300E+03  0.94365227658E+03  0.59956670906E+03 0.  0.
        1    1    3    3  502    0 -0.17859803423E+03  0.51482394423E+02 -0.73453866361E+03  0.75769040058E+03  0.50400001928E-02 0.  1.
       -1    1    3    3    0  502  0.17859803423E+03 -0.51482394423E+02  0.58416206125E+01  0.18596187600E+03  0.50400001928E-02 0. -1.
</event>
<event>
 5   0  0.2421210E-03  0.5998381E+03  0.7818609E-02  0.9905742E-01
        2   -1    0    0  501    0  0.00000000000E+00  0.00000000000E+00  0.47812782286E+03  0.47812782287E+03  0.25500000920E-02 0.  1.
       -2   -1    0    0    0  501  0.00000000000E+00  0.00000000000E+00 -0.18813262880E+03  0.18813262881E+03  0.25500000920E-02 0. -1.
    10030    2    1    2    0    0  0.00000000000E+00  0.00000000000E+00  0.28999519406E+03  0.66626045168E+03  0.59983812557E+03 0.  0.
        1    1    3    3  502    0 -0.28983842035E+03 -0.39420449205E+01  0.59466809905E+02  0.29590226619E+03  0.50400001928E-02 0. -1.
       -1    1    3    3    0  502  0.28983842035E+03  0.39420449205E+01  0.23052838416E+03  0.37035818549E+03  0.50400001928E-02 0.  1.
</event>
<event>
 5   0  0.1479385E-03  0.6001371E+03  0.7818609E-02  0.9905122E-01
        1   -1    0    0  501    0  0.00000000000E+00  0.00000000000E+00  0.18925162701E+04  0.18925162701E+04  0.50400001928E-02 0. -1.
       -1   -1    0    0    0  501  0.00000000000E+00  0.00000000000E+00 -0.47577476565E+02  0.47577476832E+02  0.50400001928E-02 0.  1.
    10030    2    1    2    0    0  0.00000000000E+00  0.00000000000E+00  0.18449387935E+04  0.19400937470E+04  0.60013714684E+03 0.  0.
        3    1    3    3  502    0  0.44328895666E+02 -0.18856149187E+03  0.16633312922E+04  0.16745720304E+04  0.10100000352E+00 0. -1.
       -3    1    3    3    0  502 -0.44328895666E+02  0.18856149187E+03  0.18160750134E+03  0.26552171654E+03  0.10100000352E+00 0.  1.
</event>
<event>
 5   0  0.1416315E-03  0.5999640E+03  0.7818609E-02  0.9905481E-01
        1   -1    0    0  501    0  0.00000000000E+00  0.00000000000E+00  0.80558428969E+03  0.80558428971E+03  0.50400001928E-02 0. -1.
       -1   -1    0    0    0  501  0.00000000000E+00  0.00000000000E+00 -0.11170676236E+03  0.11170676248E+03  0.50400001928E-02 0.  1.
    10030    2    1    2    0    0  0.00000000000E+00  0.00000000000E+00  0.69387752733E+03  0.91729105218E+03  0.59996404183E+03 0.  0.
        2    1    3    3  502    0  0.21747836305E+03 -0.17709247401E+03  0.50968425515E+03  0.58175305989E+03  0.25500000920E-02 0. -1.
       -2    1    3    3    0  502 -0.21747836305E+03  0.17709247401E+03  0.18419327218E+03  0.33553799229E+03  0.25500000920E-02 0.  1.
</event>
<event>
 5   0  0.1418763E-03  0.6000486E+03  0.7818609E-02  0.9905305E-01
       -1   -1    0    0    0  501  0.00000000000E+00  0.00000000000E+00  0.50323966394E+02  0.50323966646E+02  0.50400001928E-02 0. -1.
        1   -1    0    0  501    0  0.00000000000E+00  0.00000000000E+00 -0.17887022385E+04  0.17887022385E+04  0.50400001928E-02 0.  1.
    10030    2    1    2    0    0  0.00000000000E+00  0.00000000000E+00 -0.17383782721E+04  0.18390262051E+04  0.60004863661E+03 0.  0.
        5    1    3    3  502    0 -0.43555741963E+02  0.29188968751E+03 -0.10341141158E+04  0.10754119149E+04  0.46999998093E+01 0. -1.
       -5    1    3    3    0  502  0.43555741963E+02 -0.29188968751E+03 -0.70426415631E+03  0.76361429020E+03  0.46999998093E+01 0.  1.
</event>
<event>
 5   0  0.2406307E-03  0.6000997E+03  0.7818609E-02  0.9905199E-01
        2   -1    0    0  501    0  0.00000000000E+00  0.00000000000E+00  0.49484666621E+03  0.49484666622E+03  0.25500000920E-02 0. -1.
       -2   -1    0    0    0  501  0.00000000000E+00  0.00000000000E+00 -0.18193497750E+03  0.18193497752E+03  0.25500000920E-02 0.  1.
    10030    2    1    2    0    0  0.00000000000E+00  0.00000000000E+00  0.31291168871E+03  0.67678164374E+03  0.60009971535E+03 0.  0.
        5    1    3    3  502    0  0.26638440310E+01  0.29972775225E+03  0.17089874541E+03  0.34506853336E+03  0.46999998093E+01 0. -1.
       -5    1    3    3    0  502 -0.26638440310E+01 -0.29972775225E+03  0.14201294330E+03  0.33171311038E+03  0.46999998093E+01 0.  1.
</event>
<event>
 5   0  0.2406307E-03  0.6005054E+03  0.7818609E-02  0.9904358E-01
        2   -1    0    0  501    0  0.00000000000E+00  0.00000000000E+00  0.39551965778E+03  0.39551965779E+03  0.25500000920E-02 0.  1.
       -2   -1    0    0    0  501  0.00000000000E+00  0.00000000000E+00 -0.22793224317E+03  0.22793224318E+03  0.25500000920E-02 0. -1.
    10030    2    1    2    0    0  0.00000000000E+00  0.00000000000E+00  0.16758741462E+03  0.62345190097E+03  0.60050539655E+03 0.  0.
        5    1    3    3  502    0  0.24931794614E+03  0.59515449041E+02  0.24606084674E+03  0.35534427988E+03  0.46999998093E+01 0.  1.
       -5    1    3    3    0  502 -0.24931794614E+03 -0.59515449041E+02 -0.78473432126E+02  0.26810762110E+03  0.46999998093E+01 0. -1.
</event>
<event>
 5   0  0.2406307E-03  0.5998666E+03  0.7818609E-02  0.9905683E-01
       -2   -1    0    0    0  501  0.00000000000E+00  0.00000000000E+00  0.10311133359E+03  0.10311133362E+03  0.25500000920E-02 0. -1.
        2   -1    0    0  501    0  0.00000000000E+00  0.00000000000E+00 -0.87245492121E+03  0.87245492121E+03  0.25500000920E-02 0.  1.
    10030    2    1    2    0    0  0.00000000000E+00  0.00000000000E+00 -0.76934358762E+03  0.97556625483E+03  0.59986661997E+03 0.  0.
        5    1    3    3  502    0  0.12080099600E+03 -0.21812246441E+03 -0.65567306409E+03  0.70149807347E+03  0.46999998093E+01 0. -1.
       -5    1    3    3    0  502 -0.12080099600E+03  0.21812246441E+03 -0.11367052353E+03  0.27406818136E+03  0.46999998093E+01 0.  1.
</event>
<event>
 5   0  0.1392854E-03  0.5997196E+03  0.7818609E-02  0.9905988E-01
        1   -1    0    0  501    0  0.00000000000E+00  0.00000000000E+00  0.14967814077E+04  0.14967814077E+04  0.50400001928E-02 0.  1.
       -1   -1    0    0    0  501  0.00000000000E+00  0.00000000000E+00 -0.60072835928E+02  0.60072836140E+02  0.50400001928E-02 0. -1.
    10030    2    1    2    0    0  0.00000000000E+00  0.00000000000E+00  0.14367085718E+04  0.15568542439E+04  0.59971961481E+03 0.  0.
        4    1    3    3  502    0  0.17362918966E+03 -0.21667055221E+03  0.42441218437E+03  0.50716914224E+03  0.12699999809E+01 0. -1.
       -4    1    3    3    0  502 -0.17362918966E+03  0.21667055221E+03  0.10122963874E+04  0.10496851016E+04  0.12699999809E+01 0.  1.
</event>
<event>
 5   0  0.2313168E-03  0.6004539E+03  0.7818609E-02  0.9904465E-01
        2   -1    0    0  501    0  0.00000000000E+00  0.00000000000E+00  0.94034628901E+03  0.94034628901E+03  0.25500000920E-02 0.  1.
       -2   -1    0    0    0  501  0.00000000000E+00  0.00000000000E+00 -0.95854297580E+02  0.95854297614E+02  0.25500000920E-02 0. -1.
    10030    2    1    2    0    0  0.00000000000E+00  0.00000000000E+00  0.84449199143E+03  0.10362005866E+04  0.60045393840E+03 0.  0.
        2    1    3    3  502    0 -0.15808045282E+03  0.23888923363E+03  0.26713739315E+03  0.39168850166E+03  0.25500000920E-02 0. -1.
       -2    1    3    3    0  502  0.15808045282E+03 -0.23888923363E+03  0.57735459827E+03  0.64451208496E+03  0.25500000920E-02 0.  1.
</event>
<event>
 5   0  0.2346281E-03  0.6000913E+03  0.7818609E-02  0.9905217E-01
        2   -1    0    0  501    0  0.00000000000E+00  0.00000000000E+00  0.42445135410E+03  0.42445135411E+03  0.25500000920E-02 0.  1.
       -2   -1    0    0    0  501  0.00000000000E+00  0.00000000000E+00 -0.21210299738E+03  0.21210299739E+03  0.25500000920E-02 0. -1.
    10030    2    1    2    0    0  0.00000000000E+00  0.00000000000E+00  0.21234835673E+03  0.63655435150E+03  0.60009134122E+03 0.  0.
        3    1    3    3  502    0 -0.26122552618E+03 -0.10327118005E+03 -0.57032346017E+01  0.28095595606E+03  0.10100000352E+00 0. -1.
       -3    1    3    3    0  502  0.26122552618E+03  0.10327118005E+03  0.21805159133E+03  0.35559839544E+03  0.10100000352E+00 0.  1.
</event>
<event>
 5   0  0.1423430E-03  0.6000033E+03  0.7818609E-02  0.9905399E-01
        1   -1    0    0  501    0  0.00000000000E+00  0.00000000000E+00  0.43737266864E+03  0.43737266867E+03  0.50400001928E-02 0.  1.
       -1   -1    0    0    0  501  0.00000000000E+00  0.00000000000E+00 -0.20577640872E+03  0.20577640878E+03  0.50400001928E-02 0. -1.
    10030    2    1    2    0    0  0.00000000000E+00  0.00000000000E+00  0.23159625993E+03  0.64314907745E+03  0.60000325684E+03 0.  0.
        1    1    3    3  502    0 -0.13855126658E+03 -0.34903597638E+02 -0.16696305862E+03  0.21975299217E+03  0.50400001928E-02 0. -1.
       -1    1    3    3    0  502  0.13855126658E+03  0.34903597638E+02  0.39855931855E+03  0.42339608528E+03  0.50400001928E-02 0.  1.
</event>
<event>
 5   0  0.2346281E-03  0.6002738E+03  0.7818609E-02  0.9904838E-01
       -2   -1    0    0    0  501  0.00000000000E+00  0.00000000000E+00  0.91132725407E+02  0.91132725443E+02  0.25500000920E-02 0. -1.
        2   -1    0    0  501    0  0.00000000000E+00  0.00000000000E+00 -0.98847200300E+03  0.98847200300E+03  0.25500000920E-02 0.  1.
    10030    2    1    2    0    0  0.00000000000E+00  0.00000000000E+00 -0.89733927759E+03  0.10796047284E+04  0.60027376302E+03 0.  0.
        3    1    3    3  502    0  0.30650266172E+02  0.69436358073E+02 -0.97092636212E+03  0.97388852416E+03  0.10100000352E+00 0.  1.
       -3    1    3    3    0  502 -0.30650266172E+02 -0.69436358073E+02  0.73587084523E+02  0.10571620429E+03  0.10100000352E+00 0. -1.
</event>
<event>
 5   0  0.1392854E-03  0.5997362E+03  0.7818609E-02  0.9905954E-01
        1   -1    0    0  501    0  0.00000000000E+00  0.00000000000E+00  0.12761627365E+04  0.12761627366E+04  0.50400001928E-02 0. -1.
       -1   -1    0    0    0  501  0.00000000000E+00  0.00000000000E+00 -0.70461919417E+02  0.70461919597E+02  0.50400001928E-02 0.  1.
    10030    2    1    2    0    0  0.00000000000E+00  0.00000000000E+00  0.12057008171E+04  0.13466246562E+04  0.59973619545E+03 0.  0.
        4    1    3    3  502    0 -0.21817598103E+03  0.21517867292E+02  0.10622202667E+04  0.10846092777E+04  0.12699999809E+01 0. -1.
       -4    1    3    3    0  502  0.21817598103E+03 -0.21517867292E+02  0.14348055042E+03  0.26201537848E+03  0.12699999809E+01 0.  1.
</event>
<event>
 5   0  0.2406307E-03  0.5992756E+03  0.7818609E-02  0.9906910E-01
        2   -1    0    0  501    0  0.00000000000E+00  0.00000000000E+00  0.58815296605E+03  0.58815296606E+03  0.25500000920E-02 0.  1.
       -2   -1    0    0    0  501  0.00000000000E+00  0.00000000000E+00 -0.15265212276E+03  0.15265212278E+03  0.25500000920E-02 0. -1.
    10030    2    1    2    0    0  0.00000000000E+00  0.00000000000E+00  0.43550084329E+03  0.74080508883E+03  0.59927555860E+03 0.  0.
        5    1    3    3  502    0 -0.26933342739E+02  0.66209089501E+02 -0.14191205610E+03  0.15896594021E+03  0.46999998093E+01 0. -1.
       -5    1    3    3    0  502  0.26933342739E+02 -0.66209089501E+02  0.57741289939E+03  0.58183914862E+03  0.46999998093E+01 0.  1.
</event>
<event>
 5   0  0.1479385E-03  0.6002337E+03  0.7818609E-02  0.9904921E-01
        1   -1    0    0  501    0  0.00000000000E+00  0.00000000000E+00  0.93630393048E+03  0.93630393049E+03  0.50400001928E-02 0.  1.
       -1   -1    0    0    0  501  0.00000000000E+00  0.00000000000E+00 -0.96197519353E+02  0.96197519485E+02  0.50400001928E-02 0. -1.
    10030    2    1    2    0    0  0.00000000000E+00  0.00000000000E+00  0.84010641113E+03  0.10325014500E+04  0.60023367299E+03 0.  0.
        3    1    3    3  502    0  0.17988458809E+03  0.36229592414E+02  0.82856653872E+03  0.84864219061E+03  0.10100000352E+00 0.  1.
       -3    1    3    3    0  502 -0.17988458809E+03 -0.36229592414E+02  0.11539872412E+02  0.18385925937E+03  0.10100000352E+00 0. -1.
</event>
<event>
 5   0  0.2313168E-03  0.5999551E+03  0.7818609E-02  0.9905499E-01
       -2   -1    0    0    0  501  0.00000000000E+00  0.00000000000E+00  0.77459536718E+02  0.77459536760E+02  0.25500000920E-02 0.  1.
        2   -1    0    0  501    0  0.00000000000E+00  0.00000000000E+00 -0.11617229562E+04  0.11617229562E+04  0.25500000920E-02 0. -1.
    10030    2    1    2    0    0  0.00000000000E+00  0.00000000000E+00 -0.10842634195E+04  0.12391824930E+04  0.59995507168E+03 0.  0.
        2    1    3    3  502    0  0.12544404663E+03 -0.61753405618E+00 -0.11049452922E+04  0.11120434744E+04  0.25500000920E-02 0. -1.
       -2    1    3    3    0  502 -0.12544404663E+03  0.61753405618E+00  0.20681872694E+02  0.12713901859E+03  0.25500000920E-02 0.  1.
</event>
<event>
 5   0  0.1418763E-03  0.5997359E+03  0.7818609E-02  0.9905954E-01
        1   -1    0    0  501    0  0.00000000000E+00  0.00000000000E+00  0.17638692046E+03  0.17638692053E+03  0.50400001928E-02 0. -1.
       -1   -1    0    0    0  501  0.00000000000E+00  0.00000000000E+00 -0.50979278634E+03  0.50979278636E+03  0.50400001928E-02 0.  1.
    10030    2    1    2    0    0  0.00000000000E+00  0.00000000000E+00 -0.33340586588E+03  0.68617970690E+03  0.59973587416E+03 0.  0.
        5    1    3    3  502    0 -0.17966681358E+03  0.17349294970E+03  0.23095216824E+02  0.25086938142E+03  0.46999998093E+01 0. -1.
       -5    1    3    3    0  502  0.17966681358E+03 -0.17349294970E+03 -0.35650108270E+03  0.43531032547E+03  0.46999998093E+01 0.  1.
</event>
<event>
 5   0  0.1416315E-03  0.6005772E+03  0.7818609E-02  0.9904209E-01
        1   -1    0    0  501    0  0.00000000000E+00  0.00000000000E+00  0.63899721463E+03  0.63899721465E+03  0.50400001928E-02 0.  1.
       -1   -1    0    0    0  501  0.00000000000E+00  0.00000000000E+00 -0.14111681871E+03  0.14111681880E+03  0.50400001928E-02 0. -1.
    10030    2    1    2    0    0  0.00000000000E+00  0.00000000000E+00  0.49788039593E+03  0.78011403345E+03  0.60057723612E+03 0.  0.
        2    1    3    3  502    0 -0.34244567565E+02 -0.29258281318E+03  0.17324572210E+03  0.34174767476E+03  0.25500000920E-02 0. -1.
       -2    1    3    3    0  502  0.34244567565E+02  0.29258281318E+03  0.32463467383E+03  0.43836635869E+03  0.25500000920E-02 0.  1.
</event>
<event>
 5   0  0.1418763E-03  0.5996912E+03  0.7818609E-02  0.9906047E-01
        1   -1    0    0  501    0  0.00000000000E+00  0.00000000000E+00  0.16109463045E+04  0.16109463045E+04  0.50400001928E-02 0. -1.
       -1   -1    0    0    0  501  0.00000000000E+00  0.00000000000E+00 -0.55810285157E+02  0.55810285385E+02  0.50400001928E-02 0.  1.
    10030    2    1    2    0    0  0.00000000000E+00  0.00000000000E+00  0.15551360193E+04  0.16667565899E+04  0.59969116326E+03 0.  0.
        5    1    3    3  502    0 -0.27635343191E+03  0.96487439628E+02  0.59735416500E+03  0.66523314242E+03  0.46999998093E+01 0. -1.
       -5    1    3    3    0  502  0.27635343191E+03 -0.96487439628E+02  0.95778185435E+03  0.10015234475E+04  0.46999998093E+01 0.  1.
</event>
<event>
 5   0  0.2406307E-03  0.6000487E+03  0.7818609E-02  0.9905305E-01
       -2   -1    0    0    0  501  0.00000000000E+00  0.00000000000E+00  0.39402433461E+03  0.39402433462E+03  0.25500000920E-02 0.  1.
        2   -1    0    0  501    0  0.00000000000E+00  0.00000000000E+00 -0.22844937542E+03  0.22844937543E+03  0.25500000920E-02 0. -1.
    10030    2    1    2    0    0  0.00000000000E+00  0.00000000000E+00  0.16557495919E+03  0.62247371005E+03  0.60004870852E+03 0.  0.
        5    1    3    3  502    0  0.17174991523E+03  0.15427999320E+03 -0.11592320864E+03  0.25838078486E+03  0.46999998093E+01 0. -1.
       -5    1    3    3    0  502 -0.17174991523E+03 -0.15427999320E+03  0.28149816783E+03  0.36409292519E+03  0.46999998093E+01 0.  1.
</event>
<event>
 5   0  0.1418763E-03  0.5996865E+03  0.7818609E-02  0.9906057E-01
       -1   -1    0    0    0  501  0.00000000000E+00  0.00000000000E+00  0.43073718672E+03  0.43073718675E+03  0.50400001928E-02 0. -1.
        1   -1    0    0  501    0  0.00000000000E+00  0.00000000000E+00 -0.20872580379E+03  0.20872580385E+03  0.50400001928E-02 0.  1.
    10030    2    1    2    0    0  0.00000000000E+00  0.00000000000E+00  0.22201138293E+03  0.63946299060E+03  0.59968646991E+03 0.  0.
        5    1    3    3  502    0 -0.14228380097E+02 -0.23436090745E+03  0.30980209291E+03  0.38875044504E+03  0.46999998093E+01 0. -1.
       -5    1    3    3    0  502  0.14228380097E+02  0.23436090745E+03 -0.87790709985E+02  0.25071254556E+03  0.46999998093E+01 0.  1.
</event>
<event>
 5   0  0.2421210E-03  0.6000929E+03  0.7818609E-02  0.9905213E-01
       -2   -1    0    0    0  501  0.00000000000E+00  0.00000000000E+00  0.10317666623E+03  0.10317666626E+03  0.25500000920E-02 0. -1.
        2   -1    0    0  501    0  0.00000000000E+00  0.00000000000E+00 -0.87256042473E+03  0.87256042473E+03  0.25500000920E-02 0.  1.
    10030    2    1    2    0    0  0.00000000000E+00  0.00000000000E+00 -0.76938375849E+03  0.97573709099E+03  0.60009291190E+03 0.  0.
        1    1    3    3  502    0 -0.24753263862E+03 -0.99284906107E+02 -0.16116901028E+03  0.31161731284E+03  0.50400001928E-02 0.  1.
       -1    1    3    3    0  502  0.24753263862E+03  0.99284906107E+02 -0.60821474822E+03  0.66411977816E+03  0.50400001928E-02 0. -1.
</event>
<event>
 5   0  0.2406307E-03  0.6000594E+03  0.7818609E-02  0.9905283E-01
       -2   -1    0    0    0  501  0.00000000000E+00  0.00000000000E+00  0.26011638500E+03  0.26011638501E+03  0.25500000920E-02 0.  1.
        2   -1    0    0  501    0  0.00000000000E+00  0.00000000000E+00 -0.34606752985E+03  0.34606752986E+03  0.25500000920E-02 0. -1.
    10030    2    1    2    0    0  0.00000000000E+00  0.00000000000E+00 -0.85951144850E+02  0.60618391487E+03  0.60005944652E+03 0.  0.
        5    1    3    3  502    0  0.70708991089E+02 -0.44283989431E+02  0.24812328121E+03  0.26181689368E+03  0.46999998093E+01 0.  1.
       -5    1    3    3    0  502 -0.70708991089E+02  0.44283989431E+02 -0.33407442606E+03  0.34436702119E+03  0.46999998093E+01 0. -1.
</event>
<event>
 5   0  0.2406307E-03  0.6001356E+03  0.7818609E-02  0.9905125E-01
        2   -1    0    0  501    0  0.00000000000E+00  0.00000000000E+00  0.17254388131E+04  0.17254388131E+04  0.25500000920E-02 0.  1.
       -2   -1    0    0    0  501  0.00000000000E+00  0.00000000000E+00 -0.52184218522E+02  0.52184218584E+02  0.25500000920E-02 0. -1.
    10030    2    1    2    0    0  0.00000000000E+00  0.00000000000E+00  0.16732545946E+04  0.17776230317E+04  0.60013557177E+03 0.  0.
        5    1    3    3  502    0 -0.60603139152E+02 -0.19469512090E+02  0.17050989323E+04  0.17062931346E+04  0.46999998093E+01 0.  1.
       -5    1    3    3    0  502  0.60603139152E+02  0.19469512090E+02 -0.31844337692E+02  0.71329897080E+02  0.46999998093E+01 0. -1.
</event>
<event>
 5   0  0.1479385E-03  0.6000825E+03  0.7818609E-02  0.9905235E-01
       -1   -1    0    0    0  501  0.00000000000E+00  0.00000000000E+00  0.20247344286E+03  0.20247344292E+03  0.50400001928E-02 0. -1.
        1   -1    0    0  501    0  0.00000000000E+00  0.00000000000E+00 -0.44462494912E+03  0.44462494915E+03  0.50400001928E-02 0.  1.
    10030    2    1    2    0    0  0.00000000000E+00  0.00000000000E+00 -0.24215150626E+03  0.64709839207E+03  0.60008247520E+03 0.  0.
        3    1    3    3  502    0 -0.18834683868E+03 -0.23347462472E+03 -0.11427257290E+03  0.32100336937E+03  0.10100000352E+00 0. -1.
       -3    1    3    3    0  502  0.18834683868E+03  0.23347462472E+03 -0.12787893336E+03  0.32609502270E+03  0.10100000352E+00 0.  1.
</event>
<event>
 5   0  0.1418763E-03  0.5991363E+03  0.7818609E-02  0.9907200E-01
       -1   -1    0    0    0  501  0.00000000000E+00  0.00000000000E+00  0.24640422646E+03  0.24640422651E+03  0.50400001928E-02 0.  1.
        1   -1    0    0  501    0  0.00000000000E+00  0.00000000000E+00 -0.36420262965E+03  0.36420262968E+03  0.50400001928E-02 0. -1.
    10030    2    1    2    0    0  0.00000000000E+00  0.00000000000E+00 -0.11779840319E+03  0.61060685619E+03  0.59913626917E+03 0.  0.
        5    1    3    3  502    0  0.15955218259E+02  0.18525064162E+03  0.18042987671E+03  0.25913201195E+03  0.46999998093E+01 0.  1.
       -5    1    3    3    0  502 -0.15955218259E+02 -0.18525064162E+03 -0.29822827990E+03  0.35147484425E+03  0.46999998093E+01 0. -1.
</event>
<event>
 5   0  0.2406307E-03  0.5996521E+03  0.7818609E-02  0.9906128E-01
        2   -1    0    0  501    0  0.00000000000E+00  0.00000000000E+00  0.20505364322E+04  0.20505364322E+04  0.25500000920E-02 0. -1.
       -2   -1    0    0    0  501  0.00000000000E+00  0.00000000000E+00 -0.43840076633E+02  0.43840076707E+02  0.25500000920E-02 0.  1.
    10030    2    1    2    0    0  0.00000000000E+00  0.00000000000E+00  0.20066963555E+04  0.20943765089E+04  0.59965214718E+03 0.  0.
        5    1    3    3  502    0 -0.20991438244E+03 -0.13971572957E+03  0.43705305350E+03  0.50460082701E+03  0.46999998093E+01 0.  1.
       -5    1    3    3    0  502  0.20991438244E+03  0.13971572957E+03  0.15696433020E+04  0.15897756819E+04  0.46999998093E+01 0. -1.
</event>
<event>
 5   0  0.1416315E-03  0.6020051E+03  0.7818609E-02  0.9901255E-01
       -1   -1    0    0    0  501  0.00000000000E+00  0.00000000000E+00  0.13054857660E+03  0.13054857670E+03  0.50400001928E-02 0.  1.
        1   -1    0    0  501    0  0.00000000000E+00  0.00000000000E+00 -0.69401402373E+03  0.69401402375E+03  0.50400001928E-02 0. -1.
    10030    2    1    2    0    0  0.00000000000E+00  0.00000000000E+00 -0.56346544713E+03  0.82456260045E+03  0.60200512618E+03 0.  0.
        2    1    3    3  502    0  0.27980772341E+03 -0.36799988312E+02 -0.13836601961E+03  0.31431155978E+03  0.25500000920E-02 0.  1.
       -2    1    3    3    0  502 -0.27980772341E+03  0.36799988312E+02 -0.42509942753E+03  0.51025104067E+03  0.25500000920E-02 0. -1.
</event>
<event>
 5   0  0.2421210E-03  0.5994537E+03  0.7818609E-02  0.9906540E-01
        2   -1    0    0  501    0  0.00000000000E+00  0.00000000000E+00  0.11439478446E+04  0.11439478446E+04  0.25500000920E-02 0.  1.
       -2   -1    0    0    0  501  0.00000000000E+00  0.00000000000E+00 -0.78531713573E+02  0.78531713614E+02  0.25500000920E-02 0. -1.
    10030    2    1    2    0    0  0.00000000000E+00  0.00000000000E+00  0.10654161310E+04  0.12224795582E+04  0.59945369964E+03 0.  0.
        1    1    3    3  502    0 -0.11882320077E+03  0.86581084241E+02  0.54505899296E-01  0.14702122359E+03  0.50400001928E-02 0. -1.
       -1    1    3    3    0  502  0.11882320077E+03 -0.86581084241E+02  0.10653616251E+04  0.10754583346E+04  0.50400001928E-02 0.  1.
</event>
<event>
 5   0  0.1418763E-03  0.5999181E+03  0.7818609E-02  0.9905576E-01
        1   -1    0    0  501    0  0.00000000000E+00  0.00000000000E+00  0.21816923723E+03  0.21816923728E+03  0.50400001928E-02 0.  1.
       -1   -1    0    0    0  501  0.00000000000E+00  0.00000000000E+00 -0.41241114466E+03  0.41241114469E+03  0.50400001928E-02 0. -1.
    10030    2    1    2    0    0  0.00000000000E+00  0.00000000000E+00 -0.19424190743E+03  0.63058038197E+03  0.59991807735E+03 0.  0.
        5    1    3    3  502    0 -0.72859733375E+02 -0.49894815580E+02 -0.39839817938E+03  0.40809463694E+03  0.46999998093E+01 0. -1.
       -5    1    3    3    0  502  0.72859733375E+02  0.49894815580E+02  0.20415627195E+03  0.22248574503E+03  0.46999998093E+01 0.  1.
</event>
<event>
 5   0  0.1423430E-03  0.6000903E+03  0.7818609E-02  0.9905219E-01
       -1   -1    0    0    0  501  0.00000000000E+00  0.00000000000E+00  0.91499109842E+03  0.91499109843E+03  0.50400001928E-02 0. -1.
        1   -1    0    0  501    0  0.00000000000E+00  0.00000000000E+00 -0.98391219539E+02  0.98391219668E+02  0.50400001928E-02 0.  1.
    10030    2    1    2    0    0  0.00000000000E+00  0.00000000000E+00  0.81659987888E+03  0.10133823181E+04  0.60009029358E+03 0.  0.
        1    1    3    3  502    0 -0.13212968740E+03 -0.87098049214E+02  0.83878275096E+03  0.85358117821E+03  0.50400001928E-02 0. -1.
       -1    1    3    3    0  502  0.13212968740E+03  0.87098049214E+02 -0.22182872082E+02  0.15980113988E+03  0.50400001928E-02 0.  1.
</event>
<event>
 5   0  0.1423430E-03  0.5993801E+03  0.7818609E-02  0.9906693E-01
       -1   -1    0    0    0  501  0.00000000000E+00  0.00000000000E+00  0.31638529472E+03  0.31638529476E+03  0.50400001928E-02 0.  1.
        1   -1    0    0  501    0  0.00000000000E+00  0.00000000000E+00 -0.28387581102E+03  0.28387581107E+03  0.50400001928E-02 0. -1.
    10030    2    1    2    0    0  0.00000000000E+00  0.00000000000E+00  0.32509483695E+02  0.60026110583E+03  0.59938012032E+03 0.  0.
        1    1    3    3  502    0 -0.90728295283E+02  0.18986453889E+03 -0.19744579157E+03  0.28855676621E+03  0.50400001928E-02 0. -1.
       -1    1    3    3    0  502  0.90728295283E+02 -0.18986453889E+03  0.22995527526E+03  0.31170433962E+03  0.50400001928E-02 0.  1.
</event>
<event>
 5   0  0.1416315E-03  0.5999174E+03  0.7818609E-02  0.9905577E-01
        1   -1    0    0  501    0  0.00000000000E+00  0.00000000000E+00  0.53209619428E+03  0.53209619430E+03  0.50400001928E-02 0.  1.
       -1   -1    0    0    0  501  0.00000000000E+00  0.00000000000E+00 -0.16909576821E+03  0.16909576829E+03  0.50400001928E-02 0. -1.
    10030    2    1    2    0    0  0.00000000000E+00  0.00000000000E+00  0.36300042607E+03  0.70119196259E+03  0.59991737687E+03 0.  0.
        2    1    3    3  502    0 -0.93965467222E+02 -0.91873233144E+02 -0.13365730469E+03  0.18744192461E+03  0.25500000920E-02 0. -1.
       -2    1    3    3    0  502  0.93965467222E+02  0.91873233144E+02  0.49665773075E+03  0.51375003798E+03  0.25500000920E-02 0.  1.
</event>
<event>
 5   0  0.2324616E-03  0.6001243E+03  0.7818609E-02  0.9905148E-01
       -2   -1    0    0    0  501  0.00000000000E+00  0.00000000000E+00  0.12207827600E+03  0.12207827602E+03  0.25500000920E-02 0.  1.
        2   -1    0    0  501    0  0.00000000000E+00  0.00000000000E+00 -0.73753731377E+03  0.73753731378E+03  0.25500000920E-02 0. -1.
    10030    2    1    2    0    0  0.00000000000E+00  0.00000000000E+00 -0.61545903777E+03  0.85961558980E+03  0.60012426634E+03 0.  0.
        4    1    3    3  502    0  0.10295028642E+03 -0.27596165540E+03 -0.38979061025E+03  0.48856108059E+03  0.12699999809E+01 0.  1.
       -4    1    3    3    0  502 -0.10295028642E+03  0.27596165540E+03 -0.22566842752E+03  0.37105450921E+03  0.12699999809E+01 0. -1.
</event>
<event>
 5   0  0.2421210E-03  0.6000426E+03  0.7818609E-02  0.9905318E-01
       -2   -1    0    0    0  501  0.00000000000E+00  0.00000000000E+00  0.68992630539E+02  0.68992630586E+02  0.25500000920E-02 0. -1.
        2   -1    0    0  501    0  0.00000000000E+00  0.00000000000E+00 -0.13046725151E+04  0.13046725152E+04  0.25500000920E-02 0.  1.
    10030    2    1    2    0    0  0.00000000000E+00  0.00000000000E+00 -0.12356798846E+04  0.13736651457E+04  0.60004262797E+03 0.  0.
        1    1    3    3  502    0 -0.19733409495E+03 -0.57294492642E+02 -0.11738556194E+03  0.23664905260E+03  0.50400001928E-02 0. -1.
       -1    1    3    3    0  502  0.19733409495E+03  0.57294492642E+02 -0.11182943227E+04  0.11370160931E+04  0.50400001928E-02 0.  1.
</event>
<event>
 5   0  0.1392854E-03  0.6018090E+03  0.7818609E-02  0.9901660E-01
       -1   -1    0    0    0  501  0.00000000000E+00  0.00000000000E+00  0.12299817139E+03  0.12299817150E+03  0.50400001928E-02 0.  1.
        1   -1    0    0  501    0  0.00000000000E+00  0.00000000000E+00 -0.73613717805E+03  0.73613717806E+03  0.50400001928E-02 0. -1.
    10030    2    1    2    0    0  0.00000000000E+00  0.00000000000E+00 -0.61313900665E+03  0.85913534956E+03  0.60180902900E+03 0.  0.
        4    1    3    3  502    0 -0.21306675494E+03 -0.10578085636E+03 -0.56962901177E+03  0.61730531796E+03  0.12699999809E+01 0. -1.
       -4    1    3    3    0  502  0.21306675494E+03  0.10578085636E+03 -0.43509994886E+02  0.24183003161E+03  0.12699999809E+01 0.  1.
</event>
<event>
 5   0  0.2406307E-03  0.5999326E+03  0.7818609E-02  0.9905546E-01
        2   -1    0    0  501    0  0.00000000000E+00  0.00000000000E+00  0.23286404686E+03  0.23286404687E+03  0.25500000920E-02 0.  1.
       -2   -1    0    0    0  501  0.00000000000E+00  0.00000000000E+00 -0.38640474566E+03  0.38640474567E+03  0.25500000920E-02 0. -1.
    10030    2    1    2    0    0  0.00000000000E+00  0.00000000000E+00 -0.15354069881E+03  0.61926879254E+03  0.59993257223E+03 0.  0.
        5    1    3    3  502    0  0.29154465398E+02 -0.27955596916E+03  0.31274964889E+02  0.28284578160E+03  0.46999998093E+01 0.  1.
       -5    1    3    3    0  502 -0.29154465398E+02  0.27955596916E+03 -0.18481566369E+03  0.33642301094E+03  0.46999998093E+01 0. -1.
</event>
<event>
 5   0  0.2346281E-03  0.6000044E+03  0.7818609E-02  0.9905397E-01
       -2   -1    0    0    0  501  0.00000000000E+00  0.00000000000E+00  0.25157626044E+03  0.25157626045E+03  0.25500000920E-02 0. -1.
        2   -1    0    0  501    0  0.00000000000E+00  0.00000000000E+00 -0.35774969595E+03  0.35774969596E+03  0.25500000920E-02 0.  1.
    10030    2    1    2    0    0  0.00000000000E+00  0.00000000000E+00 -0.10617343551E+03  0.60932595641E+03  0.60000443560E+03 0.  0.
        3    1    3    3  502    0 -0.26155499758E+03  0.11071868360E+03 -0.15118808561E+03  0.32175688196E+03  0.10100000352E+00 0.  1.
       -3    1    3    3    0  502  0.26155499758E+03 -0.11071868360E+03  0.45014650092E+02  0.28756907445E+03  0.10100000352E+00 0. -1.
</event>
<event>
 5   0  0.2324616E-03  0.5994933E+03  0.7818609E-02  0.9906458E-01
        2   -1    0    0  501    0  0.00000000000E+00  0.00000000000E+00  0.48173358249E+03  0.48173358250E+03  0.25500000920E-02 0.  1.
       -2   -1    0    0    0  501  0.00000000000E+00  0.00000000000E+00 -0.18650985816E+03  0.18650985818E+03  0.25500000920E-02 0. -1.
    10030    2    1    2    0    0  0.00000000000E+00  0.00000000000E+00  0.29522372433E+03  0.66824344067E+03  0.59949332656E+03 0.  0.
        4    1    3    3  502    0  0.21026288834E+03  0.21613344851E+02 -0.89290708790E+02  0.22946037232E+03  0.12699999809E+01 0. -1.
       -4    1    3    3    0  502 -0.21026288834E+03 -0.21613344851E+02  0.38451443312E+03  0.43878306835E+03  0.12699999809E+01 0.  1.
</event>
<event>
 5   0  0.2313168E-03  0.5998074E+03  0.7818609E-02  0.9905806E-01
        2   -1    0    0  501    0  0.00000000000E+00  0.00000000000E+00  0.23836157490E+03  0.23836157492E+03  0.25500000920E-02 0. -1.
       -2   -1    0    0    0  501  0.00000000000E+00  0.00000000000E+00 -0.37733529226E+03  0.37733529227E+03  0.25500000920E-02 0.  1.
    10030    2    1    2    0    0  0.00000000000E+00  0.00000000000E+00 -0.13897371736E+03  0.61569686719E+03  0.59980741755E+03 0.  0.
        2    1    3    3  502    0  0.22163515183E+03  0.85617741014E+02 -0.25733665003E+03  0.35024946761E+03  0.25500000920E-02 0.  1.
       -2    1    3    3    0  502 -0.22163515183E+03 -0.85617741014E+02  0.11836293267E+03  0.26544739958E+03  0.25500000920E-02 0. -1.
</event>
<event>
 5   0  0.2313168E-03  0.5999220E+03  0.7818609E-02  0.9905568E-01
        2   -1    0    0  501    0  0.00000000000E+00  0.00000000000E+00  0.21759255751E+03  0.21759255753E+03  0.25500000920E-02 0.  1.
       -2   -1    0    0    0  501  0.00000000000E+00  0.00000000000E+00 -0.41350951184E+03  0.41350951185E+03  0.25500000920E-02 0. -1.
    10030    2    1    2    0    0  0.00000000000E+00  0.00000000000E+00 -0.19591695433E+03  0.63110206938E+03  0.59992196908E+03 0.  0.
        2    1    3    3  502    0 -0.84198201057E+02  0.28461930874E+03 -0.52356856500E+02  0.30139463897E+03  0.25500000920E-02 0.  1.
       -2    1    3    3    0  502  0.84198201057E+02 -0.28461930874E+03 -0.14356009783E+03  0.32970743041E+03  0.25500000920E-02 0. -1.
</event>
<event>
 5   0  0.2313168E-03  0.6004112E+03  0.7818609E-02  0.9904553E-01
        2   -1    0    0  501    0  0.00000000000E+00  0.00000000000E+00  0.14770528552E+04  0.14770528552E+04  0.25500000920E-02 0.  1.
       -2   -1    0    0    0  501  0.00000000000E+00  0.00000000000E+00 -0.61015691075E+02  0.61015691128E+02  0.25500000920E-02 0. -1.
    10030    2    1    2    0    0  0.00000000000E+00  0.00000000000E+00  0.14160371641E+04  0.15380685463E+04  0.60041119495E+03 0.  0.
        2    1    3    3  502    0  0.57924526901E+02  0.14553500511E+03  0.51966752710E+02  0.16503403262E+03  0.25500000920E-02 0. -1.
       -2    1    3    3    0  502 -0.57924526901E+02 -0.14553500511E+03  0.13640704114E+04  0.13730345137E+04  0.25500000920E-02 0.  1.
</event>
<event>
 5   0  0.2346281E-03  0.6000579E+03  0.7818609E-02  0.9905286E-01
       -2   -1    0    0    0  501  0.00000000000E+00  0.00000000000E+00  0.63255090616E+02  0.63255090668E+02  0.25500000920E-02 0.  1.
        2   -1    0    0  501    0  0.00000000000E+00  0.00000000000E+00 -0.14230850702E+04  0.14230850702E+04  0.25500000920E-02 0. -1.
    10030    2    1    2    0    0  0.00000000000E+00  0.00000000000E+00 -0.13598299796E+04  0.14863401609E+04  0.60005791424E+03 0.  0.
        3    1    3    3  502    0 -0.14679402657E+03 -0.20702761600E+02 -0.33802594972E+02  0.15205168924E+03  0.10100000352E+00 0.  1.
       -3    1    3    3    0  502  0.14679402657E+03  0.20702761600E+02 -0.13260273846E+04  0.13342884716E+04  0.10100000352E+00 0. -1.
</event>
<event>
 5   0  0.2324616E-03  0.5999862E+03  0.7818609E-02  0.9905435E-01
        2   -1    0    0  501    0  0.00000000000E+00  0.00000000000E+00  0.40899318215E+03  0.40899318215E+03  0.25500000920E-02 0. -1.
       -2   -1    0    0    0  501  0.00000000000E+00  0.00000000000E+00 -0.22004246801E+03  0.22004246803E+03  0.25500000920E-02 0.  1.
    10030    2    1    2    0    0  0.00000000000E+00  0.00000000000E+00  0.18895071413E+03  0.62903565018E+03  0.59998623053E+03 0.  0.
        4    1    3    3  502    0  0.12650244396E+03 -0.14411798283E+03 -0.14739191301E+03  0.24186535556E+03  0.12699999809E+01 0.  1.
       -4    1    3    3    0  502 -0.12650244396E+03  0.14411798283E+03  0.33634262714E+03  0.38717029462E+03  0.12699999809E+01 0. -1.
</event>
<event>
 5   0  0.2421210E-03  0.5999739E+03  0.7818609E-02  0.9905460E-01
        2   -1    0    0  501    0  0.00000000000E+00  0.00000000000E+00  0.28872413823E+04  0.28872413823E+04  0.25500000920E-02 0. -1.
       -2   -1    0    0    0  501  0.00000000000E+00  0.00000000000E+00 -0.31168908530E+02  0.31168908634E+02  0.25500000920E-02 0.  1.
    10030    2    1    2    0    0  0.00000000000E+00  0.00000000000E+00  0.28560724738E+04  0.29184102909E+04  0.59997387511E+03 0.  0.
        1    1    3    3  502    0  0.10108046047E+03 -0.21644578721E+03  0.54539479389E+03  0.59541709710E+03  0.50400001928E-02 0. -1.
       -1    1    3    3    0  502 -0.10108046047E+03  0.21644578721E+03  0.23106776799E+04  0.23229931938E+04  0.50400001928E-02 0.  1.
</event>
<event>
 5   0  0.1392854E-03  0.5999540E+03  0.7818609E-02  0.9905501E-01
       -1   -1    0    0    0  501  0.00000000000E+00  0.00000000000E+00  0.75242697727E+02  0.75242697896E+02  0.50400001928E-02 0.  1.
        1   -1    0    0  501    0  0.00000000000E+00  0.00000000000E+00 -0.11959459981E+04  0.11959459981E+04  0.50400001928E-02 0. -1.
    10030    2    1    2    0    0  0.00000000000E+00  0.00000000000E+00 -0.11207033004E+04  0.12711886960E+04  0.59995400939E+03 0.  0.
        4    1    3    3  502    0  0.10035093593E+03  0.25335969389E+03 -0.82603343524E+03  0.86982428907E+03  0.12699999809E+01 0. -1.
       -4    1    3    3    0  502 -0.10035093593E+03 -0.25335969389E+03 -0.29466986511E+03  0.40136440691E+03  0.12699999809E+01 0.  1.
</event>
<event>
 5   0  0.1479385E-03  0.5999167E+03  0.7818609E-02  0.9905579E-01
        1   -1    0    0  501    0  0.00000000000E+00  0.00000000000E+00  0.88592555661E+03  0.88592555662E+03  0.50400001928E-02 0. -1.
       -1   -1    0    0    0  501  0.00000000000E+00  0.00000000000E+00 -0.10156046965E+03  0.10156046977E+03  0.50400001928E-02 0.  1.
    10030    2    1    2    0    0  0.00000000000E+00  0.00000000000E+00  0.78436508696E+03  0.98748602639E+03  0.59991671312E+03 0.  0.
        3    1    3    3  502    0 -0.13384078399E+03 -0.26705910528E+03  0.34737266120E+03  0.45815029971E+03  0.10100000352E+00 0.  1.
       -3    1    3    3    0  502  0.13384078399E+03  0.26705910528E+03  0.43699242576E+03  0.52933572669E+03  0.10100000352E+00 0. -1.
</event>
<event>
 5   0  0.1392854E-03  0.5998301E+03  0.7818609E-02  0.9905759E-01
        1   -1    0    0  501    0  0.00000000000E+00  0.00000000000E+00  0.16954408363E+04  0.16954408363E+04  0.50400001928E-02 0. -1.
       -1   -1    0    0    0  501  0.00000000000E+00  0.00000000000E+00 -0.53053478253E+02  0.53053478492E+02  0.50400001928E-02 0.  1.
    10030    2    1    2    0    0  0.00000000000E+00  0.00000000000E+00  0.16423873581E+04  0.17484943148E+04  0.59983008846E+03 0.  0.
        4    1    3    3  502    0  0.26536350583E+03 -0.13967511688E+03  0.80799799524E+03  0.86185225051E+03  0.12699999809E+01 0. -1.
       -4    1    3    3    0  502 -0.26536350583E+03  0.13967511688E+03  0.83438936281E+03  0.88664206430E+03  0.12699999809E+01 0.  1.
</event>
<event>
 5   0  0.2324616E-03  0.6002892E+03  0.7818609E-02  0.9904806E-01
        2   -1    0    0  501    0  0.00000000000E+00  0.00000000000E+00  0.10427039643E+03  0.10427039646E+03  0.25500000920E-02 0.  1.
       -2   -1    0    0    0  501  0.00000000000E+00  0.00000000000E+00 -0.86397271630E+03  0.86397271630E+03  0.25500000920E-02 0. -1.
    10030    2    1    2    0    0  0.00000000000E+00  0.00000000000E+00 -0.75970231987E+03  0.96824311277E+03  0.60028918914E+03 0.  0.
        4    1    3    3  502    0 -0.19713693695E+03  0.15155126157E+03 -0.65097455875E+03  0.69685023199E+03  0.12699999809E+01 0.  1.
       -4    1    3    3    0  502  0.19713693695E+03 -0.15155126157E+03 -0.10872776113E+03  0.27139288077E+03  0.12699999809E+01 0. -1.
</event>
<event>
 5   0  0.2313168E-03  0.5999992E+03  0.7818609E-02  0.9905408E-01
        2   -1    0    0  501    0  0.00000000000E+00  0.00000000000E+00  0.32752622097E+03  0.32752622098E+03  0.25500000920E-02 0.  1.
       -2   -1    0    0    0  501  0.00000000000E+00  0.00000000000E+00 -0.27478641389E+03  0.27478641390E+03  0.25500000920E-02 0. -1.
    10030    2    1    2    0    0  0.00000000000E+00  0.00000000000E+00  0.52739807080E+02  0.60231263487E+03  0.59999918573E+03 0.  0.
        2    1    3    3  502    0  0.10818131857E+03 -0.12988799825E+03  0.27516753944E+03  0.32294158070E+03  0.25500000920E-02 0.  1.
       -2    1    3    3    0  502 -0.10818131857E+03  0.12988799825E+03 -0.22242773236E+03  0.27937105417E+03  0.25500000920E-02 0. -1.
</event>
<event>
 5   0  0.2313168E-03  0.5999998E+03  0.7818609E-02  0.9905406E-01
       -2   -1    0    0    0  501  0.00000000000E+00  0.00000000000E+00  0.11229030512E+03  0.11229030515E+03  0.25500000920E-02 0. -1.
        2   -1    0    0  501    0  0.00000000000E+00  0.00000000000E+00 -0.80149338674E+03  0.80149338674E+03  0.25500000920E-02 0.  1.
    10030    2    1    2    0    0  0.00000000000E+00  0.00000000000E+00 -0.68920308162E+03  0.91378369189E+03  0.59999978987E+03 0.  0.
        2    1    3    3  502    0  0.14833744522E+03  0.26017024674E+03 -0.37130278694E+03  0.47703072703E+03  0.25500000920E-02 0.  1.
       -2    1    3    3    0  502 -0.14833744522E+03 -0.26017024674E+03 -0.31790029468E+03  0.43675296485E+03  0.25500000920E-02 0. -1.
</event>
<event>
 5   0  0.2421210E-03  0.6005442E+03  0.7818609E-02  0.9904278E-01
        2   -1    0    0  501    0  0.00000000000E+00  0.00000000000E+00  0.10880980495E+04  0.10880980495E+04  0.25500000920E-02 0. -1.
       -2   -1    0    0    0  501  0.00000000000E+00  0.00000000000E+00 -0.82863233436E+02  0.82863233476E+02  0.25500000920E-02 0.  1.
    10030    2    1    2    0    0  0.00000000000E+00  0.00000000000E+00  0.10052348160E+04  0.11709612829E+04  0.60054416223E+03 0.  0.
        1    1    3    3  502    0  0.22524682765E+03  0.62468273758E+02  0.87012307724E+03  0.90097313398E+03  0.50400001928E-02 0. -1.
       -1    1    3    3    0  502 -0.22524682765E+03 -0.62468273758E+02  0.13511173878E+03  0.26998814895E+03  0.50400001928E-02 0.  1.
</event>
<event>
 5   0  0.2406307E-03  0.6000551E+03  0.7818609E-02  0.9905292E-01
       -2   -1    0    0    0  501  0.00000000000E+00  0.00000000000E+00  0.29124481554E+03  0.29124481555E+03  0.25500000920E-02 0.  1.
        2   -1    0    0  501    0  0.00000000000E+00  0.00000000000E+00 -0.30907509727E+03  0.30907509728E+03  0.25500000920E-02 0. -1.
    10030    2    1    2    0    0  0.00000000000E+00  0.00000000000E+00 -0.17830281730E+02  0.60031991283E+03  0.60005506313E+03 0.  0.
        5    1    3    3  502    0 -0.11491277847E+03 -0.27493140235E+03  0.25773020359E+02  0.29912967294E+03  0.46999998093E+01 0.  1.
       -5    1    3    3    0  502  0.11491277847E+03  0.27493140235E+03 -0.43603302089E+02  0.30119023989E+03  0.46999998093E+01 0. -1.
</event>
<event>
 5   0  0.1416315E-03  0.5999991E+03  0.7818609E-02  0.9905408E-01
       -1   -1    0    0    0  501  0.00000000000E+00  0.00000000000E+00  0.16159429115E+03  0.16159429122E+03  0.50400001928E-02 0.  1.
        1   -1    0    0  501    0  0.00000000000E+00  0.00000000000E+00 -0.55694867638E+03  0.55694867640E+03  0.50400001928E-02 0. -1.
    10030    2    1    2    0    0  0.00000000000E+00  0.00000000000E+00 -0.39535438523E+03  0.71854296763E+03  0.59999908867E+03 0.  0.
        2    1    3    3  502    0  0.86131156881E+02  0.52742785547E+02  0.14062267413E+03  0.17313322644E+03  0.25500000920E-02 0.  1.
       -2    1    3    3    0  502 -0.86131156881E+02 -0.52742785547E+02 -0.53597705936E+03  0.54540974118E+03  0.25500000920E-02 0. -1.
</event>
<event>
 5   0  0.1479385E-03  0.6000189E+03  0.7818609E-02  0.9905367E-01
       -1   -1    0    0    0  501  0.00000000000E+00  0.00000000000E+00  0.20035478230E+03  0.20035478237E+03  0.50400001928E-02 0. -1.
        1   -1    0    0  501    0  0.00000000000E+00  0.00000000000E+00 -0.44923141250E+03  0.44923141253E+03  0.50400001928E-02 0.  1.
    10030    2    1    2    0    0  0.00000000000E+00  0.00000000000E+00 -0.24887663020E+03  0.64958619490E+03  0.60001887266E+03 0.  0.
        3    1    3    3  502    0  0.17348207201E+03 -0.19805289748E+03 -0.28014103428E+03  0.38444764117E+03  0.10100000352E+00 0.  1.
       -3    1    3    3    0  502 -0.17348207201E+03  0.19805289748E+03  0.31264404078E+02  0.26513855373E+03  0.10100000352E+00 0. -1.
</event>
<event>
 5   0  0.1423430E-03  0.5999345E+03  0.7818609E-02  0.9905542E-01
       -1   -1    0    0    0  501  0.00000000000E+00  0.00000000000E+00  0.15696992280E+04  0.15696992280E+04  0.50400001928E-02 0. -1.
        1   -1    0    0  501    0  0.00000000000E+00  0.00000000000E+00 -0.57323304847E+02  0.57323305069E+02  0.50400001928E-02 0.  1.
    10030    2    1    2    0    0  0.00000000000E+00  0.00000000000E+00  0.15123759231E+04  0.16270225330E+04  0.59993448826E+03 0.  0.
        1    1    3    3  502    0 -0.97663445829E+01  0.17538975374E+03  0.14156190844E+04  0.14264761966E+04  0.50400001928E-02 0. -1.
       -1    1    3    3    0  502  0.97663445829E+01 -0.17538975374E+03  0.96756838674E+02  0.20054633644E+03  0.50400001928E-02 0.  1.
</event>
<event>
 5   0  0.1416315E-03  0.6000455E+03  0.7818609E-02  0.9905312E-01
       -1   -1    0    0    0  501  0.00000000000E+00  0.00000000000E+00  0.66048628283E+02  0.66048628475E+02  0.50400001928E-02 0.  1.
        1   -1    0    0  501    0  0.00000000000E+00  0.00000000000E+00 -0.13628391272E+04  0.13628391272E+04  0.50400001928E-02 0. -1.
    10030    2    1    2    0    0  0.00000000000E+00  0.00000000000E+00 -0.12967904989E+04  0.14288877557E+04  0.60004551516E+03 0.  0.
        2    1    3    3  502    0 -0.45956348282E+02  0.65657188141E+01 -0.13542347553E+04  0.13550302090E+04  0.25500000920E-02 0. -1.
       -2    1    3    3    0  502  0.45956348282E+02 -0.65657188141E+01  0.57444256404E+02  0.73857546745E+02  0.25500000920E-02 0.  1.
</event>
<event>
 5   0  0.2346281E-03  0.6002247E+03  0.7818609E-02  0.9904940E-01
        2   -1    0    0  501    0  0.00000000000E+00  0.00000000000E+00  0.40469448158E+03  0.40469448159E+03  0.25500000920E-02 0. -1.
       -2   -1    0    0    0  501  0.00000000000E+00  0.00000000000E+00 -0.22255658920E+03  0.22255658921E+03  0.25500000920E-02 0.  1.
    10030    2    1    2    0    0  0.00000000000E+00  0.00000000000E+00  0.18213789239E+03  0.62725107080E+03  0.60022470290E+03 0.  0.
        3    1    3    3  502    0 -0.19081915107E+03 -0.62121080379E+02 -0.14213005048E+03  0.24591042778E+03  0.10100000352E+00 0.  1.
       -3    1    3    3    0  502  0.19081915107E+03  0.62121080379E+02  0.32426794287E+03  0.38134064301E+03  0.10100000352E+00 0. -1.
</event>
<event>
 5   0  0.1416315E-03  0.6001364E+03  0.7818609E-02  0.9905123E-01
        1   -1    0    0  501    0  0.00000000000E+00  0.00000000000E+00  0.17035689494E+03  0.17035689501E+03  0.50400001928E-02 0. -1.
       -1   -1    0    0    0  501  0.00000000000E+00  0.00000000000E+00 -0.52854288986E+03  0.52854288988E+03  0.50400001928E-02 0.  1.
    10030    2    1    2    0    0  0.00000000000E+00  0.00000000000E+00 -0.35818599492E+03  0.69889978490E+03  0.60013640314E+03 0.  0.
        2    1    3    3  502    0  0.28653142949E+03  0.72131279705E+02 -0.24002723102E+03  0.38067867452E+03  0.25500000920E-02 0.  1.
       -2    1    3    3    0  502 -0.28653142949E+03 -0.72131279705E+02 -0.11815876391E+03  0.31822111038E+03  0.25500000920E-02 0. -1.
</event>
<event>
 5   0  0.2406307E-03  0.5999044E+03  0.7818609E-02  0.9905604E-01
        2   -1    0    0  501    0  0.00000000000E+00  0.00000000000E+00  0.67286343904E+03  0.67286343904E+03  0.25500000920E-02 0. -1.
       -2   -1    0    0    0  501  0.00000000000E+00  0.00000000000E+00 -0.13371409557E+03  0.13371409560E+03  0.25500000920E-02 0.  1.
    10030    2    1    2    0    0  0.00000000000E+00  0.00000000000E+00  0.53914934346E+03  0.80657753464E+03  0.59990441307E+03 0.  0.
        5    1    3    3  502    0 -0.99779085662E+02  0.14488555308E+03  0.59615931804E+03  0.62159127400E+03  0.46999998093E+01 0. -1.
       -5    1    3    3    0  502  0.99779085662E+02 -0.14488555308E+03 -0.57009974577E+02  0.18498626064E+03  0.46999998093E+01 0.  1.
</event>
<event>
 5   0  0.2324616E-03  0.5999333E+03  0.7818609E-02  0.9905545E-01
       -2   -1    0    0    0  501  0.00000000000E+00  0.00000000000E+00  0.51157684055E+02  0.51157684118E+02  0.25500000920E-02 0.  1.
        2   -1    0    0  501    0  0.00000000000E+00  0.00000000000E+00 -0.17588751415E+04  0.17588751415E+04  0.25500000920E-02 0. -1.
    10030    2    1    2    0    0  0.00000000000E+00  0.00000000000E+00 -0.17077174574E+04  0.18100328256E+04  0.59993325909E+03 0.  0.
        4    1    3    3  502    0 -0.86346282304E+02  0.26405029482E+03 -0.51251599994E+03  0.58296869706E+03  0.12699999809E+01 0.  1.
       -4    1    3    3    0  502  0.86346282304E+02 -0.26405029482E+03 -0.11952014575E+04  0.12270641286E+04  0.12699999809E+01 0. -1.
</event>
<event>
 5   0  0.1418763E-03  0.5997899E+03  0.7818609E-02  0.9905842E-01
        1   -1    0    0  501    0  0.00000000000E+00  0.00000000000E+00  0.12846320368E+03  0.12846320378E+03  0.50400001928E-02 0. -1.
       -1   -1    0    0    0  501  0.00000000000E+00  0.00000000000E+00 -0.70009918493E+03  0.70009918494E+03  0.50400001928E-02 0.  1.
    10030    2    1    2    0    0  0.00000000000E+00  0.00000000000E+00 -0.57163598125E+03  0.82856238872E+03  0.59978991067E+03 0.  0.
        5    1    3    3  502    0 -0.79515153723E+02  0.27973980485E+03 -0.38674567420E+03  0.48391251750E+03  0.46999998093E+01 0.  1.
       -5    1    3    3    0  502  0.79515153723E+02 -0.27973980485E+03 -0.18489030705E+03  0.34464987122E+03  0.46999998093E+01 0. -1.
</event>
<event>
 5   0  0.1479385E-03  0.5988912E+03  0.7818609E-02  0.9907709E-01
       -1   -1    0    0    0  501  0.00000000000E+00  0.00000000000E+00  0.10273697394E+03  0.10273697407E+03  0.50400001928E-02 0.  1.
        1   -1    0    0  501    0  0.00000000000E+00  0.00000000000E+00 -0.87278853829E+03  0.87278853830E+03  0.50400001928E-02 0. -1.
    10030    2    1    2    0    0  0.00000000000E+00  0.00000000000E+00 -0.77005156434E+03  0.97552551237E+03  0.59889115333E+03 0.  0.
        3    1    3    3  502    0 -0.21447719806E+03 -0.20863419211E+03 -0.36582505007E+03  0.47260625479E+03  0.10100000352E+00 0.  1.
       -3    1    3    3    0  502  0.21447719806E+03  0.20863419211E+03 -0.40422651427E+03  0.50291925758E+03  0.10100000352E+00 0. -1.
</event>
<event>
 5   0  0.1392854E-03  0.5997110E+03  0.7818609E-02  0.9906006E-01
       -1   -1    0    0    0  501  0.00000000000E+00  0.00000000000E+00  0.10202708630E+04  0.10202708630E+04  0.50400001928E-02 0. -1.
        1   -1    0    0  501    0  0.00000000000E+00  0.00000000000E+00 -0.88126898047E+02  0.88126898191E+02  0.50400001928E-02 0.  1.
    10030    2    1    2    0    0  0.00000000000E+00  0.00000000000E+00  0.93214396494E+03  0.11083977612E+04  0.59971095174E+03 0.  0.
        4    1    3    3  502    0  0.91782615896E+02  0.10392195655E+03 -0.25317790542E+02  0.14094830631E+03  0.12699999809E+01 0.  1.
       -4    1    3    3    0  502 -0.91782615896E+02 -0.10392195655E+03  0.95746175548E+03  0.96744945488E+03  0.12699999809E+01 0. -1.
</event>
<event>
 5   0  0.1418763E-03  0.5999560E+03  0.7818609E-02  0.9905497E-01
        1   -1    0    0  501    0  0.00000000000E+00  0.00000000000E+00  0.19708132441E+04  0.19708132441E+04  0.50400001928E-02 0. -1.
       -1   -1    0    0    0  501  0.00000000000E+00  0.00000000000E+00 -0.45659730019E+02  0.45659730297E+02  0.50400001928E-02 0.  1.
    10030    2    1    2    0    0  0.00000000000E+00  0.00000000000E+00  0.19251535140E+04  0.20164729744E+04  0.59995600148E+03 0.  0.
        5    1    3    3  502    0  0.16826058629E+02  0.87786387948E+02  0.19248847651E+04  0.19269647156E+04  0.46999998093E+01 0. -1.
       -5    1    3    3    0  502 -0.16826058629E+02 -0.87786387948E+02  0.26874888882E+00  0.89508258737E+02  0.46999998093E+01 0.  1.
</event>
<event>
 5   0  0.2313168E-03  0.5999661E+03  0.7818609E-02  0.9905476E-01
        2   -1    0    0  501    0  0.00000000000E+00  0.00000000000E+00  0.41207952345E+03  0.41207952346E+03  0.25500000920E-02 0.  1.
       -2   -1    0    0    0  501  0.00000000000E+00  0.00000000000E+00 -0.21837980161E+03  0.21837980162E+03  0.25500000920E-02 0. -1.
    10030    2    1    2    0    0  0.00000000000E+00  0.00000000000E+00  0.19369972185E+03  0.63045932509E+03  0.59996614767E+03 0.  0.
        2    1    3    3  502    0 -0.25906749537E+03  0.12202256097E+03  0.29530788805E+01  0.28638120263E+03  0.25500000920E-02 0. -1.
       -2    1    3    3    0  502  0.25906749537E+03 -0.12202256097E+03  0.19074664297E+03  0.34407812245E+03  0.25500000920E-02 0.  1.
</event>
<event>
 5   0  0.1416315E-03  0.5999703E+03  0.7818609E-02  0.9905468E-01
        1   -1    0    0  501    0  0.00000000000E+00  0.00000000000E+00  0.14580569481E+04  0.14580569481E+04  0.50400001928E-02 0.  1.
       -1   -1    0    0    0  501  0.00000000000E+00  0.00000000000E+00 -0.61719867635E+02  0.61719867840E+02  0.50400001928E-02 0. -1.
    10030    2    1    2    0    0  0.00000000000E+00  0.00000000000E+00  0.13963370804E+04  0.15197768159E+04  0.59997027260E+03 0.  0.
        2    1    3    3  502    0 -0.13854984143E+03 -0.90405911275E+02  0.13320569885E+04  0.13422909923E+04  0.25500000920E-02 0.  1.
       -2    1    3    3    0  502  0.13854984143E+03  0.90405911275E+02  0.64280091891E+02  0.17748582359E+03  0.25500000920E-02 0. -1.
</event>
<event>
 5   0  0.2406307E-03  0.6002132E+03  0.7818609E-02  0.9904964E-01
        2   -1    0    0  501    0  0.00000000000E+00  0.00000000000E+00  0.72445254535E+03  0.72445254535E+03  0.25500000920E-02 0.  1.
       -2   -1    0    0    0  501  0.00000000000E+00  0.00000000000E+00 -0.12432006100E+03  0.12432006103E+03  0.25500000920E-02 0. -1.
    10030    2    1    2    0    0  0.00000000000E+00  0.00000000000E+00  0.60013248434E+03  0.84877260638E+03  0.60021324425E+03 0.  0.
        5    1    3    3  502    0  0.30440294586E+02 -0.12065385982E+03  0.68619548990E+03  0.69740254214E+03  0.46999998093E+01 0.  1.
       -5    1    3    3    0  502 -0.30440294586E+02  0.12065385982E+03 -0.86063005554E+02  0.15137006424E+03  0.46999998093E+01 0. -1.
</event>
<event>
 5   0  0.1423430E-03  0.6005612E+03  0.7818609E-02  0.9904243E-01
        1   -1    0    0  501    0  0.00000000000E+00  0.00000000000E+00  0.29706947898E+03  0.29706947902E+03  0.50400001928E-02 0.  1.
       -1   -1    0    0    0  501  0.00000000000E+00  0.00000000000E+00 -0.30352638661E+03  0.30352638665E+03  0.50400001928E-02 0. -1.
    10030    2    1    2    0    0  0.00000000000E+00  0.00000000000E+00 -0.64569076313E+01  0.60059586567E+03  0.60056115609E+03 0.  0.
        1    1    3    3  502    0  0.23496639073E+03  0.18444749483E+03 -0.33862599246E+02  0.30062727551E+03  0.50400001928E-02 0.  1.
       -1    1    3    3    0  502 -0.23496639073E+03 -0.18444749483E+03  0.27405691614E+02  0.29996859016E+03  0.50400001928E-02 0. -1.
</event>
<event>
 5   0  0.2346281E-03  0.6001155E+03  0.7818609E-02  0.9905167E-01
       -2   -1    0    0    0  501  0.00000000000E+00  0.00000000000E+00  0.14340521504E+03  0.14340521506E+03  0.25500000920E-02 0.  1.
        2   -1    0    0  501    0  0.00000000000E+00  0.00000000000E+00 -0.62783384148E+03  0.62783384148E+03  0.25500000920E-02 0. -1.
    10030    2    1    2    0    0  0.00000000000E+00  0.00000000000E+00 -0.48442862644E+03  0.77123905654E+03  0.60011547907E+03 0.  0.
        3    1    3    3  502    0  0.18221105667E+03  0.14682583661E+02  0.63581950162E+02  0.19354359204E+03  0.10100000352E+00 0.  1.
       -3    1    3    3    0  502 -0.18221105667E+03 -0.14682583661E+02 -0.54801057660E+03  0.57769546450E+03  0.10100000352E+00 0. -1.
</event>
<event>
 5   0  0.2406307E-03  0.6000290E+03  0.7818609E-02  0.9905346E-01
       -2   -1    0    0    0  501  0.00000000000E+00  0.00000000000E+00  0.15862752286E+03  0.15862752288E+03  0.25500000920E-02 0.  1.
        2   -1    0    0  501    0  0.00000000000E+00  0.00000000000E+00 -0.56742171167E+03  0.56742171168E+03  0.25500000920E-02 0. -1.
    10030    2    1    2    0    0  0.00000000000E+00  0.00000000000E+00 -0.40879418881E+03  0.72604923455E+03  0.60002900112E+03 0.  0.
        5    1    3    3  502    0 -0.78259779153E+02  0.53484664059E+02  0.13998464476E+03  0.16912419427E+03  0.46999998093E+01 0.  1.
       -5    1    3    3    0  502  0.78259779153E+02 -0.53484664059E+02 -0.54877883357E+03  0.55692504028E+03  0.46999998093E+01 0. -1.
</event>
<event>
 5   0  0.2406307E-03  0.5998655E+03  0.7818609E-02  0.9905685E-01
       -2   -1    0    0    0  501  0.00000000000E+00  0.00000000000E+00  0.23530375315E+03  0.23530375316E+03  0.25500000920E-02 0.  1.
        2   -1    0    0  501    0  0.00000000000E+00  0.00000000000E+00 -0.38231293441E+03  0.38231293442E+03  0.25500000920E-02 0. -1.
    10030    2    1    2    0    0  0.00000000000E+00  0.00000000000E+00 -0.14700918126E+03  0.61761668758E+03  0.59986554611E+03 0.  0.
        5    1    3    3  502    0 -0.40970750945E+02 -0.12309195251E+03  0.20488027153E+03  0.24254535012E+03  0.46999998093E+01 0.  1.
       -5    1    3    3    0  502  0.40970750945E+02  0.12309195251E+03 -0.35188945279E+03  0.37507133746E+03  0.46999998093E+01 0. -1.
</event>
<event>
 5   0  0.2346281E-03  0.6001176E+03  0.7818609E-02  0.9905162E-01
        2   -1    0    0  501    0  0.00000000000E+00  0.00000000000E+00  0.26515164282E+03  0.26515164283E+03  0.25500000920E-02 0. -1.
       -2   -1    0    0    0  501  0.00000000000E+00  0.00000000000E+00 -0.33956145719E+03  0.33956145720E+03  0.25500000920E-02 0.  1.
    10030    2    1    2    0    0  0.00000000000E+00  0.00000000000E+00 -0.74409814373E+02  0.60471310003E+03  0.60011758254E+03 0.  0.
        3    1    3    3  502    0 -0.27543896935E+03 -0.55734478018E+02  0.68778027435E+02  0.28931537315E+03  0.10100000352E+00 0. -1.
       -3    1    3    3    0  502  0.27543896935E+03  0.55734478018E+02 -0.14318784181E+03  0.31539772688E+03  0.10100000352E+00 0.  1.
</event>
<event>
 5   0  0.1423430E-03  0.6003454E+03  0.7818609E-02  0.9904690E-01
        1   -1    0    0  501    0  0.00000000000E+00  0.00000000000E+00  0.23384279023E+03  0.23384279029E+03  0.50400001928E-02 0. -1.
       -1   -1    0    0    0  501  0.00000000000E+00  0.00000000000E+00 -0.38531725581E+03  0.38531725584E+03  0.50400001928E-02 0.  1.
    10030    2    1    2    0    0  0.00000000000E+00  0.00000000000E+00 -0.15147446557E+03  0.61916004613E+03  0.60034544139E+03 0.  0.
        1    1    3    3  502    0  0.15864322601E+03 -0.10013838137E+03  0.16593161999E+03  0.25045692468E+03  0.50400001928E-02 0. -1.
       -1    1    3    3    0  502 -0.15864322601E+03  0.10013838137E+03 -0.31740608557E+03  0.36870312145E+03  0.50400001928E-02 0.  1.
</event>
<event>
 5   0  0.1416315E-03  0.5999276E+03  0.7818609E-02  0.9905556E-01
        1   -1    0    0  501    0  0.00000000000E+00  0.00000000000E+00  0.30254931138E+03  0.30254931143E+03  0.50400001928E-02 0. -1.
       -1   -1    0    0    0  501  0.00000000000E+00  0.00000000000E+00 -0.29740033938E+03  0.29740033942E+03  0.50400001928E-02 0.  1.
    10030    2    1    2    0    0  0.00000000000E+00  0.00000000000E+00  0.51489720059E+01  0.59994965085E+03  0.59992755533E+03 0.  0.
        2    1    3    3  502    0 -0.56611048287E+02 -0.28357821587E+03  0.82307295182E+02  0.30065911952E+03  0.25500000920E-02 0. -1.
       -2    1    3    3    0  502  0.56611048287E+02  0.28357821587E+03 -0.77158323176E+02  0.29929053133E+03  0.25500000920E-02 0.  1.
</event>
<event>
 5   0  0.1418763E-03  0.6000421E+03  0.7818609E-02  0.9905319E-01
        1   -1    0    0  501    0  0.00000000000E+00  0.00000000000E+00  0.21411196653E+03  0.21411196659E+03  0.50400001928E-02 0.  1.
       -1   -1    0    0    0  501  0.00000000000E+00  0.00000000000E+00 -0.42039974546E+03  0.42039974549E+03  0.50400001928E-02 0. -1.
    10030    2    1    2    0    0  0.00000000000E+00  0.00000000000E+00 -0.20628777893E+03  0.63451171208E+03  0.60004205271E+03 0.  0.
        5    1    3    3  502    0 -0.52057348791E+02 -0.59914187020E+02  0.20276841196E+03  0.21779989958E+03  0.46999998093E+01 0.  1.
       -5    1    3    3    0  502  0.52057348791E+02  0.59914187020E+02 -0.40905619089E+03  0.41671181250E+03  0.46999998093E+01 0. -1.
</event>
<event>
 5   0  0.2313168E-03  0.5998791E+03  0.7818609E-02  0.9905657E-01
       -2   -1    0    0    0  501  0.00000000000E+00  0.00000000000E+00  0.11312762414E+03  0.11312762417E+03  0.25500000920E-02 0. -1.
        2   -1    0    0  501    0  0.00000000000E+00  0.00000000000E+00 -0.79524096565E+03  0.79524096566E+03  0.25500000920E-02 0.  1.
    10030    2    1    2    0    0  0.00000000000E+00  0.00000000000E+00 -0.68211334152E+03  0.90836858982E+03  0.59987905807E+03 0.  0.
        2    1    3    3  502    0  0.65532457394E+02  0.21786976122E+03 -0.63702236467E+03  0.67643124478E+03  0.25500000920E-02 0.  1.
       -2    1    3    3    0  502 -0.65532457394E+02 -0.21786976122E+03 -0.45090976851E+02  0.23193734504E+03  0.25500000920E-02 0. -1.
</event>
<event>
 5   0  0.1479385E-03  0.5997466E+03  0.7818609E-02  0.9905932E-01
        1   -1    0    0  501    0  0.00000000000E+00  0.00000000000E+00  0.78468585560E+03  0.78468585562E+03  0.50400001928E-02 0. -1.
       -1   -1    0    0    0  501  0.00000000000E+00  0.00000000000E+00 -0.11459872106E+03  0.11459872117E+03  0.50400001928E-02 0.  1.
    10030    2    1    2    0    0  0.00000000000E+00  0.00000000000E+00  0.67008713455E+03  0.89928457679E+03  0.59974659829E+03 0.  0.
        3    1    3    3  502    0 -0.20717608420E+02 -0.10257707031E+03 -0.86330568010E+02  0.13566227120E+03  0.10100000352E+00 0.  1.
       -3    1    3    3    0  502  0.20717608420E+02  0.10257707031E+03  0.75641770256E+03  0.76362230559E+03  0.10100000352E+00 0. -1.
</event>
<event>
 5   0  0.1392854E-03  0.6004571E+03  0.7818609E-02  0.9904458E-01
       -1   -1    0    0    0  501  0.00000000000E+00  0.00000000000E+00  0.11649621051E+03  0.11649621062E+03  0.50400001928E-02 0. -1.
        1   -1    0    0  501    0  0.00000000000E+00  0.00000000000E+00 -0.77373475853E+03  0.77373475854E+03  0.50400001928E-02 0.  1.
    10030    2    1    2    0    0  0.00000000000E+00  0.00000000000E+00 -0.65723854802E+03  0.89023096916E+03  0.60045705047E+03 0.  0.
        4    1    3    3  502    0  0.19558723514E+03  0.20450324720E+03 -0.47731939345E+03  0.55489761302E+03  0.12699999809E+01 0.  1.
       -4    1    3    3    0  502 -0.19558723514E+03 -0.20450324720E+03 -0.17991915456E+03  0.33533335615E+03  0.12699999809E+01 0. -1.
</event>
<event>
 5   0  0.2324616E-03  0.6001269E+03  0.7818609E-02  0.9905143E-01
        2   -1    0    0  501    0  0.00000000000E+00  0.00000000000E+00  0.18120665962E+04  0.18120665962E+04  0.25500000920E-02 0. -1.
       -2   -1    0    0    0  501  0.00000000000E+00  0.00000000000E+00 -0.49688059337E+02  0.49688059403E+02  0.25500000920E-02 0.  1.
    10030    2    1    2    0    0  0.00000000000E+00  0.00000000000E+00  0.17623785369E+04  0.18617546556E+04  0.60012689531E+03 0.  0.
        4    1    3    3  502    0 -0.22445493852E+03  0.18811884812E+03  0.10838540559E+04  0.11227243418E+04  0.12699999809E+01 0.  1.
       -4    1    3    3    0  502  0.22445493852E+03 -0.18811884812E+03  0.67852448100E+03  0.73903031377E+03  0.12699999809E+01 0. -1.
</event>
<event>
 5   0  0.9496750E-04  0.6001880E+03  0.7818609E-02  0.9905016E-01
        3   -1    0    0  501    0  0.00000000000E+00  0.00000000000E+00  0.34963510333E+03  0.34963511792E+03  0.10100000352E+00 0.  1.
       -3   -1    0    0    0  501  0.00000000000E+00  0.00000000000E+00 -0.25757255880E+03  0.25757257860E+03  0.10100000352E+00 0. -1.
    10030    2    1    2    0    0  0.00000000000E+00  0.00000000000E+00  0.92062544531E+02  0.60720769652E+03  0.60018803271E+03 0.  0.
        4    1    3    3  502    0 -0.34470271272E+02 -0.27475396807E+03  0.16304237671E+03  0.32134463132E+03  0.12699999809E+01 0.  1.
       -4    1    3    3    0  502  0.34470271272E+02  0.27475396807E+03 -0.70979832183E+02  0.28586306521E+03  0.12699999809E+01 0. -1.
</event>
<event>
 5   0  0.1392854E-03  0.6001827E+03  0.7818609E-02  0.9905027E-01
        1   -1    0    0  501    0  0.00000000000E+00  0.00000000000E+00  0.77901854793E+03  0.77901854795E+03  0.50400001928E-02 0. -1.
       -1   -1    0    0    0  501  0.00000000000E+00  0.00000000000E+00 -0.11560036476E+03  0.11560036487E+03  0.50400001928E-02 0.  1.
    10030    2    1    2    0    0  0.00000000000E+00  0.00000000000E+00  0.66341818318E+03  0.89461891282E+03  0.60018273334E+03 0.  0.
        4    1    3    3  502    0  0.14700663190E+03  0.14300192009E+03  0.65825349466E+03  0.68946339649E+03  0.12699999809E+01 0. -1.
       -4    1    3    3    0  502 -0.14700663190E+03 -0.14300192009E+03  0.51646885238E+01  0.20515551633E+03  0.12699999809E+01 0.  1.
</event>
<event>
 5   0  0.9496750E-04  0.6001300E+03  0.7818609E-02  0.9905136E-01
       -3   -1    0    0    0  501  0.00000000000E+00  0.00000000000E+00  0.47458522343E+03  0.47458523418E+03  0.10100000352E+00 0.  1.
        3   -1    0    0  501    0  0.00000000000E+00  0.00000000000E+00 -0.18972144306E+03  0.18972146995E+03  0.10100000352E+00 0. -1.
    10030    2    1    2    0    0  0.00000000000E+00  0.00000000000E+00  0.28486378037E+03  0.66430670412E+03  0.60013000573E+03 0.  0.
        3    1    3    3  502    0  0.14444405138E+01  0.29331785485E+03  0.72409462129E+02  0.30212677933E+03  0.10100000352E+00 0.  1.
       -3    1    3    3    0  502 -0.14444405138E+01 -0.29331785485E+03  0.21245431824E+03  0.36217992479E+03  0.10100000352E+00 0. -1.
</event>
<event>
 5   0  0.1392854E-03  0.5999720E+03  0.7818609E-02  0.9905464E-01
       -1   -1    0    0    0  501  0.00000000000E+00  0.00000000000E+00  0.14254644838E+03  0.14254644847E+03  0.50400001928E-02 0. -1.
        1   -1    0    0  501    0  0.00000000000E+00  0.00000000000E+00 -0.63131429652E+03  0.63131429654E+03  0.50400001928E-02 0.  1.
    10030    2    1    2    0    0  0.00000000000E+00  0.00000000000E+00 -0.48876784814E+03  0.77386074501E+03  0.59997203542E+03 0.  0.
        4    1    3    3  502    0  0.19206969555E+03  0.34255011237E+01 -0.54156963828E+03  0.57463187173E+03  0.12699999809E+01 0.  1.
       -4    1    3    3    0  502 -0.19206969555E+03 -0.34255011237E+01  0.52801790140E+02  0.19922887328E+03  0.12699999809E+01 0. -1.
</event>
<event>
 5   0  0.1423430E-03  0.5997451E+03  0.7818609E-02  0.9905935E-01
       -1   -1    0    0    0  501  0.00000000000E+00  0.00000000000E+00  0.14711893469E+03  0.14711893477E+03  0.50400001928E-02 0. -1.
        1   -1    0    0  501    0  0.00000000000E+00  0.00000000000E+00 -0.61123020487E+03  0.61123020489E+03  0.50400001928E-02 0.  1.
    10030    2    1    2    0    0  0.00000000000E+00  0.00000000000E+00 -0.46411127019E+03  0.75834913967E+03  0.59974506794E+03 0.  0.
        1    1    3    3  502    0  0.12928026093E+03 -0.12401327321E+03 -0.53613176843E+03  0.56526980367E+03  0.50400001928E-02 0.  1.
       -1    1    3    3    0  502 -0.12928026093E+03  0.12401327321E+03  0.72020498239E+02  0.19307933600E+03  0.50400001928E-02 0. -1.
</event>
<event>
 5   0  0.2421210E-03  0.5999990E+03  0.7818609E-02  0.9905408E-01
       -2   -1    0    0    0  501  0.00000000000E+00  0.00000000000E+00  0.93692539608E+02  0.93692539643E+02  0.25500000920E-02 0. -1.
        2   -1    0    0  501    0  0.00000000000E+00  0.00000000000E+00 -0.96058563840E+03  0.96058563841E+03  0.25500000920E-02 0.  1.
    10030    2    1    2    0    0  0.00000000000E+00  0.00000000000E+00 -0.86689309880E+03  0.10542781780E+04  0.59999902664E+03 0.  0.
        1    1    3    3  502    0  0.10641543376E+03  0.25128453748E+03 -0.21446274510E+03  0.34707698337E+03  0.50400001928E-02 0. -1.
       -1    1    3    3    0  502 -0.10641543376E+03 -0.25128453748E+03 -0.65243035369E+03  0.70720119468E+03  0.50400001928E-02 0.  1.
</event>
<event>
 5   0  0.1479385E-03  0.5997411E+03  0.7818609E-02  0.9905943E-01
        1   -1    0    0  501    0  0.00000000000E+00  0.00000000000E+00  0.76179843433E+03  0.76179843435E+03  0.50400001928E-02 0.  1.
       -1   -1    0    0    0  501  0.00000000000E+00  0.00000000000E+00 -0.11803954017E+03  0.11803954027E+03  0.50400001928E-02 0. -1.
    10030    2    1    2    0    0  0.00000000000E+00  0.00000000000E+00  0.64375889416E+03  0.87983797462E+03  0.59974106727E+03 0.  0.
        3    1    3    3  502    0  0.25306789337E+03 -0.53684582447E+02  0.99408204288E+02  0.27714146989E+03  0.10100000352E+00 0. -1.
       -3    1    3    3    0  502 -0.25306789337E+03  0.53684582447E+02  0.54435068988E+03  0.60269650473E+03  0.10100000352E+00 0.  1.
</event>
<event>
 5   0  0.2313168E-03  0.6001047E+03  0.7818609E-02  0.9905189E-01
        2   -1    0    0  501    0  0.00000000000E+00  0.00000000000E+00  0.22419874444E+04  0.22419874444E+04  0.25500000920E-02 0. -1.
       -2   -1    0    0    0  501  0.00000000000E+00  0.00000000000E+00 -0.40156962443E+02  0.40156962524E+02  0.25500000920E-02 0.  1.
    10030    2    1    2    0    0  0.00000000000E+00  0.00000000000E+00  0.22018304820E+04  0.22821444070E+04  0.60010467653E+03 0.  0.
        2    1    3    3  502    0 -0.94174055960E+02  0.11836307477E+03  0.11543416750E+03  0.19027248176E+03  0.25500000920E-02 0.  1.
       -2    1    3    3    0  502  0.94174055960E+02 -0.11836307477E+03  0.20863963145E+04  0.20918719252E+04  0.25500000920E-02 0. -1.
</event>
<event>
 5   0  0.2346281E-03  0.6000560E+03  0.7818609E-02  0.9905290E-01
       -2   -1    0    0    0  501  0.00000000000E+00  0.00000000000E+00  0.85787942109E+02  0.85787942147E+02  0.25500000920E-02 0.  1.
        2   -1    0    0  501    0  0.00000000000E+00  0.00000000000E+00 -0.10492943530E+04  0.10492943530E+04  0.25500000920E-02 0. -1.
    10030    2    1    2    0    0  0.00000000000E+00  0.00000000000E+00 -0.96350641089E+03  0.11350822952E+04  0.60005600817E+03 0.  0.
        3    1    3    3  502    0  0.11502306160E+03  0.26554807032E+02  0.40011395024E+02  0.12464503363E+03  0.10100000352E+00 0.  1.
       -3    1    3    3    0  502 -0.11502306160E+03 -0.26554807032E+02 -0.10035178059E+04  0.10104372615E+04  0.10100000352E+00 0. -1.
</event>
<event>
 5   0  0.1418763E-03  0.5994292E+03  0.7818609E-02  0.9906591E-01
       -1   -1    0    0    0  501  0.00000000000E+00  0.00000000000E+00  0.39425056537E+03  0.39425056540E+03  0.50400001928E-02 0. -1.
        1   -1    0    0  501    0  0.00000000000E+00  0.00000000000E+00 -0.22784711594E+03  0.22784711600E+03  0.50400001928E-02 0.  1.
    10030    2    1    2    0    0  0.00000000000E+00  0.00000000000E+00  0.16640344943E+03  0.62209768139E+03  0.59942924287E+03 0.  0.
        5    1    3    3  502    0  0.25063458658E+03  0.16385376048E+03  0.70877744594E+02  0.30775232816E+03  0.46999998093E+01 0.  1.
       -5    1    3    3    0  502 -0.25063458658E+03 -0.16385376048E+03  0.95525704833E+02  0.31434535323E+03  0.46999998093E+01 0. -1.
</event>
<event>
 5   0  0.1418763E-03  0.5998483E+03  0.7818609E-02  0.9905721E-01
        1   -1    0    0  501    0  0.00000000000E+00  0.00000000000E+00  0.65990152791E+03  0.65990152793E+03  0.50400001928E-02 0. -1.
       -1   -1    0    0    0  501  0.00000000000E+00  0.00000000000E+00 -0.13631501870E+03  0.13631501880E+03  0.50400001928E-02 0.  1.
    10030    2    1    2    0    0  0.00000000000E+00  0.00000000000E+00  0.52358650920E+03  0.79621654672E+03  0.59984827803E+03 0.  0.
        5    1    3    3  502    0 -0.25364719151E+03 -0.15612059683E+03  0.21539510922E+03  0.36759717299E+03  0.46999998093E+01 0. -1.
       -5    1    3    3    0  502  0.25364719151E+03  0.15612059683E+03  0.30819139998E+03  0.42861937373E+03  0.46999998093E+01 0.  1.
</event>
<event>
 5   0  0.2324616E-03  0.6000172E+03  0.7818609E-02  0.9905370E-01
        2   -1    0    0  501    0  0.00000000000E+00  0.00000000000E+00  0.14402973488E+04  0.14402973488E+04  0.25500000920E-02 0. -1.
       -2   -1    0    0    0  501  0.00000000000E+00  0.00000000000E+00 -0.62490677226E+02  0.62490677278E+02  0.25500000920E-02 0.  1.
    10030    2    1    2    0    0  0.00000000000E+00  0.00000000000E+00  0.13778066716E+04  0.15027880261E+04  0.60001718901E+03 0.  0.
        4    1    3    3  502    0  0.23423570399E+02 -0.28699874503E+02 -0.56733478705E+02  0.67769070767E+02  0.12699999809E+01 0.  1.
       -4    1    3    3    0  502 -0.23423570399E+02  0.28699874503E+02  0.14345401503E+04  0.14350189553E+04  0.12699999809E+01 0. -1.
</event>
<event>
 5   0  0.2324616E-03  0.5999794E+03  0.7818609E-02  0.9905449E-01
       -2   -1    0    0    0  501  0.00000000000E+00  0.00000000000E+00  0.43138151066E+03  0.43138151067E+03  0.25500000920E-02 0.  1.
        2   -1    0    0  501    0  0.00000000000E+00  0.00000000000E+00 -0.20861768131E+03  0.20861768133E+03  0.25500000920E-02 0. -1.
    10030    2    1    2    0    0  0.00000000000E+00  0.00000000000E+00  0.22276382935E+03  0.63999919200E+03  0.59997936805E+03 0.  0.
        4    1    3    3  502    0 -0.21094978695E+03  0.33466384096E+02 -0.11331623767E+03  0.24178915215E+03  0.12699999809E+01 0. -1.
       -4    1    3    3    0  502  0.21094978695E+03 -0.33466384096E+02  0.33608006703E+03  0.39821003984E+03  0.12699999809E+01 0.  1.
</event>
<event>
 5   0  0.2313168E-03  0.6002240E+03  0.7818609E-02  0.9904942E-01
        2   -1    0    0  501    0  0.00000000000E+00  0.00000000000E+00  0.17460720541E+03  0.17460720543E+03  0.25500000920E-02 0. -1.
       -2   -1    0    0    0  501  0.00000000000E+00  0.00000000000E+00 -0.51582750524E+03  0.51582750525E+03  0.25500000920E-02 0.  1.
    10030    2    1    2    0    0  0.00000000000E+00  0.00000000000E+00 -0.34122029983E+03  0.69043471067E+03  0.60022395544E+03 0.  0.
        2    1    3    3  502    0 -0.16276375463E+02  0.29932461068E+03 -0.15405803776E+03  0.33703712253E+03  0.25500000920E-02 0. -1.
       -2    1    3    3    0  502  0.16276375463E+02 -0.29932461068E+03 -0.18716226207E+03  0.35339758815E+03  0.25500000920E-02 0.  1.
</event>
<event>
 5   0  0.1479385E-03  0.5997666E+03  0.7818609E-02  0.9905890E-01
       -1   -1    0    0    0  501  0.00000000000E+00  0.00000000000E+00  0.51605218128E+03  0.51605218131E+03  0.50400001928E-02 0.  1.
        1   -1    0    0  501    0  0.00000000000E+00  0.00000000000E+00 -0.17426528992E+03  0.17426528999E+03  0.50400001928E-02 0. -1.
    10030    2    1    2    0    0  0.00000000000E+00  0.00000000000E+00  0.34178689137E+03  0.69031747130E+03  0.59976656465E+03 0.  0.
        3    1    3    3  502    0  0.23181806110E+03 -0.18790528988E+03  0.13671192318E+03  0.32823493348E+03  0.10100000352E+00 0.  1.
       -3    1    3    3    0  502 -0.23181806110E+03  0.18790528988E+03  0.20507496818E+03  0.36208253782E+03  0.10100000352E+00 0. -1.
</event>
<event>
 5   0  0.2346281E-03  0.5998913E+03  0.7818609E-02  0.9905632E-01
        2   -1    0    0  501    0  0.00000000000E+00  0.00000000000E+00  0.13183915195E+04  0.13183915195E+04  0.25500000920E-02 0.  1.
       -2   -1    0    0    0  501  0.00000000000E+00  0.00000000000E+00 -0.68240272366E+02  0.68240272414E+02  0.25500000920E-02 0. -1.
    10030    2    1    2    0    0  0.00000000000E+00  0.00000000000E+00  0.12501512471E+04  0.13866317919E+04  0.59989131151E+03 0.  0.
        3    1    3    3  502    0  0.12258473941E+03 -0.26508128615E+03  0.78307413429E+03  0.83576325392E+03  0.10100000352E+00 0. -1.
       -3    1    3    3    0  502 -0.12258473941E+03  0.26508128615E+03  0.46707711280E+03  0.55086853795E+03  0.10100000352E+00 0.  1.
</event>
<event>
 5   0  0.1418763E-03  0.5998230E+03  0.7818609E-02  0.9905773E-01
        1   -1    0    0  501    0  0.00000000000E+00  0.00000000000E+00  0.20455765758E+03  0.20455765764E+03  0.50400001928E-02 0. -1.
       -1   -1    0    0    0  501  0.00000000000E+00  0.00000000000E+00 -0.43971418108E+03  0.43971418111E+03  0.50400001928E-02 0.  1.
    10030    2    1    2    0    0  0.00000000000E+00  0.00000000000E+00 -0.23515652350E+03  0.64427183876E+03  0.59982298361E+03 0.  0.
        5    1    3    3  502    0 -0.18939725335E+03  0.19624048137E+03 -0.25148912200E+03  0.37101282267E+03  0.46999998093E+01 0.  1.
       -5    1    3    3    0  502  0.18939725335E+03 -0.19624048137E+03  0.16332598493E+02  0.27325901609E+03  0.46999998093E+01 0. -1.
</event>
<event>
 5   0  0.1479385E-03  0.6001166E+03  0.7818609E-02  0.9905164E-01
        1   -1    0    0  501    0  0.00000000000E+00  0.00000000000E+00  0.69146157870E+03  0.69146157872E+03  0.50400001928E-02 0.  1.
       -1   -1    0    0    0  501  0.00000000000E+00  0.00000000000E+00 -0.13020967704E+03  0.13020967714E+03  0.50400001928E-02 0. -1.
    10030    2    1    2    0    0  0.00000000000E+00  0.00000000000E+00  0.56125190166E+03  0.82167125586E+03  0.60011661832E+03 0.  0.
        3    1    3    3  502    0 -0.10252225807E+03  0.16476508419E+03  0.59397705307E+03  0.62487366415E+03  0.10100000352E+00 0.  1.
       -3    1    3    3    0  502  0.10252225807E+03 -0.16476508419E+03 -0.32725151408E+02  0.19679759171E+03  0.10100000352E+00 0. -1.
</event>
<event>
 5   0  0.1418763E-03  0.5999609E+03  0.7818609E-02  0.9905487E-01
        1   -1    0    0  501    0  0.00000000000E+00  0.00000000000E+00  0.81131325231E+03  0.81131325233E+03  0.50400001928E-02 0. -1.
       -1   -1    0    0    0  501  0.00000000000E+00  0.00000000000E+00 -0.11091680349E+03  0.11091680360E+03  0.50400001928E-02 0.  1.
    10030    2    1    2    0    0  0.00000000000E+00  0.00000000000E+00  0.70039644883E+03  0.92223005593E+03  0.59996090750E+03 0.  0.
        5    1    3    3  502    0  0.54366529595E+02  0.78906427448E+02  0.78709580246E+03  0.79292107809E+03  0.46999998093E+01 0. -1.
       -5    1    3    3    0  502 -0.54366529595E+02 -0.78906427448E+02 -0.86699353628E+02  0.12930897784E+03  0.46999998093E+01 0.  1.
</event>
<event>
 5   0  0.2324616E-03  0.5999423E+03  0.7818609E-02  0.9905526E-01
        2   -1    0    0  501    0  0.00000000000E+00  0.00000000000E+00  0.56508404130E+03  0.56508404131E+03  0.25500000920E-02 0. -1.
       -2   -1    0    0    0  501  0.00000000000E+00  0.00000000000E+00 -0.15923769373E+03  0.15923769375E+03  0.25500000920E-02 0.  1.
    10030    2    1    2    0    0  0.00000000000E+00  0.00000000000E+00  0.40584634757E+03  0.72432173506E+03  0.59994226226E+03 0.  0.
        4    1    3    3  502    0 -0.20343588562E+03  0.28736183420E+02 -0.60950319809E+02  0.21430931426E+03  0.12699999809E+01 0.  1.
       -4    1    3    3    0  502  0.20343588562E+03 -0.28736183420E+02  0.46679666738E+03  0.51001242080E+03  0.12699999809E+01 0. -1.
</event>
<event>
 5   0  0.1416315E-03  0.5999804E+03  0.7818609E-02  0.9905447E-01
        1   -1    0    0  501    0  0.00000000000E+00  0.00000000000E+00  0.17128635726E+04  0.17128635726E+04  0.50400001928E-02 0. -1.
       -1   -1    0    0    0  501  0.00000000000E+00  0.00000000000E+00 -0.52540163979E+02  0.52540164221E+02  0.50400001928E-02 0.  1.
    10030    2    1    2    0    0  0.00000000000E+00  0.00000000000E+00  0.16603234086E+04  0.17654037368E+04  0.59998044368E+03 0.  0.
        2    1    3    3  502    0  0.26149533414E+03 -0.14232123446E+03  0.93863304774E+03  0.98471678257E+03  0.25500000920E-02 0.  1.
       -2    1    3    3    0  502 -0.26149533414E+03  0.14232123446E+03  0.72169036089E+03  0.78068695427E+03  0.25500000920E-02 0. -1.
</event>
<event>
 5   0  0.1479385E-03  0.6002650E+03  0.7818609E-02  0.9904857E-01
        1   -1    0    0  501    0  0.00000000000E+00  0.00000000000E+00  0.24275866409E+03  0.24275866414E+03  0.50400001928E-02 0.  1.
       -1   -1    0    0    0  501  0.00000000000E+00  0.00000000000E+00 -0.37106607734E+03  0.37106607738E+03  0.50400001928E-02 0. -1.
    10030    2    1    2    0    0  0.00000000000E+00  0.00000000000E+00 -0.12830741326E+03  0.61382474152E+03  0.60026495900E+03 0.  0.
        3    1    3    3  502    0  0.18788778705E+03  0.12270510577E+03  0.13965005885E+03  0.26431139333E+03  0.10100000352E+00 0.  1.
       -3    1    3    3    0  502 -0.18788778705E+03 -0.12270510577E+03 -0.26795747210E+03  0.34951334819E+03  0.10100000352E+00 0. -1.
</event>
<event>
 5   0  0.2313168E-03  0.6001739E+03  0.7818609E-02  0.9905045E-01
       -2   -1    0    0    0  501  0.00000000000E+00  0.00000000000E+00  0.12694092957E+03  0.12694092960E+03  0.25500000920E-02 0. -1.
        2   -1    0    0  501    0  0.00000000000E+00  0.00000000000E+00 -0.70940217498E+03  0.70940217499E+03  0.25500000920E-02 0.  1.
    10030    2    1    2    0    0  0.00000000000E+00  0.00000000000E+00 -0.58246124541E+03  0.83634310459E+03  0.60017387996E+03 0.  0.
        2    1    3    3  502    0 -0.21185883299E+03 -0.13815098072E+02  0.43005885928E+01  0.21235234192E+03  0.25500000920E-02 0. -1.
       -2    1    3    3    0  502  0.21185883299E+03  0.13815098072E+02 -0.58676183400E+03  0.62399076267E+03  0.25500000920E-02 0.  1.
</event>
<event>
 5   0  0.1479385E-03  0.5979892E+03  0.7818609E-02  0.9909587E-01
       -1   -1    0    0    0  501  0.00000000000E+00  0.00000000000E+00  0.23282462610E+03  0.23282462615E+03  0.50400001928E-02 0.  1.
        1   -1    0    0  501    0  0.00000000000E+00  0.00000000000E+00 -0.38397046418E+03  0.38397046421E+03  0.50400001928E-02 0. -1.
    10030    2    1    2    0    0  0.00000000000E+00  0.00000000000E+00 -0.15114583808E+03  0.61679509037E+03  0.59798922995E+03 0.  0.
        3    1    3    3  502    0  0.64349541115E+02 -0.31348889620E+02  0.22385669101E+03  0.23502222157E+03  0.10100000352E+00 0.  1.
       -3    1    3    3    0  502 -0.64349541115E+02  0.31348889620E+02 -0.37500252909E+03  0.38177286880E+03  0.10100000352E+00 0. -1.
</event>
<event>
 5   0  0.2324616E-03  0.6000434E+03  0.7818609E-02  0.9905316E-01
       -2   -1    0    0    0  501  0.00000000000E+00  0.00000000000E+00  0.81502821394E+02  0.81502821434E+02  0.25500000920E-02 0.  1.
        2   -1    0    0  501    0  0.00000000000E+00  0.00000000000E+00 -0.11044160072E+04  0.11044160073E+04  0.25500000920E-02 0. -1.
    10030    2    1    2    0    0  0.00000000000E+00  0.00000000000E+00 -0.10229131859E+04  0.11859188287E+04  0.60004340046E+03 0.  0.
        4    1    3    3  502    0  0.99935507998E+02  0.22028932035E+02  0.45937601272E+02  0.11217956907E+03  0.12699999809E+01 0.  1.
       -4    1    3    3    0  502 -0.99935507998E+02 -0.22028932035E+02 -0.10688507871E+04  0.10737392596E+04  0.12699999809E+01 0. -1.
</event>
<event>
 5   0  0.2421210E-03  0.6011073E+03  0.7818609E-02  0.9903111E-01
        2   -1    0    0  501    0  0.00000000000E+00  0.00000000000E+00  0.41059619502E+03  0.41059619503E+03  0.25500000920E-02 0. -1.
       -2   -1    0    0    0  501  0.00000000000E+00  0.00000000000E+00 -0.22000327840E+03  0.22000327841E+03  0.25500000920E-02 0.  1.
    10030    2    1    2    0    0  0.00000000000E+00  0.00000000000E+00  0.19059291663E+03  0.63059947344E+03  0.60110734153E+03 0.  0.
        1    1    3    3  502    0  0.12934462568E+03 -0.98274962930E+02 -0.16998274110E+03  0.23512152779E+03  0.50400001928E-02 0.  1.
       -1    1    3    3    0  502 -0.12934462568E+03  0.98274962930E+02  0.36057565773E+03  0.39547794566E+03  0.50400001928E-02 0. -1.
</event>
<event>
 5   0  0.2421210E-03  0.6000873E+03  0.7818609E-02  0.9905225E-01
        2   -1    0    0  501    0  0.00000000000E+00  0.00000000000E+00  0.76588686105E+03  0.76588686105E+03  0.25500000920E-02 0.  1.
       -2   -1    0    0    0  501  0.00000000000E+00  0.00000000000E+00 -0.11754502980E+03  0.11754502983E+03  0.25500000920E-02 0. -1.
    10030    2    1    2    0    0  0.00000000000E+00  0.00000000000E+00  0.64834183125E+03  0.88343189088E+03  0.60008730671E+03 0.  0.
        1    1    3    3  502    0 -0.12779362943E+03 -0.17289202908E+03  0.16056379129E+02  0.21559376795E+03  0.50400001928E-02 0. -1.
       -1    1    3    3    0  502  0.12779362943E+03  0.17289202908E+03  0.63228545212E+03  0.66783812293E+03  0.50400001928E-02 0.  1.
</event>
<event>
 5   0  0.2346281E-03  0.5995447E+03  0.7818609E-02  0.9906351E-01
       -2   -1    0    0    0  501  0.00000000000E+00  0.00000000000E+00  0.98886859970E+02  0.98886860003E+02  0.25500000920E-02 0.  1.
        2   -1    0    0  501    0  0.00000000000E+00  0.00000000000E+00 -0.90875020671E+03  0.90875020671E+03  0.25500000920E-02 0. -1.
    10030    2    1    2    0    0  0.00000000000E+00  0.00000000000E+00 -0.80986334674E+03  0.10076370667E+04  0.59954467542E+03 0.  0.
        3    1    3    3  502    0 -0.18929123591E+03  0.63166974306E+02 -0.78089960762E+03  0.80599345283E+03  0.10100000352E+00 0. -1.
       -3    1    3    3    0  502  0.18929123591E+03 -0.63166974306E+02 -0.28963739121E+02  0.20164361388E+03  0.10100000352E+00 0.  1.
</event>
<event>
 5   0  0.2406307E-03  0.6002194E+03  0.7818609E-02  0.9904951E-01
       -2   -1    0    0    0  501  0.00000000000E+00  0.00000000000E+00  0.17150935306E+03  0.17150935308E+03  0.25500000920E-02 0. -1.
        2   -1    0    0  501    0  0.00000000000E+00  0.00000000000E+00 -0.52513661900E+03  0.52513661901E+03  0.25500000920E-02 0.  1.
    10030    2    1    2    0    0  0.00000000000E+00  0.00000000000E+00 -0.35362726594E+03  0.69664597209E+03  0.60021943255E+03 0.  0.
        5    1    3    3  502    0 -0.25509087041E+03  0.13542076312E+03 -0.27134528780E+03  0.39630857985E+03  0.46999998093E+01 0. -1.
       -5    1    3    3    0  502  0.25509087041E+03 -0.13542076312E+03 -0.82281978144E+02  0.30033739224E+03  0.46999998093E+01 0.  1.
</event>
<event>
 5   0  0.1479385E-03  0.6004787E+03  0.7818609E-02  0.9904413E-01
        1   -1    0    0  501    0  0.00000000000E+00  0.00000000000E+00  0.10631796198E+03  0.10631796210E+03  0.50400001928E-02 0. -1.
       -1   -1    0    0    0  501  0.00000000000E+00  0.00000000000E+00 -0.84786874010E+03  0.84786874012E+03  0.50400001928E-02 0.  1.
    10030    2    1    2    0    0  0.00000000000E+00  0.00000000000E+00 -0.74155077812E+03  0.95418670222E+03  0.60047873081E+03 0.  0.
        3    1    3    3  502    0  0.13408739610E+03  0.13419970345E+02  0.55562709331E+02  0.14576265045E+03  0.10100000352E+00 0. -1.
       -3    1    3    3    0  502 -0.13408739610E+03 -0.13419970345E+02 -0.79711348745E+03  0.80842405177E+03  0.10100000352E+00 0.  1.
</event>
<event>
 5   0  0.1392854E-03  0.5999470E+03  0.7818609E-02  0.9905516E-01
       -1   -1    0    0    0  501  0.00000000000E+00  0.00000000000E+00  0.11855827775E+03  0.11855827785E+03  0.50400001928E-02 0. -1.
        1   -1    0    0  501    0  0.00000000000E+00  0.00000000000E+00 -0.75898620657E+03  0.75898620659E+03  0.50400001928E-02 0.  1.
    10030    2    1    2    0    0  0.00000000000E+00  0.00000000000E+00 -0.64042792882E+03  0.87754448444E+03  0.59994698946E+03 0.  0.
        4    1    3    3  502    0  0.13688239914E+03 -0.23117341627E+03 -0.12504008119E+03  0.29633523987E+03  0.12699999809E+01 0. -1.
       -4    1    3    3    0  502 -0.13688239914E+03  0.23117341627E+03 -0.51538784763E+03  0.58120924457E+03  0.12699999809E+01 0.  1.
</event>
<event>
 5   0  0.2324616E-03  0.5998365E+03  0.7818609E-02  0.9905745E-01
       -2   -1    0    0    0  501  0.00000000000E+00  0.00000000000E+00  0.28709473176E+03  0.28709473178E+03  0.25500000920E-02 0. -1.
        2   -1    0    0  501    0  0.00000000000E+00  0.00000000000E+00 -0.31331456202E+03  0.31331456203E+03  0.25500000920E-02 0.  1.
    10030    2    1    2    0    0  0.00000000000E+00  0.00000000000E+00 -0.26219830253E+02  0.60040929380E+03  0.59983651155E+03 0.  0.
        4    1    3    3  502    0 -0.11039524356E+03  0.16469320657E+02 -0.29174778310E+03  0.31237274236E+03  0.12699999809E+01 0.  1.
       -4    1    3    3    0  502  0.11039524356E+03 -0.16469320657E+02  0.26552795285E+03  0.28803655144E+03  0.12699999809E+01 0. -1.
</event>
<event>
 5   0  0.1479385E-03  0.6000095E+03  0.7818609E-02  0.9905386E-01
        1   -1    0    0  501    0  0.00000000000E+00  0.00000000000E+00  0.14749898225E+04  0.14749898225E+04  0.50400001928E-02 0.  1.
       -1   -1    0    0    0  501  0.00000000000E+00  0.00000000000E+00 -0.61019301978E+02  0.61019302186E+02  0.50400001928E-02 0. -1.
    10030    2    1    2    0    0  0.00000000000E+00  0.00000000000E+00  0.14139705205E+04  0.15360091247E+04  0.60000949845E+03 0.  0.
        3    1    3    3  502    0 -0.22632419570E+03  0.20649630611E+02  0.20563664904E+03  0.30648897277E+03  0.10100000352E+00 0. -1.
       -3    1    3    3    0  502  0.22632419570E+03 -0.20649630611E+02  0.12083338714E+04  0.12295201519E+04  0.10100000352E+00 0.  1.
</event>
<event>
 5   0  0.1416315E-03  0.5999215E+03  0.7818609E-02  0.9905569E-01
       -1   -1    0    0    0  501  0.00000000000E+00  0.00000000000E+00  0.18692720538E+03  0.18692720544E+03  0.50400001928E-02 0.  1.
        1   -1    0    0  501    0  0.00000000000E+00  0.00000000000E+00 -0.48134485297E+03  0.48134485300E+03  0.50400001928E-02 0. -1.
    10030    2    1    2    0    0  0.00000000000E+00  0.00000000000E+00 -0.29441764760E+03  0.66827205844E+03  0.59992148893E+03 0.  0.
        2    1    3    3  502    0 -0.51247113674E+02  0.94324537498E+01 -0.47626458640E+03  0.47910666255E+03  0.25500000920E-02 0. -1.
       -2    1    3    3    0  502  0.51247113674E+02 -0.94324537498E+01  0.18184693880E+03  0.18916539589E+03  0.25500000920E-02 0.  1.
</event>
<event>
 5   0  0.1479385E-03  0.6003175E+03  0.7818609E-02  0.9904747E-01
        1   -1    0    0  501    0  0.00000000000E+00  0.00000000000E+00  0.42337408542E+03  0.42337408545E+03  0.50400001928E-02 0. -1.
       -1   -1    0    0    0  501  0.00000000000E+00  0.00000000000E+00 -0.21280303154E+03  0.21280303160E+03  0.50400001928E-02 0.  1.
    10030    2    1    2    0    0  0.00000000000E+00  0.00000000000E+00  0.21057105388E+03  0.63617711705E+03  0.60031754557E+03 0.  0.
        3    1    3    3  502    0  0.16077371064E+01  0.72632706267E+02  0.41391609009E+03  0.42024354210E+03  0.10100000352E+00 0. -1.
       -3    1    3    3    0  502 -0.16077371064E+01 -0.72632706267E+02 -0.20334503621E+03  0.21593357495E+03  0.10100000352E+00 0.  1.
</event>
<event>
 5   0  0.1423430E-03  0.5999545E+03  0.7818609E-02  0.9905500E-01
        1   -1    0    0  501    0  0.00000000000E+00  0.00000000000E+00  0.18829656591E+03  0.18829656598E+03  0.50400001928E-02 0.  1.
       -1   -1    0    0    0  501  0.00000000000E+00  0.00000000000E+00 -0.47789700159E+03  0.47789700162E+03  0.50400001928E-02 0. -1.
    10030    2    1    2    0    0  0.00000000000E+00  0.00000000000E+00 -0.28960043568E+03  0.66619356760E+03  0.59995454591E+03 0.  0.
        1    1    3    3  502    0 -0.17098072451E+02 -0.15441977054E+03  0.14014095666E+03  0.20923024967E+03  0.50400001928E-02 0.  1.
       -1    1    3    3    0  502  0.17098072451E+02  0.15441977054E+03 -0.42974139234E+03  0.45696331793E+03  0.50400001928E-02 0. -1.
</event>
<event>
 5   0  0.1418763E-03  0.5998232E+03  0.7818609E-02  0.9905773E-01
        1   -1    0    0  501    0  0.00000000000E+00  0.00000000000E+00  0.21664698072E+03  0.21664698077E+03  0.50400001928E-02 0.  1.
       -1   -1    0    0    0  501  0.00000000000E+00  0.00000000000E+00 -0.41517759515E+03  0.41517759518E+03  0.50400001928E-02 0. -1.
    10030    2    1    2    0    0  0.00000000000E+00  0.00000000000E+00 -0.19853061443E+03  0.63182457595E+03  0.59982321555E+03 0.  0.
        5    1    3    3  502    0  0.51716267421E+02 -0.20996391443E+03 -0.31811273915E+03  0.38467807643E+03  0.46999998093E+01 0. -1.
       -5    1    3    3    0  502 -0.51716267421E+02  0.20996391443E+03  0.11958212471E+03  0.24714649953E+03  0.46999998093E+01 0.  1.
</event>
<event>
 5   0  0.9496750E-04  0.5999869E+03  0.7818609E-02  0.9905433E-01
        4   -1    0    0  501    0  0.00000000000E+00  0.00000000000E+00  0.44330859823E+03  0.44331041739E+03  0.12699999809E+01 0.  1.
       -4   -1    0    0    0  501  0.00000000000E+00  0.00000000000E+00 -0.20300579078E+03  0.20300976329E+03  0.12699999809E+01 0. -1.
    10030    2    1    2    0    0  0.00000000000E+00  0.00000000000E+00  0.24030280745E+03  0.64632018068E+03  0.59998694710E+03 0.  0.
        5    1    3    3  502    0  0.16773296304E+03 -0.10381800260E+02 -0.14749450860E+03  0.22364894083E+03  0.46999998093E+01 0. -1.
       -5    1    3    3    0  502 -0.16773296304E+03  0.10381800260E+02  0.38779731605E+03  0.42267123986E+03  0.46999998093E+01 0.  1.
</event>
<event>
 5   0  0.1418763E-03  0.6000470E+03  0.7818609E-02  0.9905309E-01
       -1   -1    0    0    0  501  0.00000000000E+00  0.00000000000E+00  0.21511556147E+03  0.21511556153E+03  0.50400001928E-02 0. -1.
        1   -1    0    0  501    0  0.00000000000E+00  0.00000000000E+00 -0.41844526707E+03  0.41844526710E+03  0.50400001928E-02 0.  1.
    10030    2    1    2    0    0  0.00000000000E+00  0.00000000000E+00 -0.20332970559E+03  0.63356082863E+03  0.60004696016E+03 0.  0.
        5    1    3    3  502    0  0.13043395641E+03  0.16074247842E+03 -0.33091083029E+03  0.39035269815E+03  0.46999998093E+01 0.  1.
       -5    1    3    3    0  502 -0.13043395641E+03 -0.16074247842E+03  0.12758112470E+03  0.24320813048E+03  0.46999998093E+01 0. -1.
</event>
<event>
 5   0  0.9496750E-04  0.6001269E+03  0.7818609E-02  0.9905143E-01
       -4   -1    0    0    0  501  0.00000000000E+00  0.00000000000E+00  0.27454272960E+03  0.27454566701E+03  0.12699999809E+01 0. -1.
        4   -1    0    0  501    0  0.00000000000E+00  0.00000000000E+00 -0.32795060092E+03  0.32795305997E+03  0.12699999809E+01 0.  1.
    10030    2    1    2    0    0  0.00000000000E+00  0.00000000000E+00 -0.53407871322E+02  0.60249872698E+03  0.60012691599E+03 0.  0.
        1    1    3    3  502    0 -0.24186887998E+03  0.54762603318E+02 -0.19630525078E+03  0.31628349519E+03  0.50400001928E-02 0.  1.
       -1    1    3    3    0  502  0.24186887998E+03 -0.54762603318E+02  0.14289737946E+03  0.28621523178E+03  0.50400001928E-02 0. -1.
</event>
<event>
 5   0  0.2406307E-03  0.6008460E+03  0.7818609E-02  0.9903652E-01
        2   -1    0    0  501    0  0.00000000000E+00  0.00000000000E+00  0.46113201229E+03  0.46113201229E+03  0.25500000920E-02 0.  1.
       -2   -1    0    0    0  501  0.00000000000E+00  0.00000000000E+00 -0.19572267458E+03  0.19572267460E+03  0.25500000920E-02 0. -1.
    10030    2    1    2    0    0  0.00000000000E+00  0.00000000000E+00  0.26540933771E+03  0.65685468689E+03  0.60084603947E+03 0.  0.
        5    1    3    3  502    0 -0.75639881967E+02 -0.14491236688E+02  0.45011511044E+03  0.45668051232E+03  0.46999998093E+01 0.  1.
       -5    1    3    3    0  502  0.75639881967E+02  0.14491236688E+02 -0.18470577274E+03  0.20017417457E+03  0.46999998093E+01 0. -1.
</event>
<event>
 5   0  0.1423430E-03  0.6000573E+03  0.7818609E-02  0.9905287E-01
       -1   -1    0    0    0  501  0.00000000000E+00  0.00000000000E+00  0.22598048311E+03  0.22598048317E+03  0.50400001928E-02 0. -1.
        1   -1    0    0  501    0  0.00000000000E+00  0.00000000000E+00 -0.39834051461E+03  0.39834051464E+03  0.50400001928E-02 0.  1.
    10030    2    1    2    0    0  0.00000000000E+00  0.00000000000E+00 -0.17236003150E+03  0.62432099781E+03  0.60005727047E+03 0.  0.
        1    1    3    3  502    0  0.12034994715E+03  0.36729657634E+02 -0.36956078570E+03  0.39039512277E+03  0.50400001928E-02 0.  1.
       -1    1    3    3    0  502 -0.12034994715E+03 -0.36729657634E+02  0.19720075420E+03  0.23392587504E+03  0.50400001928E-02 0. -1.
</event>
<event>
 5   0  0.2406307E-03  0.5999967E+03  0.7818609E-02  0.9905413E-01
        2   -1    0    0  501    0  0.00000000000E+00  0.00000000000E+00  0.12242447581E+04  0.12242447581E+04  0.25500000920E-02 0. -1.
       -2   -1    0    0    0  501  0.00000000000E+00  0.00000000000E+00 -0.73513903906E+02  0.73513903951E+02  0.25500000920E-02 0.  1.
    10030    2    1    2    0    0  0.00000000000E+00  0.00000000000E+00  0.11507308542E+04  0.12977586620E+04  0.59999670510E+03 0.  0.
        5    1    3    3  502    0  0.91767978473E+02 -0.20365202570E+03  0.10083940238E+04  0.10328485401E+04  0.46999998093E+01 0. -1.
       -5    1    3    3    0  502 -0.91767978473E+02  0.20365202570E+03  0.14233683035E+03  0.26491012196E+03  0.46999998093E+01 0.  1.
</event>
<event>
 5   0  0.1479385E-03  0.6021739E+03  0.7818609E-02  0.9900906E-01
       -1   -1    0    0    0  501  0.00000000000E+00  0.00000000000E+00  0.65750379817E+02  0.65750380010E+02  0.50400001928E-02 0.  1.
        1   -1    0    0  501    0  0.00000000000E+00  0.00000000000E+00 -0.13787502344E+04  0.13787502344E+04  0.50400001928E-02 0. -1.
    10030    2    1    2    0    0  0.00000000000E+00  0.00000000000E+00 -0.13129998546E+04  0.14445006144E+04  0.60217390090E+03 0.  0.
        3    1    3    3  502    0 -0.49010378151E+02 -0.43385732058E+02  0.48476758134E+02  0.81451489814E+02  0.10100000352E+00 0.  1.
       -3    1    3    3    0  502  0.49010378151E+02  0.43385732058E+02 -0.13614766127E+04  0.13630491246E+04  0.10100000352E+00 0. -1.
</event>
<event>
 5   0  0.2324616E-03  0.5999909E+03  0.7818609E-02  0.9905425E-01
       -2   -1    0    0    0  501  0.00000000000E+00  0.00000000000E+00  0.88031404973E+02  0.88031405009E+02  0.25500000920E-02 0. -1.
        2   -1    0    0  501    0  0.00000000000E+00  0.00000000000E+00 -0.10223315467E+04  0.10223315467E+04  0.25500000920E-02 0.  1.
    10030    2    1    2    0    0  0.00000000000E+00  0.00000000000E+00 -0.93430014174E+03  0.11103629517E+04  0.59999094136E+03 0.  0.
        4    1    3    3  502    0  0.90946719039E+02  0.17691719567E+03 -0.88271778584E+03  0.90485540401E+03  0.12699999809E+01 0.  1.
       -4    1    3    3    0  502 -0.90946719039E+02 -0.17691719567E+03 -0.51582355905E+02  0.20550754772E+03  0.12699999809E+01 0. -1.
</event>
<event>
 5   0  0.1392854E-03  0.6000176E+03  0.7818609E-02  0.9905370E-01
       -1   -1    0    0    0  501  0.00000000000E+00  0.00000000000E+00  0.40496958380E+03  0.40496958383E+03  0.50400001928E-02 0. -1.
        1   -1    0    0  501    0  0.00000000000E+00  0.00000000000E+00 -0.22225194212E+03  0.22225194218E+03  0.50400001928E-02 0.  1.
    10030    2    1    2    0    0  0.00000000000E+00  0.00000000000E+00  0.18271764168E+03  0.62722152601E+03  0.60001758816E+03 0.  0.
        4    1    3    3  502    0 -0.84877986557E+02  0.27872541770E+03  0.16622358040E+02  0.29183907682E+03  0.12699999809E+01 0.  1.
       -4    1    3    3    0  502  0.84877986557E+02 -0.27872541770E+03  0.16609528364E+03  0.33538244919E+03  0.12699999809E+01 0. -1.
</event>
<event>
 5   0  0.2324616E-03  0.6004688E+03  0.7818609E-02  0.9904434E-01
        2   -1    0    0  501    0  0.00000000000E+00  0.00000000000E+00  0.96502813054E+02  0.96502813088E+02  0.25500000920E-02 0. -1.
       -2   -1    0    0    0  501  0.00000000000E+00  0.00000000000E+00 -0.93407336931E+03  0.93407336931E+03  0.25500000920E-02 0.  1.
    10030    2    1    2    0    0  0.00000000000E+00  0.00000000000E+00 -0.83757055625E+03  0.10305761824E+04  0.60046884268E+03 0.  0.
        4    1    3    3  502    0  0.67027386308E+01 -0.27495161417E+03 -0.62542337277E+03  0.68322714009E+03  0.12699999809E+01 0.  1.
       -4    1    3    3    0  502 -0.67027386308E+01  0.27495161417E+03 -0.21214718348E+03  0.34734904231E+03  0.12699999809E+01 0. -1.
</event>
<event>
 5   0  0.2313168E-03  0.6004857E+03  0.7818609E-02  0.9904399E-01
        2   -1    0    0  501    0  0.00000000000E+00  0.00000000000E+00  0.23899922391E+03  0.23899922392E+03  0.25500000920E-02 0. -1.
       -2   -1    0    0    0  501  0.00000000000E+00  0.00000000000E+00 -0.37718016094E+03  0.37718016095E+03  0.25500000920E-02 0.  1.
    10030    2    1    2    0    0  0.00000000000E+00  0.00000000000E+00 -0.13818093703E+03  0.61617938487E+03  0.60048568924E+03 0.  0.
        2    1    3    3  502    0  0.28608709675E+03  0.84192363782E+02 -0.33372940684E+02  0.30007987973E+03  0.25500000920E-02 0.  1.
       -2    1    3    3    0  502 -0.28608709675E+03 -0.84192363782E+02 -0.10480799634E+03  0.31609950514E+03  0.25500000920E-02 0. -1.
</event>
<event>
 5   0  0.1423430E-03  0.5991634E+03  0.7818609E-02  0.9907143E-01
        1   -1    0    0  501    0  0.00000000000E+00  0.00000000000E+00  0.23374109905E+03  0.23374109910E+03  0.50400001928E-02 0. -1.
       -1   -1    0    0    0  501  0.00000000000E+00  0.00000000000E+00 -0.38396833927E+03  0.38396833930E+03  0.50400001928E-02 0.  1.
    10030    2    1    2    0    0  0.00000000000E+00  0.00000000000E+00 -0.15022724022E+03  0.61770943840E+03  0.59916335551E+03 0.  0.
        1    1    3    3  502    0 -0.23073561555E+03  0.12313391972E+03  0.75519541753E+02  0.27222065991E+03  0.50400001928E-02 0. -1.
       -1    1    3    3    0  502  0.23073561555E+03 -0.12313391972E+03 -0.22574678197E+03  0.34548877849E+03  0.50400001928E-02 0.  1.
</event>
<event>
 5   0  0.1418763E-03  0.5998909E+03  0.7818609E-02  0.9905632E-01
        1   -1    0    0  501    0  0.00000000000E+00  0.00000000000E+00  0.63869251300E+03  0.63869251302E+03  0.50400001928E-02 0.  1.
       -1   -1    0    0    0  501  0.00000000000E+00  0.00000000000E+00 -0.14086164209E+03  0.14086164218E+03  0.50400001928E-02 0. -1.
    10030    2    1    2    0    0  0.00000000000E+00  0.00000000000E+00  0.49783087091E+03  0.77955415519E+03  0.59989091079E+03 0.  0.
        5    1    3    3  502    0  0.24402018410E+03  0.86497327669E+01  0.47520835361E+03  0.53428993764E+03  0.46999998093E+01 0.  1.
       -5    1    3    3    0  502 -0.24402018410E+03 -0.86497327669E+01  0.22622517298E+02  0.24526421755E+03  0.46999998093E+01 0. -1.
</event>
<event>
 5   0  0.1423430E-03  0.6000088E+03  0.7818609E-02  0.9905388E-01
       -1   -1    0    0    0  501  0.00000000000E+00  0.00000000000E+00  0.82812499919E+02  0.82812500072E+02  0.50400001928E-02 0.  1.
        1   -1    0    0  501    0  0.00000000000E+00  0.00000000000E+00 -0.10868242547E+04  0.10868242547E+04  0.50400001928E-02 0. -1.
    10030    2    1    2    0    0  0.00000000000E+00  0.00000000000E+00 -0.10040117548E+04  0.11696367548E+04  0.60000877861E+03 0.  0.
        1    1    3    3  502    0  0.19376150650E+03  0.11549239635E+03 -0.88756968385E+03  0.91578488671E+03  0.50400001928E-02 0. -1.
       -1    1    3    3    0  502 -0.19376150650E+03 -0.11549239635E+03 -0.11644207093E+03  0.25385186807E+03  0.50400001928E-02 0.  1.
</event>
<event>
 5   0  0.2406307E-03  0.6002916E+03  0.7818609E-02  0.9904801E-01
       -2   -1    0    0    0  501  0.00000000000E+00  0.00000000000E+00  0.15242392119E+03  0.15242392121E+03  0.25500000920E-02 0.  1.
        2   -1    0    0  501    0  0.00000000000E+00  0.00000000000E+00 -0.59103258719E+03  0.59103258720E+03  0.25500000920E-02 0. -1.
    10030    2    1    2    0    0  0.00000000000E+00  0.00000000000E+00 -0.43860866600E+03  0.74345650841E+03  0.60029161081E+03 0.  0.
        5    1    3    3  502    0 -0.10420252020E+03  0.87712794659E+02 -0.55050252949E+03  0.56712152536E+03  0.46999998093E+01 0. -1.
       -5    1    3    3    0  502  0.10420252020E+03 -0.87712794659E+02  0.11189386348E+03  0.17633498305E+03  0.46999998093E+01 0.  1.
</event>
<event>
 5   0  0.2346281E-03  0.5998041E+03  0.7818609E-02  0.9905812E-01
        2   -1    0    0  501    0  0.00000000000E+00  0.00000000000E+00  0.81624231956E+02  0.81624231996E+02  0.25500000920E-02 0.  1.
       -2   -1    0    0    0  501  0.00000000000E+00  0.00000000000E+00 -0.11018940088E+04  0.11018940088E+04  0.25500000920E-02 0. -1.
    10030    2    1    2    0    0  0.00000000000E+00  0.00000000000E+00 -0.10202697769E+04  0.11835182408E+04  0.59980414201E+03 0.  0.
        3    1    3    3  502    0 -0.22195825272E+03 -0.14168633652E+03 -0.79334391835E+03  0.83590374260E+03  0.10100000352E+00 0. -1.
       -3    1    3    3    0  502  0.22195825272E+03  0.14168633652E+03 -0.22692585851E+03  0.34761449822E+03  0.10100000352E+00 0.  1.
</event>
<event>
 5   0  0.2406307E-03  0.5995455E+03  0.7818609E-02  0.9906350E-01
        2   -1    0    0  501    0  0.00000000000E+00  0.00000000000E+00  0.46006109999E+03  0.46006109999E+03  0.25500000920E-02 0.  1.
       -2   -1    0    0    0  501  0.00000000000E+00  0.00000000000E+00 -0.19532991070E+03  0.19532991072E+03  0.25500000920E-02 0. -1.
    10030    2    1    2    0    0  0.00000000000E+00  0.00000000000E+00  0.26473118928E+03  0.65539101071E+03  0.59954547312E+03 0.  0.
        5    1    3    3  502    0 -0.21887145045E+02  0.29690104787E+03  0.17042725655E+03  0.34306970008E+03  0.46999998093E+01 0.  1.
       -5    1    3    3    0  502  0.21887145045E+02 -0.29690104787E+03  0.94303932735E+02  0.31232131063E+03  0.46999998093E+01 0. -1.
</event>
<event>
 5   0  0.1416315E-03  0.6000069E+03  0.7818609E-02  0.9905392E-01
        1   -1    0    0  501    0  0.00000000000E+00  0.00000000000E+00  0.15639148526E+03  0.15639148534E+03  0.50400001928E-02 0.  1.
       -1   -1    0    0    0  501  0.00000000000E+00  0.00000000000E+00 -0.57549213404E+03  0.57549213406E+03  0.50400001928E-02 0. -1.
    10030    2    1    2    0    0  0.00000000000E+00  0.00000000000E+00 -0.41910064878E+03  0.73188361941E+03  0.60000689875E+03 0.  0.
        2    1    3    3  502    0 -0.18875786609E+03 -0.10931720821E+03 -0.46078687095E+03  0.50980812515E+03  0.25500000920E-02 0. -1.
       -2    1    3    3    0  502  0.18875786609E+03  0.10931720821E+03  0.41686222170E+02  0.22207549425E+03  0.25500000920E-02 0.  1.
</event>
<event>
 5   0  0.2324616E-03  0.6006521E+03  0.7818609E-02  0.9904054E-01
        2   -1    0    0  501    0  0.00000000000E+00  0.00000000000E+00  0.49231445854E+03  0.49231445855E+03  0.25500000920E-02 0.  1.
       -2   -1    0    0    0  501  0.00000000000E+00  0.00000000000E+00 -0.18320760054E+03  0.18320760056E+03  0.25500000920E-02 0. -1.
    10030    2    1    2    0    0  0.00000000000E+00  0.00000000000E+00  0.30910685800E+03  0.67552205911E+03  0.60065214782E+03 0.  0.
        4    1    3    3  502    0  0.16264006196E+03  0.16418161569E+03  0.37025940768E+03  0.43646424201E+03  0.12699999809E+01 0.  1.
       -4    1    3    3    0  502 -0.16264006196E+03 -0.16418161569E+03 -0.61152549680E+02  0.23905781710E+03  0.12699999809E+01 0. -1.
</event>
<event>
 5   0  0.1423430E-03  0.6002555E+03  0.7818609E-02  0.9904876E-01
        1   -1    0    0  501    0  0.00000000000E+00  0.00000000000E+00  0.81434338287E+03  0.81434338289E+03  0.50400001928E-02 0. -1.
       -1   -1    0    0    0  501  0.00000000000E+00  0.00000000000E+00 -0.11061264606E+03  0.11061264618E+03  0.50400001928E-02 0.  1.
    10030    2    1    2    0    0  0.00000000000E+00  0.00000000000E+00  0.70373073681E+03  0.92495602906E+03  0.60025553373E+03 0.  0.
        1    1    3    3  502    0  0.62227747612E+02  0.82908483735E+02  0.78588082339E+03  0.79268832327E+03  0.50400001928E-02 0. -1.
       -1    1    3    3    0  502 -0.62227747612E+02 -0.82908483735E+02 -0.82150086574E+02  0.13226770580E+03  0.50400001928E-02 0.  1.
</event>
<event>
 5   0  0.2346281E-03  0.5999137E+03  0.7818609E-02  0.9905585E-01
        2   -1    0    0  501    0  0.00000000000E+00  0.00000000000E+00  0.86781037276E+03  0.86781037276E+03  0.25500000920E-02 0. -1.
       -2   -1    0    0    0  501  0.00000000000E+00  0.00000000000E+00 -0.10367946070E+03  0.10367946074E+03  0.25500000920E-02 0.  1.
    10030    2    1    2    0    0  0.00000000000E+00  0.00000000000E+00  0.76413091205E+03  0.97148983350E+03  0.59991369865E+03 0.  0.
        3    1    3    3  502    0 -0.18142722780E+03  0.13205185722E+03  0.70440221648E+03  0.73928074827E+03  0.10100000352E+00 0. -1.
       -3    1    3    3    0  502  0.18142722780E+03 -0.13205185722E+03  0.59728695574E+02  0.23220908522E+03  0.10100000352E+00 0.  1.
</event>
<event>
 5   0  0.1423430E-03  0.6000169E+03  0.7818609E-02  0.9905371E-01
        1   -1    0    0  501    0  0.00000000000E+00  0.00000000000E+00  0.53330182844E+03  0.53330182846E+03  0.50400001928E-02 0. -1.
       -1   -1    0    0    0  501  0.00000000000E+00  0.00000000000E+00 -0.16876947508E+03  0.16876947515E+03  0.50400001928E-02 0.  1.
    10030    2    1    2    0    0  0.00000000000E+00  0.00000000000E+00  0.36453235336E+03  0.70207130362E+03  0.60001689869E+03 0.  0.
        1    1    3    3  502    0  0.42587208145E+02  0.12015836621E+03 -0.13550072843E+03  0.18604341079E+03  0.50400001928E-02 0.  1.
       -1    1    3    3    0  502 -0.42587208145E+02 -0.12015836621E+03  0.50003308179E+03  0.51602789283E+03  0.50400001928E-02 0. -1.
</event>
<event>
 5   0  0.9496750E-04  0.6002650E+03  0.7818609E-02  0.9904856E-01
        3   -1    0    0  501    0  0.00000000000E+00  0.00000000000E+00  0.13158597784E+04  0.13158597822E+04  0.10100000352E+00 0. -1.
       -3   -1    0    0    0  501  0.00000000000E+00  0.00000000000E+00 -0.68456728867E+02  0.68456803374E+02  0.10100000352E+00 0.  1.
    10030    2    1    2    0    0  0.00000000000E+00  0.00000000000E+00  0.12474030495E+04  0.13843165856E+04  0.60026497592E+03 0.  0.
        3    1    3    3  502    0  0.26661978708E+03  0.87618570248E+02  0.86902894469E+03  0.91322201113E+03  0.10100000352E+00 0. -1.
       -3    1    3    3    0  502 -0.26661978708E+03 -0.87618570248E+02  0.37837410482E+03  0.47109457449E+03  0.10100000352E+00 0.  1.
</event>
<event>
 5   0  0.2406307E-03  0.6004492E+03  0.7818609E-02  0.9904474E-01
        2   -1    0    0  501    0  0.00000000000E+00  0.00000000000E+00  0.25360984199E+04  0.25360984199E+04  0.25500000920E-02 0. -1.
       -2   -1    0    0    0  501  0.00000000000E+00  0.00000000000E+00 -0.35540742304E+02  0.35540742396E+02  0.25500000920E-02 0.  1.
    10030    2    1    2    0    0  0.00000000000E+00  0.00000000000E+00  0.25005576776E+04  0.25716391623E+04  0.60044923356E+03 0.  0.
        5    1    3    3  502    0 -0.19122857510E+03  0.10041986958E+03  0.21431312137E+04  0.21539930379E+04  0.46999998093E+01 0. -1.
       -5    1    3    3    0  502  0.19122857510E+03 -0.10041986958E+03  0.35742646391E+03  0.41764612442E+03  0.46999998093E+01 0.  1.
</event>
<event>
 5   0  0.1418763E-03  0.5999470E+03  0.7818609E-02  0.9905516E-01
        1   -1    0    0  501    0  0.00000000000E+00  0.00000000000E+00  0.11919943135E+04  0.11919943135E+04  0.50400001928E-02 0. -1.
       -1   -1    0    0    0  501  0.00000000000E+00  0.00000000000E+00 -0.75490375722E+02  0.75490375890E+02  0.50400001928E-02 0.  1.
    10030    2    1    2    0    0  0.00000000000E+00  0.00000000000E+00  0.11165039378E+04  0.12674846894E+04  0.59994699332E+03 0.  0.
        5    1    3    3  502    0  0.99778064293E+02  0.17907208732E+03  0.95682733335E+02  0.22627361761E+03  0.46999998093E+01 0.  1.
       -5    1    3    3    0  502 -0.99778064293E+02 -0.17907208732E+03  0.10208212044E+04  0.10412110718E+04  0.46999998093E+01 0. -1.
</event>
<event>
 5   0  0.1416315E-03  0.6001437E+03  0.7818609E-02  0.9905108E-01
        1   -1    0    0  501    0  0.00000000000E+00  0.00000000000E+00  0.18111619563E+04  0.18111619563E+04  0.50400001928E-02 0. -1.
       -1   -1    0    0    0  501  0.00000000000E+00  0.00000000000E+00 -0.49715655757E+02  0.49715656013E+02  0.50400001928E-02 0.  1.
    10030    2    1    2    0    0  0.00000000000E+00  0.00000000000E+00  0.17614463005E+04  0.18608776123E+04  0.60014366475E+03 0.  0.
        2    1    3    3  502    0 -0.18824371201E+03 -0.19345996887E+03  0.12871499890E+04  0.13151492497E+04  0.25500000920E-02 0. -1.
       -2    1    3    3    0  502  0.18824371201E+03  0.19345996887E+03  0.47429631151E+03  0.54572836264E+03  0.25500000920E-02 0.  1.
</event>
<event>
 5   0  0.2313168E-03  0.5999374E+03  0.7818609E-02  0.9905536E-01
       -2   -1    0    0    0  501  0.00000000000E+00  0.00000000000E+00  0.66794496480E+02  0.66794496529E+02  0.25500000920E-02 0. -1.
        2   -1    0    0  501    0  0.00000000000E+00  0.00000000000E+00 -0.13471351515E+04  0.13471351515E+04  0.25500000920E-02 0.  1.
    10030    2    1    2    0    0  0.00000000000E+00  0.00000000000E+00 -0.12803406550E+04  0.14139296480E+04  0.59993737730E+03 0.  0.
        2    1    3    3  502    0 -0.25252355805E+03 -0.91197931105E+01 -0.10211402792E+04  0.10519404868E+04  0.25500000920E-02 0.  1.
       -2    1    3    3    0  502  0.25252355805E+03  0.91197931105E+01 -0.25920037577E+03  0.36198916117E+03  0.25500000920E-02 0. -1.
</event>
<event>
 5   0  0.2346281E-03  0.6000991E+03  0.7818609E-02  0.9905201E-01
       -2   -1    0    0    0  501  0.00000000000E+00  0.00000000000E+00  0.10161946524E+03  0.10161946527E+03  0.25500000920E-02 0. -1.
        2   -1    0    0  501    0  0.00000000000E+00  0.00000000000E+00 -0.88594961712E+03  0.88594961712E+03  0.25500000920E-02 0.  1.
    10030    2    1    2    0    0  0.00000000000E+00  0.00000000000E+00 -0.78433015188E+03  0.98756908239E+03  0.60009907961E+03 0.  0.
        3    1    3    3  502    0 -0.20795529360E+03  0.21629180485E+03 -0.38974243202E+03  0.49186047056E+03  0.10100000352E+00 0.  1.
       -3    1    3    3    0  502  0.20795529360E+03 -0.21629180485E+03 -0.39458771986E+03  0.49570861183E+03  0.10100000352E+00 0. -1.
</event>
<event>
 5   0  0.1479385E-03  0.6000322E+03  0.7818609E-02  0.9905339E-01
       -1   -1    0    0    0  501  0.00000000000E+00  0.00000000000E+00  0.48055778054E+02  0.48055778318E+02  0.50400001928E-02 0.  1.
        1   -1    0    0  501    0  0.00000000000E+00  0.00000000000E+00 -0.18730247680E+04  0.18730247680E+04  0.50400001928E-02 0. -1.
    10030    2    1    2    0    0  0.00000000000E+00  0.00000000000E+00 -0.18249689899E+04  0.19210805463E+04  0.60003220847E+03 0.  0.
        3    1    3    3  502    0 -0.21432028253E+03 -0.20346570584E+03 -0.74679669209E+03  0.80314182214E+03  0.10100000352E+00 0. -1.
       -3    1    3    3    0  502  0.21432028253E+03  0.20346570584E+03 -0.10781722978E+04  0.11179387241E+04  0.10100000352E+00 0.  1.
</event>
<event>
 5   0  0.9496750E-04  0.6001331E+03  0.7818609E-02  0.9905130E-01
       -4   -1    0    0    0  501  0.00000000000E+00  0.00000000000E+00  0.21516641812E+03  0.21517016612E+03  0.12699999809E+01 0.  1.
        4   -1    0    0  501    0  0.00000000000E+00  0.00000000000E+00 -0.41845808627E+03  0.41846001346E+03  0.12699999809E+01 0. -1.
    10030    2    1    2    0    0  0.00000000000E+00  0.00000000000E+00 -0.20329166815E+03  0.63363017958E+03  0.60013307036E+03 0.  0.
        2    1    3    3  502    0  0.61408171637E+02  0.13330441557E+03  0.17468546406E+03  0.22815793240E+03  0.25500000920E-02 0.  1.
       -2    1    3    3    0  502 -0.61408171637E+02 -0.13330441557E+03 -0.37797713221E+03  0.40547224718E+03  0.25500000920E-02 0. -1.
</event>
<event>
 5   0  0.2324616E-03  0.6002406E+03  0.7818609E-02  0.9904907E-01
       -2   -1    0    0    0  501  0.00000000000E+00  0.00000000000E+00  0.12225281216E+03  0.12225281219E+03  0.25500000920E-02 0. -1.
        2   -1    0    0  501    0  0.00000000000E+00  0.00000000000E+00 -0.73676998320E+03  0.73676998321E+03  0.25500000920E-02 0.  1.
    10030    2    1    2    0    0  0.00000000000E+00  0.00000000000E+00 -0.61451717104E+03  0.85902279540E+03  0.60024062634E+03 0.  0.
        4    1    3    3  502    0  0.13344138790E+03  0.67856997501E+02  0.64998879822E+02  0.16321042673E+03  0.12699999809E+01 0. -1.
       -4    1    3    3    0  502 -0.13344138790E+03 -0.67856997501E+02 -0.67951605086E+03  0.69581236867E+03  0.12699999809E+01 0.  1.
</event>
<event>
 5   0  0.2313168E-03  0.6001697E+03  0.7818609E-02  0.9905054E-01
       -2   -1    0    0    0  501  0.00000000000E+00  0.00000000000E+00  0.72533670938E+02  0.72533670983E+02  0.25500000920E-02 0. -1.
        2   -1    0    0  501    0  0.00000000000E+00  0.00000000000E+00 -0.12415051419E+04  0.12415051419E+04  0.25500000920E-02 0.  1.
    10030    2    1    2    0    0  0.00000000000E+00  0.00000000000E+00 -0.11689714710E+04  0.13140388129E+04  0.60016972753E+03 0.  0.
        2    1    3    3  502    0 -0.14548942191E+03 -0.81776327898E+01 -0.10129161386E+02  0.14607068659E+03  0.25500000920E-02 0. -1.
       -2    1    3    3    0  502  0.14548942191E+03  0.81776327898E+01 -0.11588423096E+04  0.11679681263E+04  0.25500000920E-02 0.  1.
</event>
<event>
 5   0  0.9496750E-04  0.6000098E+03  0.7818609E-02  0.9905386E-01
       -4   -1    0    0    0  501  0.00000000000E+00  0.00000000000E+00  0.54365500684E+02  0.54380332516E+02  0.12699999809E+01 0.  1.
        4   -1    0    0  501    0  0.00000000000E+00  0.00000000000E+00 -0.16552746915E+04  0.16552751787E+04  0.12699999809E+01 0. -1.
    10030    2    1    2    0    0  0.00000000000E+00  0.00000000000E+00 -0.16009091909E+04  0.17096555113E+04  0.60000977475E+03 0.  0.
        3    1    3    3  502    0  0.17718131719E+03  0.19534553466E+02 -0.11288508399E+03  0.21099258359E+03  0.10100000352E+00 0.  1.
       -3    1    3    3    0  502 -0.17718131719E+03 -0.19534553466E+02 -0.14880241069E+04  0.14986629277E+04  0.10100000352E+00 0. -1.
</event>
<event>
 5   0  0.2313168E-03  0.6002530E+03  0.7818609E-02  0.9904881E-01
       -2   -1    0    0    0  501  0.00000000000E+00  0.00000000000E+00  0.10812651615E+03  0.10812651618E+03  0.25500000920E-02 0.  1.
        2   -1    0    0  501    0  0.00000000000E+00  0.00000000000E+00 -0.83306026697E+03  0.83306026697E+03  0.25500000920E-02 0. -1.
    10030    2    1    2    0    0  0.00000000000E+00  0.00000000000E+00 -0.72493375082E+03  0.94118678315E+03  0.60025296143E+03 0.  0.
        2    1    3    3  502    0 -0.43681847084E+02 -0.28275937906E+03 -0.50458306455E+03  0.58005606561E+03  0.25500000920E-02 0. -1.
       -2    1    3    3    0  502  0.43681847084E+02  0.28275937906E+03 -0.22035068627E+03  0.36113071754E+03  0.25500000920E-02 0.  1.
</event>
<event>
 5   0  0.2406307E-03  0.5998552E+03  0.7818609E-02  0.9905706E-01
        2   -1    0    0  501    0  0.00000000000E+00  0.00000000000E+00  0.61667664098E+03  0.61667664099E+03  0.25500000920E-02 0. -1.
       -2   -1    0    0    0  501  0.00000000000E+00  0.00000000000E+00 -0.14587316228E+03  0.14587316230E+03  0.25500000920E-02 0.  1.
    10030    2    1    2    0    0  0.00000000000E+00  0.00000000000E+00  0.47080347871E+03  0.76254980329E+03  0.59985522164E+03 0.  0.
        5    1    3    3  502    0  0.24122358811E+03  0.35159211854E+02  0.13357628749E+02  0.24418334481E+03  0.46999998093E+01 0.  1.
       -5    1    3    3    0  502 -0.24122358811E+03 -0.35159211854E+02  0.45744584996E+03  0.51836645848E+03  0.46999998093E+01 0. -1.
</event>
<event>
 5   0  0.2324616E-03  0.6001716E+03  0.7818609E-02  0.9905050E-01
       -2   -1    0    0    0  501  0.00000000000E+00  0.00000000000E+00  0.84879336223E+02  0.84879336262E+02  0.25500000920E-02 0.  1.
        2   -1    0    0  501    0  0.00000000000E+00  0.00000000000E+00 -0.10609353044E+04  0.10609353044E+04  0.25500000920E-02 0. -1.
    10030    2    1    2    0    0  0.00000000000E+00  0.00000000000E+00 -0.97605596817E+03  0.11458146407E+04  0.60017159025E+03 0.  0.
        4    1    3    3  502    0  0.99701978254E+02 -0.89670713175E+01 -0.10281135500E+04  0.10329762715E+04  0.12699999809E+01 0. -1.
       -4    1    3    3    0  502 -0.99701978254E+02  0.89670713175E+01  0.52057581825E+02  0.11283836919E+03  0.12699999809E+01 0.  1.
</event>
<event>
 5   0  0.2313168E-03  0.5994570E+03  0.7818609E-02  0.9906533E-01
        2   -1    0    0  501    0  0.00000000000E+00  0.00000000000E+00  0.68379515825E+03  0.68379515825E+03  0.25500000920E-02 0.  1.
       -2   -1    0    0    0  501  0.00000000000E+00  0.00000000000E+00 -0.13138024872E+03  0.13138024874E+03  0.25500000920E-02 0. -1.
    10030    2    1    2    0    0  0.00000000000E+00  0.00000000000E+00  0.55241490953E+03  0.81517540699E+03  0.59945701422E+03 0.  0.
        2    1    3    3  502    0  0.25518273475E+03  0.20506463503E+02  0.64233661109E+02  0.26394072514E+03  0.25500000920E-02 0. -1.
       -2    1    3    3    0  502 -0.25518273475E+03 -0.20506463503E+02  0.48818124842E+03  0.55123468185E+03  0.25500000920E-02 0.  1.
</event>
<event>
 5   0  0.2406307E-03  0.5997286E+03  0.7818609E-02  0.9905969E-01
        2   -1    0    0  501    0  0.00000000000E+00  0.00000000000E+00  0.47001185913E+03  0.47001185914E+03  0.25500000920E-02 0.  1.
       -2   -1    0    0    0  501  0.00000000000E+00  0.00000000000E+00 -0.19131132797E+03  0.19131132799E+03  0.25500000920E-02 0. -1.
    10030    2    1    2    0    0  0.00000000000E+00  0.00000000000E+00  0.27870053116E+03  0.66132318712E+03  0.59972858174E+03 0.  0.
        5    1    3    3  502    0  0.17257817141E+03 -0.53917227270E+02 -0.12439252219E+03  0.21951282928E+03  0.46999998093E+01 0. -1.
       -5    1    3    3    0  502 -0.17257817141E+03  0.53917227270E+02  0.40309305335E+03  0.44181035785E+03  0.46999998093E+01 0.  1.
</event>
<event>
 5   0  0.1423430E-03  0.6000372E+03  0.7818609E-02  0.9905329E-01
        1   -1    0    0  501    0  0.00000000000E+00  0.00000000000E+00  0.41209363811E+03  0.41209363814E+03  0.50400001928E-02 0.  1.
       -1   -1    0    0    0  501  0.00000000000E+00  0.00000000000E+00 -0.21842401517E+03  0.21842401522E+03  0.50400001928E-02 0. -1.
    10030    2    1    2    0    0  0.00000000000E+00  0.00000000000E+00  0.19366962295E+03  0.63051765337E+03  0.60003715581E+03 0.  0.
        1    1    3    3  502    0 -0.21377482302E+03 -0.40444179392E+02 -0.12024010338E+03  0.24858215762E+03  0.50400001928E-02 0. -1.
       -1    1    3    3    0  502  0.21377482302E+03  0.40444179392E+02  0.31390972632E+03  0.38193549574E+03  0.50400001928E-02 0.  1.
</event>
<event>
 5   0  0.2346281E-03  0.6000774E+03  0.7818609E-02  0.9905245E-01
       -2   -1    0    0    0  501  0.00000000000E+00  0.00000000000E+00  0.37517405877E+02  0.37517405963E+02  0.25500000920E-02 0. -1.
        2   -1    0    0  501    0  0.00000000000E+00  0.00000000000E+00 -0.23995058311E+04  0.23995058311E+04  0.25500000920E-02 0.  1.
    10030    2    1    2    0    0  0.00000000000E+00  0.00000000000E+00 -0.23619884252E+04  0.24370232371E+04  0.60007744259E+03 0.  0.
        3    1    3    3  502    0  0.23258454498E+03  0.15228535377E+02 -0.41370234500E+03  0.47484431060E+03  0.10100000352E+00 0. -1.
       -3    1    3    3    0  502 -0.23258454498E+03 -0.15228535377E+02 -0.19482860803E+04  0.19621789265E+04  0.10100000352E+00 0.  1.
</event>
<event>
 5   0  0.1392854E-03  0.6000734E+03  0.7818609E-02  0.9905254E-01
       -1   -1    0    0    0  501  0.00000000000E+00  0.00000000000E+00  0.18860072085E+03  0.18860072092E+03  0.50400001928E-02 0.  1.
        1   -1    0    0  501    0  0.00000000000E+00  0.00000000000E+00 -0.47731531250E+03  0.47731531253E+03  0.50400001928E-02 0. -1.
    10030    2    1    2    0    0  0.00000000000E+00  0.00000000000E+00 -0.28871459165E+03  0.66591603344E+03  0.60007336899E+03 0.  0.
        4    1    3    3  502    0  0.66275974850E+02  0.14887145351E+03 -0.42392235567E+03  0.45416625926E+03  0.12699999809E+01 0. -1.
       -4    1    3    3    0  502 -0.66275974850E+02 -0.14887145351E+03  0.13520776402E+03  0.21174977418E+03  0.12699999809E+01 0.  1.
</event>
<event>
 5   0  0.2313168E-03  0.6000861E+03  0.7818609E-02  0.9905227E-01
       -2   -1    0    0    0  501  0.00000000000E+00  0.00000000000E+00  0.65381156853E+02  0.65381156903E+02  0.25500000920E-02 0. -1.
        2   -1    0    0  501    0  0.00000000000E+00  0.00000000000E+00 -0.13769385035E+04  0.13769385035E+04  0.25500000920E-02 0.  1.
    10030    2    1    2    0    0  0.00000000000E+00  0.00000000000E+00 -0.13115573467E+04  0.14423196604E+04  0.60008610153E+03 0.  0.
        2    1    3    3  502    0  0.17577680853E+03 -0.23457189320E+03 -0.50179617702E+03  0.58113755925E+03  0.25500000920E-02 0.  1.
       -2    1    3    3    0  502 -0.17577680853E+03  0.23457189320E+03 -0.80976116964E+03  0.86118210116E+03  0.25500000920E-02 0. -1.
</event>
<event>
 5   0  0.2406307E-03  0.6004469E+03  0.7818609E-02  0.9904479E-01
       -2   -1    0    0    0  501  0.00000000000E+00  0.00000000000E+00  0.71304251945E+02  0.71304251991E+02  0.25500000920E-02 0.  1.
        2   -1    0    0  501    0  0.00000000000E+00  0.00000000000E+00 -0.12640777171E+04  0.12640777171E+04  0.25500000920E-02 0. -1.
    10030    2    1    2    0    0  0.00000000000E+00  0.00000000000E+00 -0.11927734652E+04  0.13353819691E+04  0.60044688709E+03 0.  0.
        5    1    3    3  502    0  0.14436995581E+02  0.10996448493E+03  0.23985793542E+02  0.11356946367E+03  0.46999998093E+01 0.  1.
       -5    1    3    3    0  502 -0.14436995581E+02 -0.10996448493E+03 -0.12167592587E+04  0.12218125055E+04  0.46999998093E+01 0. -1.
</event>
<event>
 5   0  0.1423430E-03  0.5998936E+03  0.7818609E-02  0.9905627E-01
       -1   -1    0    0    0  501  0.00000000000E+00  0.00000000000E+00  0.35792448225E+03  0.35792448229E+03  0.50400001928E-02 0. -1.
        1   -1    0    0  501    0  0.00000000000E+00  0.00000000000E+00 -0.25136049828E+03  0.25136049833E+03  0.50400001928E-02 0.  1.
    10030    2    1    2    0    0  0.00000000000E+00  0.00000000000E+00  0.10656398397E+03  0.60928498062E+03  0.59989357800E+03 0.  0.
        1    1    3    3  502    0 -0.30980535311E+02  0.16104736967E+03  0.30835508902E+03  0.34925479209E+03  0.50400001928E-02 0. -1.
       -1    1    3    3    0  502  0.30980535311E+02 -0.16104736967E+03 -0.20179110505E+03  0.26003018853E+03  0.50400001928E-02 0.  1.
</event>
<event>
 5   0  0.1392854E-03  0.5960501E+03  0.7818609E-02  0.9913635E-01
        1   -1    0    0  501    0  0.00000000000E+00  0.00000000000E+00  0.14513283677E+04  0.14513283677E+04  0.50400001928E-02 0. -1.
       -1   -1    0    0    0  501  0.00000000000E+00  0.00000000000E+00 -0.61198361817E+02  0.61198362025E+02  0.50400001928E-02 0.  1.
    10030    2    1    2    0    0  0.00000000000E+00  0.00000000000E+00  0.13901300059E+04  0.15125267298E+04  0.59605006074E+03 0.  0.
        4    1    3    3  502    0  0.16887380235E+03 -0.24364878015E+03  0.61750387418E+03  0.68497863961E+03  0.12699999809E+01 0.  1.
       -4    1    3    3    0  502 -0.16887380235E+03  0.24364878015E+03  0.77262613172E+03  0.82754809015E+03  0.12699999809E+01 0. -1.
</event>
<event>
 5   0  0.1479385E-03  0.6002154E+03  0.7818609E-02  0.9904959E-01
       -1   -1    0    0    0  501  0.00000000000E+00  0.00000000000E+00  0.59590595619E+02  0.59590595832E+02  0.50400001928E-02 0. -1.
        1   -1    0    0  501    0  0.00000000000E+00  0.00000000000E+00 -0.15113902152E+04  0.15113902152E+04  0.50400001928E-02 0.  1.
    10030    2    1    2    0    0  0.00000000000E+00  0.00000000000E+00 -0.14517996196E+04  0.15709808111E+04  0.60021543903E+03 0.  0.
        3    1    3    3  502    0 -0.28720780209E+03 -0.32712293353E+01 -0.95355927428E+03  0.99587866846E+03  0.10100000352E+00 0.  1.
       -3    1    3    3    0  502  0.28720780209E+03  0.32712293353E+01 -0.49824034533E+03  0.57510214261E+03  0.10100000352E+00 0. -1.
</event>
<event>
 5   0  0.1418763E-03  0.6000221E+03  0.7818609E-02  0.9905360E-01
        1   -1    0    0  501    0  0.00000000000E+00  0.00000000000E+00  0.11414279436E+04  0.11414279436E+04  0.50400001928E-02 0.  1.
       -1   -1    0    0    0  501  0.00000000000E+00  0.00000000000E+00 -0.78854406796E+02  0.78854406957E+02  0.50400001928E-02 0. -1.
    10030    2    1    2    0    0  0.00000000000E+00  0.00000000000E+00  0.10625735368E+04  0.12202823505E+04  0.60002207791E+03 0.  0.
        5    1    3    3  502    0  0.14156016699E+03  0.81250061249E+02  0.10431391697E+04  0.10558419724E+04  0.46999998093E+01 0.  1.
       -5    1    3    3    0  502 -0.14156016699E+03 -0.81250061249E+02  0.19434367052E+02  0.16444037811E+03  0.46999998093E+01 0. -1.
</event>
<event>
 5   0  0.1418763E-03  0.5987926E+03  0.7818609E-02  0.9907914E-01
        1   -1    0    0  501    0  0.00000000000E+00  0.00000000000E+00  0.77039687883E+03  0.77039687884E+03  0.50400001928E-02 0. -1.
       -1   -1    0    0    0  501  0.00000000000E+00  0.00000000000E+00 -0.11635321877E+03  0.11635321888E+03  0.50400001928E-02 0.  1.
    10030    2    1    2    0    0  0.00000000000E+00  0.00000000000E+00  0.65404366006E+03  0.88675009772E+03  0.59879264070E+03 0.  0.
        5    1    3    3  502    0 -0.15146686903E+03 -0.20364116738E+03  0.56212616625E+03  0.61678185305E+03  0.46999998093E+01 0.  1.
       -5    1    3    3    0  502  0.15146686903E+03  0.20364116738E+03  0.91917493806E+02  0.26996824468E+03  0.46999998093E+01 0. -1.
</event>
<event>
 5   0  0.1423430E-03  0.5998582E+03  0.7818609E-02  0.9905700E-01
        1   -1    0    0  501    0  0.00000000000E+00  0.00000000000E+00  0.37073233356E+03  0.37073233359E+03  0.50400001928E-02 0. -1.
       -1   -1    0    0    0  501  0.00000000000E+00  0.00000000000E+00 -0.24264802053E+03  0.24264802058E+03  0.50400001928E-02 0.  1.
    10030    2    1    2    0    0  0.00000000000E+00  0.00000000000E+00  0.12808431303E+03  0.61338035418E+03  0.59985820628E+03 0.  0.
        1    1    3    3  502    0  0.24625490365E+03  0.29348127890E+02  0.23652983823E+03  0.34270855633E+03  0.50400001928E-02 0. -1.
       -1    1    3    3    0  502 -0.24625490365E+03 -0.29348127890E+02 -0.10844552521E+03  0.27067179784E+03  0.50400001928E-02 0.  1.
</event>
<event>
 5   0  0.2406307E-03  0.5999630E+03  0.7818609E-02  0.9905483E-01
        2   -1    0    0  501    0  0.00000000000E+00  0.00000000000E+00  0.44914601899E+03  0.44914601900E+03  0.25500000920E-02 0.  1.
       -2   -1    0    0    0  501  0.00000000000E+00  0.00000000000E+00 -0.20035554298E+03  0.20035554300E+03  0.25500000920E-02 0. -1.
    10030    2    1    2    0    0  0.00000000000E+00  0.00000000000E+00  0.24879047601E+03  0.64950156200E+03  0.59996298060E+03 0.  0.
        5    1    3    3  502    0  0.13589174451E+03  0.26466295559E+03  0.83118835381E+02  0.30893992471E+03  0.46999998093E+01 0.  1.
       -5    1    3    3    0  502 -0.13589174451E+03 -0.26466295559E+03  0.16567164063E+03  0.34056163729E+03  0.46999998093E+01 0. -1.
</event>
<event>
 5   0  0.9496750E-04  0.6000589E+03  0.7818609E-02  0.9905284E-01
       -3   -1    0    0    0  501  0.00000000000E+00  0.00000000000E+00  0.19241216275E+03  0.19241218926E+03  0.10100000352E+00 0. -1.
        3   -1    0    0  501    0  0.00000000000E+00  0.00000000000E+00 -0.46783760902E+03  0.46783761992E+03  0.10100000352E+00 0.  1.
    10030    2    1    2    0    0  0.00000000000E+00  0.00000000000E+00 -0.27542544626E+03  0.66024980918E+03  0.60005885884E+03 0.  0.
        1    1    3    3  502    0 -0.26627581951E+02 -0.65557231428E+02  0.18310007706E+03  0.19629675738E+03  0.50400001928E-02 0. -1.
       -1    1    3    3    0  502  0.26627581951E+02  0.65557231428E+02 -0.45852552332E+03  0.46395305180E+03  0.50400001928E-02 0.  1.
</event>
<event>
 5   0  0.1418763E-03  0.5996971E+03  0.7818609E-02  0.9906035E-01
       -1   -1    0    0    0  501  0.00000000000E+00  0.00000000000E+00  0.11702486910E+03  0.11702486921E+03  0.50400001928E-02 0.  1.
        1   -1    0    0  501    0  0.00000000000E+00  0.00000000000E+00 -0.76829093116E+03  0.76829093118E+03  0.50400001928E-02 0. -1.
    10030    2    1    2    0    0  0.00000000000E+00  0.00000000000E+00 -0.65126606206E+03  0.88531580039E+03  0.59969707589E+03 0.  0.
        5    1    3    3  502    0  0.11142312705E+03  0.17674604956E+03 -0.82079263330E+01  0.20915004024E+03  0.46999998093E+01 0.  1.
       -5    1    3    3    0  502 -0.11142312705E+03 -0.17674604956E+03 -0.64305813573E+03  0.67616576015E+03  0.46999998093E+01 0. -1.
</event>
<event>
 5   0  0.2406307E-03  0.5998186E+03  0.7818609E-02  0.9905782E-01
        2   -1    0    0  501    0  0.00000000000E+00  0.00000000000E+00  0.16208957630E+04  0.16208957630E+04  0.25500000920E-02 0.  1.
       -2   -1    0    0    0  501  0.00000000000E+00  0.00000000000E+00 -0.55491283864E+02  0.55491283923E+02  0.25500000920E-02 0. -1.
    10030    2    1    2    0    0  0.00000000000E+00  0.00000000000E+00  0.15654044791E+04  0.16763870469E+04  0.59981859573E+03 0.  0.
        5    1    3    3  502    0 -0.12544910016E+03 -0.27174209462E+03  0.83440679173E+03  0.88647505707E+03  0.46999998093E+01 0.  1.
       -5    1    3    3    0  502  0.12544910016E+03  0.27174209462E+03  0.73099768737E+03  0.78991198982E+03  0.46999998093E+01 0. -1.
</event>
<event>
 5   0  0.1392854E-03  0.5998546E+03  0.7818609E-02  0.9905708E-01
        1   -1    0    0  501    0  0.00000000000E+00  0.00000000000E+00  0.53190949866E+03  0.53190949869E+03  0.50400001928E-02 0.  1.
       -1   -1    0    0    0  501  0.00000000000E+00  0.00000000000E+00 -0.16911972056E+03  0.16911972064E+03  0.50400001928E-02 0. -1.
    10030    2    1    2    0    0  0.00000000000E+00  0.00000000000E+00  0.36278977810E+03  0.70102921933E+03  0.59985460176E+03 0.  0.
        4    1    3    3  502    0  0.18574107348E+03 -0.32072035296E+02  0.45403827960E+03  0.49161034780E+03  0.12699999809E+01 0.  1.
       -4    1    3    3    0  502 -0.18574107348E+03  0.32072035296E+02 -0.91248501499E+02  0.20941887152E+03  0.12699999809E+01 0. -1.
</event>
<event>
 5   0  0.1418763E-03  0.5997909E+03  0.7818609E-02  0.9905840E-01
       -1   -1    0    0    0  501  0.00000000000E+00  0.00000000000E+00  0.22394135376E+03  0.22394135382E+03  0.50400001928E-02 0. -1.
        1   -1    0    0  501    0  0.00000000000E+00  0.00000000000E+00 -0.40161090392E+03  0.40161090396E+03  0.50400001928E-02 0.  1.
    10030    2    1    2    0    0  0.00000000000E+00  0.00000000000E+00 -0.17766955016E+03  0.62555225777E+03  0.59979092870E+03 0.  0.
        5    1    3    3  502    0  0.11741351151E+03 -0.19606166710E+03 -0.29130983023E+03  0.37028315811E+03  0.46999998093E+01 0.  1.
       -5    1    3    3    0  502 -0.11741351151E+03  0.19606166710E+03  0.11364028007E+03  0.25526909966E+03  0.46999998093E+01 0. -1.
</event>
<event>
 5   0  0.2346281E-03  0.5999720E+03  0.7818609E-02  0.9905464E-01
        2   -1    0    0  501    0  0.00000000000E+00  0.00000000000E+00  0.12826227892E+03  0.12826227894E+03  0.25500000920E-02 0. -1.
       -2   -1    0    0    0  501  0.00000000000E+00  0.00000000000E+00 -0.70162172062E+03  0.70162172062E+03  0.25500000920E-02 0.  1.
    10030    2    1    2    0    0  0.00000000000E+00  0.00000000000E+00 -0.57335944170E+03  0.82988399956E+03  0.59997200213E+03 0.  0.
        3    1    3    3  502    0  0.19263777110E+03 -0.96256067152E+02 -0.57555777369E+03  0.61452526586E+03  0.10100000352E+00 0.  1.
       -3    1    3    3    0  502 -0.19263777110E+03  0.96256067152E+02  0.21983319971E+01  0.21535873370E+03  0.10100000352E+00 0. -1.
</event>
<event>
 5   0  0.2406307E-03  0.6002907E+03  0.7818609E-02  0.9904803E-01
       -2   -1    0    0    0  501  0.00000000000E+00  0.00000000000E+00  0.18540828370E+03  0.18540828371E+03  0.25500000920E-02 0.  1.
        2   -1    0    0  501    0  0.00000000000E+00  0.00000000000E+00 -0.48588573506E+03  0.48588573507E+03  0.25500000920E-02 0. -1.
    10030    2    1    2    0    0  0.00000000000E+00  0.00000000000E+00 -0.30047745136E+03  0.67129401878E+03  0.60029073029E+03 0.  0.
        5    1    3    3  502    0  0.12041806138E+03 -0.15716630000E+03 -0.40244379546E+03  0.44853634621E+03  0.46999998093E+01 0. -1.
       -5    1    3    3    0  502 -0.12041806138E+03  0.15716630000E+03  0.10196634410E+03  0.22275767257E+03  0.46999998093E+01 0.  1.
</event>
<event>
 5   0  0.1418763E-03  0.5997268E+03  0.7818609E-02  0.9905973E-01
        1   -1    0    0  501    0  0.00000000000E+00  0.00000000000E+00  0.38235904134E+03  0.38235904138E+03  0.50400001928E-02 0. -1.
       -1   -1    0    0    0  501  0.00000000000E+00  0.00000000000E+00 -0.23516659229E+03  0.23516659234E+03  0.50400001928E-02 0.  1.
    10030    2    1    2    0    0  0.00000000000E+00  0.00000000000E+00  0.14719244905E+03  0.61752563372E+03  0.59972684719E+03 0.  0.
        5    1    3    3  502    0  0.12288113891E+03 -0.23318342716E+03 -0.73549423520E+02  0.27368940918E+03  0.46999998093E+01 0. -1.
       -5    1    3    3    0  502 -0.12288113891E+03  0.23318342716E+03  0.22074187257E+03  0.34383622454E+03  0.46999998093E+01 0.  1.
</event>
<event>
 5   0  0.2324616E-03  0.6001379E+03  0.7818609E-02  0.9905120E-01
       -2   -1    0    0    0  501  0.00000000000E+00  0.00000000000E+00  0.86039297357E+02  0.86039297395E+02  0.25500000920E-02 0. -1.
        2   -1    0    0  501    0  0.00000000000E+00  0.00000000000E+00 -0.10465145567E+04  0.10465145567E+04  0.25500000920E-02 0.  1.
    10030    2    1    2    0    0  0.00000000000E+00  0.00000000000E+00 -0.96047525939E+03  0.11325538541E+04  0.60013790802E+03 0.  0.
        4    1    3    3  502    0 -0.11693661162E+03 -0.20624561870E+03 -0.82733244956E+03  0.86063466196E+03  0.12699999809E+01 0.  1.
       -4    1    3    3    0  502  0.11693661162E+03  0.20624561870E+03 -0.13314280983E+03  0.27191919218E+03  0.12699999809E+01 0. -1.
</event>
<event>
 5   0  0.1423430E-03  0.5998863E+03  0.7818609E-02  0.9905642E-01
       -1   -1    0    0    0  501  0.00000000000E+00  0.00000000000E+00  0.23558781735E+03  0.23558781741E+03  0.50400001928E-02 0. -1.
        1   -1    0    0  501    0  0.00000000000E+00  0.00000000000E+00 -0.38187834773E+03  0.38187834777E+03  0.50400001928E-02 0.  1.
    10030    2    1    2    0    0  0.00000000000E+00  0.00000000000E+00 -0.14629053038E+03  0.61746616517E+03  0.59988627743E+03 0.  0.
        1    1    3    3  502    0  0.72691987279E+02  0.29010639452E+03 -0.96617970555E+02  0.31429425292E+03  0.50400001928E-02 0. -1.
       -1    1    3    3    0  502 -0.72691987279E+02 -0.29010639452E+03 -0.49672559825E+02  0.30317191226E+03  0.50400001928E-02 0.  1.
</event>
<event>
 5   0  0.1416315E-03  0.6000949E+03  0.7818609E-02  0.9905209E-01
       -1   -1    0    0    0  501  0.00000000000E+00  0.00000000000E+00  0.10481468893E+03  0.10481468905E+03  0.50400001928E-02 0.  1.
        1   -1    0    0  501    0  0.00000000000E+00  0.00000000000E+00 -0.85893003667E+03  0.85893003668E+03  0.50400001928E-02 0. -1.
    10030    2    1    2    0    0  0.00000000000E+00  0.00000000000E+00 -0.75411534774E+03  0.96374472573E+03  0.60009494138E+03 0.  0.
        2    1    3    3  502    0 -0.26421574016E+03 -0.13702599065E+03 -0.31606387437E+03  0.43414565776E+03  0.25500000920E-02 0. -1.
       -2    1    3    3    0  502  0.26421574016E+03  0.13702599065E+03 -0.43805147338E+03  0.52959906797E+03  0.25500000920E-02 0.  1.
</event>
<event>
 5   0  0.1392854E-03  0.5994629E+03  0.7818609E-02  0.9906521E-01
        1   -1    0    0  501    0  0.00000000000E+00  0.00000000000E+00  0.70280754947E+03  0.70280754949E+03  0.50400001928E-02 0.  1.
       -1   -1    0    0    0  501  0.00000000000E+00  0.00000000000E+00 -0.12782863313E+03  0.12782863323E+03  0.50400001928E-02 0. -1.
    10030    2    1    2    0    0  0.00000000000E+00  0.00000000000E+00  0.57497891634E+03  0.83063618272E+03  0.59946285440E+03 0.  0.
        4    1    3    3  502    0 -0.11089415245E+03 -0.22223828333E+03  0.55008511323E+02  0.25439126723E+03  0.12699999809E+01 0. -1.
       -4    1    3    3    0  502  0.11089415245E+03  0.22223828333E+03  0.51997040502E+03  0.57624491549E+03  0.12699999809E+01 0.  1.
</event>
<event>
 5   0  0.1392854E-03  0.6001247E+03  0.7818609E-02  0.9905147E-01
       -1   -1    0    0    0  501  0.00000000000E+00  0.00000000000E+00  0.49372064923E+02  0.49372065180E+02  0.50400001928E-02 0.  1.
        1   -1    0    0  501    0  0.00000000000E+00  0.00000000000E+00 -0.18236509380E+04  0.18236509380E+04  0.50400001928E-02 0. -1.
    10030    2    1    2    0    0  0.00000000000E+00  0.00000000000E+00 -0.17742788730E+04  0.18730230032E+04  0.60012469622E+03 0.  0.
        4    1    3    3  502    0  0.28827809735E+02  0.21554848518E+03 -0.24187578721E+03  0.32526558597E+03  0.12699999809E+01 0.  1.
       -4    1    3    3    0  502 -0.28827809735E+02 -0.21554848518E+03 -0.15324030858E+04  0.15477574172E+04  0.12699999809E+01 0. -1.
</event>
<event>
 5   0  0.1423430E-03  0.5998290E+03  0.7818609E-02  0.9905761E-01
       -1   -1    0    0    0  501  0.00000000000E+00  0.00000000000E+00  0.66251936117E+02  0.66251936309E+02  0.50400001928E-02 0.  1.
        1   -1    0    0  501    0  0.00000000000E+00  0.00000000000E+00 -0.13576768709E+04  0.13576768709E+04  0.50400001928E-02 0. -1.
    10030    2    1    2    0    0  0.00000000000E+00  0.00000000000E+00 -0.12914249348E+04  0.14239288072E+04  0.59982904719E+03 0.  0.
        1    1    3    3  502    0  0.96539528907E+02 -0.56721756082E+02 -0.13061982560E+04  0.13109886049E+04  0.50400001928E-02 0. -1.
       -1    1    3    3    0  502 -0.96539528907E+02  0.56721756082E+02  0.14773321190E+02  0.11294020232E+03  0.50400001928E-02 0.  1.
</event>
<event>
 5   0  0.1418763E-03  0.6000155E+03  0.7818609E-02  0.9905374E-01
       -1   -1    0    0    0  501  0.00000000000E+00  0.00000000000E+00  0.21449595213E+03  0.21449595219E+03  0.50400001928E-02 0.  1.
        1   -1    0    0  501    0  0.00000000000E+00  0.00000000000E+00 -0.41960998997E+03  0.41960999000E+03  0.50400001928E-02 0. -1.
    10030    2    1    2    0    0  0.00000000000E+00  0.00000000000E+00 -0.20511403784E+03  0.63410594219E+03  0.60001548096E+03 0.  0.
        5    1    3    3  502    0 -0.23131192550E+02 -0.28653075702E+03 -0.11968546842E+02  0.28775034821E+03  0.46999998093E+01 0.  1.
       -5    1    3    3    0  502  0.23131192550E+02  0.28653075702E+03 -0.19314549100E+03  0.34635559397E+03  0.46999998093E+01 0. -1.
</event>
<event>
 5   0  0.2324616E-03  0.5996910E+03  0.7818609E-02  0.9906047E-01
        2   -1    0    0  501    0  0.00000000000E+00  0.00000000000E+00  0.51341209468E+03  0.51341209469E+03  0.25500000920E-02 0.  1.
       -2   -1    0    0    0  501  0.00000000000E+00  0.00000000000E+00 -0.17511727377E+03  0.17511727379E+03  0.25500000920E-02 0. -1.
    10030    2    1    2    0    0  0.00000000000E+00  0.00000000000E+00  0.33829482091E+03  0.68852936848E+03  0.59969100827E+03 0.  0.
        4    1    3    3  502    0 -0.12655390327E+03  0.23426815268E+03  0.10852823311E+02  0.26648987686E+03  0.12699999809E+01 0. -1.
       -4    1    3    3    0  502  0.12655390327E+03 -0.23426815268E+03  0.32744199760E+03  0.42203949162E+03  0.12699999809E+01 0.  1.
</event>
<event>
 5   0  0.1418763E-03  0.6000177E+03  0.7818609E-02  0.9905369E-01
        1   -1    0    0  501    0  0.00000000000E+00  0.00000000000E+00  0.27575314266E+03  0.27575314270E+03  0.50400001928E-02 0. -1.
       -1   -1    0    0    0  501  0.00000000000E+00  0.00000000000E+00 -0.32639812607E+03  0.32639812611E+03  0.50400001928E-02 0.  1.
    10030    2    1    2    0    0  0.00000000000E+00  0.00000000000E+00 -0.50644983417E+02  0.60215126881E+03  0.60001769656E+03 0.  0.
        5    1    3    3  502    0  0.23162207852E+03 -0.14153634548E+03  0.10281038842E+03  0.29029879489E+03  0.46999998093E+01 0. -1.
       -5    1    3    3    0  502 -0.23162207852E+03  0.14153634548E+03 -0.15345537183E+03  0.31185247392E+03  0.46999998093E+01 0.  1.
</event>
<event>
 5   0  0.2324616E-03  0.5999024E+03  0.7818609E-02  0.9905609E-01
       -2   -1    0    0    0  501  0.00000000000E+00  0.00000000000E+00  0.14978429017E+03  0.14978429019E+03  0.25500000920E-02 0. -1.
        2   -1    0    0  501    0  0.00000000000E+00  0.00000000000E+00 -0.60066867621E+03  0.60066867621E+03  0.25500000920E-02 0.  1.
    10030    2    1    2    0    0  0.00000000000E+00  0.00000000000E+00 -0.45088438604E+03  0.75045296640E+03  0.59990242974E+03 0.  0.
        4    1    3    3  502    0  0.29442641524E+03  0.70730922743E+01 -0.15432242305E+03  0.33249656507E+03  0.12699999809E+01 0.  1.
       -4    1    3    3    0  502 -0.29442641524E+03 -0.70730922743E+01 -0.29656196299E+03  0.41795640134E+03  0.12699999809E+01 0. -1.
</event>
<event>
 5   0  0.1423430E-03  0.6004499E+03  0.7818609E-02  0.9904473E-01
       -1   -1    0    0    0  501  0.00000000000E+00  0.00000000000E+00  0.35721494865E+03  0.35721494868E+03  0.50400001928E-02 0. -1.
        1   -1    0    0  501    0  0.00000000000E+00  0.00000000000E+00 -0.25232708958E+03  0.25232708963E+03  0.50400001928E-02 0.  1.
    10030    2    1    2    0    0  0.00000000000E+00  0.00000000000E+00  0.10488785906E+03  0.60954203831E+03  0.60044985927E+03 0.  0.
        1    1    3    3  502    0  0.12287628863E+03 -0.57700224326E+02 -0.21939273072E+03  0.25799431876E+03  0.50400001928E-02 0.  1.
       -1    1    3    3    0  502 -0.12287628863E+03  0.57700224326E+02  0.32428058978E+03  0.35154771956E+03  0.50400001928E-02 0. -1.
</event>
<event>
 5   0  0.9496750E-04  0.6006025E+03  0.7818609E-02  0.9904157E-01
        3   -1    0    0  501    0  0.00000000000E+00  0.00000000000E+00  0.65280692258E+02  0.65280770389E+02  0.10100000352E+00 0. -1.
       -3   -1    0    0    0  501  0.00000000000E+00  0.00000000000E+00 -0.13814309900E+04  0.13814309937E+04  0.10100000352E+00 0.  1.
    10030    2    1    2    0    0  0.00000000000E+00  0.00000000000E+00 -0.13161502977E+04  0.14467117641E+04  0.60060246593E+03 0.  0.
        4    1    3    3  502    0 -0.19697971562E+03  0.20551867084E+03 -0.88836498739E+03  0.93286274240E+03  0.12699999809E+01 0.  1.
       -4    1    3    3    0  502  0.19697971562E+03 -0.20551867084E+03 -0.42778531033E+03  0.51384902166E+03  0.12699999809E+01 0. -1.
</event>
<event>
 5   0  0.2421210E-03  0.6000634E+03  0.7818609E-02  0.9905274E-01
        2   -1    0    0  501    0  0.00000000000E+00  0.00000000000E+00  0.33952495711E+03  0.33952495711E+03  0.25500000920E-02 0. -1.
       -2   -1    0    0    0  501  0.00000000000E+00  0.00000000000E+00 -0.26513229888E+03  0.26513229890E+03  0.25500000920E-02 0.  1.
    10030    2    1    2    0    0  0.00000000000E+00  0.00000000000E+00  0.74392658222E+02  0.60465725601E+03  0.60006343802E+03 0.  0.
        1    1    3    3  502    0  0.25550066256E+02 -0.29614234918E+03 -0.39320124576E+01  0.29726849414E+03  0.50400001928E-02 0.  1.
       -1    1    3    3    0  502 -0.25550066256E+02  0.29614234918E+03  0.78324670680E+02  0.30738876187E+03  0.50400001928E-02 0. -1.
</event>
<event>
 5   0  0.1423430E-03  0.5996189E+03  0.7818609E-02  0.9906197E-01
       -1   -1    0    0    0  501  0.00000000000E+00  0.00000000000E+00  0.16077817057E+03  0.16077817065E+03  0.50400001928E-02 0.  1.
        1   -1    0    0  501    0  0.00000000000E+00  0.00000000000E+00 -0.55906659169E+03  0.55906659171E+03  0.50400001928E-02 0. -1.
    10030    2    1    2    0    0  0.00000000000E+00  0.00000000000E+00 -0.39828842112E+03  0.71984476237E+03  0.59961889189E+03 0.  0.
        1    1    3    3  502    0 -0.18518392839E+03 -0.99789104799E+01 -0.48194641576E+03  0.51639617899E+03  0.50400001928E-02 0. -1.
       -1    1    3    3    0  502  0.18518392839E+03  0.99789104799E+01  0.83657994641E+02  0.20344858338E+03  0.50400001928E-02 0.  1.
</event>
<event>
 5   0  0.2313168E-03  0.5996041E+03  0.7818609E-02  0.9906228E-01
        2   -1    0    0  501    0  0.00000000000E+00  0.00000000000E+00  0.48302241526E+03  0.48302241526E+03  0.25500000920E-02 0.  1.
       -2   -1    0    0    0  501  0.00000000000E+00  0.00000000000E+00 -0.18608093273E+03  0.18608093275E+03  0.25500000920E-02 0. -1.
    10030    2    1    2    0    0  0.00000000000E+00  0.00000000000E+00  0.29694148253E+03  0.66910334801E+03  0.59960407460E+03 0.  0.
        2    1    3    3  502    0 -0.14470777460E+03  0.42072162693E+02  0.43768457649E+03  0.46290192850E+03  0.25500000920E-02 0.  1.
       -2    1    3    3    0  502  0.14470777460E+03 -0.42072162693E+02 -0.14074309396E+03  0.20620141951E+03  0.25500000920E-02 0. -1.
</event>
<event>
 5   0  0.1423430E-03  0.6000094E+03  0.7818609E-02  0.9905386E-01
       -1   -1    0    0    0  501  0.00000000000E+00  0.00000000000E+00  0.80071037461E+03  0.80071037463E+03  0.50400001928E-02 0.  1.
        1   -1    0    0  501    0  0.00000000000E+00  0.00000000000E+00 -0.11240372647E+03  0.11240372659E+03  0.50400001928E-02 0. -1.
    10030    2    1    2    0    0  0.00000000000E+00  0.00000000000E+00  0.68830664814E+03  0.91311410121E+03  0.60000943323E+03 0.  0.
        1    1    3    3  502    0  0.16726851606E+03  0.15555275878E+03  0.48167923325E+02  0.23344285402E+03  0.50400001928E-02 0. -1.
       -1    1    3    3    0  502 -0.16726851606E+03 -0.15555275878E+03  0.64013872481E+03  0.67967124719E+03  0.50400001928E-02 0.  1.
</event>
<event>
 5   0  0.1479385E-03  0.6000226E+03  0.7818609E-02  0.9905359E-01
       -1   -1    0    0    0  501  0.00000000000E+00  0.00000000000E+00  0.21257443990E+03  0.21257443996E+03  0.50400001928E-02 0.  1.
        1   -1    0    0  501    0  0.00000000000E+00  0.00000000000E+00 -0.42341302019E+03  0.42341302022E+03  0.50400001928E-02 0. -1.
    10030    2    1    2    0    0  0.00000000000E+00  0.00000000000E+00 -0.21083858029E+03  0.63598746018E+03  0.60002261838E+03 0.  0.
        3    1    3    3  502    0 -0.13061615034E+03 -0.16165702084E+03  0.12391295117E+03  0.24196694152E+03  0.10100000352E+00 0.  1.
       -3    1    3    3    0  502  0.13061615034E+03  0.16165702084E+03 -0.33475153145E+03  0.39402051867E+03  0.10100000352E+00 0. -1.
</event>
<event>
 5   0  0.1423430E-03  0.5994141E+03  0.7818609E-02  0.9906622E-01
       -1   -1    0    0    0  501  0.00000000000E+00  0.00000000000E+00  0.79006145761E+02  0.79006145922E+02  0.50400001928E-02 0.  1.
        1   -1    0    0  501    0  0.00000000000E+00  0.00000000000E+00 -0.11369281544E+04  0.11369281544E+04  0.50400001928E-02 0. -1.
    10030    2    1    2    0    0  0.00000000000E+00  0.00000000000E+00 -0.10579220086E+04  0.12159343003E+04  0.59941408588E+03 0.  0.
        1    1    3    3  502    0 -0.15488042750E+03  0.10702685201E+03 -0.55908630167E+02  0.19638856593E+03  0.50400001928E-02 0.  1.
       -1    1    3    3    0  502  0.15488042750E+03 -0.10702685201E+03 -0.10020133784E+04  0.10195457344E+04  0.50400001928E-02 0. -1.
</event>
<event>
 5   0  0.2406307E-03  0.6001090E+03  0.7818609E-02  0.9905180E-01
        2   -1    0    0  501    0  0.00000000000E+00  0.00000000000E+00  0.14145535177E+04  0.14145535177E+04  0.25500000920E-02 0. -1.
       -2   -1    0    0    0  501  0.00000000000E+00  0.00000000000E+00 -0.63647427512E+02  0.63647427563E+02  0.25500000920E-02 0.  1.
    10030    2    1    2    0    0  0.00000000000E+00  0.00000000000E+00  0.13509060902E+04  0.14782009453E+04  0.60010896518E+03 0.  0.
        5    1    3    3  502    0 -0.99825042239E+02  0.28290057020E+03  0.66662974593E+03  0.73103698938E+03  0.46999998093E+01 0.  1.
       -5    1    3    3    0  502  0.99825042239E+02 -0.28290057020E+03  0.68427634430E+03  0.74716395594E+03  0.46999998093E+01 0. -1.
</event>
<event>
 5   0  0.2346281E-03  0.5996784E+03  0.7818609E-02  0.9906073E-01
        2   -1    0    0  501    0  0.00000000000E+00  0.00000000000E+00  0.41515623178E+03  0.41515623179E+03  0.25500000920E-02 0.  1.
       -2   -1    0    0    0  501  0.00000000000E+00  0.00000000000E+00 -0.21655355841E+03  0.21655355842E+03  0.25500000920E-02 0. -1.
    10030    2    1    2    0    0  0.00000000000E+00  0.00000000000E+00  0.19860267337E+03  0.63170979021E+03  0.59967844482E+03 0.  0.
        3    1    3    3  502    0 -0.14660696458E+03  0.12870808792E+03  0.33915654511E+03  0.39126275858E+03  0.10100000352E+00 0.  1.
       -3    1    3    3    0  502  0.14660696458E+03 -0.12870808792E+03 -0.14055387174E+03  0.24044703163E+03  0.10100000352E+00 0. -1.
</event>
<event>
 5   0  0.2421210E-03  0.6000834E+03  0.7818609E-02  0.9905233E-01
       -2   -1    0    0    0  501  0.00000000000E+00  0.00000000000E+00  0.37730618365E+03  0.37730618366E+03  0.25500000920E-02 0.  1.
        2   -1    0    0  501    0  0.00000000000E+00  0.00000000000E+00 -0.23859935178E+03  0.23859935179E+03  0.25500000920E-02 0. -1.
    10030    2    1    2    0    0  0.00000000000E+00  0.00000000000E+00  0.13870683188E+03  0.61590553545E+03  0.60008336370E+03 0.  0.
        1    1    3    3  502    0 -0.26997150255E+03  0.12519128880E+03  0.10867196387E+03  0.31680761787E+03  0.50400001928E-02 0. -1.
       -1    1    3    3    0  502  0.26997150255E+03 -0.12519128880E+03  0.30034868005E+02  0.29909791758E+03  0.50400001928E-02 0.  1.
</event>
<event>
 5   0  0.1416315E-03  0.6012853E+03  0.7818609E-02  0.9902743E-01
       -1   -1    0    0    0  501  0.00000000000E+00  0.00000000000E+00  0.94961245929E+02  0.94961246063E+02  0.50400001928E-02 0.  1.
        1   -1    0    0  501    0  0.00000000000E+00  0.00000000000E+00 -0.95181983169E+03  0.95181983170E+03  0.50400001928E-02 0. -1.
    10030    2    1    2    0    0  0.00000000000E+00  0.00000000000E+00 -0.85685858576E+03  0.10467810778E+04  0.60128528069E+03 0.  0.
        2    1    3    3  502    0  0.12505783193E+03 -0.25946967181E+03 -0.57841038278E+03  0.64615984310E+03  0.25500000920E-02 0. -1.
       -2    1    3    3    0  502 -0.12505783193E+03  0.25946967181E+03 -0.27844820298E+03  0.40062123467E+03  0.25500000920E-02 0.  1.
</event>
<event>
 5   0  0.1423430E-03  0.6000793E+03  0.7818609E-02  0.9905242E-01
        1   -1    0    0  501    0  0.00000000000E+00  0.00000000000E+00  0.92005232548E+03  0.92005232550E+03  0.50400001928E-02 0.  1.
       -1   -1    0    0    0  501  0.00000000000E+00  0.00000000000E+00 -0.97846385455E+02  0.97846385585E+02  0.50400001928E-02 0. -1.
    10030    2    1    2    0    0  0.00000000000E+00  0.00000000000E+00  0.82220594003E+03  0.10178987111E+04  0.60007930993E+03 0.  0.
        1    1    3    3  502    0  0.23484292159E+03 -0.10415879334E+03  0.14818853239E+03  0.29658066898E+03  0.50400001928E-02 0. -1.
       -1    1    3    3    0  502 -0.23484292159E+03  0.10415879334E+03  0.67401740763E+03  0.72131804211E+03  0.50400001928E-02 0.  1.
</event>
<event>
 5   0  0.2406307E-03  0.5999390E+03  0.7818609E-02  0.9905533E-01
        2   -1    0    0  501    0  0.00000000000E+00  0.00000000000E+00  0.62264873857E+03  0.62264873858E+03  0.25500000920E-02 0.  1.
       -2   -1    0    0    0  501  0.00000000000E+00  0.00000000000E+00 -0.14451437407E+03  0.14451437410E+03  0.25500000920E-02 0. -1.
    10030    2    1    2    0    0  0.00000000000E+00  0.00000000000E+00  0.47813436450E+03  0.76716311267E+03  0.59993897267E+03 0.  0.
        5    1    3    3  502    0  0.13751244053E+03 -0.22142736992E+03  0.42881982287E+03  0.50184487836E+03  0.46999998093E+01 0.  1.
       -5    1    3    3    0  502 -0.13751244053E+03  0.22142736992E+03  0.49314541629E+02  0.26531823432E+03  0.46999998093E+01 0. -1.
</event>
<event>
 5   0  0.1479385E-03  0.6001772E+03  0.7818609E-02  0.9905039E-01
        1   -1    0    0  501    0  0.00000000000E+00  0.00000000000E+00  0.25815673218E+03  0.25815673223E+03  0.50400001928E-02 0. -1.
       -1   -1    0    0    0  501  0.00000000000E+00  0.00000000000E+00 -0.34883136298E+03  0.34883136301E+03  0.50400001928E-02 0.  1.
    10030    2    1    2    0    0  0.00000000000E+00  0.00000000000E+00 -0.90674630794E+02  0.60698809525E+03  0.60017718975E+03 0.  0.
        3    1    3    3  502    0 -0.17224357592E+03 -0.11123053525E+03 -0.26694276700E+03  0.33659847366E+03  0.10100000352E+00 0.  1.
       -3    1    3    3    0  502  0.17224357592E+03  0.11123053525E+03  0.17626813621E+03  0.27038962158E+03  0.10100000352E+00 0. -1.
</event>
<event>
 5   0  0.1392854E-03  0.5999590E+03  0.7818609E-02  0.9905491E-01
        1   -1    0    0  501    0  0.00000000000E+00  0.00000000000E+00  0.55587498976E+03  0.55587498978E+03  0.50400001928E-02 0.  1.
       -1   -1    0    0    0  501  0.00000000000E+00  0.00000000000E+00 -0.16188476614E+03  0.16188476622E+03  0.50400001928E-02 0. -1.
    10030    2    1    2    0    0  0.00000000000E+00  0.00000000000E+00  0.39399022362E+03  0.71775975601E+03  0.59995897446E+03 0.  0.
        4    1    3    3  502    0  0.15364315343E+03  0.18404301474E+03 -0.18706244567E+02  0.24047782924E+03  0.12699999809E+01 0. -1.
       -4    1    3    3    0  502 -0.15364315343E+03 -0.18404301474E+03  0.41269646818E+03  0.47728192677E+03  0.12699999809E+01 0.  1.
</event>
<event>
 5   0  0.2406307E-03  0.6005967E+03  0.7818609E-02  0.9904169E-01
        2   -1    0    0  501    0  0.00000000000E+00  0.00000000000E+00  0.25311737865E+03  0.25311737866E+03  0.25500000920E-02 0.  1.
       -2   -1    0    0    0  501  0.00000000000E+00  0.00000000000E+00 -0.35627387905E+03  0.35627387906E+03  0.25500000920E-02 0. -1.
    10030    2    1    2    0    0  0.00000000000E+00  0.00000000000E+00 -0.10315650040E+03  0.60939125772E+03  0.60059673776E+03 0.  0.
        5    1    3    3  502    0  0.13592118355E+03 -0.96697295443E+02  0.20174151610E+03  0.26181417914E+03  0.46999998093E+01 0.  1.
       -5    1    3    3    0  502 -0.13592118355E+03  0.96697295443E+02 -0.30489801650E+03  0.34757707857E+03  0.46999998093E+01 0. -1.
</event>
<event>
 5   0  0.1418763E-03  0.6000193E+03  0.7818609E-02  0.9905366E-01
       -1   -1    0    0    0  501  0.00000000000E+00  0.00000000000E+00  0.50157186987E+02  0.50157187240E+02  0.50400001928E-02 0.  1.
        1   -1    0    0  501    0  0.00000000000E+00  0.00000000000E+00 -0.17944746622E+04  0.17944746622E+04  0.50400001928E-02 0. -1.
    10030    2    1    2    0    0  0.00000000000E+00  0.00000000000E+00 -0.17443174752E+04  0.18446318495E+04  0.60001933775E+03 0.  0.
        5    1    3    3  502    0  0.28528939516E+03  0.12908014901E+02 -0.58994224854E+03  0.65544687233E+03  0.46999998093E+01 0.  1.
       -5    1    3    3    0  502 -0.28528939516E+03 -0.12908014901E+02 -0.11543752267E+04  0.11891849771E+04  0.46999998093E+01 0. -1.
</event>
<event>
 5   0  0.2406307E-03  0.6001020E+03  0.7818609E-02  0.9905195E-01
       -2   -1    0    0    0  501  0.00000000000E+00  0.00000000000E+00  0.28586758489E+03  0.28586758490E+03  0.25500000920E-02 0. -1.
        2   -1    0    0  501    0  0.00000000000E+00  0.00000000000E+00 -0.31493809085E+03  0.31493809086E+03  0.25500000920E-02 0.  1.
    10030    2    1    2    0    0  0.00000000000E+00  0.00000000000E+00 -0.29070505966E+02  0.60080567576E+03  0.60010196276E+03 0.  0.
        5    1    3    3  502    0  0.92711533951E+02  0.72800539937E+02  0.26167439204E+03  0.28703819361E+03  0.46999998093E+01 0. -1.
       -5    1    3    3    0  502 -0.92711533951E+02 -0.72800539937E+02 -0.29074489801E+03  0.31376748215E+03  0.46999998093E+01 0.  1.
</event>
<event>
 5   0  0.2324616E-03  0.6000738E+03  0.7818609E-02  0.9905253E-01
       -2   -1    0    0    0  501  0.00000000000E+00  0.00000000000E+00  0.16292276433E+03  0.16292276435E+03  0.25500000920E-02 0.  1.
        2   -1    0    0  501    0  0.00000000000E+00  0.00000000000E+00 -0.55254494335E+03  0.55254494335E+03  0.25500000920E-02 0. -1.
    10030    2    1    2    0    0  0.00000000000E+00  0.00000000000E+00 -0.38962217902E+03  0.71546770770E+03  0.60007382744E+03 0.  0.
        4    1    3    3  502    0  0.16224251807E+01  0.19768881658E+03 -0.46390395765E+03  0.50427373052E+03  0.12699999809E+01 0. -1.
       -4    1    3    3    0  502 -0.16224251807E+01 -0.19768881658E+03  0.74281778636E+02  0.21119397719E+03  0.12699999809E+01 0.  1.
</event>
<event>
 5   0  0.2421210E-03  0.6003113E+03  0.7818609E-02  0.9904760E-01
       -2   -1    0    0    0  501  0.00000000000E+00  0.00000000000E+00  0.62170648066E+02  0.62170648119E+02  0.25500000920E-02 0.  1.
        2   -1    0    0  501    0  0.00000000000E+00  0.00000000000E+00 -0.14491308913E+04  0.14491308913E+04  0.25500000920E-02 0. -1.
    10030    2    1    2    0    0  0.00000000000E+00  0.00000000000E+00 -0.13869602433E+04  0.15113015394E+04  0.60031127488E+03 0.  0.
        1    1    3    3  502    0 -0.79422468808E+02 -0.12212943283E+03 -0.32802971388E+02  0.14933037826E+03  0.50400001928E-02 0.  1.
       -1    1    3    3    0  502  0.79422468808E+02  0.12212943283E+03 -0.13541572719E+04  0.13619711612E+04  0.50400001928E-02 0. -1.
</event>
<event>
 5   0  0.2421210E-03  0.5999109E+03  0.7818609E-02  0.9905591E-01
        2   -1    0    0  501    0  0.00000000000E+00  0.00000000000E+00  0.52113429672E+03  0.52113429673E+03  0.25500000920E-02 0. -1.
       -2   -1    0    0    0  501  0.00000000000E+00  0.00000000000E+00 -0.17264892492E+03  0.17264892494E+03  0.25500000920E-02 0.  1.
    10030    2    1    2    0    0  0.00000000000E+00  0.00000000000E+00  0.34848537180E+03  0.69378322167E+03  0.59991091364E+03 0.  0.
        1    1    3    3  502    0  0.20186907539E+03  0.21207614122E+03  0.98886309428E+02  0.30904031370E+03  0.50400001928E-02 0. -1.
       -1    1    3    3    0  502 -0.20186907539E+03 -0.21207614122E+03  0.24959906238E+03  0.38474290797E+03  0.50400001928E-02 0.  1.
</event>
<event>
 5   0  0.9496750E-04  0.6013336E+03  0.7818609E-02  0.9902643E-01
       -3   -1    0    0    0  501  0.00000000000E+00  0.00000000000E+00  0.52698209045E+03  0.52698210013E+03  0.10100000352E+00 0.  1.
        3   -1    0    0  501    0  0.00000000000E+00  0.00000000000E+00 -0.17154380816E+03  0.17154383789E+03  0.10100000352E+00 0. -1.
    10030    2    1    2    0    0  0.00000000000E+00  0.00000000000E+00  0.35543828229E+03  0.69852593802E+03  0.60133361254E+03 0.  0.
        3    1    3    3  502    0  0.23733948943E+02 -0.21657108966E+03 -0.62976734359E+02  0.22678716119E+03  0.10100000352E+00 0. -1.
       -3    1    3    3    0  502 -0.23733948943E+02  0.21657108966E+03  0.41841501665E+03  0.47173877683E+03  0.10100000352E+00 0.  1.
</event>
<event>
 5   0  0.1416315E-03  0.5995034E+03  0.7818609E-02  0.9906437E-01
        1   -1    0    0  501    0  0.00000000000E+00  0.00000000000E+00  0.15263835618E+04  0.15263835618E+04  0.50400001928E-02 0.  1.
       -1   -1    0    0    0  501  0.00000000000E+00  0.00000000000E+00 -0.58865326876E+02  0.58865327092E+02  0.50400001928E-02 0. -1.
    10030    2    1    2    0    0  0.00000000000E+00  0.00000000000E+00  0.14675182349E+04  0.15852488889E+04  0.59950335272E+03 0.  0.
        2    1    3    3  502    0 -0.49263946385E+02 -0.94335836957E+02  0.14747442335E+04  0.14785792981E+04  0.25500000920E-02 0.  1.
       -2    1    3    3    0  502  0.49263946385E+02  0.94335836957E+02 -0.72259985311E+01  0.10666959084E+03  0.25500000920E-02 0. -1.
</event>
<event>
 5   0  0.2421210E-03  0.5999562E+03  0.7818609E-02  0.9905497E-01
       -2   -1    0    0    0  501  0.00000000000E+00  0.00000000000E+00  0.10630785255E+03  0.10630785258E+03  0.25500000920E-02 0.  1.
        2   -1    0    0  501    0  0.00000000000E+00  0.00000000000E+00 -0.84647414835E+03  0.84647414835E+03  0.25500000920E-02 0. -1.
    10030    2    1    2    0    0  0.00000000000E+00  0.00000000000E+00 -0.74016629580E+03  0.95278200094E+03  0.59995616163E+03 0.  0.
        1    1    3    3  502    0  0.29069638233E+03 -0.59143576915E+02 -0.44082876333E+03  0.53134955349E+03  0.50400001928E-02 0. -1.
       -1    1    3    3    0  502 -0.29069638233E+03  0.59143576915E+02 -0.29933753246E+03  0.42143244744E+03  0.50400001928E-02 0.  1.
</event>
<event>
 5   0  0.1418763E-03  0.5997699E+03  0.7818609E-02  0.9905884E-01
       -1   -1    0    0    0  501  0.00000000000E+00  0.00000000000E+00  0.85933397764E+02  0.85933397912E+02  0.50400001928E-02 0. -1.
        1   -1    0    0  501    0  0.00000000000E+00  0.00000000000E+00 -0.10465194252E+04  0.10465194252E+04  0.50400001928E-02 0.  1.
    10030    2    1    2    0    0  0.00000000000E+00  0.00000000000E+00 -0.96058602742E+03  0.11324528231E+04  0.59976985627E+03 0.  0.
        5    1    3    3  502    0 -0.60264760485E+02 -0.17503805621E+03 -0.92566617241E+03  0.94400747626E+03  0.46999998093E+01 0.  1.
       -5    1    3    3    0  502  0.60264760485E+02  0.17503805621E+03 -0.34919855005E+02  0.18844534685E+03  0.46999998093E+01 0. -1.
</event>
<event>
 5   0  0.1479385E-03  0.6000966E+03  0.7818609E-02  0.9905206E-01
       -1   -1    0    0    0  501  0.00000000000E+00  0.00000000000E+00  0.17736937047E+03  0.17736937054E+03  0.50400001928E-02 0. -1.
        1   -1    0    0  501    0  0.00000000000E+00  0.00000000000E+00 -0.50757906989E+03  0.50757906992E+03  0.50400001928E-02 0.  1.
    10030    2    1    2    0    0  0.00000000000E+00  0.00000000000E+00 -0.33020969943E+03  0.68494844046E+03  0.60009659264E+03 0.  0.
        3    1    3    3  502    0  0.14451737669E+03  0.26227688409E+03 -0.14361340752E+03  0.33211331969E+03  0.10100000352E+00 0. -1.
       -3    1    3    3    0  502 -0.14451737669E+03 -0.26227688409E+03 -0.18659629191E+03  0.35283512077E+03  0.10100000352E+00 0.  1.
</event>
<event>
 5   0  0.2324616E-03  0.5990798E+03  0.7818609E-02  0.9907317E-01
        2   -1    0    0  501    0  0.00000000000E+00  0.00000000000E+00  0.18074709985E+04  0.18074709985E+04  0.25500000920E-02 0.  1.
       -2   -1    0    0    0  501  0.00000000000E+00  0.00000000000E+00 -0.49640717763E+02  0.49640717829E+02  0.25500000920E-02 0. -1.
    10030    2    1    2    0    0  0.00000000000E+00  0.00000000000E+00  0.17578302807E+04  0.18571117163E+04  0.59907982027E+03 0.  0.
        4    1    3    3  502    0  0.20651671991E+02 -0.10737868638E+03  0.17433810261E+04  0.17468072844E+04  0.12699999809E+01 0.  1.
       -4    1    3    3    0  502 -0.20651671991E+02  0.10737868638E+03  0.14449254665E+02  0.11030443194E+03  0.12699999809E+01 0. -1.
</event>
<event>
 5   0  0.1392854E-03  0.5998629E+03  0.7818609E-02  0.9905691E-01
       -1   -1    0    0    0  501  0.00000000000E+00  0.00000000000E+00  0.14860617190E+03  0.14860617199E+03  0.50400001928E-02 0. -1.
        1   -1    0    0  501    0  0.00000000000E+00  0.00000000000E+00 -0.60535083210E+03  0.60535083212E+03  0.50400001928E-02 0.  1.
    10030    2    1    2    0    0  0.00000000000E+00  0.00000000000E+00 -0.45674466020E+03  0.75395700411E+03  0.59986288385E+03 0.  0.
        4    1    3    3  502    0  0.18511508106E+03  0.69171111210E+02  0.55207213932E+02  0.20518695191E+03  0.12699999809E+01 0. -1.
       -4    1    3    3    0  502 -0.18511508106E+03 -0.69171111210E+02 -0.51195187413E+03  0.54877005220E+03  0.12699999809E+01 0.  1.
</event>
<event>
 5   0  0.2346281E-03  0.6003925E+03  0.7818609E-02  0.9904592E-01
       -2   -1    0    0    0  501  0.00000000000E+00  0.00000000000E+00  0.16188176182E+03  0.16188176184E+03  0.25500000920E-02 0. -1.
        2   -1    0    0  501    0  0.00000000000E+00  0.00000000000E+00 -0.55668892207E+03  0.55668892207E+03  0.25500000920E-02 0.  1.
    10030    2    1    2    0    0  0.00000000000E+00  0.00000000000E+00 -0.39480716025E+03  0.71857068391E+03  0.60039248329E+03 0.  0.
        3    1    3    3  502    0 -0.17859082933E+03  0.23431860078E+03 -0.26634254160E+03  0.39716275085E+03  0.10100000352E+00 0.  1.
       -3    1    3    3    0  502  0.17859082933E+03 -0.23431860078E+03 -0.12846461865E+03  0.32140793306E+03  0.10100000352E+00 0. -1.
</event>
<event>
 5   0  0.2346281E-03  0.6000582E+03  0.7818609E-02  0.9905285E-01
       -2   -1    0    0    0  501  0.00000000000E+00  0.00000000000E+00  0.44747135333E+03  0.44747135334E+03  0.25500000920E-02 0. -1.
        2   -1    0    0  501    0  0.00000000000E+00  0.00000000000E+00 -0.20116920643E+03  0.20116920644E+03  0.25500000920E-02 0.  1.
    10030    2    1    2    0    0  0.00000000000E+00  0.00000000000E+00  0.24630214690E+03  0.64864055978E+03  0.60005818736E+03 0.  0.
        3    1    3    3  502    0  0.21424171017E+03 -0.13406874066E+03 -0.51629305808E+02  0.25795257901E+03  0.10100000352E+00 0.  1.
       -3    1    3    3    0  502 -0.21424171017E+03  0.13406874066E+03  0.29793145271E+03  0.39068798077E+03  0.10100000352E+00 0. -1.
</event>
<event>
 5   0  0.2346281E-03  0.6001292E+03  0.7818609E-02  0.9905138E-01
       -2   -1    0    0    0  501  0.00000000000E+00  0.00000000000E+00  0.97789566679E+02  0.97789566712E+02  0.25500000920E-02 0.  1.
        2   -1    0    0  501    0  0.00000000000E+00  0.00000000000E+00 -0.92073997087E+03  0.92073997087E+03  0.25500000920E-02 0. -1.
    10030    2    1    2    0    0  0.00000000000E+00  0.00000000000E+00 -0.82295040419E+03  0.10185295376E+04  0.60012919540E+03 0.  0.
        3    1    3    3  502    0 -0.22286583473E+03  0.23943722687E+02 -0.72903965405E+02  0.23570634383E+03  0.10100000352E+00 0.  1.
       -3    1    3    3    0  502  0.22286583473E+03 -0.23943722687E+02 -0.75004643879E+03  0.78282319376E+03  0.10100000352E+00 0. -1.
</event>
<event>
 5   0  0.1416315E-03  0.5999975E+03  0.7818609E-02  0.9905411E-01
       -1   -1    0    0    0  501  0.00000000000E+00  0.00000000000E+00  0.11963787636E+03  0.11963787647E+03  0.50400001928E-02 0.  1.
        1   -1    0    0  501    0  0.00000000000E+00  0.00000000000E+00 -0.75226397871E+03  0.75226397872E+03  0.50400001928E-02 0. -1.
    10030    2    1    2    0    0  0.00000000000E+00  0.00000000000E+00 -0.63262610235E+03  0.87190185519E+03  0.59999754975E+03 0.  0.
        2    1    3    3  502    0  0.14759897405E+03  0.15506182965E+03 -0.10905311498E+02  0.21435613819E+03  0.25500000920E-02 0.  1.
       -2    1    3    3    0  502 -0.14759897405E+03 -0.15506182965E+03 -0.62172079085E+03  0.65754571699E+03  0.25500000920E-02 0. -1.
</event>
<event>
 5   0  0.2406307E-03  0.6001751E+03  0.7818609E-02  0.9905043E-01
       -2   -1    0    0    0  501  0.00000000000E+00  0.00000000000E+00  0.57157118007E+02  0.57157118064E+02  0.25500000920E-02 0. -1.
        2   -1    0    0  501    0  0.00000000000E+00  0.00000000000E+00 -0.15755264325E+04  0.15755264325E+04  0.25500000920E-02 0.  1.
    10030    2    1    2    0    0  0.00000000000E+00  0.00000000000E+00 -0.15183693145E+04  0.16326835506E+04  0.60017514202E+03 0.  0.
        5    1    3    3  502    0 -0.14612860403E+03 -0.66309733331E+02 -0.14488869115E+04  0.14577537247E+04  0.46999998093E+01 0.  1.
       -5    1    3    3    0  502  0.14612860403E+03  0.66309733331E+02 -0.69482403032E+02  0.17492982587E+03  0.46999998093E+01 0. -1.
</event>
<event>
 5   0  0.2406307E-03  0.5999328E+03  0.7818609E-02  0.9905545E-01
        2   -1    0    0  501    0  0.00000000000E+00  0.00000000000E+00  0.53669844979E+03  0.53669844980E+03  0.25500000920E-02 0. -1.
       -2   -1    0    0    0  501  0.00000000000E+00  0.00000000000E+00 -0.16765439050E+03  0.16765439052E+03  0.25500000920E-02 0.  1.
    10030    2    1    2    0    0  0.00000000000E+00  0.00000000000E+00  0.36904405929E+03  0.70435284032E+03  0.59993283455E+03 0.  0.
        5    1    3    3  502    0 -0.20006086575E+03  0.21390703964E+03  0.26040245335E+03  0.39193379456E+03  0.46999998093E+01 0. -1.
       -5    1    3    3    0  502  0.20006086575E+03 -0.21390703964E+03  0.10864160594E+03  0.31241904576E+03  0.46999998093E+01 0.  1.
</event>
<event>
 5   0  0.2324616E-03  0.6000247E+03  0.7818609E-02  0.9905355E-01
       -2   -1    0    0    0  501  0.00000000000E+00  0.00000000000E+00  0.43709353708E+03  0.43709353709E+03  0.25500000920E-02 0.  1.
        2   -1    0    0  501    0  0.00000000000E+00  0.00000000000E+00 -0.20592254263E+03  0.20592254265E+03  0.25500000920E-02 0. -1.
    10030    2    1    2    0    0  0.00000000000E+00  0.00000000000E+00  0.23117099445E+03  0.64301607973E+03  0.60002470793E+03 0.  0.
        4    1    3    3  502    0 -0.25754348925E+03 -0.48966721353E+02 -0.40740965238E+02  0.26530704439E+03  0.12699999809E+01 0. -1.
       -4    1    3    3    0  502  0.25754348925E+03  0.48966721353E+02  0.27191195969E+03  0.37770903534E+03  0.12699999809E+01 0.  1.
</event>
<event>
 5   0  0.2324616E-03  0.6005518E+03  0.7818609E-02  0.9904262E-01
        2   -1    0    0  501    0  0.00000000000E+00  0.00000000000E+00  0.12778609344E+04  0.12778609344E+04  0.25500000920E-02 0. -1.
       -2   -1    0    0    0  501  0.00000000000E+00  0.00000000000E+00 -0.70559798970E+02  0.70559799016E+02  0.25500000920E-02 0.  1.
    10030    2    1    2    0    0  0.00000000000E+00  0.00000000000E+00  0.12073011354E+04  0.13484207334E+04  0.60055178186E+03 0.  0.
        4    1    3    3  502    0 -0.13496366879E+03  0.14328624531E+03  0.11127843929E+04  0.11300605550E+04  0.12699999809E+01 0. -1.
       -4    1    3    3    0  502  0.13496366879E+03 -0.14328624531E+03  0.94516742483E+02  0.21836017837E+03  0.12699999809E+01 0.  1.
</event>
<event>
 5   0  0.1416315E-03  0.6001924E+03  0.7818609E-02  0.9905007E-01
       -1   -1    0    0    0  501  0.00000000000E+00  0.00000000000E+00  0.23268320536E+03  0.23268320541E+03  0.50400001928E-02 0.  1.
        1   -1    0    0  501    0  0.00000000000E+00  0.00000000000E+00 -0.38704004352E+03  0.38704004355E+03  0.50400001928E-02 0. -1.
    10030    2    1    2    0    0  0.00000000000E+00  0.00000000000E+00 -0.15435683816E+03  0.61972324897E+03  0.60019236235E+03 0.  0.
        2    1    3    3  502    0 -0.48256156449E+02  0.20501910047E+03 -0.29790137783E+03  0.36483793541E+03  0.25500000920E-02 0. -1.
       -2    1    3    3    0  502  0.48256156449E+02 -0.20501910047E+03  0.14354453966E+03  0.25488531356E+03  0.25500000920E-02 0.  1.
</event>
<event>
 5   0  0.2346281E-03  0.6001371E+03  0.7818609E-02  0.9905122E-01
        2   -1    0    0  501    0  0.00000000000E+00  0.00000000000E+00  0.71134492054E+03  0.71134492055E+03  0.25500000920E-02 0.  1.
       -2   -1    0    0    0  501  0.00000000000E+00  0.00000000000E+00 -0.12657874119E+03  0.12657874121E+03  0.25500000920E-02 0. -1.
    10030    2    1    2    0    0  0.00000000000E+00  0.00000000000E+00  0.58476617936E+03  0.83792366176E+03  0.60013713301E+03 0.  0.
        3    1    3    3  502    0 -0.28747270710E+03  0.85337992242E+02  0.27721598768E+03  0.40837708588E+03  0.10100000352E+00 0.  1.
       -3    1    3    3    0  502  0.28747270710E+03 -0.85337992242E+02  0.30755019168E+03  0.42954657588E+03  0.10100000352E+00 0. -1.
</event>
<event>
 5   0  0.1392854E-03  0.6008179E+03  0.7818609E-02  0.9903711E-01
       -1   -1    0    0    0  501  0.00000000000E+00  0.00000000000E+00  0.15152240146E+03  0.15152240155E+03  0.50400001928E-02 0.  1.
        1   -1    0    0  501    0  0.00000000000E+00  0.00000000000E+00 -0.59559194909E+03  0.59559194911E+03  0.50400001928E-02 0. -1.
    10030    2    1    2    0    0  0.00000000000E+00  0.00000000000E+00 -0.44406954763E+03  0.74711435066E+03  0.60081785079E+03 0.  0.
        4    1    3    3  502    0  0.19651765019E+02 -0.22902151953E+03  0.18467887018E+02  0.23060729396E+03  0.12699999809E+01 0.  1.
       -4    1    3    3    0  502 -0.19651765019E+02  0.22902151953E+03 -0.46253743465E+03  0.51650705670E+03  0.12699999809E+01 0. -1.
</event>
<event>
 5   0  0.2421210E-03  0.5999885E+03  0.7818609E-02  0.9905430E-01
       -2   -1    0    0    0  501  0.00000000000E+00  0.00000000000E+00  0.10627525837E+03  0.10627525840E+03  0.25500000920E-02 0.  1.
        2   -1    0    0  501    0  0.00000000000E+00  0.00000000000E+00 -0.84682508463E+03  0.84682508463E+03  0.25500000920E-02 0. -1.
    10030    2    1    2    0    0  0.00000000000E+00  0.00000000000E+00 -0.74054982626E+03  0.95310034303E+03  0.59998851548E+03 0.  0.
        1    1    3    3  502    0  0.13807838645E+01  0.76972987727E+02  0.90316369629E+02  0.11867516190E+03  0.50400001928E-02 0.  1.
       -1    1    3    3    0  502 -0.13807838645E+01 -0.76972987727E+02 -0.83086619589E+03  0.83442518113E+03  0.50400001928E-02 0. -1.
</event>
<event>
 5   0  0.2313168E-03  0.6003301E+03  0.7818609E-02  0.9904721E-01
        2   -1    0    0  501    0  0.00000000000E+00  0.00000000000E+00  0.57294190436E+03  0.57294190437E+03  0.25500000920E-02 0.  1.
       -2   -1    0    0    0  501  0.00000000000E+00  0.00000000000E+00 -0.15725687614E+03  0.15725687616E+03  0.25500000920E-02 0. -1.
    10030    2    1    2    0    0  0.00000000000E+00  0.00000000000E+00  0.41568502823E+03  0.73019878053E+03  0.60033008953E+03 0.  0.
        2    1    3    3  502    0  0.14559662216E+03 -0.54168504717E+02  0.52024361168E+03  0.54294200316E+03  0.25500000920E-02 0.  1.
       -2    1    3    3    0  502 -0.14559662216E+03  0.54168504717E+02 -0.10455858346E+03  0.18725677737E+03  0.25500000920E-02 0. -1.
</event>
<event>
 5   0  0.1392854E-03  0.6014687E+03  0.7818609E-02  0.9902364E-01
       -1   -1    0    0    0  501  0.00000000000E+00  0.00000000000E+00  0.19166080609E+03  0.19166080615E+03  0.50400001928E-02 0. -1.
        1   -1    0    0  501    0  0.00000000000E+00  0.00000000000E+00 -0.47188134694E+03  0.47188134697E+03  0.50400001928E-02 0.  1.
    10030    2    1    2    0    0  0.00000000000E+00  0.00000000000E+00 -0.28022054085E+03  0.66354215312E+03  0.60146873356E+03 0.  0.
        4    1    3    3  502    0 -0.38974681802E+02 -0.57302758352E+02  0.18272871014E+03  0.19543292032E+03  0.12699999809E+01 0. -1.
       -4    1    3    3    0  502  0.38974681802E+02  0.57302758352E+02 -0.46294925099E+03  0.46810923280E+03  0.12699999809E+01 0.  1.
</event>
<event>
 5   0  0.1416315E-03  0.5998650E+03  0.7818609E-02  0.9905686E-01
        1   -1    0    0  501    0  0.00000000000E+00  0.00000000000E+00  0.15614345075E+03  0.15614345083E+03  0.50400001928E-02 0. -1.
       -1   -1    0    0    0  501  0.00000000000E+00  0.00000000000E+00 -0.57613375415E+03  0.57613375417E+03  0.50400001928E-02 0.  1.
    10030    2    1    2    0    0  0.00000000000E+00  0.00000000000E+00 -0.41999030340E+03  0.73227720500E+03  0.59986502650E+03 0.  0.
        2    1    3    3  502    0  0.14633747287E+03 -0.11755825901E+03 -0.49556641971E+03  0.52992516130E+03  0.25500000920E-02 0.  1.
       -2    1    3    3    0  502 -0.14633747287E+03  0.11755825901E+03  0.75576116311E+02  0.20235204370E+03  0.25500000920E-02 0. -1.
</event>
<event>
 5   0  0.2324616E-03  0.6005253E+03  0.7818609E-02  0.9904317E-01
       -2   -1    0    0    0  501  0.00000000000E+00  0.00000000000E+00  0.15649240115E+03  0.15649240117E+03  0.25500000920E-02 0. -1.
        2   -1    0    0  501    0  0.00000000000E+00  0.00000000000E+00 -0.57611530156E+03  0.57611530157E+03  0.25500000920E-02 0.  1.
    10030    2    1    2    0    0  0.00000000000E+00  0.00000000000E+00 -0.41962290041E+03  0.73260770274E+03  0.60052532633E+03 0.  0.
        4    1    3    3  502    0  0.92329452023E+02  0.24421044133E+03 -0.39072800477E+03  0.46992920103E+03  0.12699999809E+01 0.  1.
       -4    1    3    3    0  502 -0.92329452023E+02 -0.24421044133E+03 -0.28894895640E+02  0.26267850171E+03  0.12699999809E+01 0. -1.
</event>
<event>
 5   0  0.2324616E-03  0.6010557E+03  0.7818609E-02  0.9903218E-01
        2   -1    0    0  501    0  0.00000000000E+00  0.00000000000E+00  0.75672541304E+03  0.75672541305E+03  0.25500000920E-02 0.  1.
       -2   -1    0    0    0  501  0.00000000000E+00  0.00000000000E+00 -0.11935239696E+03  0.11935239698E+03  0.25500000920E-02 0. -1.
    10030    2    1    2    0    0  0.00000000000E+00  0.00000000000E+00  0.63737301609E+03  0.87607781003E+03  0.60105571089E+03 0.  0.
        4    1    3    3  502    0  0.42771832422E+02 -0.28073123227E+02  0.75032724300E+03  0.75207055147E+03  0.12699999809E+01 0.  1.
       -4    1    3    3    0  502 -0.42771832422E+02  0.28073123227E+02 -0.11295422692E+03  0.12400725856E+03  0.12699999809E+01 0. -1.
</event>
<event>
 5   0  0.1392854E-03  0.6000783E+03  0.7818609E-02  0.9905244E-01
        1   -1    0    0  501    0  0.00000000000E+00  0.00000000000E+00  0.20741509474E+04  0.20741509474E+04  0.50400001928E-02 0.  1.
       -1   -1    0    0    0  501  0.00000000000E+00  0.00000000000E+00 -0.43402575427E+02  0.43402575720E+02  0.50400001928E-02 0. -1.
    10030    2    1    2    0    0  0.00000000000E+00  0.00000000000E+00  0.20307483720E+04  0.21175535231E+04  0.60007830575E+03 0.  0.
        4    1    3    3  502    0  0.19849724855E+03  0.92708605650E+02  0.29196393841E+03  0.36502136578E+03  0.12699999809E+01 0. -1.
       -4    1    3    3    0  502 -0.19849724855E+03 -0.92708605650E+02  0.17387844336E+04  0.17525321573E+04  0.12699999809E+01 0.  1.
</event>
<event>
 5   0  0.1416315E-03  0.6005908E+03  0.7818609E-02  0.9904181E-01
       -1   -1    0    0    0  501  0.00000000000E+00  0.00000000000E+00  0.12292396283E+03  0.12292396293E+03  0.50400001928E-02 0. -1.
        1   -1    0    0  501    0  0.00000000000E+00  0.00000000000E+00 -0.73360257208E+03  0.73360257209E+03  0.50400001928E-02 0.  1.
    10030    2    1    2    0    0  0.00000000000E+00  0.00000000000E+00 -0.61067860925E+03  0.85652653502E+03  0.60059082694E+03 0.  0.
        2    1    3    3  502    0  0.94824086082E+02  0.14784634288E+02 -0.71114350095E+03  0.71758990493E+03  0.25500000920E-02 0.  1.
       -2    1    3    3    0  502 -0.94824086082E+02 -0.14784634288E+02  0.10046489169E+03  0.13893663009E+03  0.25500000920E-02 0. -1.
</event>
<event>
 5   0  0.2406307E-03  0.5998022E+03  0.7818609E-02  0.9905816E-01
       -2   -1    0    0    0  501  0.00000000000E+00  0.00000000000E+00  0.26487820127E+03  0.26487820128E+03  0.25500000920E-02 0.  1.
        2   -1    0    0  501    0  0.00000000000E+00  0.00000000000E+00 -0.33955485585E+03  0.33955485586E+03  0.25500000920E-02 0. -1.
    10030    2    1    2    0    0  0.00000000000E+00  0.00000000000E+00 -0.74676654575E+02  0.60443305714E+03  0.59980223226E+03 0.  0.
        5    1    3    3  502    0  0.11169123081E+03  0.11241009882E+03  0.21920055259E+03  0.27052159546E+03  0.46999998093E+01 0.  1.
       -5    1    3    3    0  502 -0.11169123081E+03 -0.11241009882E+03 -0.29387720716E+03  0.33391146168E+03  0.46999998093E+01 0. -1.
</event>
<event>
 5   0  0.2406307E-03  0.5999382E+03  0.7818609E-02  0.9905534E-01
       -2   -1    0    0    0  501  0.00000000000E+00  0.00000000000E+00  0.94810954510E+02  0.94810954544E+02  0.25500000920E-02 0. -1.
        2   -1    0    0  501    0  0.00000000000E+00  0.00000000000E+00 -0.94906173823E+03  0.94906173823E+03  0.25500000920E-02 0.  1.
    10030    2    1    2    0    0  0.00000000000E+00  0.00000000000E+00 -0.85425078372E+03  0.10438726928E+04  0.59993816118E+03 0.  0.
        5    1    3    3  502    0 -0.87802899198E+02  0.13157994628E+03  0.16264971428E+02  0.15908887662E+03  0.46999998093E+01 0. -1.
       -5    1    3    3    0  502  0.87802899198E+02 -0.13157994628E+03 -0.87051575515E+03  0.88478381616E+03  0.46999998093E+01 0.  1.
</event>
<event>
 5   0  0.1479385E-03  0.5999256E+03  0.7818609E-02  0.9905560E-01
        1   -1    0    0  501    0  0.00000000000E+00  0.00000000000E+00  0.40236644311E+03  0.40236644314E+03  0.50400001928E-02 0.  1.
       -1   -1    0    0    0  501  0.00000000000E+00  0.00000000000E+00 -0.22362121120E+03  0.22362121125E+03  0.50400001928E-02 0. -1.
    10030    2    1    2    0    0  0.00000000000E+00  0.00000000000E+00  0.17874523191E+03  0.62598765439E+03  0.59992556665E+03 0.  0.
        3    1    3    3  502    0  0.59134090034E+02  0.10658294419E+03 -0.19661602186E+03  0.23133230395E+03  0.10100000352E+00 0. -1.
       -3    1    3    3    0  502 -0.59134090034E+02 -0.10658294419E+03  0.37536125378E+03  0.39465535045E+03  0.10100000352E+00 0.  1.
</event>
<event>
 5   0  0.2313168E-03  0.5997365E+03  0.7818609E-02  0.9905953E-01
       -2   -1    0    0    0  501  0.00000000000E+00  0.00000000000E+00  0.19430472092E+03  0.19430472094E+03  0.25500000920E-02 0. -1.
        2   -1    0    0  501    0  0.00000000000E+00  0.00000000000E+00 -0.46278328343E+03  0.46278328344E+03  0.25500000920E-02 0.  1.
    10030    2    1    2    0    0  0.00000000000E+00  0.00000000000E+00 -0.26847856251E+03  0.65708800437E+03  0.59973653129E+03 0.  0.
        2    1    3    3  502    0  0.18130310874E+03  0.19015305973E+03 -0.29260193369E+03  0.39324915127E+03  0.25500000920E-02 0.  1.
       -2    1    3    3    0  502 -0.18130310874E+03 -0.19015305973E+03  0.24123371180E+02  0.26383885311E+03  0.25500000920E-02 0. -1.
</event>
<event>
 5   0  0.1392854E-03  0.6013234E+03  0.7818609E-02  0.9902664E-01
       -1   -1    0    0    0  501  0.00000000000E+00  0.00000000000E+00  0.31316669280E+03  0.31316669284E+03  0.50400001928E-02 0. -1.
        1   -1    0    0  501    0  0.00000000000E+00  0.00000000000E+00 -0.28865604960E+03  0.28865604964E+03  0.50400001928E-02 0.  1.
    10030    2    1    2    0    0  0.00000000000E+00  0.00000000000E+00  0.24510643203E+02  0.60182274248E+03  0.60132340861E+03 0.  0.
        4    1    3    3  502    0  0.16831524153E+03 -0.96967375205E+02 -0.21741978271E+03  0.29155731375E+03  0.12699999809E+01 0.  1.
       -4    1    3    3    0  502 -0.16831524153E+03  0.96967375205E+02  0.24193042591E+03  0.31026542874E+03  0.12699999809E+01 0. -1.
</event>
<event>
 5   0  0.2346281E-03  0.6000481E+03  0.7818609E-02  0.9905306E-01
        2   -1    0    0  501    0  0.00000000000E+00  0.00000000000E+00  0.33798598045E+03  0.33798598046E+03  0.25500000920E-02 0. -1.
       -2   -1    0    0    0  501  0.00000000000E+00  0.00000000000E+00 -0.26632590407E+03  0.26632590409E+03  0.25500000920E-02 0.  1.
    10030    2    1    2    0    0  0.00000000000E+00  0.00000000000E+00  0.71660076378E+02  0.60431188455E+03  0.60004807079E+03 0.  0.
        3    1    3    3  502    0  0.79714411004E+02 -0.27582241187E+03  0.12352357667E+03  0.31255475426E+03  0.10100000352E+00 0. -1.
       -3    1    3    3    0  502 -0.79714411004E+02  0.27582241187E+03 -0.51863500290E+02  0.29175713029E+03  0.10100000352E+00 0.  1.
</event>
<event>
 5   0  0.9496750E-04  0.5998733E+03  0.7818609E-02  0.9905669E-01
        4   -1    0    0  501    0  0.00000000000E+00  0.00000000000E+00  0.31950972123E+03  0.31951224524E+03  0.12699999809E+01 0.  1.
       -4   -1    0    0    0  501  0.00000000000E+00  0.00000000000E+00 -0.28155758373E+03  0.28156044796E+03  0.12699999809E+01 0. -1.
    10030    2    1    2    0    0  0.00000000000E+00  0.00000000000E+00  0.37952137497E+02  0.60107269320E+03  0.59987333477E+03 0.  0.
        2    1    3    3  502    0  0.19825113094E+03  0.19837663836E+03  0.12551457935E+03  0.30726326041E+03  0.25500000920E-02 0.  1.
       -2    1    3    3    0  502 -0.19825113094E+03 -0.19837663836E+03 -0.87562441850E+02  0.29380943279E+03  0.25500000920E-02 0. -1.
</event>
<event>
 5   0  0.2313168E-03  0.6008080E+03  0.7818609E-02  0.9903731E-01
       -2   -1    0    0    0  501  0.00000000000E+00  0.00000000000E+00  0.59284087859E+02  0.59284087914E+02  0.25500000920E-02 0.  1.
        2   -1    0    0  501    0  0.00000000000E+00  0.00000000000E+00 -0.15222056092E+04  0.15222056092E+04  0.25500000920E-02 0. -1.
    10030    2    1    2    0    0  0.00000000000E+00  0.00000000000E+00 -0.14629215213E+04  0.15814896971E+04  0.60080802631E+03 0.  0.
        2    1    3    3  502    0  0.87955724093E+02  0.51782076563E+02 -0.14751646378E+04  0.14786914152E+04  0.25500000920E-02 0. -1.
       -2    1    3    3    0  502 -0.87955724093E+02 -0.51782076563E+02  0.12243116448E+02  0.10279828190E+03  0.25500000920E-02 0.  1.
</event>
<event>
 5   0  0.1423430E-03  0.5999193E+03  0.7818609E-02  0.9905573E-01
        1   -1    0    0  501    0  0.00000000000E+00  0.00000000000E+00  0.11642035048E+03  0.11642035059E+03  0.50400001928E-02 0.  1.
       -1   -1    0    0    0  501  0.00000000000E+00  0.00000000000E+00 -0.77285280437E+03  0.77285280438E+03  0.50400001928E-02 0. -1.
    10030    2    1    2    0    0  0.00000000000E+00  0.00000000000E+00 -0.65643245388E+03  0.88927315498E+03  0.59991930928E+03 0.  0.
        1    1    3    3  502    0 -0.17704770139E+03  0.23961260973E+03 -0.27653222902E+03  0.40648513506E+03  0.50400001928E-02 0.  1.
       -1    1    3    3    0  502  0.17704770139E+03 -0.23961260973E+03 -0.37990022486E+03  0.48278801992E+03  0.50400001928E-02 0. -1.
</event>
<event>
 5   0  0.2313168E-03  0.5998935E+03  0.7818609E-02  0.9905627E-01
       -2   -1    0    0    0  501  0.00000000000E+00  0.00000000000E+00  0.90392233051E+02  0.90392233087E+02  0.25500000920E-02 0.  1.
        2   -1    0    0  501    0  0.00000000000E+00  0.00000000000E+00 -0.99530738933E+03  0.99530738933E+03  0.25500000920E-02 0. -1.
    10030    2    1    2    0    0  0.00000000000E+00  0.00000000000E+00 -0.90491515628E+03  0.10856996224E+04  0.59989351560E+03 0.  0.
        2    1    3    3  502    0 -0.25548702608E+03  0.88976616465E+02 -0.68688068686E+03  0.73823813012E+03  0.25500000920E-02 0. -1.
       -2    1    3    3    0  502  0.25548702608E+03 -0.88976616465E+02 -0.21803446941E+03  0.34746149230E+03  0.25500000920E-02 0.  1.
</event>
<event>
 5   0  0.1479385E-03  0.6003038E+03  0.7818609E-02  0.9904776E-01
        1   -1    0    0  501    0  0.00000000000E+00  0.00000000000E+00  0.62997126887E+03  0.62997126889E+03  0.50400001928E-02 0.  1.
       -1   -1    0    0    0  501  0.00000000000E+00  0.00000000000E+00 -0.14300837744E+03  0.14300837753E+03  0.50400001928E-02 0. -1.
    10030    2    1    2    0    0  0.00000000000E+00  0.00000000000E+00  0.48696289143E+03  0.77297964642E+03  0.60030381987E+03 0.  0.
        3    1    3    3  502    0  0.50088635451E+02  0.54301304872E+02  0.61808207438E+03  0.62248129609E+03  0.10100000352E+00 0.  1.
       -3    1    3    3    0  502 -0.50088635451E+02 -0.54301304872E+02 -0.13111918295E+03  0.15049835033E+03  0.10100000352E+00 0. -1.
</event>
<event>
 5   0  0.1392854E-03  0.5999600E+03  0.7818609E-02  0.9905489E-01
        1   -1    0    0  501    0  0.00000000000E+00  0.00000000000E+00  0.13286855514E+03  0.13286855523E+03  0.50400001928E-02 0. -1.
       -1   -1    0    0    0  501  0.00000000000E+00  0.00000000000E+00 -0.67727086921E+03  0.67727086923E+03  0.50400001928E-02 0.  1.
    10030    2    1    2    0    0  0.00000000000E+00  0.00000000000E+00 -0.54440231407E+03  0.81013942446E+03  0.59996000491E+03 0.  0.
        4    1    3    3  502    0 -0.22884963538E+03  0.15733433874E+03 -0.11907115016E+03  0.30216849847E+03  0.12699999809E+01 0. -1.
       -4    1    3    3    0  502  0.22884963538E+03 -0.15733433874E+03 -0.42533116391E+03  0.50797092599E+03  0.12699999809E+01 0.  1.
</event>
<event>
 5   0  0.2346281E-03  0.5989928E+03  0.7818609E-02  0.9907498E-01
        2   -1    0    0  501    0  0.00000000000E+00  0.00000000000E+00  0.69658202370E+03  0.69658202371E+03  0.25500000920E-02 0. -1.
       -2   -1    0    0    0  501  0.00000000000E+00  0.00000000000E+00 -0.12876887088E+03  0.12876887090E+03  0.25500000920E-02 0.  1.
    10030    2    1    2    0    0  0.00000000000E+00  0.00000000000E+00  0.56781315283E+03  0.82535089461E+03  0.59899275681E+03 0.  0.
        3    1    3    3  502    0 -0.31324975754E+02 -0.13099426032E+03 -0.84683882653E+02  0.15909783319E+03  0.10100000352E+00 0.  1.
       -3    1    3    3    0  502  0.31324975754E+02  0.13099426032E+03  0.65249703548E+03  0.66625306142E+03  0.10100000352E+00 0. -1.
</event>
<event>
 5   0  0.1423430E-03  0.5999890E+03  0.7818609E-02  0.9905429E-01
       -1   -1    0    0    0  501  0.00000000000E+00  0.00000000000E+00  0.11429820455E+03  0.11429820466E+03  0.50400001928E-02 0.  1.
        1   -1    0    0  501    0  0.00000000000E+00  0.00000000000E+00 -0.78738496458E+03  0.78738496460E+03  0.50400001928E-02 0. -1.
    10030    2    1    2    0    0  0.00000000000E+00  0.00000000000E+00 -0.67308676004E+03  0.90168316926E+03  0.59998895922E+03 0.  0.
        1    1    3    3  502    0  0.25656786386E+03 -0.15444817177E+03 -0.36323215460E+03  0.47076417099E+03  0.50400001928E-02 0. -1.
       -1    1    3    3    0  502 -0.25656786386E+03  0.15444817177E+03 -0.30985460544E+03  0.43091899827E+03  0.50400001928E-02 0.  1.
</event>
<event>
 5   0  0.1416315E-03  0.6000998E+03  0.7818609E-02  0.9905199E-01
       -1   -1    0    0    0  501  0.00000000000E+00  0.00000000000E+00  0.12226842249E+03  0.12226842260E+03  0.50400001928E-02 0.  1.
        1   -1    0    0  501    0  0.00000000000E+00  0.00000000000E+00 -0.73633029687E+03  0.73633029689E+03  0.50400001928E-02 0. -1.
    10030    2    1    2    0    0  0.00000000000E+00  0.00000000000E+00 -0.61406187438E+03  0.85859871949E+03  0.60009980465E+03 0.  0.
        2    1    3    3  502    0 -0.28427682456E+02 -0.27663240494E+03 -0.14581582971E+03  0.31399980381E+03  0.25500000920E-02 0.  1.
       -2    1    3    3    0  502  0.28427682456E+02  0.27663240494E+03 -0.46824604467E+03  0.54459891568E+03  0.25500000920E-02 0. -1.
</event>
<event>
 5   0  0.1416315E-03  0.6000118E+03  0.7818609E-02  0.9905381E-01
       -1   -1    0    0    0  501  0.00000000000E+00  0.00000000000E+00  0.57535252763E+02  0.57535252984E+02  0.50400001928E-02 0.  1.
        1   -1    0    0  501    0  0.00000000000E+00  0.00000000000E+00 -0.15643200886E+04  0.15643200886E+04  0.50400001928E-02 0. -1.
    10030    2    1    2    0    0  0.00000000000E+00  0.00000000000E+00 -0.15067848358E+04  0.16218553416E+04  0.60001183950E+03 0.  0.
        2    1    3    3  502    0  0.12986632701E+03  0.13943451255E+03 -0.13797531155E+04  0.13928481274E+04  0.25500000920E-02 0. -1.
       -2    1    3    3    0  502 -0.12986632701E+03 -0.13943451255E+03 -0.12703172030E+03  0.22900721418E+03  0.25500000920E-02 0.  1.
</event>
<event>
 5   0  0.2324616E-03  0.5994133E+03  0.7818609E-02  0.9906624E-01
       -2   -1    0    0    0  501  0.00000000000E+00  0.00000000000E+00  0.75814344918E+02  0.75814344961E+02  0.25500000920E-02 0.  1.
        2   -1    0    0  501    0  0.00000000000E+00  0.00000000000E+00 -0.11847898303E+04  0.11847898303E+04  0.25500000920E-02 0. -1.
    10030    2    1    2    0    0  0.00000000000E+00  0.00000000000E+00 -0.11089754854E+04  0.12606041753E+04  0.59941326271E+03 0.  0.
        4    1    3    3  502    0  0.19829451931E+03  0.84077979953E+02 -0.11619886308E+03  0.24473171389E+03  0.12699999809E+01 0.  1.
       -4    1    3    3    0  502 -0.19829451931E+03 -0.84077979953E+02 -0.99277662229E+03  0.10158724614E+04  0.12699999809E+01 0. -1.
</event>
<event>
 5   0  0.1392854E-03  0.5998002E+03  0.7818609E-02  0.9905821E-01
        1   -1    0    0  501    0  0.00000000000E+00  0.00000000000E+00  0.12847632964E+04  0.12847632964E+04  0.50400001928E-02 0. -1.
       -1   -1    0    0    0  501  0.00000000000E+00  0.00000000000E+00 -0.70005171659E+02  0.70005171840E+02  0.50400001928E-02 0.  1.
    10030    2    1    2    0    0  0.00000000000E+00  0.00000000000E+00  0.12147581248E+04  0.13547684683E+04  0.59980021753E+03 0.  0.
        4    1    3    3  502    0  0.21494524333E+03  0.15808708873E+03  0.91662692746E+03  0.95467246859E+03  0.12699999809E+01 0. -1.
       -4    1    3    3    0  502 -0.21494524333E+03 -0.15808708873E+03  0.29813119730E+03  0.40009599967E+03  0.12699999809E+01 0.  1.
</event>
<event>
 5   0  0.1392854E-03  0.5999027E+03  0.7818609E-02  0.9905608E-01
        1   -1    0    0  501    0  0.00000000000E+00  0.00000000000E+00  0.16123504881E+04  0.16123504881E+04  0.50400001928E-02 0. -1.
       -1   -1    0    0    0  501  0.00000000000E+00  0.00000000000E+00 -0.55801023841E+02  0.55801024068E+02  0.50400001928E-02 0.  1.
    10030    2    1    2    0    0  0.00000000000E+00  0.00000000000E+00  0.15565494642E+04  0.16681515121E+04  0.59990268618E+03 0.  0.
        4    1    3    3  502    0  0.64831884121E+02  0.41363554595E+02  0.15844633566E+04  0.15863290511E+04  0.12699999809E+01 0. -1.
       -4    1    3    3    0  502 -0.64831884121E+02 -0.41363554595E+02 -0.27913892406E+02  0.81822461076E+02  0.12699999809E+01 0.  1.
</event>
<event>
 5   0  0.2406307E-03  0.5999380E+03  0.7818609E-02  0.9905535E-01
       -2   -1    0    0    0  501  0.00000000000E+00  0.00000000000E+00  0.21446986481E+03  0.21446986482E+03  0.25500000920E-02 0. -1.
        2   -1    0    0  501    0  0.00000000000E+00  0.00000000000E+00 -0.41955261954E+03  0.41955261954E+03  0.25500000920E-02 0.  1.
    10030    2    1    2    0    0  0.00000000000E+00  0.00000000000E+00 -0.20508275473E+03  0.63402248437E+03  0.59993797546E+03 0.  0.
        5    1    3    3  502    0  0.15699305618E+03 -0.23871413095E+02  0.16636029743E+03  0.23003152525E+03  0.46999998093E+01 0. -1.
       -5    1    3    3    0  502 -0.15699305618E+03  0.23871413095E+02 -0.37144305215E+03  0.40399095911E+03  0.46999998093E+01 0.  1.
</event>
<event>
 5   0  0.2421210E-03  0.5999098E+03  0.7818609E-02  0.9905593E-01
       -2   -1    0    0    0  501  0.00000000000E+00  0.00000000000E+00  0.18449357668E+03  0.18449357670E+03  0.25500000920E-02 0. -1.
        2   -1    0    0  501    0  0.00000000000E+00  0.00000000000E+00 -0.48767521774E+03  0.48767521774E+03  0.25500000920E-02 0.  1.
    10030    2    1    2    0    0  0.00000000000E+00  0.00000000000E+00 -0.30318164106E+03  0.67216879445E+03  0.59990981052E+03 0.  0.
        1    1    3    3  502    0  0.17760053585E+03  0.23480645486E+03 -0.87255892010E+02  0.30706613668E+03  0.50400001928E-02 0.  1.
       -1    1    3    3    0  502 -0.17760053585E+03 -0.23480645486E+03 -0.21592574905E+03  0.36510265776E+03  0.50400001928E-02 0. -1.
</event>
<event>
 5   0  0.2421210E-03  0.6004917E+03  0.7818609E-02  0.9904387E-01
        2   -1    0    0  501    0  0.00000000000E+00  0.00000000000E+00  0.10816284603E+04  0.10816284603E+04  0.25500000920E-02 0.  1.
       -2   -1    0    0    0  501  0.00000000000E+00  0.00000000000E+00 -0.83344297972E+02  0.83344298011E+02  0.25500000920E-02 0. -1.
    10030    2    1    2    0    0  0.00000000000E+00  0.00000000000E+00  0.99828416230E+03  0.11649727583E+04  0.60049168092E+03 0.  0.
        1    1    3    3  502    0 -0.99541628314E+02 -0.26718173150E+03  0.68167988104E+03  0.73890599785E+03  0.50400001928E-02 0.  1.
       -1    1    3    3    0  502  0.99541628314E+02  0.26718173150E+03  0.31660428126E+03  0.42606676044E+03  0.50400001928E-02 0. -1.
</event>
<event>
 5   0  0.9496750E-04  0.6001027E+03  0.7818609E-02  0.9905193E-01
        3   -1    0    0  501    0  0.00000000000E+00  0.00000000000E+00  0.11193835368E+03  0.11193839924E+03  0.10100000352E+00 0. -1.
       -3   -1    0    0    0  501  0.00000000000E+00  0.00000000000E+00 -0.80428898748E+03  0.80428899382E+03  0.10100000352E+00 0.  1.
    10030    2    1    2    0    0  0.00000000000E+00  0.00000000000E+00 -0.69235063380E+03  0.91622739306E+03  0.60010268761E+03 0.  0.
        1    1    3    3  502    0  0.25358871269E+03  0.15646631046E+03 -0.29237122450E+03  0.41745643420E+03  0.50400001928E-02 0.  1.
       -1    1    3    3    0  502 -0.25358871269E+03 -0.15646631046E+03 -0.39997940930E+03  0.49877095886E+03  0.50400001928E-02 0. -1.
</event>
<event>
 5   0  0.1423430E-03  0.5995397E+03  0.7818609E-02  0.9906361E-01
        1   -1    0    0  501    0  0.00000000000E+00  0.00000000000E+00  0.20236603765E+03  0.20236603771E+03  0.50400001928E-02 0. -1.
       -1   -1    0    0    0  501  0.00000000000E+00  0.00000000000E+00 -0.44405659190E+03  0.44405659193E+03  0.50400001928E-02 0.  1.
    10030    2    1    2    0    0  0.00000000000E+00  0.00000000000E+00 -0.24169055425E+03  0.64642262964E+03  0.59953973354E+03 0.  0.
        1    1    3    3  502    0 -0.20082185140E+03 -0.10036411808E+03  0.93332755370E+02  0.24313242369E+03  0.50400001928E-02 0. -1.
       -1    1    3    3    0  502  0.20082185140E+03  0.10036411808E+03 -0.33502330962E+03  0.40329020595E+03  0.50400001928E-02 0.  1.
</event>
<event>
 5   0  0.2406307E-03  0.5995705E+03  0.7818609E-02  0.9906298E-01
       -2   -1    0    0    0  501  0.00000000000E+00  0.00000000000E+00  0.26625811718E+03  0.26625811720E+03  0.25500000920E-02 0. -1.
        2   -1    0    0  501    0  0.00000000000E+00  0.00000000000E+00 -0.33753409975E+03  0.33753409976E+03  0.25500000920E-02 0.  1.
    10030    2    1    2    0    0  0.00000000000E+00  0.00000000000E+00 -0.71275982562E+02  0.60379221695E+03  0.59957049257E+03 0.  0.
        5    1    3    3  502    0  0.21941382186E+02  0.14206626167E+03  0.22924421367E+03  0.27062750499E+03  0.46999998093E+01 0. -1.
       -5    1    3    3    0  502 -0.21941382186E+02 -0.14206626167E+03 -0.30052019623E+03  0.33316471196E+03  0.46999998093E+01 0.  1.
</event>
<event>
 5   0  0.2313168E-03  0.5999095E+03  0.7818609E-02  0.9905594E-01
        2   -1    0    0  501    0  0.00000000000E+00  0.00000000000E+00  0.58311181161E+03  0.58311181162E+03  0.25500000920E-02 0.  1.
       -2   -1    0    0    0  501  0.00000000000E+00  0.00000000000E+00 -0.15429777503E+03  0.15429777505E+03  0.25500000920E-02 0. -1.
    10030    2    1    2    0    0  0.00000000000E+00  0.00000000000E+00  0.42881403659E+03  0.73740958666E+03  0.59990951028E+03 0.  0.
        2    1    3    3  502    0  0.22329501850E+03 -0.19994793987E+03  0.20023058094E+03  0.36046099581E+03  0.25500000920E-02 0.  1.
       -2    1    3    3    0  502 -0.22329501850E+03  0.19994793987E+03  0.22858345565E+03  0.37694859086E+03  0.25500000920E-02 0. -1.
</event>
<event>
 5   0  0.1418763E-03  0.6001560E+03  0.7818609E-02  0.9905082E-01
       -1   -1    0    0    0  501  0.00000000000E+00  0.00000000000E+00  0.61922419630E+02  0.61922419835E+02  0.50400001928E-02 0. -1.
        1   -1    0    0  501    0  0.00000000000E+00  0.00000000000E+00 -0.14541876523E+04  0.14541876523E+04  0.50400001928E-02 0.  1.
    10030    2    1    2    0    0  0.00000000000E+00  0.00000000000E+00 -0.13922652327E+04  0.15161100721E+04  0.60015604034E+03 0.  0.
        5    1    3    3  502    0  0.92160204475E+01  0.29658837213E+03 -0.58386242349E+03  0.65495573673E+03  0.46999998093E+01 0. -1.
       -5    1    3    3    0  502 -0.92160204475E+01 -0.29658837213E+03 -0.80840280918E+03  0.86115433542E+03  0.46999998093E+01 0.  1.
</event>
<event>
 5   0  0.2421210E-03  0.5996082E+03  0.7818609E-02  0.9906219E-01
       -2   -1    0    0    0  501  0.00000000000E+00  0.00000000000E+00  0.37451900640E+03  0.37451900641E+03  0.25500000920E-02 0. -1.
        2   -1    0    0  501    0  0.00000000000E+00  0.00000000000E+00 -0.23999448151E+03  0.23999448152E+03  0.25500000920E-02 0.  1.
    10030    2    1    2    0    0  0.00000000000E+00  0.00000000000E+00  0.13452452490E+03  0.61451348793E+03  0.59960818795E+03 0.  0.
        1    1    3    3  502    0  0.19680773619E+03 -0.73472369068E+02  0.28647422928E+03  0.35524492692E+03  0.50400001928E-02 0. -1.
       -1    1    3    3    0  502 -0.19680773619E+03  0.73472369068E+02 -0.15194970438E+03  0.25926856101E+03  0.50400001928E-02 0.  1.
</event>
<event>
 5   0  0.2324616E-03  0.5999380E+03  0.7818609E-02  0.9905535E-01
        2   -1    0    0  501    0  0.00000000000E+00  0.00000000000E+00  0.55985152178E+03  0.55985152178E+03  0.25500000920E-02 0. -1.
       -2   -1    0    0    0  501  0.00000000000E+00  0.00000000000E+00 -0.16072368333E+03  0.16072368335E+03  0.25500000920E-02 0.  1.
    10030    2    1    2    0    0  0.00000000000E+00  0.00000000000E+00  0.39912783844E+03  0.72057520513E+03  0.59993799249E+03 0.  0.
        4    1    3    3  502    0 -0.10633335868E+03 -0.25372622746E+03  0.55955374538E+02  0.28074258407E+03  0.12699999809E+01 0.  1.
       -4    1    3    3    0  502  0.10633335868E+03  0.25372622746E+03  0.34317246391E+03  0.43983262106E+03  0.12699999809E+01 0. -1.
</event>
<event>
 5   0  0.2421210E-03  0.5998410E+03  0.7818609E-02  0.9905736E-01
       -2   -1    0    0    0  501  0.00000000000E+00  0.00000000000E+00  0.75731437670E+02  0.75731437713E+02  0.25500000920E-02 0. -1.
        2   -1    0    0  501    0  0.00000000000E+00  0.00000000000E+00 -0.11877803743E+04  0.11877803744E+04  0.25500000920E-02 0.  1.
    10030    2    1    2    0    0  0.00000000000E+00  0.00000000000E+00 -0.11120489367E+04  0.12635118121E+04  0.59984103032E+03 0.  0.
        1    1    3    3  502    0  0.14647162889E+03 -0.95852344796E+02 -0.10690153924E+04  0.10832522880E+04  0.50400001928E-02 0.  1.
       -1    1    3    3    0  502 -0.14647162889E+03  0.95852344796E+02 -0.43033544235E+02  0.18025952410E+03  0.50400001928E-02 0. -1.
</event>
<event>
 5   0  0.2313168E-03  0.6003774E+03  0.7818609E-02  0.9904623E-01
        2   -1    0    0  501    0  0.00000000000E+00  0.00000000000E+00  0.13474549399E+04  0.13474549399E+04  0.25500000920E-02 0. -1.
       -2   -1    0    0    0  501  0.00000000000E+00  0.00000000000E+00 -0.66876639906E+02  0.66876639955E+02  0.25500000920E-02 0.  1.
    10030    2    1    2    0    0  0.00000000000E+00  0.00000000000E+00  0.12805783000E+04  0.14143315799E+04  0.60037741077E+03 0.  0.
        2    1    3    3  502    0  0.14840863873E+03 -0.25007000546E+03  0.46474122354E+03  0.54821942373E+03  0.25500000920E-02 0.  1.
       -2    1    3    3    0  502 -0.14840863873E+03  0.25007000546E+03  0.81583707646E+03  0.86611215614E+03  0.25500000920E-02 0. -1.
</event>
<event>
 5   0  0.1416315E-03  0.6000041E+03  0.7818609E-02  0.9905398E-01
        1   -1    0    0  501    0  0.00000000000E+00  0.00000000000E+00  0.58540417956E+03  0.58540417959E+03  0.50400001928E-02 0. -1.
       -1   -1    0    0    0  501  0.00000000000E+00  0.00000000000E+00 -0.15374204400E+03  0.15374204408E+03  0.50400001928E-02 0.  1.
    10030    2    1    2    0    0  0.00000000000E+00  0.00000000000E+00  0.43166213557E+03  0.73914622367E+03  0.60000411722E+03 0.  0.
        2    1    3    3  502    0  0.20043034429E+03  0.27511541312E+02 -0.57062395028E+02  0.21020305600E+03  0.25500000920E-02 0.  1.
       -2    1    3    3    0  502 -0.20043034429E+03 -0.27511541312E+02  0.48872453059E+03  0.52894316767E+03  0.25500000920E-02 0. -1.
</event>
<event>
 5   0  0.1416315E-03  0.5997316E+03  0.7818609E-02  0.9905963E-01
        1   -1    0    0  501    0  0.00000000000E+00  0.00000000000E+00  0.37393743704E+03  0.37393743708E+03  0.50400001928E-02 0. -1.
       -1   -1    0    0    0  501  0.00000000000E+00  0.00000000000E+00 -0.24046669344E+03  0.24046669349E+03  0.50400001928E-02 0.  1.
    10030    2    1    2    0    0  0.00000000000E+00  0.00000000000E+00  0.13347074360E+03  0.61440413057E+03  0.59973160352E+03 0.  0.
        2    1    3    3  502    0 -0.20990319939E+03  0.98561713657E+02  0.26150701091E+03  0.34951349226E+03  0.25500000920E-02 0. -1.
       -2    1    3    3    0  502  0.20990319939E+03 -0.98561713657E+02 -0.12803626731E+03  0.26489063831E+03  0.25500000920E-02 0.  1.
</event>
<event>
 5   0  0.2421210E-03  0.6003372E+03  0.7818609E-02  0.9904707E-01
        2   -1    0    0  501    0  0.00000000000E+00  0.00000000000E+00  0.63333556603E+03  0.63333556603E+03  0.25500000920E-02 0.  1.
       -2   -1    0    0    0  501  0.00000000000E+00  0.00000000000E+00 -0.14226454506E+03  0.14226454509E+03  0.25500000920E-02 0. -1.
    10030    2    1    2    0    0  0.00000000000E+00  0.00000000000E+00  0.49107102097E+03  0.77560011112E+03  0.60033722585E+03 0.  0.
        1    1    3    3  502    0 -0.27341382857E+03 -0.12220849713E+03  0.21933879631E+03  0.37121361238E+03  0.50400001928E-02 0.  1.
       -1    1    3    3    0  502  0.27341382857E+03  0.12220849713E+03  0.27173222466E+03  0.40438649874E+03  0.50400001928E-02 0. -1.
</event>
<event>
 5   0  0.1423430E-03  0.6000077E+03  0.7818609E-02  0.9905390E-01
       -1   -1    0    0    0  501  0.00000000000E+00  0.00000000000E+00  0.26210990308E+03  0.26210990313E+03  0.50400001928E-02 0. -1.
        1   -1    0    0  501    0  0.00000000000E+00  0.00000000000E+00 -0.34337621057E+03  0.34337621060E+03  0.50400001928E-02 0.  1.
    10030    2    1    2    0    0  0.00000000000E+00  0.00000000000E+00 -0.81266307488E+02  0.60548611373E+03  0.60000768427E+03 0.  0.
        1    1    3    3  502    0 -0.37785614910E+02  0.29628959880E+03 -0.12323016396E+02  0.29894336555E+03  0.50400001928E-02 0. -1.
       -1    1    3    3    0  502  0.37785614910E+02 -0.29628959880E+03 -0.68943291092E+02  0.30654274818E+03  0.50400001928E-02 0.  1.
</event>
<event>
 5   0  0.1418763E-03  0.6001889E+03  0.7818609E-02  0.9905014E-01
        1   -1    0    0  501    0  0.00000000000E+00  0.00000000000E+00  0.69024921678E+03  0.69024921680E+03  0.50400001928E-02 0. -1.
       -1   -1    0    0    0  501  0.00000000000E+00  0.00000000000E+00 -0.13046979598E+03  0.13046979607E+03  0.50400001928E-02 0.  1.
    10030    2    1    2    0    0  0.00000000000E+00  0.00000000000E+00  0.55977942080E+03  0.82071901287E+03  0.60018888538E+03 0.  0.
        5    1    3    3  502    0  0.27797105912E+03 -0.85362674408E+02  0.17866363194E+03  0.34131727069E+03  0.46999998093E+01 0. -1.
       -5    1    3    3    0  502 -0.27797105912E+03  0.85362674408E+02  0.38111578886E+03  0.47940174218E+03  0.46999998093E+01 0.  1.
</event>
<event>
 5   0  0.2421210E-03  0.6003448E+03  0.7818609E-02  0.9904691E-01
       -2   -1    0    0    0  501  0.00000000000E+00  0.00000000000E+00  0.41167326628E+02  0.41167326707E+02  0.25500000920E-02 0.  1.
        2   -1    0    0  501    0  0.00000000000E+00  0.00000000000E+00 -0.21887131696E+04  0.21887131696E+04  0.25500000920E-02 0. -1.
    10030    2    1    2    0    0  0.00000000000E+00  0.00000000000E+00 -0.21475458429E+04  0.22298804963E+04  0.60034480104E+03 0.  0.
        1    1    3    3  502    0  0.26237974691E+02  0.29850430765E+03 -0.11391933880E+04  0.11779451720E+04  0.50400001928E-02 0. -1.
       -1    1    3    3    0  502 -0.26237974691E+02 -0.29850430765E+03 -0.10083524550E+04  0.10519353243E+04  0.50400001928E-02 0.  1.
</event>
<event>
 5   0  0.1392854E-03  0.6000264E+03  0.7818609E-02  0.9905351E-01
        1   -1    0    0  501    0  0.00000000000E+00  0.00000000000E+00  0.10418054237E+03  0.10418054250E+03  0.50400001928E-02 0.  1.
       -1   -1    0    0    0  501  0.00000000000E+00  0.00000000000E+00 -0.86396101140E+03  0.86396101142E+03  0.50400001928E-02 0. -1.
    10030    2    1    2    0    0  0.00000000000E+00  0.00000000000E+00 -0.75978046903E+03  0.96814155392E+03  0.60002642217E+03 0.  0.
        4    1    3    3  502    0 -0.14737113823E+03 -0.16198291700E+03 -0.49026322344E+02  0.22441459615E+03  0.12699999809E+01 0.  1.
       -4    1    3    3    0  502  0.14737113823E+03  0.16198291700E+03 -0.71075414669E+03  0.74372695777E+03  0.12699999809E+01 0. -1.
</event>
<event>
 5   0  0.2313168E-03  0.5999584E+03  0.7818609E-02  0.9905492E-01
       -2   -1    0    0    0  501  0.00000000000E+00  0.00000000000E+00  0.11087626170E+04  0.11087626170E+04  0.25500000920E-02 0. -1.
        2   -1    0    0  501    0  0.00000000000E+00  0.00000000000E+00 -0.81160318971E+02  0.81160319011E+02  0.25500000920E-02 0.  1.
    10030    2    1    2    0    0  0.00000000000E+00  0.00000000000E+00  0.10276022980E+04  0.11899229360E+04  0.59995842416E+03 0.  0.
        2    1    3    3  502    0 -0.24748093033E+03 -0.10609463428E+03  0.77605754825E+03  0.82144275546E+03  0.25500000920E-02 0. -1.
       -2    1    3    3    0  502  0.24748093033E+03  0.10609463428E+03  0.25154474974E+03  0.36848018051E+03  0.25500000920E-02 0.  1.
</event>
<event>
 5   0  0.1392854E-03  0.6000649E+03  0.7818609E-02  0.9905271E-01
        1   -1    0    0  501    0  0.00000000000E+00  0.00000000000E+00  0.71502773526E+03  0.71502773528E+03  0.50400001928E-02 0. -1.
       -1   -1    0    0    0  501  0.00000000000E+00  0.00000000000E+00 -0.12589647352E+03  0.12589647362E+03  0.50400001928E-02 0.  1.
    10030    2    1    2    0    0  0.00000000000E+00  0.00000000000E+00  0.58913126175E+03  0.84092420890E+03  0.60006489778E+03 0.  0.
        4    1    3    3  502    0  0.15804848523E+03 -0.12258777119E+03  0.60795943992E+03  0.64001826444E+03  0.12699999809E+01 0. -1.
       -4    1    3    3    0  502 -0.15804848523E+03  0.12258777119E+03 -0.18828178171E+02  0.20090594446E+03  0.12699999809E+01 0.  1.
</event>
<event>
 5   0  0.1423430E-03  0.5998927E+03  0.7818609E-02  0.9905629E-01
        1   -1    0    0  501    0  0.00000000000E+00  0.00000000000E+00  0.12933412297E+03  0.12933412307E+03  0.50400001928E-02 0. -1.
       -1   -1    0    0    0  501  0.00000000000E+00  0.00000000000E+00 -0.69562306156E+03  0.69562306158E+03  0.50400001928E-02 0.  1.
    10030    2    1    2    0    0  0.00000000000E+00  0.00000000000E+00 -0.56628893859E+03  0.82495718465E+03  0.59989265251E+03 0.  0.
        1    1    3    3  502    0  0.41017353015E+02 -0.41230300480E+02 -0.68779516816E+03  0.69024963187E+03  0.50400001928E-02 0.  1.
       -1    1    3    3    0  502 -0.41017353015E+02  0.41230300480E+02  0.12150622957E+03  0.13470755278E+03  0.50400001928E-02 0. -1.
</event>
<event>
 5   0  0.2406307E-03  0.5998516E+03  0.7818609E-02  0.9905714E-01
       -2   -1    0    0    0  501  0.00000000000E+00  0.00000000000E+00  0.33875582673E+03  0.33875582674E+03  0.25500000920E-02 0.  1.
        2   -1    0    0  501    0  0.00000000000E+00  0.00000000000E+00 -0.26554671300E+03  0.26554671301E+03  0.25500000920E-02 0. -1.
    10030    2    1    2    0    0  0.00000000000E+00  0.00000000000E+00  0.73209113731E+02  0.60430253975E+03  0.59985163600E+03 0.  0.
        5    1    3    3  502    0 -0.17184209612E+03  0.41200319074E+01 -0.21095592112E+03  0.27216019422E+03  0.46999998093E+01 0. -1.
       -5    1    3    3    0  502  0.17184209612E+03 -0.41200319074E+01  0.28416503485E+03  0.33214234553E+03  0.46999998093E+01 0.  1.
</event>
<event>
 5   0  0.1479385E-03  0.6000695E+03  0.7818609E-02  0.9905262E-01
       -1   -1    0    0    0  501  0.00000000000E+00  0.00000000000E+00  0.13500292382E+03  0.13500292392E+03  0.50400001928E-02 0. -1.
        1   -1    0    0  501    0  0.00000000000E+00  0.00000000000E+00 -0.66680662152E+03  0.66680662154E+03  0.50400001928E-02 0.  1.
    10030    2    1    2    0    0  0.00000000000E+00  0.00000000000E+00 -0.53180369769E+03  0.80180954545E+03  0.60006947456E+03 0.  0.
        3    1    3    3  502    0 -0.40622507297E+02 -0.23650978286E+03 -0.50654216501E+03  0.56051051785E+03  0.10100000352E+00 0.  1.
       -3    1    3    3    0  502  0.40622507297E+02  0.23650978286E+03 -0.25261532681E+02  0.24129902760E+03  0.10100000352E+00 0. -1.
</event>
<event>
 5   0  0.9496750E-04  0.6000916E+03  0.7818609E-02  0.9905216E-01
        3   -1    0    0  501    0  0.00000000000E+00  0.00000000000E+00  0.72714195767E+03  0.72714196468E+03  0.10100000352E+00 0. -1.
       -3   -1    0    0    0  501  0.00000000000E+00  0.00000000000E+00 -0.12381003448E+03  0.12381007567E+03  0.10100000352E+00 0.  1.
    10030    2    1    2    0    0  0.00000000000E+00  0.00000000000E+00  0.60333192319E+03  0.85095204036E+03  0.60009163087E+03 0.  0.
        3    1    3    3  502    0 -0.38827712774E+02 -0.24518966067E+03  0.62686066992E+02  0.25603732965E+03  0.10100000352E+00 0.  1.
       -3    1    3    3    0  502  0.38827712774E+02  0.24518966067E+03  0.54064585620E+03  0.59491471070E+03  0.10100000352E+00 0. -1.
</event>
<event>
 5   0  0.1479385E-03  0.6000146E+03  0.7818609E-02  0.9905376E-01
       -1   -1    0    0    0  501  0.00000000000E+00  0.00000000000E+00  0.16576178437E+03  0.16576178445E+03  0.50400001928E-02 0.  1.
        1   -1    0    0  501    0  0.00000000000E+00  0.00000000000E+00 -0.54297418441E+03  0.54297418443E+03  0.50400001928E-02 0. -1.
    10030    2    1    2    0    0  0.00000000000E+00  0.00000000000E+00 -0.37721240004E+03  0.70873596888E+03  0.60001456553E+03 0.  0.
        3    1    3    3  502    0  0.16274000152E+03  0.17985431854E+03  0.19942903469E+02  0.24337134916E+03  0.10100000352E+00 0.  1.
       -3    1    3    3    0  502 -0.16274000152E+03 -0.17985431854E+03 -0.39715530350E+03  0.46536461973E+03  0.10100000352E+00 0. -1.
</event>
<event>
 5   0  0.2313168E-03  0.6015520E+03  0.7818609E-02  0.9902191E-01
       -2   -1    0    0    0  501  0.00000000000E+00  0.00000000000E+00  0.14613591379E+03  0.14613591381E+03  0.25500000920E-02 0. -1.
        2   -1    0    0  501    0  0.00000000000E+00  0.00000000000E+00 -0.61905513835E+03  0.61905513835E+03  0.25500000920E-02 0.  1.
    10030    2    1    2    0    0  0.00000000000E+00  0.00000000000E+00 -0.47291922456E+03  0.76519105216E+03  0.60155195399E+03 0.  0.
        2    1    3    3  502    0  0.16659830713E+03  0.12741449402E+03 -0.51068936109E+03  0.55208067596E+03  0.25500000920E-02 0.  1.
       -2    1    3    3    0  502 -0.16659830713E+03 -0.12741449402E+03  0.37770136533E+02  0.21311037621E+03  0.25500000920E-02 0. -1.
</event>
<event>
 5   0  0.2324616E-03  0.6001325E+03  0.7818609E-02  0.9905131E-01
       -2   -1    0    0    0  501  0.00000000000E+00  0.00000000000E+00  0.74719910449E+03  0.74719910450E+03  0.25500000920E-02 0.  1.
        2   -1    0    0  501    0  0.00000000000E+00  0.00000000000E+00 -0.12050301218E+03  0.12050301221E+03  0.25500000920E-02 0. -1.
    10030    2    1    2    0    0  0.00000000000E+00  0.00000000000E+00  0.62669609231E+03  0.86770211671E+03  0.60013246139E+03 0.  0.
        4    1    3    3  502    0  0.28309581720E+03 -0.97936706085E+02  0.28816823710E+03  0.41566499237E+03  0.12699999809E+01 0.  1.
       -4    1    3    3    0  502 -0.28309581720E+03  0.97936706085E+02  0.33852785522E+03  0.45203712433E+03  0.12699999809E+01 0. -1.
</event>
<event>
 5   0  0.1479385E-03  0.6010930E+03  0.7818609E-02  0.9903141E-01
       -1   -1    0    0    0  501  0.00000000000E+00  0.00000000000E+00  0.56753410827E+02  0.56753411051E+02  0.50400001928E-02 0. -1.
        1   -1    0    0  501    0  0.00000000000E+00  0.00000000000E+00 -0.15915904355E+04  0.15915904355E+04  0.50400001928E-02 0.  1.
    10030    2    1    2    0    0  0.00000000000E+00  0.00000000000E+00 -0.15348370247E+04  0.16483438466E+04  0.60109295802E+03 0.  0.
        3    1    3    3  502    0  0.19200134931E+03  0.13373821420E+03 -0.12846624354E+04  0.13057978447E+04  0.10100000352E+00 0.  1.
       -3    1    3    3    0  502 -0.19200134931E+03 -0.13373821420E+03 -0.25017458927E+03  0.34254600186E+03  0.10100000352E+00 0. -1.
</event>
<event>
 5   0  0.2313168E-03  0.5998117E+03  0.7818609E-02  0.9905797E-01
        2   -1    0    0  501    0  0.00000000000E+00  0.00000000000E+00  0.37777187719E+03  0.37777187720E+03  0.25500000920E-02 0. -1.
       -2   -1    0    0    0  501  0.00000000000E+00  0.00000000000E+00 -0.23808949360E+03  0.23808949361E+03  0.25500000920E-02 0.  1.
    10030    2    1    2    0    0  0.00000000000E+00  0.00000000000E+00  0.13968238359E+03  0.61586137081E+03  0.59981168692E+03 0.  0.
        2    1    3    3  502    0  0.11389397763E+03  0.10948566116E+02 -0.21479824991E+03  0.24337213771E+03  0.25500000920E-02 0.  1.
       -2    1    3    3    0  502 -0.11389397763E+03 -0.10948566116E+02  0.35448063350E+03  0.37248923310E+03  0.25500000920E-02 0. -1.
</event>
<event>
 5   0  0.2324616E-03  0.5997500E+03  0.7818609E-02  0.9905925E-01
       -2   -1    0    0    0  501  0.00000000000E+00  0.00000000000E+00  0.14316503036E+03  0.14316503039E+03  0.25500000920E-02 0.  1.
        2   -1    0    0  501    0  0.00000000000E+00  0.00000000000E+00 -0.62812146887E+03  0.62812146888E+03  0.25500000920E-02 0. -1.
    10030    2    1    2    0    0  0.00000000000E+00  0.00000000000E+00 -0.48495643851E+03  0.77128649927E+03  0.59975004518E+03 0.  0.
        4    1    3    3  502    0 -0.14332412821E+03 -0.25862926067E+03 -0.30668256487E+03  0.42601256870E+03  0.12699999809E+01 0. -1.
       -4    1    3    3    0  502  0.14332412821E+03  0.25862926067E+03 -0.17827387364E+03  0.34527393056E+03  0.12699999809E+01 0.  1.
</event>
<event>
 5   0  0.2346281E-03  0.6003002E+03  0.7818609E-02  0.9904783E-01
        2   -1    0    0  501    0  0.00000000000E+00  0.00000000000E+00  0.15042730810E+04  0.15042730811E+04  0.25500000920E-02 0. -1.
       -2   -1    0    0    0  501  0.00000000000E+00  0.00000000000E+00 -0.59889446476E+02  0.59889446530E+02  0.25500000920E-02 0.  1.
    10030    2    1    2    0    0  0.00000000000E+00  0.00000000000E+00  0.14443836346E+04  0.15641625276E+04  0.60030019896E+03 0.  0.
        3    1    3    3  502    0 -0.23719866046E+03 -0.13906501685E+03  0.10358195366E+04  0.10716923094E+04  0.10100000352E+00 0. -1.
       -3    1    3    3    0  502  0.23719866046E+03  0.13906501685E+03  0.40856409795E+03  0.49247021816E+03  0.10100000352E+00 0.  1.
</event>
<event>
 5   0  0.1479385E-03  0.6001404E+03  0.7818609E-02  0.9905115E-01
        1   -1    0    0  501    0  0.00000000000E+00  0.00000000000E+00  0.12810520987E+03  0.12810520997E+03  0.50400001928E-02 0.  1.
       -1   -1    0    0    0  501  0.00000000000E+00  0.00000000000E+00 -0.70287626482E+03  0.70287626484E+03  0.50400001928E-02 0. -1.
    10030    2    1    2    0    0  0.00000000000E+00  0.00000000000E+00 -0.57477105495E+03  0.83098147481E+03  0.60014035514E+03 0.  0.
        3    1    3    3  502    0 -0.22383267386E+03 -0.10088721837E+03 -0.48507921807E+02  0.25026451086E+03  0.10100000352E+00 0.  1.
       -3    1    3    3    0  502  0.22383267386E+03  0.10088721837E+03 -0.52626313314E+03  0.58071696395E+03  0.10100000352E+00 0. -1.
</event>
<event>
 5   0  0.2313168E-03  0.6001346E+03  0.7818609E-02  0.9905127E-01
       -2   -1    0    0    0  501  0.00000000000E+00  0.00000000000E+00  0.84217638838E+02  0.84217638876E+02  0.25500000920E-02 0. -1.
        2   -1    0    0  501    0  0.00000000000E+00  0.00000000000E+00 -0.10691392659E+04  0.10691392659E+04  0.25500000920E-02 0.  1.
    10030    2    1    2    0    0  0.00000000000E+00  0.00000000000E+00 -0.98492162710E+03  0.11533569048E+04  0.60013460020E+03 0.  0.
        2    1    3    3  502    0  0.14589959166E+03  0.14905018289E+02  0.10646094666E+02  0.14704485627E+03  0.25500000920E-02 0. -1.
       -2    1    3    3    0  502 -0.14589959166E+03 -0.14905018289E+02 -0.99556772176E+03  0.10063120485E+04  0.25500000920E-02 0.  1.
</event>
<event>
 5   0  0.1418763E-03  0.5999222E+03  0.7818609E-02  0.9905567E-01
       -1   -1    0    0    0  501  0.00000000000E+00  0.00000000000E+00  0.57055517338E+02  0.57055517561E+02  0.50400001928E-02 0.  1.
        1   -1    0    0  501    0  0.00000000000E+00  0.00000000000E+00 -0.15770021769E+04  0.15770021769E+04  0.50400001928E-02 0. -1.
    10030    2    1    2    0    0  0.00000000000E+00  0.00000000000E+00 -0.15199466595E+04  0.16340576944E+04  0.59992224574E+03 0.  0.
        5    1    3    3  502    0  0.32775645381E+02 -0.29308118334E+03 -0.61118991250E+03  0.67863541177E+03  0.46999998093E+01 0.  1.
       -5    1    3    3    0  502 -0.32775645381E+02  0.29308118334E+03 -0.90875674702E+03  0.95542228267E+03  0.46999998093E+01 0. -1.
</event>
<event>
 5   0  0.1416315E-03  0.6000601E+03  0.7818609E-02  0.9905281E-01
       -1   -1    0    0    0  501  0.00000000000E+00  0.00000000000E+00  0.14316704558E+03  0.14316704567E+03  0.50400001928E-02 0.  1.
        1   -1    0    0  501    0  0.00000000000E+00  0.00000000000E+00 -0.62876219980E+03  0.62876219982E+03  0.50400001928E-02 0. -1.
    10030    2    1    2    0    0  0.00000000000E+00  0.00000000000E+00 -0.48559515422E+03  0.77192924549E+03  0.60006008552E+03 0.  0.
        2    1    3    3  502    0  0.93036340607E+01 -0.70891986655E+02 -0.61764231823E+03  0.62176705015E+03  0.25500000920E-02 0. -1.
       -2    1    3    3    0  502 -0.93036340607E+01  0.70891986655E+02  0.13204716401E+03  0.15016219534E+03  0.25500000920E-02 0.  1.
</event>
<event>
 5   0  0.2313168E-03  0.5998247E+03  0.7818609E-02  0.9905770E-01
       -2   -1    0    0    0  501  0.00000000000E+00  0.00000000000E+00  0.13968737268E+03  0.13968737270E+03  0.25500000920E-02 0. -1.
        2   -1    0    0  501    0  0.00000000000E+00  0.00000000000E+00 -0.64391941262E+03  0.64391941263E+03  0.25500000920E-02 0.  1.
    10030    2    1    2    0    0  0.00000000000E+00  0.00000000000E+00 -0.50423203994E+03  0.78360678533E+03  0.59982467764E+03 0.  0.
        2    1    3    3  502    0  0.56975867426E+02  0.17932714138E+03  0.52984622421E+02  0.19547849837E+03  0.25500000920E-02 0. -1.
       -2    1    3    3    0  502 -0.56975867426E+02 -0.17932714138E+03 -0.55721666236E+03  0.58812828696E+03  0.25500000920E-02 0.  1.
</event>
<event>
 5   0  0.1479385E-03  0.6000737E+03  0.7818609E-02  0.9905253E-01
        1   -1    0    0  501    0  0.00000000000E+00  0.00000000000E+00  0.11083099305E+04  0.11083099305E+04  0.50400001928E-02 0. -1.
       -1   -1    0    0    0  501  0.00000000000E+00  0.00000000000E+00 -0.81224685932E+02  0.81224686089E+02  0.50400001928E-02 0.  1.
    10030    2    1    2    0    0  0.00000000000E+00  0.00000000000E+00  0.10270852446E+04  0.11895346166E+04  0.60007374921E+03 0.  0.
        3    1    3    3  502    0 -0.13121823416E+03  0.11072065880E+03  0.25777237572E+02  0.17361384000E+03  0.10100000352E+00 0.  1.
       -3    1    3    3    0  502  0.13121823416E+03 -0.11072065880E+03  0.10013080070E+04  0.10159207766E+04  0.10100000352E+00 0. -1.
</event>
<event>
 5   0  0.1479385E-03  0.6001669E+03  0.7818609E-02  0.9905060E-01
       -1   -1    0    0    0  501  0.00000000000E+00  0.00000000000E+00  0.16287947503E+03  0.16287947510E+03  0.50400001928E-02 0.  1.
        1   -1    0    0  501    0  0.00000000000E+00  0.00000000000E+00 -0.55286327313E+03  0.55286327315E+03  0.50400001928E-02 0. -1.
    10030    2    1    2    0    0  0.00000000000E+00  0.00000000000E+00 -0.38998379810E+03  0.71574274825E+03  0.60016690920E+03 0.  0.
        3    1    3    3  502    0  0.32786624769E+02 -0.70659077856E+02  0.15061233513E+03  0.16956342100E+03  0.10100000352E+00 0.  1.
       -3    1    3    3    0  502 -0.32786624769E+02  0.70659077856E+02 -0.54059613323E+03  0.54617932725E+03  0.10100000352E+00 0. -1.
</event>
<event>
 5   0  0.1479385E-03  0.5999275E+03  0.7818609E-02  0.9905556E-01
        1   -1    0    0  501    0  0.00000000000E+00  0.00000000000E+00  0.21434227717E+03  0.21434227723E+03  0.50400001928E-02 0. -1.
       -1   -1    0    0    0  501  0.00000000000E+00  0.00000000000E+00 -0.41978776089E+03  0.41978776093E+03  0.50400001928E-02 0.  1.
    10030    2    1    2    0    0  0.00000000000E+00  0.00000000000E+00 -0.20544548373E+03  0.63413003815E+03  0.59992754438E+03 0.  0.
        3    1    3    3  502    0 -0.12493488958E+03  0.16080250303E+03  0.13008878772E+03  0.24163872725E+03  0.10100000352E+00 0. -1.
       -3    1    3    3    0  502  0.12493488958E+03 -0.16080250303E+03 -0.33553427145E+03  0.39249131090E+03  0.10100000352E+00 0.  1.
</event>
<event>
 5   0  0.9496750E-04  0.5999328E+03  0.7818609E-02  0.9905546E-01
       -4   -1    0    0    0  501  0.00000000000E+00  0.00000000000E+00  0.11123482150E+04  0.11123489400E+04  0.12699999809E+01 0. -1.
        4   -1    0    0  501    0  0.00000000000E+00  0.00000000000E+00 -0.80886043431E+02  0.80896013016E+02  0.12699999809E+01 0.  1.
    10030    2    1    2    0    0  0.00000000000E+00  0.00000000000E+00  0.10314621716E+04  0.11932449530E+04  0.59993275166E+03 0.  0.
        5    1    3    3  502    0  0.20545677224E+03 -0.12577935623E+02  0.81849307127E+02  0.22156734597E+03  0.46999998093E+01 0.  1.
       -5    1    3    3    0  502 -0.20545677224E+03  0.12577935623E+02  0.94961286446E+03  0.97167760706E+03  0.46999998093E+01 0. -1.
</event>
<event>
 5   0  0.2406307E-03  0.6008545E+03  0.7818609E-02  0.9903635E-01
        2   -1    0    0  501    0  0.00000000000E+00  0.00000000000E+00  0.28165523933E+03  0.28165523934E+03  0.25500000920E-02 0.  1.
       -2   -1    0    0    0  501  0.00000000000E+00  0.00000000000E+00 -0.32045044471E+03  0.32045044472E+03  0.25500000920E-02 0. -1.
    10030    2    1    2    0    0  0.00000000000E+00  0.00000000000E+00 -0.38795205381E+02  0.60210568406E+03  0.60085454714E+03 0.  0.
        5    1    3    3  502    0  0.55865176265E+02 -0.24765415869E+02 -0.31411920068E+03  0.32004250651E+03  0.46999998093E+01 0. -1.
       -5    1    3    3    0  502 -0.55865176265E+02  0.24765415869E+02  0.27532399530E+03  0.28206317755E+03  0.46999998093E+01 0.  1.
</event>
<event>
 5   0  0.1392854E-03  0.6005110E+03  0.7818609E-02  0.9904346E-01
        1   -1    0    0  501    0  0.00000000000E+00  0.00000000000E+00  0.49008603064E+03  0.49008603067E+03  0.50400001928E-02 0.  1.
       -1   -1    0    0    0  501  0.00000000000E+00  0.00000000000E+00 -0.18395418055E+03  0.18395418062E+03  0.50400001928E-02 0. -1.
    10030    2    1    2    0    0  0.00000000000E+00  0.00000000000E+00  0.30613185009E+03  0.67404021129E+03  0.60051102970E+03 0.  0.
        4    1    3    3  502    0  0.14989800909E+03  0.24457348986E+03  0.53514816325E+02  0.29180653443E+03  0.12699999809E+01 0. -1.
       -4    1    3    3    0  502 -0.14989800909E+03 -0.24457348986E+03  0.25261703376E+03  0.38223367685E+03  0.12699999809E+01 0.  1.
</event>
<event>
 5   0  0.1479385E-03  0.6000174E+03  0.7818609E-02  0.9905370E-01
       -1   -1    0    0    0  501  0.00000000000E+00  0.00000000000E+00  0.23875707574E+03  0.23875707580E+03  0.50400001928E-02 0. -1.
        1   -1    0    0  501    0  0.00000000000E+00  0.00000000000E+00 -0.37697401011E+03  0.37697401014E+03  0.50400001928E-02 0.  1.
    10030    2    1    2    0    0  0.00000000000E+00  0.00000000000E+00 -0.13821693436E+03  0.61573108594E+03  0.60001737412E+03 0.  0.
        3    1    3    3  502    0 -0.19525668180E+03  0.93395500588E+02 -0.28229238616E+03  0.35572024514E+03  0.10100000352E+00 0.  1.
       -3    1    3    3    0  502  0.19525668180E+03 -0.93395500588E+02  0.14407545180E+03  0.26001084079E+03  0.10100000352E+00 0. -1.
</event>
<event>
 5   0  0.9496750E-04  0.5999137E+03  0.7818609E-02  0.9905585E-01
       -3   -1    0    0    0  501  0.00000000000E+00  0.00000000000E+00  0.27609488315E+03  0.27609490163E+03  0.10100000352E+00 0. -1.
        3   -1    0    0  501    0  0.00000000000E+00  0.00000000000E+00 -0.32588107882E+03  0.32588109447E+03  0.10100000352E+00 0.  1.
    10030    2    1    2    0    0  0.00000000000E+00  0.00000000000E+00 -0.49786195670E+02  0.60197599610E+03  0.59991368929E+03 0.  0.
        5    1    3    3  502    0 -0.10291187171E+03  0.39781714062E+02 -0.30473993858E+03  0.32413262452E+03  0.46999998093E+01 0.  1.
       -5    1    3    3    0  502  0.10291187171E+03 -0.39781714062E+02  0.25495374291E+03  0.27784337158E+03  0.46999998093E+01 0. -1.
</event>
<event>
 5   0  0.2313168E-03  0.6000346E+03  0.7818609E-02  0.9905334E-01
       -2   -1    0    0    0  501  0.00000000000E+00  0.00000000000E+00  0.90476980498E+02  0.90476980534E+02  0.25500000920E-02 0.  1.
        2   -1    0    0  501    0  0.00000000000E+00  0.00000000000E+00 -0.99484300173E+03  0.99484300174E+03  0.25500000920E-02 0. -1.
    10030    2    1    2    0    0  0.00000000000E+00  0.00000000000E+00 -0.90436602123E+03  0.10853199823E+04  0.60003463529E+03 0.  0.
        2    1    3    3  502    0 -0.27219091691E+03 -0.12522397766E+03 -0.42407720538E+03  0.51924022952E+03  0.25500000920E-02 0. -1.
       -2    1    3    3    0  502  0.27219091691E+03  0.12522397766E+03 -0.48028881586E+03  0.56607975275E+03  0.25500000920E-02 0.  1.
</event>
<event>
 5   0  0.9496750E-04  0.5991292E+03  0.7818609E-02  0.9907214E-01
       -4   -1    0    0    0  501  0.00000000000E+00  0.00000000000E+00  0.73622006745E+03  0.73622116284E+03  0.12699999809E+01 0. -1.
        4   -1    0    0  501    0  0.00000000000E+00  0.00000000000E+00 -0.12188697456E+03  0.12189359076E+03  0.12699999809E+01 0.  1.
    10030    2    1    2    0    0  0.00000000000E+00  0.00000000000E+00  0.61433309289E+03  0.85811475360E+03  0.59912918585E+03 0.  0.
        1    1    3    3  502    0  0.13624417556E+03 -0.16745480589E+03  0.96976271770E+01  0.21609634747E+03  0.50400001928E-02 0.  1.
       -1    1    3    3    0  502 -0.13624417556E+03  0.16745480589E+03  0.60463546571E+03  0.64201840613E+03  0.50400001928E-02 0. -1.
</event>
<event>
 5   0  0.2406307E-03  0.6001499E+03  0.7818609E-02  0.9905095E-01
       -2   -1    0    0    0  501  0.00000000000E+00  0.00000000000E+00  0.10587844884E+03  0.10587844887E+03  0.25500000920E-02 0. -1.
        2   -1    0    0  501    0  0.00000000000E+00  0.00000000000E+00 -0.85045619824E+03  0.85045619824E+03  0.25500000920E-02 0.  1.
    10030    2    1    2    0    0  0.00000000000E+00  0.00000000000E+00 -0.74457774940E+03  0.95633464711E+03  0.60014992491E+03 0.  0.
        5    1    3    3  502    0  0.68249414005E+02  0.16771475784E+03  0.89413417429E+01  0.18135120650E+03  0.46999998093E+01 0. -1.
       -5    1    3    3    0  502 -0.68249414005E+02 -0.16771475784E+03 -0.75351909114E+03  0.77498344061E+03  0.46999998093E+01 0.  1.
</event>
<event>
 5   0  0.1423430E-03  0.6007009E+03  0.7818609E-02  0.9903953E-01
       -1   -1    0    0    0  501  0.00000000000E+00  0.00000000000E+00  0.21364397214E+03  0.21364397219E+03  0.50400001928E-02 0.  1.
        1   -1    0    0  501    0  0.00000000000E+00  0.00000000000E+00 -0.42224643351E+03  0.42224643354E+03  0.50400001928E-02 0. -1.
    10030    2    1    2    0    0  0.00000000000E+00  0.00000000000E+00 -0.20860246137E+03  0.63589040573E+03  0.60070094158E+03 0.  0.
        1    1    3    3  502    0 -0.23090568636E+03  0.16070029215E+03 -0.21567068607E+03  0.35447970992E+03  0.50400001928E-02 0. -1.
       -1    1    3    3    0  502  0.23090568636E+03 -0.16070029215E+03  0.70682246961E+01  0.28141069581E+03  0.50400001928E-02 0.  1.
</event>
<event>
 5   0  0.2346281E-03  0.6002812E+03  0.7818609E-02  0.9904823E-01
        2   -1    0    0  501    0  0.00000000000E+00  0.00000000000E+00  0.20606184438E+04  0.20606184438E+04  0.25500000920E-02 0.  1.
       -2   -1    0    0    0  501  0.00000000000E+00  0.00000000000E+00 -0.43717151145E+02  0.43717151220E+02  0.25500000920E-02 0. -1.
    10030    2    1    2    0    0  0.00000000000E+00  0.00000000000E+00  0.20169012927E+04  0.21043355951E+04  0.60028116093E+03 0.  0.
        3    1    3    3  502    0 -0.25203619573E+03 -0.11730836078E+03  0.14050754789E+04  0.14323130269E+04  0.10100000352E+00 0.  1.
       -3    1    3    3    0  502  0.25203619573E+03  0.11730836078E+03  0.61182581379E+03  0.67202256814E+03  0.10100000352E+00 0. -1.
</event>
<event>
 5   0  0.2406307E-03  0.6007948E+03  0.7818609E-02  0.9903758E-01
       -2   -1    0    0    0  501  0.00000000000E+00  0.00000000000E+00  0.34061593438E+03  0.34061593439E+03  0.25500000920E-02 0. -1.
        2   -1    0    0  501    0  0.00000000000E+00  0.00000000000E+00 -0.26492769342E+03  0.26492769343E+03  0.25500000920E-02 0.  1.
    10030    2    1    2    0    0  0.00000000000E+00  0.00000000000E+00  0.75688240957E+02  0.60554362782E+03  0.60079478641E+03 0.  0.
        5    1    3    3  502    0 -0.15872431924E+02  0.23573422890E+03  0.22476605506E+03  0.32613560105E+03  0.46999998093E+01 0. -1.
       -5    1    3    3    0  502  0.15872431924E+02 -0.23573422890E+03 -0.14907781410E+03  0.27940802677E+03  0.46999998093E+01 0.  1.
</event>
<event>
 5   0  0.1423430E-03  0.5998025E+03  0.7818609E-02  0.9905816E-01
        1   -1    0    0  501    0  0.00000000000E+00  0.00000000000E+00  0.75198923351E+03  0.75198923353E+03  0.50400001928E-02 0.  1.
       -1   -1    0    0    0  501  0.00000000000E+00  0.00000000000E+00 -0.11960380354E+03  0.11960380365E+03  0.50400001928E-02 0. -1.
    10030    2    1    2    0    0  0.00000000000E+00  0.00000000000E+00  0.63238542997E+03  0.87159303718E+03  0.59980254286E+03 0.  0.
        1    1    3    3  502    0  0.12265303850E+03  0.19305542384E+03  0.59806539472E+03  0.64030959770E+03  0.50400001928E-02 0.  1.
       -1    1    3    3    0  502 -0.12265303850E+03 -0.19305542384E+03  0.34320035254E+02  0.23128343947E+03  0.50400001928E-02 0. -1.
</event>
<event>
 5   0  0.2313168E-03  0.6000492E+03  0.7818609E-02  0.9905304E-01
        2   -1    0    0  501    0  0.00000000000E+00  0.00000000000E+00  0.61681799240E+03  0.61681799240E+03  0.25500000920E-02 0. -1.
       -2   -1    0    0    0  501  0.00000000000E+00  0.00000000000E+00 -0.14593408018E+03  0.14593408020E+03  0.25500000920E-02 0.  1.
    10030    2    1    2    0    0  0.00000000000E+00  0.00000000000E+00  0.47088391222E+03  0.76275207260E+03  0.60004921920E+03 0.  0.
        2    1    3    3  502    0  0.13329967632E+03 -0.69660866227E+02 -0.94551226457E+02  0.17765521220E+03  0.25500000920E-02 0.  1.
       -2    1    3    3    0  502 -0.13329967632E+03  0.69660866227E+02  0.56543513868E+03  0.58509686040E+03  0.25500000920E-02 0. -1.
</event>
<event>
 5   0  0.2406307E-03  0.6000365E+03  0.7818609E-02  0.9905330E-01
       -2   -1    0    0    0  501  0.00000000000E+00  0.00000000000E+00  0.22334936088E+03  0.22334936089E+03  0.25500000920E-02 0. -1.
        2   -1    0    0  501    0  0.00000000000E+00  0.00000000000E+00 -0.40300515230E+03  0.40300515231E+03  0.25500000920E-02 0.  1.
    10030    2    1    2    0    0  0.00000000000E+00  0.00000000000E+00 -0.17965579143E+03  0.62635451320E+03  0.60003647624E+03 0.  0.
        5    1    3    3  502    0 -0.66685214957E+02 -0.29199238104E+03 -0.10736925162E+03  0.31820860245E+03  0.46999998093E+01 0.  1.
       -5    1    3    3    0  502  0.66685214957E+02  0.29199238104E+03 -0.72286539805E+02  0.30814591076E+03  0.46999998093E+01 0. -1.
</event>
<event>
 5   0  0.1416315E-03  0.6013794E+03  0.7818609E-02  0.9902548E-01
        1   -1    0    0  501    0  0.00000000000E+00  0.00000000000E+00  0.70919961656E+03  0.70919961658E+03  0.50400001928E-02 0.  1.
       -1   -1    0    0    0  501  0.00000000000E+00  0.00000000000E+00 -0.12748778461E+03  0.12748778471E+03  0.50400001928E-02 0. -1.
    10030    2    1    2    0    0  0.00000000000E+00  0.00000000000E+00  0.58171183196E+03  0.83668740129E+03  0.60137937447E+03 0.  0.
        2    1    3    3  502    0 -0.29283677647E+03  0.68099723336E+02  0.29757711534E+03  0.42301665399E+03  0.25500000920E-02 0.  1.
       -2    1    3    3    0  502  0.29283677647E+03 -0.68099723336E+02  0.28413471662E+03  0.41367074730E+03  0.25500000920E-02 0. -1.
</event>
<event>
 5   0  0.2406307E-03  0.5999455E+03  0.7818609E-02  0.9905519E-01
       -2   -1    0    0    0  501  0.00000000000E+00  0.00000000000E+00  0.83470883837E+02  0.83470883876E+02  0.25500000920E-02 0.  1.
        2   -1    0    0  501    0  0.00000000000E+00  0.00000000000E+00 -0.10780243775E+04  0.10780243775E+04  0.25500000920E-02 0. -1.
    10030    2    1    2    0    0  0.00000000000E+00  0.00000000000E+00 -0.99455349369E+03  0.11614952614E+04  0.59994548957E+03 0.  0.
        5    1    3    3  502    0 -0.14532550488E+03 -0.16547968137E+03 -0.10308039485E+03  0.24320913864E+03  0.46999998093E+01 0.  1.
       -5    1    3    3    0  502  0.14532550488E+03  0.16547968137E+03 -0.89147309884E+03  0.91828612277E+03  0.46999998093E+01 0. -1.
</event>
<event>
 5   0  0.1392854E-03  0.6000363E+03  0.7818609E-02  0.9905331E-01
        1   -1    0    0  501    0  0.00000000000E+00  0.00000000000E+00  0.36712910564E+03  0.36712910568E+03  0.50400001928E-02 0.  1.
       -1   -1    0    0    0  501  0.00000000000E+00  0.00000000000E+00 -0.24517500953E+03  0.24517500958E+03  0.50400001928E-02 0. -1.
    10030    2    1    2    0    0  0.00000000000E+00  0.00000000000E+00  0.12195409611E+03  0.61230411526E+03  0.60003627225E+03 0.  0.
        4    1    3    3  502    0 -0.28963679735E+03 -0.26134362273E+02 -0.14265058586E+02  0.29116590471E+03  0.12699999809E+01 0. -1.
       -4    1    3    3    0  502  0.28963679735E+03  0.26134362273E+02  0.13621915470E+03  0.32113821055E+03  0.12699999809E+01 0.  1.
</event>
<event>
 5   0  0.1418763E-03  0.5975634E+03  0.7818609E-02  0.9910474E-01
       -1   -1    0    0    0  501  0.00000000000E+00  0.00000000000E+00  0.50300551172E+03  0.50300551174E+03  0.50400001928E-02 0. -1.
        1   -1    0    0  501    0  0.00000000000E+00  0.00000000000E+00 -0.17747422810E+03  0.17747422817E+03  0.50400001928E-02 0.  1.
    10030    2    1    2    0    0  0.00000000000E+00  0.00000000000E+00  0.32553128362E+03  0.68047973991E+03  0.59756343581E+03 0.  0.
        5    1    3    3  502    0  0.43166932544E+02  0.31467758178E+02 -0.17194925271E+03  0.18011729338E+03  0.46999998093E+01 0.  1.
       -5    1    3    3    0  502 -0.43166932544E+02 -0.31467758178E+02  0.49748053633E+03  0.50036244653E+03  0.46999998093E+01 0. -1.
</event>
<event>
 5   0  0.1418763E-03  0.5993986E+03  0.7818609E-02  0.9906655E-01
       -1   -1    0    0    0  501  0.00000000000E+00  0.00000000000E+00  0.20012707861E+03  0.20012707867E+03  0.50400001928E-02 0. -1.
        1   -1    0    0  501    0  0.00000000000E+00  0.00000000000E+00 -0.44881313919E+03  0.44881313921E+03  0.50400001928E-02 0.  1.
    10030    2    1    2    0    0  0.00000000000E+00  0.00000000000E+00 -0.24868606058E+03  0.64894021789E+03  0.59939857329E+03 0.  0.
        5    1    3    3  502    0 -0.40684324123E+02  0.26256724188E+03 -0.27436285938E+03  0.38196052066E+03  0.46999998093E+01 0.  1.
       -5    1    3    3    0  502  0.40684324123E+02 -0.26256724188E+03  0.25676798797E+02  0.26697969723E+03  0.46999998093E+01 0. -1.
</event>
<event>
 5   0  0.1418763E-03  0.6033980E+03  0.7818609E-02  0.9898381E-01
       -1   -1    0    0    0  501  0.00000000000E+00  0.00000000000E+00  0.24861675097E+03  0.24861675102E+03  0.50400001928E-02 0.  1.
        1   -1    0    0  501    0  0.00000000000E+00  0.00000000000E+00 -0.36611483520E+03  0.36611483524E+03  0.50400001928E-02 0. -1.
    10030    2    1    2    0    0  0.00000000000E+00  0.00000000000E+00 -0.11749808424E+03  0.61473158625E+03  0.60339798089E+03 0.  0.
        5    1    3    3  502    0 -0.29546272415E+02  0.24441624692E+03  0.11884650377E+03  0.27342067484E+03  0.46999998093E+01 0.  1.
       -5    1    3    3    0  502  0.29546272415E+02 -0.24441624692E+03 -0.23634458800E+03  0.34131091141E+03  0.46999998093E+01 0. -1.
</event>
<event>
 5   0  0.2346281E-03  0.5999550E+03  0.7818609E-02  0.9905499E-01
        2   -1    0    0  501    0  0.00000000000E+00  0.00000000000E+00  0.31239462401E+03  0.31239462402E+03  0.25500000920E-02 0.  1.
       -2   -1    0    0    0  501  0.00000000000E+00  0.00000000000E+00 -0.28805393547E+03  0.28805393548E+03  0.25500000920E-02 0. -1.
    10030    2    1    2    0    0  0.00000000000E+00  0.00000000000E+00  0.24340688533E+02  0.60044855950E+03  0.59995500122E+03 0.  0.
        3    1    3    3  502    0  0.91380952733E+01  0.13998443337E+03 -0.25320310919E+03  0.28946670115E+03  0.10100000352E+00 0. -1.
       -3    1    3    3    0  502 -0.91380952733E+01 -0.13998443337E+03  0.27754379772E+03  0.31098185835E+03  0.10100000352E+00 0.  1.
</event>
<event>
 5   0  0.1479385E-03  0.5998439E+03  0.7818609E-02  0.9905730E-01
       -1   -1    0    0    0  501  0.00000000000E+00  0.00000000000E+00  0.36932138472E+03  0.36932138475E+03  0.50400001928E-02 0. -1.
        1   -1    0    0  501    0  0.00000000000E+00  0.00000000000E+00 -0.24356341301E+03  0.24356341306E+03  0.50400001928E-02 0.  1.
    10030    2    1    2    0    0  0.00000000000E+00  0.00000000000E+00  0.12575797171E+03  0.61288479781E+03  0.59984390298E+03 0.  0.
        3    1    3    3  502    0  0.80647591455E+02  0.13372528277E+02  0.35771849969E+03  0.36694058612E+03  0.10100000352E+00 0. -1.
       -3    1    3    3    0  502 -0.80647591455E+02 -0.13372528277E+02 -0.23196052798E+03  0.24594421169E+03  0.10100000352E+00 0.  1.
</event>
<event>
 5   0  0.1418763E-03  0.6000785E+03  0.7818609E-02  0.9905243E-01
       -1   -1    0    0    0  501  0.00000000000E+00  0.00000000000E+00  0.16932723756E+03  0.16932723763E+03  0.50400001928E-02 0. -1.
        1   -1    0    0  501    0  0.00000000000E+00  0.00000000000E+00 -0.53165433034E+03  0.53165433036E+03  0.50400001928E-02 0.  1.
    10030    2    1    2    0    0  0.00000000000E+00  0.00000000000E+00 -0.36232709278E+03  0.70098156799E+03  0.60007852529E+03 0.  0.
        5    1    3    3  502    0  0.16675127594E+03 -0.22265975035E+03 -0.49944830674E+02  0.28266575413E+03  0.46999998093E+01 0.  1.
       -5    1    3    3    0  502 -0.16675127594E+03  0.22265975035E+03 -0.31238226210E+03  0.41831581386E+03  0.46999998093E+01 0. -1.
</event>
<event>
 5   0  0.2346281E-03  0.5999164E+03  0.7818609E-02  0.9905579E-01
        2   -1    0    0  501    0  0.00000000000E+00  0.00000000000E+00  0.52538041729E+03  0.52538041730E+03  0.25500000920E-02 0. -1.
       -2   -1    0    0    0  501  0.00000000000E+00  0.00000000000E+00 -0.17125671413E+03  0.17125671415E+03  0.25500000920E-02 0.  1.
    10030    2    1    2    0    0  0.00000000000E+00  0.00000000000E+00  0.35412370316E+03  0.69663713145E+03  0.59991640732E+03 0.  0.
        3    1    3    3  502    0  0.29897496746E+02  0.26704763207E+03  0.33184305992E+03  0.42699897508E+03  0.10100000352E+00 0.  1.
       -3    1    3    3    0  502 -0.29897496746E+02 -0.26704763207E+03  0.22280643243E+02  0.26963815637E+03  0.10100000352E+00 0. -1.
</event>
<event>
 5   0  0.9496750E-04  0.5999454E+03  0.7818609E-02  0.9905519E-01
       -3   -1    0    0    0  501  0.00000000000E+00  0.00000000000E+00  0.41868179795E+03  0.41868181013E+03  0.10100000352E+00 0.  1.
        3   -1    0    0  501    0  0.00000000000E+00  0.00000000000E+00 -0.21492121654E+03  0.21492124027E+03  0.10100000352E+00 0. -1.
    10030    2    1    2    0    0  0.00000000000E+00  0.00000000000E+00  0.20376058141E+03  0.63360305041E+03  0.59994537330E+03 0.  0.
        5    1    3    3  502    0 -0.71387649733E+02 -0.14167701824E+03  0.37070514772E+03  0.40325298583E+03  0.46999998093E+01 0.  1.
       -5    1    3    3    0  502  0.71387649733E+02  0.14167701824E+03 -0.16694456631E+03  0.23035006458E+03  0.46999998093E+01 0. -1.
</event>
<event>
 5   0  0.2421210E-03  0.5989603E+03  0.7818609E-02  0.9907565E-01
        2   -1    0    0  501    0  0.00000000000E+00  0.00000000000E+00  0.10966421071E+04  0.10966421071E+04  0.25500000920E-02 0.  1.
       -2   -1    0    0    0  501  0.00000000000E+00  0.00000000000E+00 -0.81784527313E+02  0.81784527353E+02  0.25500000920E-02 0. -1.
    10030    2    1    2    0    0  0.00000000000E+00  0.00000000000E+00  0.10148575798E+04  0.11784266345E+04  0.59896028712E+03 0.  0.
        1    1    3    3  502    0 -0.40333701779E+02 -0.33681909231E+02  0.10875010024E+04  0.10887698144E+04  0.50400001928E-02 0.  1.
       -1    1    3    3    0  502  0.40333701779E+02  0.33681909231E+02 -0.72643422610E+02  0.89656820056E+02  0.50400001928E-02 0. -1.
</event>
<event>
 5   0  0.2324616E-03  0.6006288E+03  0.7818609E-02  0.9904102E-01
       -2   -1    0    0    0  501  0.00000000000E+00  0.00000000000E+00  0.15290885210E+03  0.15290885212E+03  0.25500000920E-02 0.  1.
        2   -1    0    0  501    0  0.00000000000E+00  0.00000000000E+00 -0.58982020068E+03  0.58982020069E+03  0.25500000920E-02 0. -1.
    10030    2    1    2    0    0  0.00000000000E+00  0.00000000000E+00 -0.43691134858E+03  0.74272905280E+03  0.60062877000E+03 0.  0.
        4    1    3    3  502    0  0.27130468266E+03  0.59145501634E+02 -0.77015461202E+02  0.28816213380E+03  0.12699999809E+01 0.  1.
       -4    1    3    3    0  502 -0.27130468266E+03 -0.59145501634E+02 -0.35989588738E+03  0.45456691900E+03  0.12699999809E+01 0. -1.
</event>
<event>
 5   0  0.9496750E-04  0.6001738E+03  0.7818609E-02  0.9905046E-01
        3   -1    0    0  501    0  0.00000000000E+00  0.00000000000E+00  0.53527256879E+03  0.53527257832E+03  0.10100000352E+00 0. -1.
       -3   -1    0    0    0  501  0.00000000000E+00  0.00000000000E+00 -0.16823603082E+03  0.16823606114E+03  0.10100000352E+00 0.  1.
    10030    2    1    2    0    0  0.00000000000E+00  0.00000000000E+00  0.36703653797E+03  0.70350863946E+03  0.60017379616E+03 0.  0.
        5    1    3    3  502    0  0.10190116265E+03  0.15598773251E+03  0.45920132991E+03  0.49558447416E+03  0.46999998093E+01 0. -1.
       -5    1    3    3    0  502 -0.10190116265E+03 -0.15598773251E+03 -0.92164791943E+02  0.20792416530E+03  0.46999998093E+01 0.  1.
</event>
<event>
 5   0  0.1416315E-03  0.5998872E+03  0.7818609E-02  0.9905640E-01
        1   -1    0    0  501    0  0.00000000000E+00  0.00000000000E+00  0.25236028559E+03  0.25236028564E+03  0.50400001928E-02 0.  1.
       -1   -1    0    0    0  501  0.00000000000E+00  0.00000000000E+00 -0.35649895108E+03  0.35649895111E+03  0.50400001928E-02 0. -1.
    10030    2    1    2    0    0  0.00000000000E+00  0.00000000000E+00 -0.10413866549E+03  0.60885923676E+03  0.59988724652E+03 0.  0.
        2    1    3    3  502    0 -0.22049586588E+03  0.15285337639E+03 -0.18817792232E+03  0.32770949330E+03  0.25500000920E-02 0. -1.
       -2    1    3    3    0  502  0.22049586588E+03 -0.15285337639E+03  0.84039256833E+02  0.28114974345E+03  0.25500000920E-02 0.  1.
</event>
<event>
 5   0  0.2406307E-03  0.6000098E+03  0.7818609E-02  0.9905386E-01
       -2   -1    0    0    0  501  0.00000000000E+00  0.00000000000E+00  0.11817545409E+03  0.11817545412E+03  0.25500000920E-02 0. -1.
        2   -1    0    0  501    0  0.00000000000E+00  0.00000000000E+00 -0.76160423146E+03  0.76160423146E+03  0.25500000920E-02 0.  1.
    10030    2    1    2    0    0  0.00000000000E+00  0.00000000000E+00 -0.64342877737E+03  0.87977968558E+03  0.60000975293E+03 0.  0.
        5    1    3    3  502    0  0.29385991192E+03 -0.36520710206E+02 -0.25149485083E+03  0.38853463179E+03  0.46999998093E+01 0.  1.
       -5    1    3    3    0  502 -0.29385991192E+03  0.36520710206E+02 -0.39193392654E+03  0.49124505380E+03  0.46999998093E+01 0. -1.
</event>
<event>
 5   0  0.1392854E-03  0.6006460E+03  0.7818609E-02  0.9904067E-01
       -1   -1    0    0    0  501  0.00000000000E+00  0.00000000000E+00  0.23829003932E+03  0.23829003938E+03  0.50400001928E-02 0.  1.
        1   -1    0    0  501    0  0.00000000000E+00  0.00000000000E+00 -0.37850470142E+03  0.37850470145E+03  0.50400001928E-02 0. -1.
    10030    2    1    2    0    0  0.00000000000E+00  0.00000000000E+00 -0.14021466210E+03  0.61679474083E+03  0.60064598629E+03 0.  0.
        4    1    3    3  502    0  0.23443218247E+03 -0.99755363347E+02 -0.23338765946E+03  0.34551554695E+03  0.12699999809E+01 0. -1.
       -4    1    3    3    0  502 -0.23443218247E+03  0.99755363347E+02  0.93172997362E+02  0.27127919388E+03  0.12699999809E+01 0.  1.
</event>
<event>
 5   0  0.2421210E-03  0.6001115E+03  0.7818609E-02  0.9905175E-01
       -2   -1    0    0    0  501  0.00000000000E+00  0.00000000000E+00  0.37967068166E+03  0.37967068167E+03  0.25500000920E-02 0.  1.
        2   -1    0    0  501    0  0.00000000000E+00  0.00000000000E+00 -0.23713567118E+03  0.23713567119E+03  0.25500000920E-02 0. -1.
    10030    2    1    2    0    0  0.00000000000E+00  0.00000000000E+00  0.14253501048E+03  0.61680635286E+03  0.60011152940E+03 0.  0.
        1    1    3    3  502    0 -0.28994531714E+03  0.21826773173E+02 -0.48797516223E+01  0.29080664876E+03  0.50400001928E-02 0. -1.
       -1    1    3    3    0  502  0.28994531714E+03 -0.21826773173E+02  0.14741476211E+03  0.32599970410E+03  0.50400001928E-02 0.  1.
</event>
<event>
 5   0  0.2406307E-03  0.5997666E+03  0.7818609E-02  0.9905890E-01
        2   -1    0    0  501    0  0.00000000000E+00  0.00000000000E+00  0.84031243725E+03  0.84031243726E+03  0.25500000920E-02 0. -1.
       -2   -1    0    0    0  501  0.00000000000E+00  0.00000000000E+00 -0.10701971033E+03  0.10701971036E+03  0.25500000920E-02 0.  1.
    10030    2    1    2    0    0  0.00000000000E+00  0.00000000000E+00  0.73329272692E+03  0.94733214762E+03  0.59976660007E+03 0.  0.
        5    1    3    3  502    0 -0.19201811803E+03 -0.81909617006E+02  0.70661640810E+03  0.73682357536E+03  0.46999998093E+01 0. -1.
       -5    1    3    3    0  502  0.19201811803E+03  0.81909617006E+02  0.26676318819E+02  0.21050857226E+03  0.46999998093E+01 0.  1.
</event>
<event>
 5   0  0.2313168E-03  0.6000728E+03  0.7818609E-02  0.9905255E-01
       -2   -1    0    0    0  501  0.00000000000E+00  0.00000000000E+00  0.63044600735E+02  0.63044600787E+02  0.25500000920E-02 0. -1.
        2   -1    0    0  501    0  0.00000000000E+00  0.00000000000E+00 -0.14279070402E+04  0.14279070402E+04  0.25500000920E-02 0.  1.
    10030    2    1    2    0    0  0.00000000000E+00  0.00000000000E+00 -0.13648624395E+04  0.14909516410E+04  0.60007275984E+03 0.  0.
        2    1    3    3  502    0  0.25858069473E+03 -0.15198296329E+03 -0.66334125823E+03  0.72800028962E+03  0.25500000920E-02 0. -1.
       -2    1    3    3    0  502 -0.25858069473E+03  0.15198296329E+03 -0.70152118124E+03  0.76295135137E+03  0.25500000920E-02 0.  1.
</event>
<event>
 5   0  0.1423430E-03  0.5998188E+03  0.7818609E-02  0.9905782E-01
        1   -1    0    0  501    0  0.00000000000E+00  0.00000000000E+00  0.42729721179E+03  0.42729721182E+03  0.50400001928E-02 0. -1.
       -1   -1    0    0    0  501  0.00000000000E+00  0.00000000000E+00 -0.21049905193E+03  0.21049905199E+03  0.50400001928E-02 0.  1.
    10030    2    1    2    0    0  0.00000000000E+00  0.00000000000E+00  0.21679815986E+03  0.63779626381E+03  0.59981883266E+03 0.  0.
        1    1    3    3  502    0  0.10305311333E+03  0.27998875930E+03  0.75937339214E+02  0.30786381570E+03  0.50400001928E-02 0. -1.
       -1    1    3    3    0  502 -0.10305311333E+03 -0.27998875930E+03  0.14086082064E+03  0.32993244812E+03  0.50400001928E-02 0.  1.
</event>
<event>
 5   0  0.1392854E-03  0.5999723E+03  0.7818609E-02  0.9905464E-01
        1   -1    0    0  501    0  0.00000000000E+00  0.00000000000E+00  0.62011726246E+03  0.62011726248E+03  0.50400001928E-02 0. -1.
       -1   -1    0    0    0  501  0.00000000000E+00  0.00000000000E+00 -0.14512042955E+03  0.14512042964E+03  0.50400001928E-02 0.  1.
    10030    2    1    2    0    0  0.00000000000E+00  0.00000000000E+00  0.47499683291E+03  0.76523769212E+03  0.59997227783E+03 0.  0.
        4    1    3    3  502    0 -0.12337353541E+03  0.17743301217E+03 -0.27865424232E+02  0.21790272558E+03  0.12699999809E+01 0.  1.
       -4    1    3    3    0  502  0.12337353541E+03 -0.17743301217E+03  0.50286225714E+03  0.54733496654E+03  0.12699999809E+01 0. -1.
</event>
<event>
 5   0  0.2313168E-03  0.6001785E+03  0.7818609E-02  0.9905036E-01
       -2   -1    0    0    0  501  0.00000000000E+00  0.00000000000E+00  0.14763404332E+03  0.14763404334E+03  0.25500000920E-02 0.  1.
        2   -1    0    0  501    0  0.00000000000E+00  0.00000000000E+00 -0.60997820463E+03  0.60997820463E+03  0.25500000920E-02 0. -1.
    10030    2    1    2    0    0  0.00000000000E+00  0.00000000000E+00 -0.46234416131E+03  0.75761224797E+03  0.60017846911E+03 0.  0.
        2    1    3    3  502    0  0.21128331370E+03 -0.20931289983E+03 -0.18066352433E+03  0.34798252501E+03  0.25500000920E-02 0.  1.
       -2    1    3    3    0  502 -0.21128331370E+03  0.20931289983E+03 -0.28168063698E+03  0.40962972296E+03  0.25500000920E-02 0. -1.
</event>
<event>
 5   0  0.2406307E-03  0.5998714E+03  0.7818609E-02  0.9905673E-01
        2   -1    0    0  501    0  0.00000000000E+00  0.00000000000E+00  0.67690177242E+03  0.67690177243E+03  0.25500000920E-02 0. -1.
       -2   -1    0    0    0  501  0.00000000000E+00  0.00000000000E+00 -0.13290171908E+03  0.13290171911E+03  0.25500000920E-02 0.  1.
    10030    2    1    2    0    0  0.00000000000E+00  0.00000000000E+00  0.54400005334E+03  0.80980349154E+03  0.59987135027E+03 0.  0.
        5    1    3    3  502    0 -0.28585571135E+03 -0.26747620068E+01  0.39438341833E+03  0.48711498921E+03  0.46999998093E+01 0.  1.
       -5    1    3    3    0  502  0.28585571135E+03  0.26747620068E+01  0.14961663501E+03  0.32268850233E+03  0.46999998093E+01 0. -1.
</event>
<event>
 5   0  0.1392854E-03  0.5996692E+03  0.7818609E-02  0.9906093E-01
        1   -1    0    0  501    0  0.00000000000E+00  0.00000000000E+00  0.10824608110E+03  0.10824608122E+03  0.50400001928E-02 0.  1.
       -1   -1    0    0    0  501  0.00000000000E+00  0.00000000000E+00 -0.83052238193E+03  0.83052238195E+03  0.50400001928E-02 0. -1.
    10030    2    1    2    0    0  0.00000000000E+00  0.00000000000E+00 -0.72227630083E+03  0.93876846317E+03  0.59966921940E+03 0.  0.
        4    1    3    3  502    0  0.21354110868E+03  0.17413575066E+03 -0.17606646712E+03  0.32699247468E+03  0.12699999809E+01 0.  1.
       -4    1    3    3    0  502 -0.21354110868E+03 -0.17413575066E+03 -0.54620983371E+03  0.61177598849E+03  0.12699999809E+01 0. -1.
</event>
<event>
 5   0  0.1416315E-03  0.6006565E+03  0.7818609E-02  0.9904045E-01
        1   -1    0    0  501    0  0.00000000000E+00  0.00000000000E+00  0.24710936294E+03  0.24710936299E+03  0.50400001928E-02 0.  1.
       -1   -1    0    0    0  501  0.00000000000E+00  0.00000000000E+00 -0.36500864257E+03  0.36500864261E+03  0.50400001928E-02 0. -1.
    10030    2    1    2    0    0  0.00000000000E+00  0.00000000000E+00 -0.11789927963E+03  0.61211800560E+03  0.60065648472E+03 0.  0.
        2    1    3    3  502    0  0.15197202647E+03  0.13069551262E+03 -0.28686934109E+03  0.34995832997E+03  0.25500000920E-02 0. -1.
       -2    1    3    3    0  502 -0.15197202647E+03 -0.13069551262E+03  0.16897006146E+03  0.26215967563E+03  0.25500000920E-02 0.  1.
</event>
<event>
 5   0  0.9496750E-04  0.5991505E+03  0.7818609E-02  0.9907170E-01
        3   -1    0    0  501    0  0.00000000000E+00  0.00000000000E+00  0.11696968913E+04  0.11696968957E+04  0.10100000352E+00 0. -1.
       -3   -1    0    0    0  501  0.00000000000E+00  0.00000000000E+00 -0.76725253142E+02  0.76725319619E+02  0.10100000352E+00 0.  1.
    10030    2    1    2    0    0  0.00000000000E+00  0.00000000000E+00  0.10929716382E+04  0.12464222153E+04  0.59915051275E+03 0.  0.
        4    1    3    3  502    0 -0.17793261871E+03 -0.21067835817E+02  0.10459342691E+04  0.10611710412E+04  0.12699999809E+01 0. -1.
       -4    1    3    3    0  502  0.17793261871E+03  0.21067835817E+02  0.47037369054E+02  0.18525117407E+03  0.12699999809E+01 0.  1.
</event>
<event>
 5   0  0.2324616E-03  0.6000530E+03  0.7818609E-02  0.9905296E-01
        2   -1    0    0  501    0  0.00000000000E+00  0.00000000000E+00  0.13405399750E+04  0.13405399750E+04  0.25500000920E-02 0. -1.
       -2   -1    0    0    0  501  0.00000000000E+00  0.00000000000E+00 -0.67148985299E+02  0.67148985347E+02  0.25500000920E-02 0.  1.
    10030    2    1    2    0    0  0.00000000000E+00  0.00000000000E+00  0.12733909897E+04  0.14076889603E+04  0.60005299469E+03 0.  0.
        4    1    3    3  502    0 -0.38537959109E+02 -0.29110494751E+03  0.78106184595E+03  0.83443782564E+03  0.12699999809E+01 0. -1.
       -4    1    3    3    0  502  0.38537959109E+02  0.29110494751E+03  0.49232914375E+03  0.57325113471E+03  0.12699999809E+01 0.  1.
</event>
<event>
 5   0  0.1418763E-03  0.6000985E+03  0.7818609E-02  0.9905202E-01
       -1   -1    0    0    0  501  0.00000000000E+00  0.00000000000E+00  0.72848797091E+02  0.72848797265E+02  0.50400001928E-02 0. -1.
        1   -1    0    0  501    0  0.00000000000E+00  0.00000000000E+00 -0.12358411713E+04  0.12358411713E+04  0.50400001928E-02 0.  1.
    10030    2    1    2    0    0  0.00000000000E+00  0.00000000000E+00 -0.11629923742E+04  0.13086899686E+04  0.60009846808E+03 0.  0.
        5    1    3    3  502    0  0.22482903305E+02  0.29900933632E+03 -0.56019701491E+03  0.63541706749E+03  0.46999998093E+01 0.  1.
       -5    1    3    3    0  502 -0.22482903305E+02 -0.29900933632E+03 -0.60279535932E+03  0.67327290111E+03  0.46999998093E+01 0. -1.
</event>
<event>
 5   0  0.2324616E-03  0.5998327E+03  0.7818609E-02  0.9905753E-01
        2   -1    0    0  501    0  0.00000000000E+00  0.00000000000E+00  0.76303841462E+03  0.76303841463E+03  0.25500000920E-02 0.  1.
       -2   -1    0    0    0  501  0.00000000000E+00  0.00000000000E+00 -0.11788371439E+03  0.11788371442E+03  0.25500000920E-02 0. -1.
    10030    2    1    2    0    0  0.00000000000E+00  0.00000000000E+00  0.64515470023E+03  0.88092212904E+03  0.59983265183E+03 0.  0.
        4    1    3    3  502    0  0.29825211475E+03 -0.23562132696E+01  0.36874681934E+03  0.47427387169E+03  0.12699999809E+01 0.  1.
       -4    1    3    3    0  502 -0.29825211475E+03  0.23562132696E+01  0.27640788090E+03  0.40664825736E+03  0.12699999809E+01 0. -1.
</event>
<event>
 5   0  0.2324616E-03  0.6010364E+03  0.7818609E-02  0.9903258E-01
        2   -1    0    0  501    0  0.00000000000E+00  0.00000000000E+00  0.78053842056E+03  0.78053842056E+03  0.25500000920E-02 0.  1.
       -2   -1    0    0    0  501  0.00000000000E+00  0.00000000000E+00 -0.11570371041E+03  0.11570371044E+03  0.25500000920E-02 0. -1.
    10030    2    1    2    0    0  0.00000000000E+00  0.00000000000E+00  0.66483471015E+03  0.89624213100E+03  0.60103640952E+03 0.  0.
        4    1    3    3  502    0  0.75540737922E+02  0.21662657160E+03  0.42978009882E+02  0.23341421731E+03  0.12699999809E+01 0. -1.
       -4    1    3    3    0  502 -0.75540737922E+02 -0.21662657160E+03  0.62185670026E+03  0.66282791369E+03  0.12699999809E+01 0.  1.
</event>
<event>
 5   0  0.2346281E-03  0.5998480E+03  0.7818609E-02  0.9905721E-01
        2   -1    0    0  501    0  0.00000000000E+00  0.00000000000E+00  0.96835420456E+03  0.96835420456E+03  0.25500000920E-02 0.  1.
       -2   -1    0    0    0  501  0.00000000000E+00  0.00000000000E+00 -0.92894121337E+02  0.92894121372E+02  0.25500000920E-02 0. -1.
    10030    2    1    2    0    0  0.00000000000E+00  0.00000000000E+00  0.87546008322E+03  0.10612483259E+04  0.59984802407E+03 0.  0.
        3    1    3    3  502    0  0.52439772872E+02 -0.18013704524E+02  0.95920762032E+03  0.96080887402E+03  0.10100000352E+00 0.  1.
       -3    1    3    3    0  502 -0.52439772872E+02  0.18013704524E+02 -0.83747537095E+02  0.10043945191E+03  0.10100000352E+00 0. -1.
</event>
<event>
 5   0  0.1416315E-03  0.5998900E+03  0.7818609E-02  0.9905634E-01
       -1   -1    0    0    0  501  0.00000000000E+00  0.00000000000E+00  0.13964763091E+03  0.13964763100E+03  0.50400001928E-02 0.  1.
        1   -1    0    0  501    0  0.00000000000E+00  0.00000000000E+00 -0.64424294125E+03  0.64424294127E+03  0.50400001928E-02 0. -1.
    10030    2    1    2    0    0  0.00000000000E+00  0.00000000000E+00 -0.50459531033E+03  0.78389057227E+03  0.59988999165E+03 0.  0.
        2    1    3    3  502    0 -0.18476765789E+03 -0.13106373991E+03 -0.50919507909E+03  0.55731177979E+03  0.25500000920E-02 0. -1.
       -2    1    3    3    0  502  0.18476765789E+03  0.13106373991E+03  0.45997687558E+01  0.22657879248E+03  0.25500000920E-02 0.  1.
</event>
<event>
 5   0  0.1392854E-03  0.5998506E+03  0.7818609E-02  0.9905716E-01
        1   -1    0    0  501    0  0.00000000000E+00  0.00000000000E+00  0.17978491566E+03  0.17978491573E+03  0.50400001928E-02 0. -1.
       -1   -1    0    0    0  501  0.00000000000E+00  0.00000000000E+00 -0.50034891120E+03  0.50034891122E+03  0.50400001928E-02 0.  1.
    10030    2    1    2    0    0  0.00000000000E+00  0.00000000000E+00 -0.32056399554E+03  0.68013382695E+03  0.59985060417E+03 0.  0.
        4    1    3    3  502    0 -0.66989746215E+02 -0.10445659251E+03 -0.46987346798E+03  0.48598507655E+03  0.12699999809E+01 0.  1.
       -4    1    3    3    0  502  0.66989746215E+02  0.10445659251E+03  0.14930947245E+03  0.19414875040E+03  0.12699999809E+01 0. -1.
</event>
<event>
 5   0  0.1418763E-03  0.6000789E+03  0.7818609E-02  0.9905242E-01
        1   -1    0    0  501    0  0.00000000000E+00  0.00000000000E+00  0.19556772221E+04  0.19556772221E+04  0.50400001928E-02 0. -1.
       -1   -1    0    0    0  501  0.00000000000E+00  0.00000000000E+00 -0.46031973393E+02  0.46031973669E+02  0.50400001928E-02 0.  1.
    10030    2    1    2    0    0  0.00000000000E+00  0.00000000000E+00  0.19096452487E+04  0.20017091958E+04  0.60007893526E+03 0.  0.
        5    1    3    3  502    0 -0.18610034502E+02 -0.18560644050E+03  0.17106133819E+03  0.25314058458E+03  0.46999998093E+01 0.  1.
       -5    1    3    3    0  502  0.18610034502E+02  0.18560644050E+03  0.17385839105E+04  0.17485686112E+04  0.46999998093E+01 0. -1.
</event>
<event>
 5   0  0.2421210E-03  0.6013887E+03  0.7818609E-02  0.9902529E-01
        2   -1    0    0  501    0  0.00000000000E+00  0.00000000000E+00  0.10995969620E+04  0.10995969620E+04  0.25500000920E-02 0.  1.
       -2   -1    0    0    0  501  0.00000000000E+00  0.00000000000E+00 -0.82227481231E+02  0.82227481270E+02  0.25500000920E-02 0. -1.
    10030    2    1    2    0    0  0.00000000000E+00  0.00000000000E+00  0.10173694808E+04  0.11818244433E+04  0.60138868823E+03 0.  0.
        1    1    3    3  502    0  0.58354072024E+02 -0.28408656414E+03  0.66474751106E+03  0.72525831752E+03  0.50400001928E-02 0.  1.
       -1    1    3    3    0  502 -0.58354072024E+02  0.28408656414E+03  0.35262196974E+03  0.45656612579E+03  0.50400001928E-02 0. -1.
</event>
<event>
 5   0  0.2406307E-03  0.6005231E+03  0.7818609E-02  0.9904321E-01
       -2   -1    0    0    0  501  0.00000000000E+00  0.00000000000E+00  0.80674237567E+02  0.80674237607E+02  0.25500000920E-02 0.  1.
        2   -1    0    0  501    0  0.00000000000E+00  0.00000000000E+00 -0.11175439894E+04  0.11175439894E+04  0.25500000920E-02 0. -1.
    10030    2    1    2    0    0  0.00000000000E+00  0.00000000000E+00 -0.10368697519E+04  0.11982182270E+04  0.60052313634E+03 0.  0.
        5    1    3    3  502    0  0.63179626455E+02  0.27736553693E+03 -0.32693256430E+03  0.43339392921E+03  0.46999998093E+01 0.  1.
       -5    1    3    3    0  502 -0.63179626455E+02 -0.27736553693E+03 -0.70993718757E+03  0.76482429784E+03  0.46999998093E+01 0. -1.
</event>
<event>
 5   0  0.2324616E-03  0.5994382E+03  0.7818609E-02  0.9906572E-01
       -2   -1    0    0    0  501  0.00000000000E+00  0.00000000000E+00  0.49343623562E+02  0.49343623628E+02  0.25500000920E-02 0. -1.
        2   -1    0    0  501    0  0.00000000000E+00  0.00000000000E+00 -0.18205296647E+04  0.18205296647E+04  0.25500000920E-02 0.  1.
    10030    2    1    2    0    0  0.00000000000E+00  0.00000000000E+00 -0.17711860412E+04  0.18698732884E+04  0.59943817203E+03 0.  0.
        4    1    3    3  502    0  0.12286664704E+03  0.20579050899E+03 -0.32424417495E+03  0.40321439016E+03  0.12699999809E+01 0.  1.
       -4    1    3    3    0  502 -0.12286664704E+03 -0.20579050899E+03 -0.14469418662E+04  0.14666588982E+04  0.12699999809E+01 0. -1.
</event>
<event>
 5   0  0.1418763E-03  0.5998473E+03  0.7818609E-02  0.9905723E-01
        1   -1    0    0  501    0  0.00000000000E+00  0.00000000000E+00  0.18887122024E+03  0.18887122031E+03  0.50400001928E-02 0. -1.
       -1   -1    0    0    0  501  0.00000000000E+00  0.00000000000E+00 -0.47627259238E+03  0.47627259240E+03  0.50400001928E-02 0.  1.
    10030    2    1    2    0    0  0.00000000000E+00  0.00000000000E+00 -0.28740137214E+03  0.66514381271E+03  0.59984726629E+03 0.  0.
        5    1    3    3  502    0 -0.10164937913E+03  0.28045636596E+03 -0.10963651018E+03  0.31785314824E+03  0.46999998093E+01 0. -1.
       -5    1    3    3    0  502  0.10164937913E+03 -0.28045636596E+03 -0.17776486196E+03  0.34729066447E+03  0.46999998093E+01 0.  1.
</event>
<event>
 5   0  0.1423430E-03  0.5999745E+03  0.7818609E-02  0.9905459E-01
        1   -1    0    0  501    0  0.00000000000E+00  0.00000000000E+00  0.11750042695E+04  0.11750042695E+04  0.50400001928E-02 0. -1.
       -1   -1    0    0    0  501  0.00000000000E+00  0.00000000000E+00 -0.76588949692E+02  0.76588949858E+02  0.50400001928E-02 0.  1.
    10030    2    1    2    0    0  0.00000000000E+00  0.00000000000E+00  0.10984153198E+04  0.12515932193E+04  0.59997447610E+03 0.  0.
        1    1    3    3  502    0  0.28597963463E+03  0.38214573958E+02  0.37784890013E+03  0.47540981946E+03  0.50400001928E-02 0.  1.
       -1    1    3    3    0  502 -0.28597963463E+03 -0.38214573958E+02  0.72056641964E+03  0.77618339986E+03  0.50400001928E-02 0. -1.
</event>
<event>
 5   0  0.9496750E-04  0.5985154E+03  0.7818609E-02  0.9908491E-01
        4   -1    0    0  501    0  0.00000000000E+00  0.00000000000E+00  0.74943709930E+03  0.74943817537E+03  0.12699999809E+01 0.  1.
       -4   -1    0    0    0  501  0.00000000000E+00  0.00000000000E+00 -0.11949203708E+03  0.11949878588E+03  0.12699999809E+01 0. -1.
    10030    2    1    2    0    0  0.00000000000E+00  0.00000000000E+00  0.62994506222E+03  0.86893696125E+03  0.59851538093E+03 0.  0.
        3    1    3    3  502    0 -0.84438196773E+02  0.20929644796E+03  0.60028517482E+03  0.64130890647E+03  0.10100000352E+00 0.  1.
       -3    1    3    3    0  502  0.84438196773E+02 -0.20929644796E+03  0.29659887396E+02  0.22762805478E+03  0.10100000352E+00 0. -1.
</event>
<event>
 5   0  0.1416315E-03  0.5999544E+03  0.7818609E-02  0.9905501E-01
        1   -1    0    0  501    0  0.00000000000E+00  0.00000000000E+00  0.81949394688E+03  0.81949394690E+03  0.50400001928E-02 0. -1.
       -1   -1    0    0    0  501  0.00000000000E+00  0.00000000000E+00 -0.10980717781E+03  0.10980717792E+03  0.50400001928E-02 0.  1.
    10030    2    1    2    0    0  0.00000000000E+00  0.00000000000E+00  0.70968676908E+03  0.92930112482E+03  0.59995439027E+03 0.  0.
        2    1    3    3  502    0  0.85380162758E+00  0.25179601917E+03  0.60739565517E+03  0.65751916031E+03  0.25500000920E-02 0. -1.
       -2    1    3    3    0  502 -0.85380162758E+00 -0.25179601917E+03  0.10229111390E+03  0.27178196451E+03  0.25500000920E-02 0.  1.
</event>
<event>
 5   0  0.1479385E-03  0.6004109E+03  0.7818609E-02  0.9904554E-01
       -1   -1    0    0    0  501  0.00000000000E+00  0.00000000000E+00  0.61035465051E+02  0.61035465259E+02  0.50400001928E-02 0. -1.
        1   -1    0    0  501    0  0.00000000000E+00  0.00000000000E+00 -0.14765726655E+04  0.14765726655E+04  0.50400001928E-02 0.  1.
    10030    2    1    2    0    0  0.00000000000E+00  0.00000000000E+00 -0.14155372005E+04  0.15376081308E+04  0.60041085763E+03 0.  0.
        3    1    3    3  502    0  0.24879832957E+03  0.92453659515E+02 -0.10669836426E+04  0.10995009740E+04  0.10100000352E+00 0.  1.
       -3    1    3    3    0  502 -0.24879832957E+03 -0.92453659515E+02 -0.34855355783E+03  0.43810715680E+03  0.10100000352E+00 0. -1.
</event>
<event>
 5   0  0.2421210E-03  0.5995243E+03  0.7818609E-02  0.9906393E-01
        2   -1    0    0  501    0  0.00000000000E+00  0.00000000000E+00  0.25657145799E+03  0.25657145800E+03  0.25500000920E-02 0. -1.
       -2   -1    0    0    0  501  0.00000000000E+00  0.00000000000E+00 -0.35022350209E+03  0.35022350210E+03  0.25500000920E-02 0.  1.
    10030    2    1    2    0    0  0.00000000000E+00  0.00000000000E+00 -0.93652044094E+02  0.60679496010E+03  0.59952432665E+03 0.  0.
        1    1    3    3  502    0 -0.35237617678E+02 -0.16408975041E+03 -0.29821330830E+03  0.34219630793E+03  0.50400001928E-02 0.  1.
       -1    1    3    3    0  502  0.35237617678E+02  0.16408975041E+03  0.20456126421E+03  0.26459865217E+03  0.50400001928E-02 0. -1.
</event>
<event>
 5   0  0.1416315E-03  0.5996737E+03  0.7818609E-02  0.9906083E-01
       -1   -1    0    0    0  501  0.00000000000E+00  0.00000000000E+00  0.30582187098E+03  0.30582187102E+03  0.50400001928E-02 0. -1.
        1   -1    0    0  501    0  0.00000000000E+00  0.00000000000E+00 -0.29396894279E+03  0.29396894283E+03  0.50400001928E-02 0.  1.
    10030    2    1    2    0    0  0.00000000000E+00  0.00000000000E+00  0.11852928193E+02  0.59979081386E+03  0.59967368500E+03 0.  0.
        2    1    3    3  502    0 -0.73284682693E+02 -0.14347402726E+03  0.25885268575E+03  0.30489367678E+03  0.25500000920E-02 0. -1.
       -2    1    3    3    0  502  0.73284682693E+02  0.14347402726E+03 -0.24699975755E+03  0.29489713707E+03  0.25500000920E-02 0.  1.
</event>
<event>
 5   0  0.1392854E-03  0.5998965E+03  0.7818609E-02  0.9905621E-01
        1   -1    0    0  501    0  0.00000000000E+00  0.00000000000E+00  0.73898789732E+03  0.73898789734E+03  0.50400001928E-02 0.  1.
       -1   -1    0    0    0  501  0.00000000000E+00  0.00000000000E+00 -0.12174618902E+03  0.12174618912E+03  0.50400001928E-02 0. -1.
    10030    2    1    2    0    0  0.00000000000E+00  0.00000000000E+00  0.61724170830E+03  0.86073408646E+03  0.59989652536E+03 0.  0.
        4    1    3    3  502    0  0.25380729498E+03 -0.64712331109E+02  0.51832582129E+03  0.58074873973E+03  0.12699999809E+01 0.  1.
       -4    1    3    3    0  502 -0.25380729498E+03  0.64712331109E+02  0.98915887007E+02  0.27998534673E+03  0.12699999809E+01 0. -1.
</event>
<event>
 5   0  0.2324616E-03  0.5999711E+03  0.7818609E-02  0.9905466E-01
        2   -1    0    0  501    0  0.00000000000E+00  0.00000000000E+00  0.11568419157E+04  0.11568419157E+04  0.25500000920E-02 0.  1.
       -2   -1    0    0    0  501  0.00000000000E+00  0.00000000000E+00 -0.77790523196E+02  0.77790523238E+02  0.25500000920E-02 0. -1.
    10030    2    1    2    0    0  0.00000000000E+00  0.00000000000E+00  0.10790513925E+04  0.12346324389E+04  0.59997112565E+03 0.  0.
        4    1    3    3  502    0 -0.28641207341E+03 -0.83422350299E+02  0.60455282273E+03  0.67414901372E+03  0.12699999809E+01 0. -1.
       -4    1    3    3    0  502  0.28641207341E+03  0.83422350299E+02  0.47449856974E+03  0.56048342519E+03  0.12699999809E+01 0.  1.
</event>
<event>
 5   0  0.1418763E-03  0.6001313E+03  0.7818609E-02  0.9905134E-01
        1   -1    0    0  501    0  0.00000000000E+00  0.00000000000E+00  0.21254967379E+03  0.21254967385E+03  0.50400001928E-02 0.  1.
       -1   -1    0    0    0  501  0.00000000000E+00  0.00000000000E+00 -0.42361579108E+03  0.42361579111E+03  0.50400001928E-02 0. -1.
    10030    2    1    2    0    0  0.00000000000E+00  0.00000000000E+00 -0.21106611730E+03  0.63616546496E+03  0.60013131308E+03 0.  0.
        5    1    3    3  502    0  0.18705847733E+03 -0.85336616151E+02 -0.33715710277E+03  0.39493064448E+03  0.46999998093E+01 0. -1.
       -5    1    3    3    0  502 -0.18705847733E+03  0.85336616151E+02  0.12609098548E+03  0.24123482049E+03  0.46999998093E+01 0.  1.
</event>
<event>
 5   0  0.1418763E-03  0.5993318E+03  0.7818609E-02  0.9906793E-01
        1   -1    0    0  501    0  0.00000000000E+00  0.00000000000E+00  0.14309687685E+03  0.14309687694E+03  0.50400001928E-02 0. -1.
       -1   -1    0    0    0  501  0.00000000000E+00  0.00000000000E+00 -0.62754439622E+03  0.62754439624E+03  0.50400001928E-02 0.  1.
    10030    2    1    2    0    0  0.00000000000E+00  0.00000000000E+00 -0.48444751937E+03  0.77064127317E+03  0.59933177197E+03 0.  0.
        5    1    3    3  502    0 -0.21909531785E+02  0.26408433296E+02  0.14051471281E+03  0.14472010035E+03  0.46999998093E+01 0. -1.
       -5    1    3    3    0  502  0.21909531785E+02 -0.26408433296E+02 -0.62496223218E+03  0.62592117282E+03  0.46999998093E+01 0.  1.
</event>
<event>
 5   0  0.9496750E-04  0.5999912E+03  0.7818609E-02  0.9905424E-01
        3   -1    0    0  501    0  0.00000000000E+00  0.00000000000E+00  0.81252590392E+02  0.81252653165E+02  0.10100000352E+00 0.  1.
       -3   -1    0    0    0  501  0.00000000000E+00  0.00000000000E+00 -0.11076241847E+04  0.11076241893E+04  0.10100000352E+00 0. -1.
    10030    2    1    2    0    0  0.00000000000E+00  0.00000000000E+00 -0.10263715943E+04  0.11888768424E+04  0.59999124739E+03 0.  0.
        1    1    3    3  502    0  0.15968638843E+03 -0.82057891771E+01 -0.10161499323E+04  0.10286533734E+04  0.50400001928E-02 0. -1.
       -1    1    3    3    0  502 -0.15968638843E+03  0.82057891771E+01 -0.10221661939E+02  0.16022346902E+03  0.50400001928E-02 0.  1.
</event>
<event>
 5   0  0.1416315E-03  0.5994950E+03  0.7818609E-02  0.9906454E-01
       -1   -1    0    0    0  501  0.00000000000E+00  0.00000000000E+00  0.12210913908E+03  0.12210913919E+03  0.50400001928E-02 0. -1.
        1   -1    0    0  501    0  0.00000000000E+00  0.00000000000E+00 -0.73580546894E+03  0.73580546896E+03  0.50400001928E-02 0.  1.
    10030    2    1    2    0    0  0.00000000000E+00  0.00000000000E+00 -0.61369632986E+03  0.85791460814E+03  0.59949502882E+03 0.  0.
        2    1    3    3  502    0 -0.10999707823E+03  0.26213899507E+03 -0.44285450521E+03  0.52624739690E+03  0.25500000920E-02 0.  1.
       -2    1    3    3    0  502  0.10999707823E+03 -0.26213899507E+03 -0.17084182465E+03  0.33166721124E+03  0.25500000920E-02 0. -1.
</event>
<event>
 5   0  0.2421210E-03  0.6001396E+03  0.7818609E-02  0.9905116E-01
        2   -1    0    0  501    0  0.00000000000E+00  0.00000000000E+00  0.13661482066E+04  0.13661482067E+04  0.25500000920E-02 0.  1.
       -2   -1    0    0    0  501  0.00000000000E+00  0.00000000000E+00 -0.65909319719E+02  0.65909319769E+02  0.25500000920E-02 0. -1.
    10030    2    1    2    0    0  0.00000000000E+00  0.00000000000E+00  0.13002388869E+04  0.14320575264E+04  0.60013964699E+03 0.  0.
        1    1    3    3  502    0 -0.95126546128E+02  0.28384095820E+03  0.69943661450E+03  0.76080636633E+03  0.50400001928E-02 0. -1.
       -1    1    3    3    0  502  0.95126546128E+02 -0.28384095820E+03  0.60080227243E+03  0.67125116009E+03  0.50400001928E-02 0.  1.
</event>
<event>
 5   0  0.1416315E-03  0.6000974E+03  0.7818609E-02  0.9905204E-01
       -1   -1    0    0    0  501  0.00000000000E+00  0.00000000000E+00  0.88661356432E+02  0.88661356576E+02  0.50400001928E-02 0. -1.
        1   -1    0    0  501    0  0.00000000000E+00  0.00000000000E+00 -0.10154278929E+04  0.10154278929E+04  0.50400001928E-02 0.  1.
    10030    2    1    2    0    0  0.00000000000E+00  0.00000000000E+00 -0.92676653650E+03  0.11040892495E+04  0.60009737354E+03 0.  0.
        2    1    3    3  502    0 -0.27122326331E+03 -0.12545458982E+03 -0.41373110963E+03  0.51036687172E+03  0.25500000920E-02 0.  1.
       -2    1    3    3    0  502  0.27122326331E+03  0.12545458982E+03 -0.51303542688E+03  0.59372237781E+03  0.25500000920E-02 0. -1.
</event>
<event>
 5   0  0.2421210E-03  0.6002249E+03  0.7818609E-02  0.9904940E-01
       -2   -1    0    0    0  501  0.00000000000E+00  0.00000000000E+00  0.21527364236E+03  0.21527364238E+03  0.25500000920E-02 0. -1.
        2   -1    0    0  501    0  0.00000000000E+00  0.00000000000E+00 -0.41838601325E+03  0.41838601326E+03  0.25500000920E-02 0.  1.
    10030    2    1    2    0    0  0.00000000000E+00  0.00000000000E+00 -0.20311237089E+03  0.63365965564E+03  0.60022489450E+03 0.  0.
        1    1    3    3  502    0 -0.83492355715E+02 -0.28846198293E+02  0.20123834904E+03  0.21977249547E+03  0.50400001928E-02 0. -1.
       -1    1    3    3    0  502  0.83492355715E+02  0.28846198293E+02 -0.40435071992E+03  0.41388716016E+03  0.50400001928E-02 0.  1.
</event>
<event>
 5   0  0.2346281E-03  0.5999480E+03  0.7818609E-02  0.9905514E-01
       -2   -1    0    0    0  501  0.00000000000E+00  0.00000000000E+00  0.13839591036E+03  0.13839591038E+03  0.25500000920E-02 0. -1.
        2   -1    0    0  501    0  0.00000000000E+00  0.00000000000E+00 -0.65019553261E+03  0.65019553261E+03  0.25500000920E-02 0.  1.
    10030    2    1    2    0    0  0.00000000000E+00  0.00000000000E+00 -0.51179962225E+03  0.78859144299E+03  0.59994800661E+03 0.  0.
        3    1    3    3  502    0 -0.26498322472E+03  0.96355726005E+02 -0.39048553437E+03  0.48164250028E+03  0.10100000352E+00 0.  1.
       -3    1    3    3    0  502  0.26498322472E+03 -0.96355726005E+02 -0.12131408788E+03  0.30694894272E+03  0.10100000352E+00 0. -1.
</event>
<event>
 5   0  0.2346281E-03  0.5999972E+03  0.7818609E-02  0.9905412E-01
        2   -1    0    0  501    0  0.00000000000E+00  0.00000000000E+00  0.12774446971E+04  0.12774446971E+04  0.25500000920E-02 0.  1.
       -2   -1    0    0    0  501  0.00000000000E+00  0.00000000000E+00 -0.70452491670E+02  0.70452491716E+02  0.25500000920E-02 0. -1.
    10030    2    1    2    0    0  0.00000000000E+00  0.00000000000E+00  0.12069922054E+04  0.13478971888E+04  0.59999720637E+03 0.  0.
        3    1    3    3  502    0  0.94034947661E+01  0.24419042708E+03  0.21256690764E+03  0.32388592254E+03  0.10100000352E+00 0. -1.
       -3    1    3    3    0  502 -0.94034947661E+01 -0.24419042708E+03  0.99442529779E+03  0.10240112663E+04  0.10100000352E+00 0.  1.
</event>
<event>
 5   0  0.1423430E-03  0.6000463E+03  0.7818609E-02  0.9905310E-01
        1   -1    0    0  501    0  0.00000000000E+00  0.00000000000E+00  0.62036297197E+03  0.62036297199E+03  0.50400001928E-02 0.  1.
       -1   -1    0    0    0  501  0.00000000000E+00  0.00000000000E+00 -0.14509876238E+03  0.14509876247E+03  0.50400001928E-02 0. -1.
    10030    2    1    2    0    0  0.00000000000E+00  0.00000000000E+00  0.47526420958E+03  0.76546173446E+03  0.60004632989E+03 0.  0.
        1    1    3    3  502    0 -0.24038389779E+03  0.50502241614E+01  0.87069844284E+01  0.24059454417E+03  0.50400001928E-02 0. -1.
       -1    1    3    3    0  502  0.24038389779E+03 -0.50502241614E+01  0.46655722516E+03  0.52486719030E+03  0.50400001928E-02 0.  1.
</event>
<event>
 5   0  0.1479385E-03  0.5998089E+03  0.7818609E-02  0.9905803E-01
        1   -1    0    0  501    0  0.00000000000E+00  0.00000000000E+00  0.10678625932E+04  0.10678625932E+04  0.50400001928E-02 0. -1.
       -1   -1    0    0    0  501  0.00000000000E+00  0.00000000000E+00 -0.84226816207E+02  0.84226816358E+02  0.50400001928E-02 0.  1.
    10030    2    1    2    0    0  0.00000000000E+00  0.00000000000E+00  0.98363577695E+03  0.11520894095E+04  0.59980885776E+03 0.  0.
        3    1    3    3  502    0 -0.20887884221E+03 -0.10861204841E+03  0.13497117149E+03  0.27137460294E+03  0.10100000352E+00 0.  1.
       -3    1    3    3    0  502  0.20887884221E+03  0.10861204841E+03  0.84866460546E+03  0.88071480659E+03  0.10100000352E+00 0. -1.
</event>
<event>
 5   0  0.2346281E-03  0.5993411E+03  0.7818609E-02  0.9906774E-01
       -2   -1    0    0    0  501  0.00000000000E+00  0.00000000000E+00  0.20946709029E+03  0.20946709031E+03  0.25500000920E-02 0.  1.
        2   -1    0    0  501    0  0.00000000000E+00  0.00000000000E+00 -0.42871867337E+03  0.42871867338E+03  0.25500000920E-02 0. -1.
    10030    2    1    2    0    0  0.00000000000E+00  0.00000000000E+00 -0.21925158308E+03  0.63818576369E+03  0.59934114851E+03 0.  0.
        3    1    3    3  502    0  0.10807128931E+03 -0.98259797270E+02 -0.38824881502E+03  0.41481507193E+03  0.10100000352E+00 0. -1.
       -3    1    3    3    0  502 -0.10807128931E+03  0.98259797270E+02  0.16899723194E+03  0.22337069176E+03  0.10100000352E+00 0.  1.
</event>
<event>
 5   0  0.9496750E-04  0.6003347E+03  0.7818609E-02  0.9904712E-01
       -3   -1    0    0    0  501  0.00000000000E+00  0.00000000000E+00  0.57316584860E+03  0.57316585749E+03  0.10100000352E+00 0. -1.
        3   -1    0    0  501    0  0.00000000000E+00  0.00000000000E+00 -0.15719783720E+03  0.15719786964E+03  0.10100000352E+00 0.  1.
    10030    2    1    2    0    0  0.00000000000E+00  0.00000000000E+00  0.41596801140E+03  0.73036372714E+03  0.60033472947E+03 0.  0.
        5    1    3    3  502    0  0.13819895457E+03 -0.26158017381E+03  0.26948182953E+03  0.40020705243E+03  0.46999998093E+01 0.  1.
       -5    1    3    3    0  502 -0.13819895457E+03  0.26158017381E+03  0.14648618187E+03  0.33015667470E+03  0.46999998093E+01 0. -1.
</event>
<event>
 5   0  0.1479385E-03  0.6000831E+03  0.7818609E-02  0.9905234E-01
        1   -1    0    0  501    0  0.00000000000E+00  0.00000000000E+00  0.68298469684E+03  0.68298469686E+03  0.50400001928E-02 0.  1.
       -1   -1    0    0    0  501  0.00000000000E+00  0.00000000000E+00 -0.13181105312E+03  0.13181105321E+03  0.50400001928E-02 0. -1.
    10030    2    1    2    0    0  0.00000000000E+00  0.00000000000E+00  0.55117364373E+03  0.81479575008E+03  0.60008310158E+03 0.  0.
        3    1    3    3  502    0 -0.64883050754E+02 -0.15951063258E+03  0.60920770883E+03  0.63307779528E+03  0.10100000352E+00 0.  1.
       -3    1    3    3    0  502  0.64883050754E+02  0.15951063258E+03 -0.58034065097E+02  0.18171795480E+03  0.10100000352E+00 0. -1.
</event>
<event>
 5   0  0.2313168E-03  0.6012385E+03  0.7818609E-02  0.9902840E-01
        2   -1    0    0  501    0  0.00000000000E+00  0.00000000000E+00  0.44484728760E+03  0.44484728760E+03  0.25500000920E-02 0. -1.
       -2   -1    0    0    0  501  0.00000000000E+00  0.00000000000E+00 -0.20315272746E+03  0.20315272747E+03  0.25500000920E-02 0.  1.
    10030    2    1    2    0    0  0.00000000000E+00  0.00000000000E+00  0.24169456014E+03  0.64800001508E+03  0.60123852100E+03 0.  0.
        2    1    3    3  502    0  0.52152701665E+01 -0.18717323195E+03 -0.13262686508E+03  0.22945784613E+03  0.25500000920E-02 0.  1.
       -2    1    3    3    0  502 -0.52152701665E+01  0.18717323195E+03  0.37432142522E+03  0.41854216895E+03  0.25500000920E-02 0. -1.
</event>
<event>
 5   0  0.1423430E-03  0.5977236E+03  0.7818609E-02  0.9910140E-01
        1   -1    0    0  501    0  0.00000000000E+00  0.00000000000E+00  0.17177602605E+03  0.17177602612E+03  0.50400001928E-02 0. -1.
       -1   -1    0    0    0  501  0.00000000000E+00  0.00000000000E+00 -0.51997004038E+03  0.51997004041E+03  0.50400001928E-02 0.  1.
    10030    2    1    2    0    0  0.00000000000E+00  0.00000000000E+00 -0.34819401434E+03  0.69174606653E+03  0.59772363927E+03 0.  0.
        1    1    3    3  502    0 -0.15398446283E+03  0.24752927669E+03 -0.97886927371E+02  0.30751228949E+03  0.50400001928E-02 0.  1.
       -1    1    3    3    0  502  0.15398446283E+03 -0.24752927669E+03 -0.25030708697E+03  0.38423377704E+03  0.50400001928E-02 0. -1.
</event>
<event>
 5   0  0.1423430E-03  0.5996677E+03  0.7818609E-02  0.9906096E-01
        1   -1    0    0  501    0  0.00000000000E+00  0.00000000000E+00  0.31577995324E+03  0.31577995328E+03  0.50400001928E-02 0. -1.
       -1   -1    0    0    0  501  0.00000000000E+00  0.00000000000E+00 -0.28469301757E+03  0.28469301762E+03  0.50400001928E-02 0.  1.
    10030    2    1    2    0    0  0.00000000000E+00  0.00000000000E+00  0.31086935664E+02  0.60047297090E+03  0.59966773401E+03 0.  0.
        1    1    3    3  502    0 -0.13465012456E+02 -0.54999377908E+02 -0.27929054064E+03  0.28497270790E+03  0.50400001928E-02 0.  1.
       -1    1    3    3    0  502  0.13465012456E+02  0.54999377908E+02  0.31037747630E+03  0.31550026300E+03  0.50400001928E-02 0. -1.
</event>
<event>
 5   0  0.1416315E-03  0.6003150E+03  0.7818609E-02  0.9904753E-01
        1   -1    0    0  501    0  0.00000000000E+00  0.00000000000E+00  0.75009968948E+03  0.75009968950E+03  0.50400001928E-02 0. -1.
       -1   -1    0    0    0  501  0.00000000000E+00  0.00000000000E+00 -0.12011006648E+03  0.12011006658E+03  0.50400001928E-02 0.  1.
    10030    2    1    2    0    0  0.00000000000E+00  0.00000000000E+00  0.62998962300E+03  0.87020975608E+03  0.60031499605E+03 0.  0.
        2    1    3    3  502    0 -0.26581906458E+01 -0.24707432724E+03  0.56202841340E+03  0.61394521468E+03  0.25500000920E-02 0. -1.
       -2    1    3    3    0  502  0.26581906458E+01  0.24707432724E+03  0.67961209606E+02  0.25626454140E+03  0.25500000920E-02 0.  1.
</event>
<event>
 5   0  0.2324616E-03  0.5999834E+03  0.7818609E-02  0.9905441E-01
        2   -1    0    0  501    0  0.00000000000E+00  0.00000000000E+00  0.49818801622E+03  0.49818801623E+03  0.25500000920E-02 0.  1.
       -2   -1    0    0    0  501  0.00000000000E+00  0.00000000000E+00 -0.18064468564E+03  0.18064468566E+03  0.25500000920E-02 0. -1.
    10030    2    1    2    0    0  0.00000000000E+00  0.00000000000E+00  0.31754333058E+03  0.67883270189E+03  0.59998339174E+03 0.  0.
        4    1    3    3  502    0 -0.10864879273E+03 -0.27223464391E+03  0.86527711044E+02  0.30562218372E+03  0.12699999809E+01 0.  1.
       -4    1    3    3    0  502  0.10864879273E+03  0.27223464391E+03  0.23101561953E+03  0.37321051817E+03  0.12699999809E+01 0. -1.
</event>
<event>
 5   0  0.1479385E-03  0.5998377E+03  0.7818609E-02  0.9905743E-01
       -1   -1    0    0    0  501  0.00000000000E+00  0.00000000000E+00  0.48866363657E+03  0.48866363660E+03  0.50400001928E-02 0.  1.
        1   -1    0    0  501    0  0.00000000000E+00  0.00000000000E+00 -0.18407616877E+03  0.18407616884E+03  0.50400001928E-02 0. -1.
    10030    2    1    2    0    0  0.00000000000E+00  0.00000000000E+00  0.30458746780E+03  0.67273980544E+03  0.59983774496E+03 0.  0.
        3    1    3    3  502    0  0.72009849023E+02 -0.25034945529E+03  0.31898833394E+03  0.41184200309E+03  0.10100000352E+00 0.  1.
       -3    1    3    3    0  502 -0.72009849023E+02  0.25034945529E+03 -0.14400866134E+02  0.26089780234E+03  0.10100000352E+00 0. -1.
</event>
<event>
 5   0  0.1418763E-03  0.6015654E+03  0.7818609E-02  0.9902164E-01
        1   -1    0    0  501    0  0.00000000000E+00  0.00000000000E+00  0.26763981288E+03  0.26763981293E+03  0.50400001928E-02 0.  1.
       -1   -1    0    0    0  501  0.00000000000E+00  0.00000000000E+00 -0.33802978228E+03  0.33802978232E+03  0.50400001928E-02 0. -1.
    10030    2    1    2    0    0  0.00000000000E+00  0.00000000000E+00 -0.70389969397E+02  0.60566959525E+03  0.60156538366E+03 0.  0.
        5    1    3    3  502    0  0.20900653411E+03 -0.21385902447E+03 -0.67487537874E+02  0.30658778745E+03  0.46999998093E+01 0.  1.
       -5    1    3    3    0  502 -0.20900653411E+03  0.21385902447E+03 -0.29024315235E+01  0.29908180780E+03  0.46999998093E+01 0. -1.
</event>
<event>
 5   0  0.1416315E-03  0.6003336E+03  0.7818609E-02  0.9904714E-01
       -1   -1    0    0    0  501  0.00000000000E+00  0.00000000000E+00  0.10932617451E+03  0.10932617463E+03  0.50400001928E-02 0. -1.
        1   -1    0    0  501    0  0.00000000000E+00  0.00000000000E+00 -0.82414036962E+03  0.82414036964E+03  0.50400001928E-02 0.  1.
    10030    2    1    2    0    0  0.00000000000E+00  0.00000000000E+00 -0.71481419511E+03  0.93346654427E+03  0.60033362036E+03 0.  0.
        2    1    3    3  502    0 -0.17002050758E+03  0.20139819707E+03 -0.13406233183E+03  0.29570410143E+03  0.25500000920E-02 0.  1.
       -2    1    3    3    0  502  0.17002050758E+03 -0.20139819707E+03 -0.58075186328E+03  0.63776244283E+03  0.25500000920E-02 0. -1.
</event>
<event>
 5   0  0.2313168E-03  0.5999285E+03  0.7818609E-02  0.9905554E-01
       -2   -1    0    0    0  501  0.00000000000E+00  0.00000000000E+00  0.13410260074E+03  0.13410260076E+03  0.25500000920E-02 0. -1.
        2   -1    0    0  501    0  0.00000000000E+00  0.00000000000E+00 -0.67096792807E+03  0.67096792808E+03  0.25500000920E-02 0.  1.
    10030    2    1    2    0    0  0.00000000000E+00  0.00000000000E+00 -0.53686532733E+03  0.80507052884E+03  0.59992847634E+03 0.  0.
        2    1    3    3  502    0 -0.26541749990E+03  0.88514986326E+02 -0.41356870172E+03  0.49931996065E+03  0.25500000920E-02 0. -1.
       -2    1    3    3    0  502  0.26541749990E+03 -0.88514986326E+02 -0.12329662561E+03  0.30575056819E+03  0.25500000920E-02 0.  1.
</event>
<event>
 5   0  0.9496750E-04  0.5998568E+03  0.7818609E-02  0.9905703E-01
       -3   -1    0    0    0  501  0.00000000000E+00  0.00000000000E+00  0.12392483721E+04  0.12392483762E+04  0.10100000352E+00 0.  1.
        3   -1    0    0  501    0  0.00000000000E+00  0.00000000000E+00 -0.72589977016E+02  0.72590047281E+02  0.10100000352E+00 0. -1.
    10030    2    1    2    0    0  0.00000000000E+00  0.00000000000E+00  0.11666583951E+04  0.13118384235E+04  0.59985684837E+03 0.  0.
        2    1    3    3  502    0 -0.22937212346E+03  0.59087982747E+02  0.18094737346E+03  0.29806863755E+03  0.25500000920E-02 0. -1.
       -2    1    3    3    0  502  0.22937212346E+03 -0.59087982747E+02  0.98571102161E+03  0.10137697859E+04  0.25500000920E-02 0.  1.
</event>
<event>
 5   0  0.2324616E-03  0.5997608E+03  0.7818609E-02  0.9905902E-01
       -2   -1    0    0    0  501  0.00000000000E+00  0.00000000000E+00  0.21806261274E+03  0.21806261275E+03  0.25500000920E-02 0.  1.
        2   -1    0    0  501    0  0.00000000000E+00  0.00000000000E+00 -0.41239645862E+03  0.41239645863E+03  0.25500000920E-02 0. -1.
    10030    2    1    2    0    0  0.00000000000E+00  0.00000000000E+00 -0.19433384588E+03  0.63045907138E+03  0.59976078317E+03 0.  0.
        4    1    3    3  502    0  0.13261549162E+03 -0.25209283383E+03  0.13810840258E+01  0.28485291956E+03  0.12699999809E+01 0.  1.
       -4    1    3    3    0  502 -0.13261549162E+03  0.25209283383E+03 -0.19571492991E+03  0.34560615182E+03  0.12699999809E+01 0. -1.
</event>
<event>
 5   0  0.2324616E-03  0.6006572E+03  0.7818609E-02  0.9904044E-01
       -2   -1    0    0    0  501  0.00000000000E+00  0.00000000000E+00  0.41474689155E+02  0.41474689234E+02  0.25500000920E-02 0. -1.
        2   -1    0    0  501    0  0.00000000000E+00  0.00000000000E+00 -0.21747543075E+04  0.21747543075E+04  0.25500000920E-02 0.  1.
    10030    2    1    2    0    0  0.00000000000E+00  0.00000000000E+00 -0.21332796183E+04  0.22162289967E+04  0.60065717004E+03 0.  0.
        4    1    3    3  502    0  0.17946888512E+02  0.12330040384E+03 -0.58402677060E+02  0.13761382918E+03  0.12699999809E+01 0. -1.
       -4    1    3    3    0  502 -0.17946888512E+02 -0.12330040384E+03 -0.20748769412E+04  0.20786151675E+04  0.12699999809E+01 0.  1.
</event>
<event>
 5   0  0.1392854E-03  0.5998414E+03  0.7818609E-02  0.9905735E-01
       -1   -1    0    0    0  501  0.00000000000E+00  0.00000000000E+00  0.77147905903E+02  0.77147906068E+02  0.50400001928E-02 0.  1.
        1   -1    0    0  501    0  0.00000000000E+00  0.00000000000E+00 -0.11659735450E+04  0.11659735450E+04  0.50400001928E-02 0. -1.
    10030    2    1    2    0    0  0.00000000000E+00  0.00000000000E+00 -0.10888256391E+04  0.12431214511E+04  0.59984137051E+03 0.  0.
        4    1    3    3  502    0  0.98740048389E+02  0.21175078947E+03 -0.93413087995E+03  0.96290711274E+03  0.12699999809E+01 0. -1.
       -4    1    3    3    0  502 -0.98740048389E+02 -0.21175078947E+03 -0.15469475914E+03  0.28021433833E+03  0.12699999809E+01 0.  1.
</event>
<event>
 5   0  0.2313168E-03  0.5997038E+03  0.7818609E-02  0.9906021E-01
        2   -1    0    0  501    0  0.00000000000E+00  0.00000000000E+00  0.18232808947E+04  0.18232808948E+04  0.25500000920E-02 0.  1.
       -2   -1    0    0    0  501  0.00000000000E+00  0.00000000000E+00 -0.49312847457E+02  0.49312847523E+02  0.25500000920E-02 0. -1.
    10030    2    1    2    0    0  0.00000000000E+00  0.00000000000E+00  0.17739680473E+04  0.18725937423E+04  0.59970383590E+03 0.  0.
        2    1    3    3  502    0 -0.21248964910E+02 -0.13930996354E+03  0.60530921835E+02  0.15337136941E+03  0.25500000920E-02 0. -1.
       -2    1    3    3    0  502  0.21248964910E+02  0.13930996354E+03  0.17134371255E+04  0.17192223729E+04  0.25500000920E-02 0.  1.
</event>
<event>
 5   0  0.9496750E-04  0.6003309E+03  0.7818609E-02  0.9904720E-01
       -3   -1    0    0    0  501  0.00000000000E+00  0.00000000000E+00  0.90410599716E+02  0.90410656131E+02  0.10100000352E+00 0. -1.
        3   -1    0    0  501    0  0.00000000000E+00  0.00000000000E+00 -0.99655654412E+03  0.99655654924E+03  0.10100000352E+00 0.  1.
    10030    2    1    2    0    0  0.00000000000E+00  0.00000000000E+00 -0.90614594440E+03  0.10869672054E+04  0.60033093623E+03 0.  0.
        4    1    3    3  502    0 -0.21820503395E+03 -0.12728886160E+03 -0.74660352008E+03  0.78818419181E+03  0.12699999809E+01 0.  1.
       -4    1    3    3    0  502  0.21820503395E+03  0.12728886160E+03 -0.15954242432E+03  0.29878301355E+03  0.12699999809E+01 0. -1.
</event>
<event>
 5   0  0.2324616E-03  0.5997826E+03  0.7818609E-02  0.9905857E-01
        2   -1    0    0  501    0  0.00000000000E+00  0.00000000000E+00  0.69513416985E+03  0.69513416985E+03  0.25500000920E-02 0.  1.
       -2   -1    0    0    0  501  0.00000000000E+00  0.00000000000E+00 -0.12937759138E+03  0.12937759141E+03  0.25500000920E-02 0. -1.
    10030    2    1    2    0    0  0.00000000000E+00  0.00000000000E+00  0.56575657846E+03  0.82451176126E+03  0.59978257593E+03 0.  0.
        4    1    3    3  502    0 -0.28695708619E+03 -0.83669422679E+02  0.24953744231E+03  0.38937833738E+03  0.12699999809E+01 0. -1.
       -4    1    3    3    0  502  0.28695708619E+03  0.83669422679E+02  0.31621913615E+03  0.43513342388E+03  0.12699999809E+01 0.  1.
</event>
<event>
 5   0  0.2406307E-03  0.6013056E+03  0.7818609E-02  0.9902701E-01
        2   -1    0    0  501    0  0.00000000000E+00  0.00000000000E+00  0.17968603489E+03  0.17968603491E+03  0.25500000920E-02 0.  1.
       -2   -1    0    0    0  501  0.00000000000E+00  0.00000000000E+00 -0.50305579023E+03  0.50305579024E+03  0.25500000920E-02 0. -1.
    10030    2    1    2    0    0  0.00000000000E+00  0.00000000000E+00 -0.32336975535E+03  0.68274182515E+03  0.60130558049E+03 0.  0.
        5    1    3    3  502    0 -0.23901689628E+03 -0.92928785262E+01 -0.36842892474E+03  0.43929192672E+03  0.46999998093E+01 0. -1.
       -5    1    3    3    0  502  0.23901689628E+03  0.92928785262E+01  0.45059169399E+02  0.24344989842E+03  0.46999998093E+01 0.  1.
</event>
<event>
 5   0  0.9496750E-04  0.6018368E+03  0.7818609E-02  0.9901603E-01
        4   -1    0    0  501    0  0.00000000000E+00  0.00000000000E+00  0.89806015525E+03  0.89806105324E+03  0.12699999809E+01 0. -1.
       -4   -1    0    0    0  501  0.00000000000E+00  0.00000000000E+00 -0.10082559124E+03  0.10083358939E+03  0.12699999809E+01 0.  1.
    10030    2    1    2    0    0  0.00000000000E+00  0.00000000000E+00  0.79723456401E+03  0.99889464263E+03  0.60183681926E+03 0.  0.
        4    1    3    3  502    0 -0.13969776239E+03 -0.24260571958E+03  0.58177111486E+03  0.64562546649E+03  0.12699999809E+01 0. -1.
       -4    1    3    3    0  502  0.13969776239E+03  0.24260571958E+03  0.21546344914E+03  0.35326917614E+03  0.12699999809E+01 0.  1.
</event>
<event>
 5   0  0.2406307E-03  0.5999402E+03  0.7818609E-02  0.9905530E-01
       -2   -1    0    0    0  501  0.00000000000E+00  0.00000000000E+00  0.44289661011E+02  0.44289661085E+02  0.25500000920E-02 0. -1.
        2   -1    0    0  501    0  0.00000000000E+00  0.00000000000E+00 -0.20316721227E+04  0.20316721227E+04  0.25500000920E-02 0.  1.
    10030    2    1    2    0    0  0.00000000000E+00  0.00000000000E+00 -0.19873824617E+04  0.20759617838E+04  0.59994022928E+03 0.  0.
        5    1    3    3  502    0  0.18240793366E+03  0.23292670346E+03 -0.82302968611E+03  0.87460131355E+03  0.46999998093E+01 0. -1.
       -5    1    3    3    0  502 -0.18240793366E+03 -0.23292670346E+03 -0.11643527756E+04  0.12013604702E+04  0.46999998093E+01 0.  1.
</event>
<event>
 5   0  0.1418763E-03  0.6002994E+03  0.7818609E-02  0.9904785E-01
       -1   -1    0    0    0  501  0.00000000000E+00  0.00000000000E+00  0.12049531920E+03  0.12049531930E+03  0.50400001928E-02 0. -1.
        1   -1    0    0  501    0  0.00000000000E+00  0.00000000000E+00 -0.74766264163E+03  0.74766264165E+03  0.50400001928E-02 0.  1.
    10030    2    1    2    0    0  0.00000000000E+00  0.00000000000E+00 -0.62716732243E+03  0.86815796095E+03  0.60029942099E+03 0.  0.
        5    1    3    3  502    0 -0.25496034227E+03 -0.36707283040E+02 -0.53629765246E+03  0.59497013605E+03  0.46999998093E+01 0.  1.
       -5    1    3    3    0  502  0.25496034227E+03  0.36707283040E+02 -0.90869669973E+02  0.27318782491E+03  0.46999998093E+01 0. -1.
</event>
<event>
 5   0  0.1416315E-03  0.5997471E+03  0.7818609E-02  0.9905931E-01
        1   -1    0    0  501    0  0.00000000000E+00  0.00000000000E+00  0.53085035856E+03  0.53085035859E+03  0.50400001928E-02 0.  1.
       -1   -1    0    0    0  501  0.00000000000E+00  0.00000000000E+00 -0.16939643592E+03  0.16939643599E+03  0.50400001928E-02 0. -1.
    10030    2    1    2    0    0  0.00000000000E+00  0.00000000000E+00  0.36145392265E+03  0.70024679458E+03  0.59974714265E+03 0.  0.
        2    1    3    3  502    0  0.15471040538E+03  0.13151184906E+03 -0.76916046841E+02  0.21713303351E+03  0.25500000920E-02 0. -1.
       -2    1    3    3    0  502 -0.15471040538E+03 -0.13151184906E+03  0.43836996949E+03  0.48311376107E+03  0.25500000920E-02 0.  1.
</event>
<event>
 5   0  0.2421210E-03  0.6004847E+03  0.7818609E-02  0.9904401E-01
       -2   -1    0    0    0  501  0.00000000000E+00  0.00000000000E+00  0.89959747204E+02  0.89959747240E+02  0.25500000920E-02 0. -1.
        2   -1    0    0  501    0  0.00000000000E+00  0.00000000000E+00 -0.10020644345E+04  0.10020644345E+04  0.25500000920E-02 0.  1.
    10030    2    1    2    0    0  0.00000000000E+00  0.00000000000E+00 -0.91210468727E+03  0.10920241817E+04  0.60048468166E+03 0.  0.
        1    1    3    3  502    0  0.10704469105E+03  0.14407976538E+02  0.53405090075E+02  0.12049173972E+03  0.50400001928E-02 0. -1.
       -1    1    3    3    0  502 -0.10704469105E+03 -0.14407976538E+02 -0.96550977734E+03  0.97153244199E+03  0.50400001928E-02 0.  1.
</event>
<event>
 5   0  0.1392854E-03  0.5999578E+03  0.7818609E-02  0.9905494E-01
       -1   -1    0    0    0  501  0.00000000000E+00  0.00000000000E+00  0.13647819436E+04  0.13647819436E+04  0.50400001928E-02 0. -1.
        1   -1    0    0  501    0  0.00000000000E+00  0.00000000000E+00 -0.65935313557E+02  0.65935313750E+02  0.50400001928E-02 0.  1.
    10030    2    1    2    0    0  0.00000000000E+00  0.00000000000E+00  0.12988466301E+04  0.14307172574E+04  0.59995775029E+03 0.  0.
        4    1    3    3  502    0 -0.22117106501E+03  0.18487138662E+03  0.84739110516E+03  0.89507953144E+03  0.12699999809E+01 0. -1.
       -4    1    3    3    0  502  0.22117106501E+03 -0.18487138662E+03  0.45145552490E+03  0.53563772594E+03  0.12699999809E+01 0.  1.
</event>
<event>
 5   0  0.2346281E-03  0.5999355E+03  0.7818609E-02  0.9905540E-01
        2   -1    0    0  501    0  0.00000000000E+00  0.00000000000E+00  0.13891375358E+04  0.13891375358E+04  0.25500000920E-02 0. -1.
       -2   -1    0    0    0  501  0.00000000000E+00  0.00000000000E+00 -0.64774466089E+02  0.64774466139E+02  0.25500000920E-02 0.  1.
    10030    2    1    2    0    0  0.00000000000E+00  0.00000000000E+00  0.13243630697E+04  0.14539120019E+04  0.59993547068E+03 0.  0.
        3    1    3    3  502    0 -0.17063410089E+03 -0.16471106655E+03  0.21706544160E+03  0.32150139653E+03  0.10100000352E+00 0. -1.
       -3    1    3    3    0  502  0.17063410089E+03  0.16471106655E+03  0.11072976281E+04  0.11324106054E+04  0.10100000352E+00 0.  1.
</event>
<event>
 5   0  0.1479385E-03  0.5985602E+03  0.7818609E-02  0.9908398E-01
       -1   -1    0    0    0  501  0.00000000000E+00  0.00000000000E+00  0.23924911917E+03  0.23924911923E+03  0.50400001928E-02 0.  1.
        1   -1    0    0  501    0  0.00000000000E+00  0.00000000000E+00 -0.37437366979E+03  0.37437366982E+03  0.50400001928E-02 0. -1.
    10030    2    1    2    0    0  0.00000000000E+00  0.00000000000E+00 -0.13512455062E+03  0.61362278905E+03  0.59856017497E+03 0.  0.
        3    1    3    3  502    0 -0.18296064545E+03  0.19718557689E+03  0.66932974956E+02  0.27719448561E+03  0.10100000352E+00 0.  1.
       -3    1    3    3    0  502  0.18296064545E+03 -0.19718557689E+03 -0.20205752557E+03  0.33642830344E+03  0.10100000352E+00 0. -1.
</event>
<event>
 5   0  0.1479385E-03  0.6003096E+03  0.7818609E-02  0.9904764E-01
       -1   -1    0    0    0  501  0.00000000000E+00  0.00000000000E+00  0.80809173718E+02  0.80809173875E+02  0.50400001928E-02 0. -1.
        1   -1    0    0  501    0  0.00000000000E+00  0.00000000000E+00 -0.11148844536E+04  0.11148844536E+04  0.50400001928E-02 0.  1.
    10030    2    1    2    0    0  0.00000000000E+00  0.00000000000E+00 -0.10340752799E+04  0.11956936275E+04  0.60030955877E+03 0.  0.
        3    1    3    3  502    0  0.40501858183E+02 -0.53947102102E+02  0.65514552275E+02  0.94036466875E+02  0.10100000352E+00 0. -1.
       -3    1    3    3    0  502 -0.40501858183E+02  0.53947102102E+02 -0.10995898322E+04  0.11016571606E+04  0.10100000352E+00 0.  1.
</event>
<event>
 5   0  0.1418763E-03  0.5997940E+03  0.7818609E-02  0.9905834E-01
        1   -1    0    0  501    0  0.00000000000E+00  0.00000000000E+00  0.12619853752E+04  0.12619853752E+04  0.50400001928E-02 0. -1.
       -1   -1    0    0    0  501  0.00000000000E+00  0.00000000000E+00 -0.71267227154E+02  0.71267227332E+02  0.50400001928E-02 0.  1.
    10030    2    1    2    0    0  0.00000000000E+00  0.00000000000E+00  0.11907181480E+04  0.13332526025E+04  0.59979395970E+03 0.  0.
        5    1    3    3  502    0 -0.18747486966E+03 -0.15619439076E+03  0.98275165140E+03  0.10126037788E+04  0.46999998093E+01 0. -1.
       -5    1    3    3    0  502  0.18747486966E+03  0.15619439076E+03  0.20796649664E+03  0.32064882376E+03  0.46999998093E+01 0.  1.
</event>
<event>
 5   0  0.2313168E-03  0.6000870E+03  0.7818609E-02  0.9905225E-01
       -2   -1    0    0    0  501  0.00000000000E+00  0.00000000000E+00  0.99079986293E+02  0.99079986326E+02  0.25500000920E-02 0.  1.
        2   -1    0    0  501    0  0.00000000000E+00  0.00000000000E+00 -0.90862057872E+03  0.90862057872E+03  0.25500000920E-02 0. -1.
    10030    2    1    2    0    0  0.00000000000E+00  0.00000000000E+00 -0.80954059243E+03  0.10077005650E+04  0.60008704203E+03 0.  0.
        2    1    3    3  502    0 -0.27677801748E+03  0.88653829093E+02 -0.27954968457E+03  0.40325376442E+03  0.25500000920E-02 0. -1.
       -2    1    3    3    0  502  0.27677801748E+03 -0.88653829093E+02 -0.52999090786E+03  0.60444680063E+03  0.25500000920E-02 0.  1.
</event>
<event>
 5   0  0.2406307E-03  0.5999939E+03  0.7818609E-02  0.9905419E-01
        2   -1    0    0  501    0  0.00000000000E+00  0.00000000000E+00  0.48329000331E+03  0.48329000332E+03  0.25500000920E-02 0.  1.
       -2   -1    0    0    0  501  0.00000000000E+00  0.00000000000E+00 -0.18621980602E+03  0.18621980604E+03  0.25500000920E-02 0. -1.
    10030    2    1    2    0    0  0.00000000000E+00  0.00000000000E+00  0.29707019730E+03  0.66950980936E+03  0.59999390222E+03 0.  0.
        5    1    3    3  502    0 -0.77092179983E+02 -0.17812732537E+03 -0.10666193282E+03  0.22152066759E+03  0.46999998093E+01 0. -1.
       -5    1    3    3    0  502  0.77092179983E+02  0.17812732537E+03  0.40373213012E+03  0.44798914177E+03  0.46999998093E+01 0.  1.
</event>
<event>
 5   0  0.1392854E-03  0.6002043E+03  0.7818609E-02  0.9904982E-01
       -1   -1    0    0    0  501  0.00000000000E+00  0.00000000000E+00  0.15443633218E+03  0.15443633227E+03  0.50400001928E-02 0. -1.
        1   -1    0    0  501    0  0.00000000000E+00  0.00000000000E+00 -0.58316128776E+03  0.58316128778E+03  0.50400001928E-02 0.  1.
    10030    2    1    2    0    0  0.00000000000E+00  0.00000000000E+00 -0.42872495558E+03  0.73759762005E+03  0.60020426654E+03 0.  0.
        4    1    3    3  502    0  0.18397925926E+03  0.12715410829E+03 -0.46027718571E+03  0.51173551340E+03  0.12699999809E+01 0.  1.
       -4    1    3    3    0  502 -0.18397925926E+03 -0.12715410829E+03  0.31552230135E+02  0.22586210665E+03  0.12699999809E+01 0. -1.
</event>
<event>
 5   0  0.2324616E-03  0.5984899E+03  0.7818609E-02  0.9908544E-01
       -2   -1    0    0    0  501  0.00000000000E+00  0.00000000000E+00  0.23956433602E+03  0.23956433604E+03  0.25500000920E-02 0. -1.
        2   -1    0    0  501    0  0.00000000000E+00  0.00000000000E+00 -0.37379329566E+03  0.37379329567E+03  0.25500000920E-02 0.  1.
    10030    2    1    2    0    0  0.00000000000E+00  0.00000000000E+00 -0.13422895963E+03  0.61335763170E+03  0.59848990866E+03 0.  0.
        4    1    3    3  502    0 -0.12045193834E+03 -0.24407489387E+03  0.60331981906E+02  0.27878806324E+03  0.12699999809E+01 0. -1.
       -4    1    3    3    0  502  0.12045193834E+03  0.24407489387E+03 -0.19456094154E+03  0.33456956846E+03  0.12699999809E+01 0.  1.
</event>
<event>
 5   0  0.1418763E-03  0.5999498E+03  0.7818609E-02  0.9905510E-01
       -1   -1    0    0    0  501  0.00000000000E+00  0.00000000000E+00  0.29119524028E+03  0.29119524032E+03  0.50400001928E-02 0.  1.
        1   -1    0    0  501    0  0.00000000000E+00  0.00000000000E+00 -0.30901923135E+03  0.30901923139E+03  0.50400001928E-02 0. -1.
    10030    2    1    2    0    0  0.00000000000E+00  0.00000000000E+00 -0.17823991071E+02  0.60021447171E+03  0.59994976239E+03 0.  0.
        5    1    3    3  502    0 -0.21956451123E+02  0.23286296352E+03 -0.19675957091E+03  0.30568556437E+03  0.46999998093E+01 0. -1.
       -5    1    3    3    0  502  0.21956451123E+02 -0.23286296352E+03  0.17893557984E+03  0.29452890733E+03  0.46999998093E+01 0.  1.
</event>
<event>
 5   0  0.2313168E-03  0.5997942E+03  0.7818609E-02  0.9905833E-01
       -2   -1    0    0    0  501  0.00000000000E+00  0.00000000000E+00  0.10939038425E+03  0.10939038428E+03  0.25500000920E-02 0. -1.
        2   -1    0    0  501    0  0.00000000000E+00  0.00000000000E+00 -0.82217721968E+03  0.82217721968E+03  0.25500000920E-02 0.  1.
    10030    2    1    2    0    0  0.00000000000E+00  0.00000000000E+00 -0.71278683543E+03  0.93156760396E+03  0.59979423803E+03 0.  0.
        2    1    3    3  502    0 -0.92117856599E+02  0.17229794596E+03 -0.70976725545E+03  0.73616699097E+03  0.25500000920E-02 0.  1.
       -2    1    3    3    0  502  0.92117856599E+02 -0.17229794596E+03 -0.30195799882E+01  0.19540061299E+03  0.25500000920E-02 0. -1.
</event>
<event>
 5   0  0.2346281E-03  0.6003093E+03  0.7818609E-02  0.9904765E-01
       -2   -1    0    0    0  501  0.00000000000E+00  0.00000000000E+00  0.81852723929E+02  0.81852723968E+02  0.25500000920E-02 0.  1.
        2   -1    0    0  501    0  0.00000000000E+00  0.00000000000E+00 -0.11006696205E+04  0.11006696205E+04  0.25500000920E-02 0. -1.
    10030    2    1    2    0    0  0.00000000000E+00  0.00000000000E+00 -0.10188168966E+04  0.11825223445E+04  0.60030927566E+03 0.  0.
        3    1    3    3  502    0 -0.29635980738E+03  0.46444698652E+02 -0.52974198636E+03  0.60877978595E+03  0.10100000352E+00 0. -1.
       -3    1    3    3    0  502  0.29635980738E+03 -0.46444698652E+02 -0.48907491025E+03  0.57374255856E+03  0.10100000352E+00 0.  1.
</event>
<event>
 5   0  0.1416315E-03  0.6001436E+03  0.7818609E-02  0.9905108E-01
       -1   -1    0    0    0  501  0.00000000000E+00  0.00000000000E+00  0.14015876320E+04  0.14015876320E+04  0.50400001928E-02 0.  1.
        1   -1    0    0  501    0  0.00000000000E+00  0.00000000000E+00 -0.64243627047E+02  0.64243627245E+02  0.50400001928E-02 0. -1.
    10030    2    1    2    0    0  0.00000000000E+00  0.00000000000E+00  0.13373440050E+04  0.14658312593E+04  0.60014356035E+03 0.  0.
        2    1    3    3  502    0 -0.17570572392E+03 -0.17907079066E+03  0.10707842635E+04  0.10997807910E+04  0.25500000920E-02 0.  1.
       -2    1    3    3    0  502  0.17570572392E+03  0.17907079066E+03  0.26655974151E+03  0.36605046822E+03  0.25500000920E-02 0. -1.
</event>
<event>
 5   0  0.1418763E-03  0.5996665E+03  0.7818609E-02  0.9906098E-01
        1   -1    0    0  501    0  0.00000000000E+00  0.00000000000E+00  0.22270141608E+03  0.22270141614E+03  0.50400001928E-02 0. -1.
       -1   -1    0    0    0  501  0.00000000000E+00  0.00000000000E+00 -0.40367935761E+03  0.40367935764E+03  0.50400001928E-02 0.  1.
    10030    2    1    2    0    0  0.00000000000E+00  0.00000000000E+00 -0.18097794152E+03  0.62638077378E+03  0.59966645599E+03 0.  0.
        5    1    3    3  502    0  0.18802544337E+03  0.82018419593E+02  0.13787641777E+03  0.24720959747E+03  0.46999998093E+01 0. -1.
       -5    1    3    3    0  502 -0.18802544337E+03 -0.82018419593E+02 -0.31885435929E+03  0.37917117631E+03  0.46999998093E+01 0.  1.
</event>
<event>
 5   0  0.2346281E-03  0.6002751E+03  0.7818609E-02  0.9904836E-01
        2   -1    0    0  501    0  0.00000000000E+00  0.00000000000E+00  0.84423060829E+03  0.84423060829E+03  0.25500000920E-02 0. -1.
       -2   -1    0    0    0  501  0.00000000000E+00  0.00000000000E+00 -0.10670370718E+03  0.10670370721E+03  0.25500000920E-02 0.  1.
    10030    2    1    2    0    0  0.00000000000E+00  0.00000000000E+00  0.73752690110E+03  0.95093431551E+03  0.60027505575E+03 0.  0.
        3    1    3    3  502    0  0.19047674773E+03 -0.20725741411E+03  0.20378585169E+03  0.34751361221E+03  0.10100000352E+00 0.  1.
       -3    1    3    3    0  502 -0.19047674773E+03  0.20725741411E+03  0.53374104942E+03  0.60342070329E+03  0.10100000352E+00 0. -1.
</event>
<event>
 5   0  0.2346281E-03  0.6001627E+03  0.7818609E-02  0.9905069E-01
       -2   -1    0    0    0  501  0.00000000000E+00  0.00000000000E+00  0.19567725391E+03  0.19567725393E+03  0.25500000920E-02 0.  1.
        2   -1    0    0  501    0  0.00000000000E+00  0.00000000000E+00 -0.46019044326E+03  0.46019044327E+03  0.25500000920E-02 0. -1.
    10030    2    1    2    0    0  0.00000000000E+00  0.00000000000E+00 -0.26451318935E+03  0.65586769720E+03  0.60016265203E+03 0.  0.
        3    1    3    3  502    0  0.14618450272E+03 -0.96908776763E+01 -0.41845140377E+03  0.44335697746E+03  0.10100000352E+00 0. -1.
       -3    1    3    3    0  502 -0.14618450272E+03  0.96908776763E+01  0.15393821442E+03  0.21251071974E+03  0.10100000352E+00 0.  1.
</event>
<event>
 5   0  0.2313168E-03  0.5994990E+03  0.7818609E-02  0.9906446E-01
       -2   -1    0    0    0  501  0.00000000000E+00  0.00000000000E+00  0.95351254324E+02  0.95351254358E+02  0.25500000920E-02 0. -1.
        2   -1    0    0  501    0  0.00000000000E+00  0.00000000000E+00 -0.94230274207E+03  0.94230274207E+03  0.25500000920E-02 0.  1.
    10030    2    1    2    0    0  0.00000000000E+00  0.00000000000E+00 -0.84695148775E+03  0.10376539964E+04  0.59949895222E+03 0.  0.
        2    1    3    3  502    0 -0.29390332459E+02  0.54576494393E+02 -0.93108782641E+03  0.93314893017E+03  0.25500000920E-02 0.  1.
       -2    1    3    3    0  502  0.29390332459E+02 -0.54576494393E+02  0.84136338668E+02  0.10450506626E+03  0.25500000920E-02 0. -1.
</event>
<event>
 5   0  0.1423430E-03  0.5997404E+03  0.7818609E-02  0.9905945E-01
       -1   -1    0    0    0  501  0.00000000000E+00  0.00000000000E+00  0.11746109492E+03  0.11746109503E+03  0.50400001928E-02 0.  1.
        1   -1    0    0  501    0  0.00000000000E+00  0.00000000000E+00 -0.76554834571E+03  0.76554834573E+03  0.50400001928E-02 0. -1.
    10030    2    1    2    0    0  0.00000000000E+00  0.00000000000E+00 -0.64808725079E+03  0.88300944076E+03  0.59974043371E+03 0.  0.
        1    1    3    3  502    0 -0.66134640328E+02  0.28067686459E+03 -0.20291142963E+03  0.35259940622E+03  0.50400001928E-02 0.  1.
       -1    1    3    3    0  502  0.66134640328E+02 -0.28067686459E+03 -0.44517582116E+03  0.53041003454E+03  0.50400001928E-02 0. -1.
</event>
<event>
 5   0  0.2324616E-03  0.5999943E+03  0.7818609E-02  0.9905418E-01
       -2   -1    0    0    0  501  0.00000000000E+00  0.00000000000E+00  0.35220526196E+03  0.35220526197E+03  0.25500000920E-02 0.  1.
        2   -1    0    0  501    0  0.00000000000E+00  0.00000000000E+00 -0.25552793786E+03  0.25552793787E+03  0.25500000920E-02 0. -1.
    10030    2    1    2    0    0  0.00000000000E+00  0.00000000000E+00  0.96677324100E+02  0.60773319984E+03  0.59999428097E+03 0.  0.
        4    1    3    3  502    0  0.10715922682E+03  0.27113268632E+03  0.11996595797E+03  0.31526096723E+03  0.12699999809E+01 0.  1.
       -4    1    3    3    0  502 -0.10715922682E+03 -0.27113268632E+03 -0.23288633874E+02  0.29247223262E+03  0.12699999809E+01 0. -1.
</event>
<event>
 5   0  0.2346281E-03  0.5980783E+03  0.7818609E-02  0.9909401E-01
       -2   -1    0    0    0  501  0.00000000000E+00  0.00000000000E+00  0.10425742305E+03  0.10425742308E+03  0.25500000920E-02 0. -1.
        2   -1    0    0  501    0  0.00000000000E+00  0.00000000000E+00 -0.85772693484E+03  0.85772693484E+03  0.25500000920E-02 0.  1.
    10030    2    1    2    0    0  0.00000000000E+00  0.00000000000E+00 -0.75346951179E+03  0.96198435793E+03  0.59807825550E+03 0.  0.
        3    1    3    3  502    0  0.44433742580E+02  0.97161990544E+02 -0.82598049513E+03  0.83286169225E+03  0.10100000352E+00 0.  1.
       -3    1    3    3    0  502 -0.44433742580E+02 -0.97161990544E+02  0.72510983339E+02  0.12912266568E+03  0.10100000352E+00 0. -1.
</event>
<event>
 5   0  0.9496750E-04  0.6000423E+03  0.7818609E-02  0.9905318E-01
       -4   -1    0    0    0  501  0.00000000000E+00  0.00000000000E+00  0.33561847614E+03  0.33562087901E+03  0.12699999809E+01 0.  1.
        4   -1    0    0  501    0  0.00000000000E+00  0.00000000000E+00 -0.26819458384E+03  0.26819759078E+03  0.12699999809E+01 0. -1.
    10030    2    1    2    0    0  0.00000000000E+00  0.00000000000E+00  0.67423892302E+02  0.60381846978E+03  0.60004230118E+03 0.  0.
        3    1    3    3  502    0 -0.27002990438E+03  0.13008714952E+03  0.20443183064E+02  0.30042761136E+03  0.10100000352E+00 0. -1.
       -3    1    3    3    0  502  0.27002990438E+03 -0.13008714952E+03  0.46980709238E+02  0.30339085842E+03  0.10100000352E+00 0.  1.
</event>
<event>
 5   0  0.1392854E-03  0.6000737E+03  0.7818609E-02  0.9905253E-01
       -1   -1    0    0    0  501  0.00000000000E+00  0.00000000000E+00  0.13071372485E+03  0.13071372495E+03  0.50400001928E-02 0.  1.
        1   -1    0    0  501    0  0.00000000000E+00  0.00000000000E+00 -0.68869668849E+03  0.68869668851E+03  0.50400001928E-02 0. -1.
    10030    2    1    2    0    0  0.00000000000E+00  0.00000000000E+00 -0.55798296364E+03  0.81941041345E+03  0.60007369378E+03 0.  0.
        4    1    3    3  502    0  0.98285028403E+02 -0.22939748294E+03 -0.50641183598E+03  0.56456860744E+03  0.12699999809E+01 0. -1.
       -4    1    3    3    0  502 -0.98285028403E+02  0.22939748294E+03 -0.51571127656E+02  0.25484180602E+03  0.12699999809E+01 0.  1.
</event>
<event>
 5   0  0.2421210E-03  0.5999846E+03  0.7818609E-02  0.9905438E-01
        2   -1    0    0  501    0  0.00000000000E+00  0.00000000000E+00  0.15805366091E+03  0.15805366093E+03  0.25500000920E-02 0.  1.
       -2   -1    0    0    0  501  0.00000000000E+00  0.00000000000E+00 -0.56939768836E+03  0.56939768836E+03  0.25500000920E-02 0. -1.
    10030    2    1    2    0    0  0.00000000000E+00  0.00000000000E+00 -0.41134402745E+03  0.72745134929E+03  0.59998463036E+03 0.  0.
        1    1    3    3  502    0 -0.21191288552E+03  0.18541671613E+03 -0.33114131109E+03  0.43467343789E+03  0.50400001928E-02 0. -1.
       -1    1    3    3    0  502  0.21191288552E+03 -0.18541671613E+03 -0.80202716353E+02  0.29277791140E+03  0.50400001928E-02 0.  1.
</event>
<event>
 5   0  0.1418763E-03  0.6000310E+03  0.7818609E-02  0.9905342E-01
        1   -1    0    0  501    0  0.00000000000E+00  0.00000000000E+00  0.59378758954E+03  0.59378758956E+03  0.50400001928E-02 0. -1.
       -1   -1    0    0    0  501  0.00000000000E+00  0.00000000000E+00 -0.15158499212E+03  0.15158499220E+03  0.50400001928E-02 0.  1.
    10030    2    1    2    0    0  0.00000000000E+00  0.00000000000E+00  0.44220259742E+03  0.74537258176E+03  0.60003095627E+03 0.  0.
        5    1    3    3  502    0 -0.12040402785E+03 -0.26632130181E+03  0.13718883251E+03  0.32290405926E+03  0.46999998093E+01 0. -1.
       -5    1    3    3    0  502  0.12040402785E+03  0.26632130181E+03  0.30501376490E+03  0.42246852250E+03  0.46999998093E+01 0.  1.
</event>
<event>
 5   0  0.1392854E-03  0.5992576E+03  0.7818609E-02  0.9906948E-01
       -1   -1    0    0    0  501  0.00000000000E+00  0.00000000000E+00  0.35179003019E+03  0.35179003022E+03  0.50400001928E-02 0.  1.
        1   -1    0    0  501    0  0.00000000000E+00  0.00000000000E+00 -0.25520167638E+03  0.25520167643E+03  0.50400001928E-02 0. -1.
    10030    2    1    2    0    0  0.00000000000E+00  0.00000000000E+00  0.96588353808E+02  0.60699170665E+03  0.59925755886E+03 0.  0.
        4    1    3    3  502    0 -0.16055900612E+03 -0.21487716506E+03  0.18352532071E+03  0.32501468698E+03  0.12699999809E+01 0.  1.
       -4    1    3    3    0  502  0.16055900612E+03  0.21487716506E+03 -0.86936966898E+02  0.28197701967E+03  0.12699999809E+01 0. -1.
</event>
<event>
 5   0  0.2346281E-03  0.5988663E+03  0.7818609E-02  0.9907761E-01
        2   -1    0    0  501    0  0.00000000000E+00  0.00000000000E+00  0.20858288569E+03  0.20858288571E+03  0.25500000920E-02 0.  1.
       -2   -1    0    0    0  501  0.00000000000E+00  0.00000000000E+00 -0.42985412666E+03  0.42985412667E+03  0.25500000920E-02 0. -1.
    10030    2    1    2    0    0  0.00000000000E+00  0.00000000000E+00 -0.22127124097E+03  0.63843701237E+03  0.59886630953E+03 0.  0.
        3    1    3    3  502    0  0.70777477748E+02  0.15083481373E+03  0.15460017624E+03  0.22729236037E+03  0.10100000352E+00 0.  1.
       -3    1    3    3    0  502 -0.70777477748E+02 -0.15083481373E+03 -0.37587141721E+03  0.41114465200E+03  0.10100000352E+00 0. -1.
</event>
<event>
 5   0  0.1392854E-03  0.5998189E+03  0.7818609E-02  0.9905782E-01
        1   -1    0    0  501    0  0.00000000000E+00  0.00000000000E+00  0.53728276816E+03  0.53728276819E+03  0.50400001928E-02 0. -1.
       -1   -1    0    0    0  501  0.00000000000E+00  0.00000000000E+00 -0.16740847348E+03  0.16740847356E+03  0.50400001928E-02 0.  1.
    10030    2    1    2    0    0  0.00000000000E+00  0.00000000000E+00  0.36987429468E+03  0.70469124174E+03  0.59981893295E+03 0.  0.
        4    1    3    3  502    0 -0.16851428770E+03 -0.26795078022E+02 -0.10482000388E+03  0.20025955028E+03  0.12699999809E+01 0.  1.
       -4    1    3    3    0  502  0.16851428770E+03  0.26795078022E+02  0.47469429856E+03  0.50443169146E+03  0.12699999809E+01 0. -1.
</event>
<event>
 5   0  0.1423430E-03  0.5999897E+03  0.7818609E-02  0.9905427E-01
       -1   -1    0    0    0  501  0.00000000000E+00  0.00000000000E+00  0.46687848311E+03  0.46687848314E+03  0.50400001928E-02 0. -1.
        1   -1    0    0  501    0  0.00000000000E+00  0.00000000000E+00 -0.19276300630E+03  0.19276300636E+03  0.50400001928E-02 0.  1.
    10030    2    1    2    0    0  0.00000000000E+00  0.00000000000E+00  0.27411547682E+03  0.65964148950E+03  0.59998966662E+03 0.  0.
        1    1    3    3  502    0  0.18993957434E+02  0.23991806394E+03  0.33395994656E+03  0.41164389192E+03  0.50400001928E-02 0. -1.
       -1    1    3    3    0  502 -0.18993957434E+02 -0.23991806394E+03 -0.59844469741E+02  0.24799759759E+03  0.50400001928E-02 0.  1.
</event>
<event>
 5   0  0.1416315E-03  0.6019354E+03  0.7818609E-02  0.9901399E-01
       -1   -1    0    0    0  501  0.00000000000E+00  0.00000000000E+00  0.40847847988E+03  0.40847847991E+03  0.50400001928E-02 0. -1.
        1   -1    0    0  501    0  0.00000000000E+00  0.00000000000E+00 -0.22175355884E+03  0.22175355889E+03  0.50400001928E-02 0.  1.
    10030    2    1    2    0    0  0.00000000000E+00  0.00000000000E+00  0.18672492105E+03  0.63023203881E+03  0.60193540068E+03 0.  0.
        2    1    3    3  502    0 -0.84946999638E+02  0.53120258759E+02 -0.20378132716E+03  0.22707836521E+03  0.25500000920E-02 0.  1.
       -2    1    3    3    0  502  0.84946999638E+02 -0.53120258759E+02  0.39050624821E+03  0.40315367360E+03  0.25500000920E-02 0. -1.
</event>
<event>
 5   0  0.2421210E-03  0.5999569E+03  0.7818609E-02  0.9905495E-01
       -2   -1    0    0    0  501  0.00000000000E+00  0.00000000000E+00  0.11015076329E+03  0.11015076332E+03  0.25500000920E-02 0.  1.
        2   -1    0    0  501    0  0.00000000000E+00  0.00000000000E+00 -0.81694461154E+03  0.81694461154E+03  0.25500000920E-02 0. -1.
    10030    2    1    2    0    0  0.00000000000E+00  0.00000000000E+00 -0.70679384825E+03  0.92709537486E+03  0.59995690692E+03 0.  0.
        1    1    3    3  502    0 -0.23008280737E+03  0.13745647334E+03 -0.14518825790E+03  0.30481471514E+03  0.50400001928E-02 0.  1.
       -1    1    3    3    0  502  0.23008280737E+03 -0.13745647334E+03 -0.56160559036E+03  0.62228065972E+03  0.50400001928E-02 0. -1.
</event>
<event>
 5   0  0.1418763E-03  0.6000547E+03  0.7818609E-02  0.9905293E-01
        1   -1    0    0  501    0  0.00000000000E+00  0.00000000000E+00  0.48729279351E+03  0.48729279353E+03  0.50400001928E-02 0.  1.
       -1   -1    0    0    0  501  0.00000000000E+00  0.00000000000E+00 -0.18472757149E+03  0.18472757156E+03  0.50400001928E-02 0. -1.
    10030    2    1    2    0    0  0.00000000000E+00  0.00000000000E+00  0.30256522202E+03  0.67202036509E+03  0.60005471211E+03 0.  0.
        5    1    3    3  502    0 -0.50577261894E+02  0.17667195434E+03 -0.11426946082E+03  0.21645008327E+03  0.46999998093E+01 0. -1.
       -5    1    3    3    0  502  0.50577261894E+02 -0.17667195434E+03  0.41683468283E+03  0.45557028183E+03  0.46999998093E+01 0.  1.
</event>
<event>
 5   0  0.2346281E-03  0.6000259E+03  0.7818609E-02  0.9905352E-01
        2   -1    0    0  501    0  0.00000000000E+00  0.00000000000E+00  0.84449703864E+03  0.84449703865E+03  0.25500000920E-02 0. -1.
       -2   -1    0    0    0  501  0.00000000000E+00  0.00000000000E+00 -0.10658149440E+03  0.10658149443E+03  0.25500000920E-02 0.  1.
    10030    2    1    2    0    0  0.00000000000E+00  0.00000000000E+00  0.73791554424E+03  0.95107853308E+03  0.60002585415E+03 0.  0.
        3    1    3    3  502    0  0.15720355228E+02  0.20878727712E+03  0.28377687807E+02  0.21129259339E+03  0.10100000352E+00 0.  1.
       -3    1    3    3    0  502 -0.15720355228E+02 -0.20878727712E+03  0.70953785643E+03  0.73978593969E+03  0.10100000352E+00 0. -1.
</event>
<event>
 5   0  0.2313168E-03  0.5999542E+03  0.7818609E-02  0.9905501E-01
        2   -1    0    0  501    0  0.00000000000E+00  0.00000000000E+00  0.28111663980E+03  0.28111663981E+03  0.25500000920E-02 0. -1.
       -2   -1    0    0    0  501  0.00000000000E+00  0.00000000000E+00 -0.32010290580E+03  0.32010290581E+03  0.25500000920E-02 0.  1.
    10030    2    1    2    0    0  0.00000000000E+00  0.00000000000E+00 -0.38986265997E+02  0.60121954562E+03  0.59995417584E+03 0.  0.
        2    1    3    3  502    0  0.18193046264E+03  0.15711145697E+03  0.16033883046E+03  0.28894851394E+03  0.25500000920E-02 0. -1.
       -2    1    3    3    0  502 -0.18193046264E+03 -0.15711145697E+03 -0.19932509646E+03  0.31227103169E+03  0.25500000920E-02 0.  1.
</event>
<event>
 5   0  0.2324616E-03  0.5998139E+03  0.7818609E-02  0.9905792E-01
       -2   -1    0    0    0  501  0.00000000000E+00  0.00000000000E+00  0.18830772985E+03  0.18830772986E+03  0.25500000920E-02 0. -1.
        2   -1    0    0  501    0  0.00000000000E+00  0.00000000000E+00 -0.47764462735E+03  0.47764462735E+03  0.25500000920E-02 0.  1.
    10030    2    1    2    0    0  0.00000000000E+00  0.00000000000E+00 -0.28933689750E+03  0.66595235722E+03  0.59981388932E+03 0.  0.
        4    1    3    3  502    0 -0.72925557825E+02 -0.57939671184E+02 -0.46117658516E+03  0.47048974280E+03  0.12699999809E+01 0.  1.
       -4    1    3    3    0  502  0.72925557825E+02  0.57939671184E+02  0.17183968766E+03  0.19546261442E+03  0.12699999809E+01 0. -1.
</event>
<event>
 5   0  0.2346281E-03  0.6005152E+03  0.7818609E-02  0.9904338E-01
       -2   -1    0    0    0  501  0.00000000000E+00  0.00000000000E+00  0.14029244094E+03  0.14029244096E+03  0.25500000920E-02 0. -1.
        2   -1    0    0  501    0  0.00000000000E+00  0.00000000000E+00 -0.64261918435E+03  0.64261918436E+03  0.25500000920E-02 0.  1.
    10030    2    1    2    0    0  0.00000000000E+00  0.00000000000E+00 -0.50232674342E+03  0.78291162532E+03  0.60051515877E+03 0.  0.
        3    1    3    3  502    0 -0.65741945931E+02 -0.26940137633E+03 -0.10106125944E+03  0.29514825661E+03  0.10100000352E+00 0. -1.
       -3    1    3    3    0  502  0.65741945931E+02  0.26940137633E+03 -0.40126548398E+03  0.48776336871E+03  0.10100000352E+00 0.  1.
</event>
<event>
 5   0  0.1423430E-03  0.5996372E+03  0.7818609E-02  0.9906159E-01
        1   -1    0    0  501    0  0.00000000000E+00  0.00000000000E+00  0.66703483577E+03  0.66703483579E+03  0.50400001928E-02 0.  1.
       -1   -1    0    0    0  501  0.00000000000E+00  0.00000000000E+00 -0.13476236650E+03  0.13476236660E+03  0.50400001928E-02 0. -1.
    10030    2    1    2    0    0  0.00000000000E+00  0.00000000000E+00  0.53227246927E+03  0.80179720239E+03  0.59963720050E+03 0.  0.
        1    1    3    3  502    0 -0.15760372897E+03 -0.19170475953E+03  0.41188810610E+02  0.25156742308E+03  0.50400001928E-02 0. -1.
       -1    1    3    3    0  502  0.15760372897E+03  0.19170475953E+03  0.49108365866E+03  0.55022977931E+03  0.50400001928E-02 0.  1.
</event>
<event>
 5   0  0.1418763E-03  0.5999183E+03  0.7818609E-02  0.9905576E-01
       -1   -1    0    0    0  501  0.00000000000E+00  0.00000000000E+00  0.10007626506E+03  0.10007626519E+03  0.50400001928E-02 0. -1.
        1   -1    0    0  501    0  0.00000000000E+00  0.00000000000E+00 -0.89906933816E+03  0.89906933818E+03  0.50400001928E-02 0.  1.
    10030    2    1    2    0    0  0.00000000000E+00  0.00000000000E+00 -0.79899307310E+03  0.99914560337E+03  0.59991833266E+03 0.  0.
        5    1    3    3  502    0 -0.90142707868E+02 -0.16325796307E+03 -0.79070299256E+03  0.81241133838E+03  0.46999998093E+01 0.  1.
       -5    1    3    3    0  502  0.90142707868E+02  0.16325796307E+03 -0.82900805441E+01  0.18673426499E+03  0.46999998093E+01 0. -1.
</event>
<event>
 5   0  0.1418763E-03  0.6000549E+03  0.7818609E-02  0.9905292E-01
       -1   -1    0    0    0  501  0.00000000000E+00  0.00000000000E+00  0.25011200801E+03  0.25011200806E+03  0.50400001928E-02 0.  1.
        1   -1    0    0  501    0  0.00000000000E+00  0.00000000000E+00 -0.35990468861E+03  0.35990468864E+03  0.50400001928E-02 0. -1.
    10030    2    1    2    0    0  0.00000000000E+00  0.00000000000E+00 -0.10979268060E+03  0.61001669670E+03  0.60005494544E+03 0.  0.
        5    1    3    3  502    0  0.34255133199E+02 -0.19715684382E+03  0.17230931710E+03  0.26411517558E+03  0.46999998093E+01 0.  1.
       -5    1    3    3    0  502 -0.34255133199E+02  0.19715684382E+03 -0.28210199770E+03  0.34590152112E+03  0.46999998093E+01 0. -1.
</event>
<event>
 5   0  0.2324616E-03  0.6000233E+03  0.7818609E-02  0.9905358E-01
       -2   -1    0    0    0  501  0.00000000000E+00  0.00000000000E+00  0.19840411841E+03  0.19840411842E+03  0.25500000920E-02 0. -1.
        2   -1    0    0  501    0  0.00000000000E+00  0.00000000000E+00 -0.45365486104E+03  0.45365486105E+03  0.25500000920E-02 0.  1.
    10030    2    1    2    0    0  0.00000000000E+00  0.00000000000E+00 -0.25525074264E+03  0.65205897947E+03  0.60002330879E+03 0.  0.
        4    1    3    3  502    0  0.16295170887E+03 -0.82214994748E+02 -0.38637680789E+03  0.42731863446E+03  0.12699999809E+01 0.  1.
       -4    1    3    3    0  502 -0.16295170887E+03  0.82214994748E+02  0.13112606525E+03  0.22474034501E+03  0.12699999809E+01 0. -1.
</event>
<event>
 5   0  0.2313168E-03  0.5998075E+03  0.7818609E-02  0.9905806E-01
       -2   -1    0    0    0  501  0.00000000000E+00  0.00000000000E+00  0.41686283562E+02  0.41686283640E+02  0.25500000920E-02 0.  1.
        2   -1    0    0  501    0  0.00000000000E+00  0.00000000000E+00 -0.21575981089E+04  0.21575981089E+04  0.25500000920E-02 0. -1.
    10030    2    1    2    0    0  0.00000000000E+00  0.00000000000E+00 -0.21159118253E+04  0.21992843925E+04  0.59980745800E+03 0.  0.
        2    1    3    3  502    0  0.17680408004E+03 -0.10947912931E+03 -0.26561244369E+03  0.33733563809E+03  0.25500000920E-02 0.  1.
       -2    1    3    3    0  502 -0.17680408004E+03  0.10947912931E+03 -0.18502993816E+04  0.18619487545E+04  0.25500000920E-02 0. -1.
</event>
<event>
 5   0  0.1416315E-03  0.5999998E+03  0.7818609E-02  0.9905407E-01
       -1   -1    0    0    0  501  0.00000000000E+00  0.00000000000E+00  0.64251090317E+03  0.64251090319E+03  0.50400001928E-02 0. -1.
        1   -1    0    0  501    0  0.00000000000E+00  0.00000000000E+00 -0.14007533260E+03  0.14007533269E+03  0.50400001928E-02 0.  1.
    10030    2    1    2    0    0  0.00000000000E+00  0.00000000000E+00  0.50243557057E+03  0.78258623587E+03  0.59999976167E+03 0.  0.
        2    1    3    3  502    0  0.19731696912E+00 -0.21331147599E+03  0.52635661115E+03  0.56793759061E+03  0.25500000920E-02 0. -1.
       -2    1    3    3    0  502 -0.19731696912E+00  0.21331147599E+03 -0.23921040583E+02  0.21464864526E+03  0.25500000920E-02 0.  1.
</event>
<event>
 5   0  0.9496750E-04  0.6000694E+03  0.7818609E-02  0.9905262E-01
       -3   -1    0    0    0  501  0.00000000000E+00  0.00000000000E+00  0.32404984549E+03  0.32404986123E+03  0.10100000352E+00 0.  1.
        3   -1    0    0  501    0  0.00000000000E+00  0.00000000000E+00 -0.27779925292E+03  0.27779927128E+03  0.10100000352E+00 0. -1.
    10030    2    1    2    0    0  0.00000000000E+00  0.00000000000E+00  0.46250592575E+02  0.60184913251E+03  0.60006938014E+03 0.  0.
        5    1    3    3  502    0 -0.15239043630E+03 -0.12711640727E+02 -0.23573764907E+03  0.28103159977E+03  0.46999998093E+01 0. -1.
       -5    1    3    3    0  502  0.15239043630E+03  0.12711640727E+02  0.28198824164E+03  0.32081753273E+03  0.46999998093E+01 0.  1.
</event>
<event>
 5   0  0.9496750E-04  0.5999940E+03  0.7818609E-02  0.9905419E-01
        4   -1    0    0  501    0  0.00000000000E+00  0.00000000000E+00  0.11629464762E+03  0.11630158195E+03  0.12699999809E+01 0.  1.
       -4   -1    0    0    0  501  0.00000000000E+00  0.00000000000E+00 -0.77385026487E+03  0.77385130700E+03  0.12699999809E+01 0. -1.
    10030    2    1    2    0    0  0.00000000000E+00  0.00000000000E+00 -0.65755561726E+03  0.89015288895E+03  0.59999397990E+03 0.  0.
        4    1    3    3  502    0  0.21667477123E+03  0.20025040683E+03 -0.24821940489E+03  0.38556798076E+03  0.12699999809E+01 0.  1.
       -4    1    3    3    0  502 -0.21667477123E+03 -0.20025040683E+03 -0.40933621236E+03  0.50458490819E+03  0.12699999809E+01 0. -1.
</event>
<event>
 5   0  0.2421210E-03  0.5990200E+03  0.7818609E-02  0.9907441E-01
       -2   -1    0    0    0  501  0.00000000000E+00  0.00000000000E+00  0.17884559736E+03  0.17884559738E+03  0.25500000920E-02 0.  1.
        2   -1    0    0  501    0  0.00000000000E+00  0.00000000000E+00 -0.50158477402E+03  0.50158477402E+03  0.25500000920E-02 0. -1.
    10030    2    1    2    0    0  0.00000000000E+00  0.00000000000E+00 -0.32273917665E+03  0.68043037140E+03  0.59901996142E+03 0.  0.
        1    1    3    3  502    0  0.12984548893E+03 -0.26648297330E+03 -0.11273473482E+03  0.31714688476E+03  0.50400001928E-02 0. -1.
       -1    1    3    3    0  502 -0.12984548893E+03  0.26648297330E+03 -0.21000444183E+03  0.36328348664E+03  0.50400001928E-02 0.  1.
</event>
<event>
 5   0  0.1392854E-03  0.6012724E+03  0.7818609E-02  0.9902770E-01
       -1   -1    0    0    0  501  0.00000000000E+00  0.00000000000E+00  0.84142584628E+02  0.84142584779E+02  0.50400001928E-02 0.  1.
        1   -1    0    0  501    0  0.00000000000E+00  0.00000000000E+00 -0.10741542950E+04  0.10741542950E+04  0.50400001928E-02 0. -1.
    10030    2    1    2    0    0  0.00000000000E+00  0.00000000000E+00 -0.99001171034E+03  0.11582968798E+04  0.60127238008E+03 0.  0.
        4    1    3    3  502    0  0.18256090297E+03 -0.18327027561E+03 -0.19991896068E+03  0.32693375622E+03  0.12699999809E+01 0.  1.
       -4    1    3    3    0  502 -0.18256090297E+03  0.18327027561E+03 -0.79009274966E+03  0.83136312354E+03  0.12699999809E+01 0. -1.
</event>
<event>
 5   0  0.1418763E-03  0.5978505E+03  0.7818609E-02  0.9909876E-01
        1   -1    0    0  501    0  0.00000000000E+00  0.00000000000E+00  0.29394869265E+03  0.29394869270E+03  0.50400001928E-02 0.  1.
       -1   -1    0    0    0  501  0.00000000000E+00  0.00000000000E+00 -0.30398608301E+03  0.30398608305E+03  0.50400001928E-02 0. -1.
    10030    2    1    2    0    0  0.00000000000E+00  0.00000000000E+00 -0.10037390353E+02  0.59793477575E+03  0.59785052216E+03 0.  0.
        5    1    3    3  502    0 -0.14665489936E+03  0.11865925898E+03  0.22684698203E+03  0.29507511332E+03  0.46999998093E+01 0.  1.
       -5    1    3    3    0  502  0.14665489936E+03 -0.11865925898E+03 -0.23688437238E+03  0.30285966243E+03  0.46999998093E+01 0. -1.
</event>
<event>
 5   0  0.1423430E-03  0.5998022E+03  0.7818609E-02  0.9905816E-01
        1   -1    0    0  501    0  0.00000000000E+00  0.00000000000E+00  0.34735351045E+03  0.34735351049E+03  0.50400001928E-02 0.  1.
       -1   -1    0    0    0  501  0.00000000000E+00  0.00000000000E+00 -0.25893123329E+03  0.25893123333E+03  0.50400001928E-02 0. -1.
    10030    2    1    2    0    0  0.00000000000E+00  0.00000000000E+00  0.88422277168E+02  0.60628474382E+03  0.59980221031E+03 0.  0.
        1    1    3    3  502    0  0.36768845834E+02 -0.16584508516E+03 -0.20561207103E+03  0.26670745035E+03  0.50400001928E-02 0. -1.
       -1    1    3    3    0  502 -0.36768845834E+02  0.16584508516E+03  0.29403434820E+03  0.33957729347E+03  0.50400001928E-02 0.  1.
</event>
<event>
 5   0  0.1479385E-03  0.5996509E+03  0.7818609E-02  0.9906131E-01
       -1   -1    0    0    0  501  0.00000000000E+00  0.00000000000E+00  0.79927684433E+02  0.79927684592E+02  0.50400001928E-02 0. -1.
        1   -1    0    0  501    0  0.00000000000E+00  0.00000000000E+00 -0.11247080266E+04  0.11247080266E+04  0.50400001928E-02 0.  1.
    10030    2    1    2    0    0  0.00000000000E+00  0.00000000000E+00 -0.10447803422E+04  0.12046357112E+04  0.59965092623E+03 0.  0.
        3    1    3    3  502    0  0.27153759141E+03  0.76308493053E+02 -0.31811757343E+03  0.42515226729E+03  0.10100000352E+00 0. -1.
       -3    1    3    3    0  502 -0.27153759141E+03 -0.76308493053E+02 -0.72666276876E+03  0.77948344393E+03  0.10100000352E+00 0.  1.
</event>
<event>
 5   0  0.2346281E-03  0.5989975E+03  0.7818609E-02  0.9907488E-01
        2   -1    0    0  501    0  0.00000000000E+00  0.00000000000E+00  0.21703780496E+03  0.21703780498E+03  0.25500000920E-02 0.  1.
       -2   -1    0    0    0  501  0.00000000000E+00  0.00000000000E+00 -0.41328973290E+03  0.41328973291E+03  0.25500000920E-02 0. -1.
    10030    2    1    2    0    0  0.00000000000E+00  0.00000000000E+00 -0.19625192794E+03  0.63032753789E+03  0.59899748397E+03 0.  0.
        3    1    3    3  502    0  0.49899767102E+02  0.14646849038E+03 -0.36796859589E+03  0.39917903652E+03  0.10100000352E+00 0. -1.
       -3    1    3    3    0  502 -0.49899767102E+02 -0.14646849038E+03  0.17171666795E+03  0.23114850137E+03  0.10100000352E+00 0.  1.
</event>
<event>
 5   0  0.2421210E-03  0.6007620E+03  0.7818609E-02  0.9903826E-01
        2   -1    0    0  501    0  0.00000000000E+00  0.00000000000E+00  0.19315139942E+03  0.19315139944E+03  0.25500000920E-02 0.  1.
       -2   -1    0    0    0  501  0.00000000000E+00  0.00000000000E+00 -0.46714006064E+03  0.46714006064E+03  0.25500000920E-02 0. -1.
    10030    2    1    2    0    0  0.00000000000E+00  0.00000000000E+00 -0.27398866121E+03  0.66029146008E+03  0.60076203757E+03 0.  0.
        1    1    3    3  502    0 -0.12307617191E+03  0.34275631962E+02 -0.43578953012E+03  0.45413112383E+03  0.50400001928E-02 0. -1.
       -1    1    3    3    0  502  0.12307617191E+03 -0.34275631962E+02  0.16180086891E+03  0.20616033625E+03  0.50400001928E-02 0.  1.
</event>
<event>
 5   0  0.1418763E-03  0.5999567E+03  0.7818609E-02  0.9905496E-01
        1   -1    0    0  501    0  0.00000000000E+00  0.00000000000E+00  0.78614785336E+02  0.78614785498E+02  0.50400001928E-02 0. -1.
       -1   -1    0    0    0  501  0.00000000000E+00  0.00000000000E+00 -0.11446576676E+04  0.11446576676E+04  0.50400001928E-02 0.  1.
    10030    2    1    2    0    0  0.00000000000E+00  0.00000000000E+00 -0.10660428822E+04  0.12232724531E+04  0.59995672153E+03 0.  0.
        5    1    3    3  502    0 -0.17383236293E+03 -0.49526647222E+02 -0.44977233697E+02  0.18632128364E+03  0.46999998093E+01 0. -1.
       -5    1    3    3    0  502  0.17383236293E+03  0.49526647222E+02 -0.10210656485E+04  0.10369511695E+04  0.46999998093E+01 0.  1.
</event>
<event>
 5   0  0.2324616E-03  0.5998737E+03  0.7818609E-02  0.9905668E-01
       -2   -1    0    0    0  501  0.00000000000E+00  0.00000000000E+00  0.83834298459E+02  0.83834298498E+02  0.25500000920E-02 0. -1.
        2   -1    0    0  501    0  0.00000000000E+00  0.00000000000E+00 -0.10730945485E+04  0.10730945485E+04  0.25500000920E-02 0.  1.
    10030    2    1    2    0    0  0.00000000000E+00  0.00000000000E+00 -0.98926025002E+03  0.11569288470E+04  0.59987374897E+03 0.  0.
        4    1    3    3  502    0  0.40580824993E+02 -0.28608165606E+03 -0.64977321669E+03  0.71112331091E+03  0.12699999809E+01 0.  1.
       -4    1    3    3    0  502 -0.40580824993E+02  0.28608165606E+03 -0.33948703333E+03  0.44580553607E+03  0.12699999809E+01 0. -1.
</event>
<event>
 5   0  0.1416315E-03  0.5993519E+03  0.7818609E-02  0.9906752E-01
       -1   -1    0    0    0  501  0.00000000000E+00  0.00000000000E+00  0.37094521737E+03  0.37094521740E+03  0.50400001928E-02 0. -1.
        1   -1    0    0  501    0  0.00000000000E+00  0.00000000000E+00 -0.24209955880E+03  0.24209955885E+03  0.50400001928E-02 0.  1.
    10030    2    1    2    0    0  0.00000000000E+00  0.00000000000E+00  0.12884565857E+03  0.61304477625E+03  0.59935189493E+03 0.  0.
        2    1    3    3  502    0  0.13460365725E+03 -0.90396628633E+02 -0.19335870832E+03  0.25234358542E+03  0.25500000920E-02 0.  1.
       -2    1    3    3    0  502 -0.13460365725E+03  0.90396628633E+02  0.32220436690E+03  0.36070119083E+03  0.25500000920E-02 0. -1.
</event>
<event>
 5   0  0.2406307E-03  0.5992169E+03  0.7818609E-02  0.9907032E-01
       -2   -1    0    0    0  501  0.00000000000E+00  0.00000000000E+00  0.10941950885E+03  0.10941950888E+03  0.25500000920E-02 0.  1.
        2   -1    0    0  501    0  0.00000000000E+00  0.00000000000E+00 -0.82037678198E+03  0.82037678199E+03  0.25500000920E-02 0. -1.
    10030    2    1    2    0    0  0.00000000000E+00  0.00000000000E+00 -0.71095727313E+03  0.92979629086E+03  0.59921690420E+03 0.  0.
        5    1    3    3  502    0  0.10815733782E+03 -0.16461448899E+02  0.77255720097E+02  0.13401315350E+03  0.46999998093E+01 0.  1.
       -5    1    3    3    0  502 -0.10815733782E+03  0.16461448899E+02 -0.78821299323E+03  0.79578313737E+03  0.46999998093E+01 0. -1.
</event>
<event>
 5   0  0.2406307E-03  0.6002015E+03  0.7818609E-02  0.9904988E-01
       -2   -1    0    0    0  501  0.00000000000E+00  0.00000000000E+00  0.13339334161E+03  0.13339334163E+03  0.25500000920E-02 0.  1.
        2   -1    0    0  501    0  0.00000000000E+00  0.00000000000E+00 -0.67514968144E+03  0.67514968144E+03  0.25500000920E-02 0. -1.
    10030    2    1    2    0    0  0.00000000000E+00  0.00000000000E+00 -0.54175633983E+03  0.80854302307E+03  0.60020153983E+03 0.  0.
        5    1    3    3  502    0 -0.66656083757E+02  0.26904638181E+03 -0.42570544127E+03  0.50801200950E+03  0.46999998093E+01 0. -1.
       -5    1    3    3    0  502  0.66656083757E+02 -0.26904638181E+03 -0.11605089856E+03  0.30053101358E+03  0.46999998093E+01 0.  1.
</event>
<event>
 5   0  0.2346281E-03  0.5998003E+03  0.7818609E-02  0.9905820E-01
        2   -1    0    0  501    0  0.00000000000E+00  0.00000000000E+00  0.70006636969E+03  0.70006636970E+03  0.25500000920E-02 0.  1.
       -2   -1    0    0    0  501  0.00000000000E+00  0.00000000000E+00 -0.12847368567E+03  0.12847368569E+03  0.25500000920E-02 0. -1.
    10030    2    1    2    0    0  0.00000000000E+00  0.00000000000E+00  0.57159268403E+03  0.82854005539E+03  0.59980032257E+03 0.  0.
        3    1    3    3  502    0 -0.91730947344E+02  0.10622415145E+03 -0.80308205270E+02  0.16170205653E+03  0.10100000352E+00 0. -1.
       -3    1    3    3    0  502  0.91730947344E+02 -0.10622415145E+03  0.65190088930E+03  0.66683799886E+03  0.10100000352E+00 0.  1.
</event>
<event>
 5   0  0.2406307E-03  0.5999731E+03  0.7818609E-02  0.9905462E-01
       -2   -1    0    0    0  501  0.00000000000E+00  0.00000000000E+00  0.86507135575E+02  0.86507135612E+02  0.25500000920E-02 0. -1.
        2   -1    0    0  501    0  0.00000000000E+00  0.00000000000E+00 -0.10402832162E+04  0.10402832162E+04  0.25500000920E-02 0.  1.
    10030    2    1    2    0    0  0.00000000000E+00  0.00000000000E+00 -0.95377608058E+03  0.11267903518E+04  0.59997307019E+03 0.  0.
        5    1    3    3  502    0  0.43268509208E+02 -0.14004504186E+03 -0.96837190220E+03  0.97941360447E+03  0.46999998093E+01 0.  1.
       -5    1    3    3    0  502 -0.43268509208E+02  0.14004504186E+03  0.14595821623E+02  0.14737674730E+03  0.46999998093E+01 0. -1.
</event>
<event>
 5   0  0.2313168E-03  0.5996666E+03  0.7818609E-02  0.9906098E-01
       -2   -1    0    0    0  501  0.00000000000E+00  0.00000000000E+00  0.53528698592E+03  0.53528698592E+03  0.25500000920E-02 0.  1.
        2   -1    0    0  501    0  0.00000000000E+00  0.00000000000E+00 -0.16794732518E+03  0.16794732520E+03  0.25500000920E-02 0. -1.
    10030    2    1    2    0    0  0.00000000000E+00  0.00000000000E+00  0.36733966074E+03  0.70323431112E+03  0.59966663238E+03 0.  0.
        2    1    3    3  502    0  0.18570896845E+03 -0.99170684013E+02  0.43402975265E+03  0.48239451875E+03  0.25500000920E-02 0.  1.
       -2    1    3    3    0  502 -0.18570896845E+03  0.99170684013E+02 -0.66690091910E+02  0.22083979237E+03  0.25500000920E-02 0. -1.
</event>
<event>
 5   0  0.2406307E-03  0.6000029E+03  0.7818609E-02  0.9905400E-01
       -2   -1    0    0    0  501  0.00000000000E+00  0.00000000000E+00  0.15491633548E+03  0.15491633550E+03  0.25500000920E-02 0.  1.
        2   -1    0    0  501    0  0.00000000000E+00  0.00000000000E+00 -0.58096435361E+03  0.58096435362E+03  0.25500000920E-02 0. -1.
    10030    2    1    2    0    0  0.00000000000E+00  0.00000000000E+00 -0.42604801813E+03  0.73588068911E+03  0.60000289570E+03 0.  0.
        5    1    3    3  502    0 -0.22185042752E+03  0.20134771055E+03 -0.23122637216E+03  0.37847884738E+03  0.46999998093E+01 0. -1.
       -5    1    3    3    0  502  0.22185042752E+03 -0.20134771055E+03 -0.19482164598E+03  0.35740184173E+03  0.46999998093E+01 0.  1.
</event>
<event>
 5   0  0.2313168E-03  0.6002601E+03  0.7818609E-02  0.9904867E-01
       -2   -1    0    0    0  501  0.00000000000E+00  0.00000000000E+00  0.85519797563E+02  0.85519797601E+02  0.25500000920E-02 0.  1.
        2   -1    0    0  501    0  0.00000000000E+00  0.00000000000E+00 -0.10533003633E+04  0.10533003633E+04  0.25500000920E-02 0. -1.
    10030    2    1    2    0    0  0.00000000000E+00  0.00000000000E+00 -0.96778056577E+03  0.11388201609E+04  0.60026005654E+03 0.  0.
        2    1    3    3  502    0 -0.52322713712E+02  0.99820250292E+02 -0.10116298297E+04  0.10178883343E+04  0.25500000920E-02 0. -1.
       -2    1    3    3    0  502  0.52322713712E+02 -0.99820250292E+02  0.43849263942E+02  0.12093182664E+03  0.25500000920E-02 0.  1.
</event>
<event>
 5   0  0.2324616E-03  0.6001975E+03  0.7818609E-02  0.9904996E-01
        2   -1    0    0  501    0  0.00000000000E+00  0.00000000000E+00  0.54569777924E+03  0.54569777924E+03  0.25500000920E-02 0. -1.
       -2   -1    0    0    0  501  0.00000000000E+00  0.00000000000E+00 -0.16503504278E+03  0.16503504280E+03  0.25500000920E-02 0.  1.
    10030    2    1    2    0    0  0.00000000000E+00  0.00000000000E+00  0.38066273645E+03  0.71073282204E+03  0.60019748867E+03 0.  0.
        4    1    3    3  502    0 -0.28418680979E+03 -0.55818102341E+02  0.28342089339E+03  0.40522440587E+03  0.12699999809E+01 0. -1.
       -4    1    3    3    0  502  0.28418680979E+03  0.55818102341E+02  0.97241843064E+02  0.30550841617E+03  0.12699999809E+01 0.  1.
</event>
<event>
 5   0  0.2421210E-03  0.6000071E+03  0.7818609E-02  0.9905391E-01
        2   -1    0    0  501    0  0.00000000000E+00  0.00000000000E+00  0.12894944343E+04  0.12894944343E+04  0.25500000920E-02 0.  1.
       -2   -1    0    0    0  501  0.00000000000E+00  0.00000000000E+00 -0.69796446513E+02  0.69796446559E+02  0.25500000920E-02 0. -1.
    10030    2    1    2    0    0  0.00000000000E+00  0.00000000000E+00  0.12196979877E+04  0.13592908808E+04  0.60000709777E+03 0.  0.
        1    1    3    3  502    0  0.12788913665E+03  0.14199747365E+03  0.11337687442E+04  0.11497610531E+04  0.50400001928E-02 0.  1.
       -1    1    3    3    0  502 -0.12788913665E+03 -0.14199747365E+03  0.85929243545E+02  0.20952982775E+03  0.50400001928E-02 0. -1.
</event>
<event>
 5   0  0.1423430E-03  0.6004849E+03  0.7818609E-02  0.9904401E-01
        1   -1    0    0  501    0  0.00000000000E+00  0.00000000000E+00  0.51393976969E+03  0.51393976971E+03  0.50400001928E-02 0.  1.
       -1   -1    0    0    0  501  0.00000000000E+00  0.00000000000E+00 -0.17540096807E+03  0.17540096815E+03  0.50400001928E-02 0. -1.
    10030    2    1    2    0    0  0.00000000000E+00  0.00000000000E+00  0.33853880162E+03  0.68934073786E+03  0.60048491461E+03 0.  0.
        1    1    3    3  502    0  0.28662990421E+03 -0.70387436738E+02  0.23250637972E+03  0.37572637633E+03  0.50400001928E-02 0. -1.
       -1    1    3    3    0  502 -0.28662990421E+03  0.70387436738E+02  0.10603242190E+03  0.31361436153E+03  0.50400001928E-02 0.  1.
</event>
<event>
 5   0  0.1418763E-03  0.6015227E+03  0.7818609E-02  0.9902252E-01
       -1   -1    0    0    0  501  0.00000000000E+00  0.00000000000E+00  0.13132789835E+03  0.13132789844E+03  0.50400001928E-02 0.  1.
        1   -1    0    0  501    0  0.00000000000E+00  0.00000000000E+00 -0.68879043701E+03  0.68879043703E+03  0.50400001928E-02 0. -1.
    10030    2    1    2    0    0  0.00000000000E+00  0.00000000000E+00 -0.55746253866E+03  0.82011833547E+03  0.60152273620E+03 0.  0.
        5    1    3    3  502    0 -0.54384054808E+02  0.70579046516E+02 -0.67033035189E+03  0.67624248453E+03  0.46999998093E+01 0. -1.
       -5    1    3    3    0  502  0.54384054808E+02 -0.70579046516E+02  0.11286781322E+03  0.14387585094E+03  0.46999998093E+01 0.  1.
</event>
<event>
 5   0  0.1416315E-03  0.5997977E+03  0.7818609E-02  0.9905826E-01
       -1   -1    0    0    0  501  0.00000000000E+00  0.00000000000E+00  0.18400924907E+03  0.18400924914E+03  0.50400001928E-02 0. -1.
        1   -1    0    0  501    0  0.00000000000E+00  0.00000000000E+00 -0.48877612849E+03  0.48877612852E+03  0.50400001928E-02 0.  1.
    10030    2    1    2    0    0  0.00000000000E+00  0.00000000000E+00 -0.30476687942E+03  0.67278537765E+03  0.59979772723E+03 0.  0.
        2    1    3    3  502    0 -0.33040321187E+02 -0.15327341482E+03  0.13437148907E+03  0.20649479314E+03  0.25500000920E-02 0. -1.
       -2    1    3    3    0  502  0.33040321187E+02  0.15327341482E+03 -0.43913836849E+03  0.46629058451E+03  0.25500000920E-02 0.  1.
</event>
<event>
 5   0  0.1418763E-03  0.5994545E+03  0.7818609E-02  0.9906539E-01
        1   -1    0    0  501    0  0.00000000000E+00  0.00000000000E+00  0.42118303576E+03  0.42118303579E+03  0.50400001928E-02 0.  1.
       -1   -1    0    0    0  501  0.00000000000E+00  0.00000000000E+00 -0.21329542404E+03  0.21329542410E+03  0.50400001928E-02 0. -1.
    10030    2    1    2    0    0  0.00000000000E+00  0.00000000000E+00  0.20788761172E+03  0.63447845989E+03  0.59945446612E+03 0.  0.
        5    1    3    3  502    0 -0.22415188739E+02  0.19362332538E+03 -0.13700085800E+03  0.23829342817E+03  0.46999998093E+01 0. -1.
       -5    1    3    3    0  502  0.22415188739E+02 -0.19362332538E+03  0.34488846972E+03  0.39618503172E+03  0.46999998093E+01 0.  1.
</event>
<event>
 5   0  0.2421210E-03  0.5999617E+03  0.7818609E-02  0.9905486E-01
        2   -1    0    0  501    0  0.00000000000E+00  0.00000000000E+00  0.57785723748E+03  0.57785723748E+03  0.25500000920E-02 0. -1.
       -2   -1    0    0    0  501  0.00000000000E+00  0.00000000000E+00 -0.15572791835E+03  0.15572791837E+03  0.25500000920E-02 0.  1.
    10030    2    1    2    0    0  0.00000000000E+00  0.00000000000E+00  0.42212931913E+03  0.73358515586E+03  0.59996168113E+03 0.  0.
        1    1    3    3  502    0 -0.29743839192E+03 -0.38924718230E+02  0.20868930674E+03  0.36542572084E+03  0.50400001928E-02 0. -1.
       -1    1    3    3    0  502  0.29743839192E+03  0.38924718230E+02  0.21344001238E+03  0.36815943501E+03  0.50400001928E-02 0.  1.
</event>
<event>
 5   0  0.2324616E-03  0.6000046E+03  0.7818609E-02  0.9905396E-01
        2   -1    0    0  501    0  0.00000000000E+00  0.00000000000E+00  0.57594134830E+03  0.57594134831E+03  0.25500000920E-02 0.  1.
       -2   -1    0    0    0  501  0.00000000000E+00  0.00000000000E+00 -0.15626832908E+03  0.15626832910E+03  0.25500000920E-02 0. -1.
    10030    2    1    2    0    0  0.00000000000E+00  0.00000000000E+00  0.41967301923E+03  0.73220967741E+03  0.60000464050E+03 0.  0.
        4    1    3    3  502    0  0.16900179844E+02 -0.23347638619E+02  0.57424453040E+03  0.57496880081E+03  0.12699999809E+01 0.  1.
       -4    1    3    3    0  502 -0.16900179844E+02  0.23347638619E+02 -0.15457151117E+03  0.15724087660E+03  0.12699999809E+01 0. -1.
</event>
<event>
 5   0  0.1392854E-03  0.6002086E+03  0.7818609E-02  0.9904973E-01
        1   -1    0    0  501    0  0.00000000000E+00  0.00000000000E+00  0.13655918139E+04  0.13655918139E+04  0.50400001928E-02 0.  1.
       -1   -1    0    0    0  501  0.00000000000E+00  0.00000000000E+00 -0.65951319062E+02  0.65951319255E+02  0.50400001928E-02 0. -1.
    10030    2    1    2    0    0  0.00000000000E+00  0.00000000000E+00  0.12996404948E+04  0.14315431331E+04  0.60020856898E+03 0.  0.
        4    1    3    3  502    0  0.51613306201E+02  0.28011568398E+03  0.42440545559E+03  0.51112653367E+03  0.12699999809E+01 0. -1.
       -4    1    3    3    0  502 -0.51613306201E+02 -0.28011568398E+03  0.87523503920E+03  0.92041659945E+03  0.12699999809E+01 0.  1.
</event>
<event>
 5   0  0.1416315E-03  0.6006354E+03  0.7818609E-02  0.9904089E-01
       -1   -1    0    0    0  501  0.00000000000E+00  0.00000000000E+00  0.10728754438E+03  0.10728754449E+03  0.50400001928E-02 0. -1.
        1   -1    0    0  501    0  0.00000000000E+00  0.00000000000E+00 -0.84064484468E+03  0.84064484469E+03  0.50400001928E-02 0.  1.
    10030    2    1    2    0    0  0.00000000000E+00  0.00000000000E+00 -0.73335730030E+03  0.94793238919E+03  0.60063540069E+03 0.  0.
        2    1    3    3  502    0 -0.49543489275E+02  0.38964335672E+02  0.96731208938E+02  0.11545433544E+03  0.25500000920E-02 0. -1.
       -2    1    3    3    0  502  0.49543489275E+02 -0.38964335672E+02 -0.83008850924E+03  0.83247805374E+03  0.25500000920E-02 0.  1.
</event>
<event>
 5   0  0.1416315E-03  0.6000909E+03  0.7818609E-02  0.9905218E-01
        1   -1    0    0  501    0  0.00000000000E+00  0.00000000000E+00  0.38884415354E+03  0.38884415357E+03  0.50400001928E-02 0. -1.
       -1   -1    0    0    0  501  0.00000000000E+00  0.00000000000E+00 -0.23152532463E+03  0.23152532468E+03  0.50400001928E-02 0.  1.
    10030    2    1    2    0    0  0.00000000000E+00  0.00000000000E+00  0.15731882891E+03  0.62036947825E+03  0.60009088947E+03 0.  0.
        2    1    3    3  502    0 -0.28427284465E+03 -0.55367634708E+02 -0.24168395919E+01  0.28962469904E+03  0.25500000920E-02 0.  1.
       -2    1    3    3    0  502  0.28427284465E+03  0.55367634708E+02  0.15973566851E+03  0.33074477921E+03  0.25500000920E-02 0. -1.
</event>
<event>
 5   0  0.2313168E-03  0.6000793E+03  0.7818609E-02  0.9905241E-01
        2   -1    0    0  501    0  0.00000000000E+00  0.00000000000E+00  0.45016461146E+03  0.45016461147E+03  0.25500000920E-02 0. -1.
       -2   -1    0    0    0  501  0.00000000000E+00  0.00000000000E+00 -0.19997974290E+03  0.19997974292E+03  0.25500000920E-02 0.  1.
    10030    2    1    2    0    0  0.00000000000E+00  0.00000000000E+00  0.25018486856E+03  0.65014435439E+03  0.60007933899E+03 0.  0.
        2    1    3    3  502    0 -0.22897672043E+03 -0.13158044115E+03 -0.29196811700E+02  0.26569946332E+03  0.25500000920E-02 0.  1.
       -2    1    3    3    0  502  0.22897672043E+03  0.13158044115E+03  0.27938168026E+03  0.38444489106E+03  0.25500000920E-02 0. -1.
</event>
<event>
 5   0  0.1392854E-03  0.5999239E+03  0.7818609E-02  0.9905564E-01
        1   -1    0    0  501    0  0.00000000000E+00  0.00000000000E+00  0.33894128060E+03  0.33894128064E+03  0.50400001928E-02 0.  1.
       -1   -1    0    0    0  501  0.00000000000E+00  0.00000000000E+00 -0.26546535010E+03  0.26546535014E+03  0.50400001928E-02 0. -1.
    10030    2    1    2    0    0  0.00000000000E+00  0.00000000000E+00  0.73475930508E+02  0.60440663078E+03  0.59992388098E+03 0.  0.
        4    1    3    3  502    0 -0.94225328441E+02 -0.17140917734E+02  0.32312127082E+03  0.33701808874E+03  0.12699999809E+01 0.  1.
       -4    1    3    3    0  502  0.94225328441E+02  0.17140917734E+02 -0.24964534031E+03  0.26738854205E+03  0.12699999809E+01 0. -1.
</event>
<event>
 5   0  0.1416315E-03  0.5994800E+03  0.7818609E-02  0.9906485E-01
       -1   -1    0    0    0  501  0.00000000000E+00  0.00000000000E+00  0.12579385065E+03  0.12579385075E+03  0.50400001928E-02 0.  1.
        1   -1    0    0  501    0  0.00000000000E+00  0.00000000000E+00 -0.71421673003E+03  0.71421673005E+03  0.50400001928E-02 0. -1.
    10030    2    1    2    0    0  0.00000000000E+00  0.00000000000E+00 -0.58842287939E+03  0.84001058080E+03  0.59948001708E+03 0.  0.
        2    1    3    3  502    0  0.21645007936E+03 -0.16623481738E+03 -0.46787051039E+03  0.54165253241E+03  0.25500000920E-02 0. -1.
       -2    1    3    3    0  502 -0.21645007936E+03  0.16623481738E+03 -0.12055236899E+03  0.29835804839E+03  0.25500000920E-02 0.  1.
</event>
<event>
 5   0  0.1479385E-03  0.6001511E+03  0.7818609E-02  0.9905093E-01
       -1   -1    0    0    0  501  0.00000000000E+00  0.00000000000E+00  0.52891187019E+03  0.52891187022E+03  0.50400001928E-02 0. -1.
        1   -1    0    0  501    0  0.00000000000E+00  0.00000000000E+00 -0.17024641345E+03  0.17024641353E+03  0.50400001928E-02 0.  1.
    10030    2    1    2    0    0  0.00000000000E+00  0.00000000000E+00  0.35866545674E+03  0.69915828374E+03  0.60015114419E+03 0.  0.
        3    1    3    3  502    0 -0.28970902772E+03  0.61364573563E+02  0.23578761828E+03  0.37854027892E+03  0.10100000352E+00 0.  1.
       -3    1    3    3    0  502  0.28970902772E+03 -0.61364573563E+02  0.12287783846E+03  0.32061800482E+03  0.10100000352E+00 0. -1.
</event>
<event>
 5   0  0.1392854E-03  0.5989334E+03  0.7818609E-02  0.9907621E-01
       -1   -1    0    0    0  501  0.00000000000E+00  0.00000000000E+00  0.33361293716E+03  0.33361293719E+03  0.50400001928E-02 0. -1.
        1   -1    0    0  501    0  0.00000000000E+00  0.00000000000E+00 -0.26881546443E+03  0.26881546447E+03  0.50400001928E-02 0.  1.
    10030    2    1    2    0    0  0.00000000000E+00  0.00000000000E+00  0.64797472731E+02  0.60242840167E+03  0.59893344093E+03 0.  0.
        4    1    3    3  502    0  0.68389151466E+02  0.23587757716E+03 -0.13995869764E+03  0.28267535688E+03  0.12699999809E+01 0.  1.
       -4    1    3    3    0  502 -0.68389151466E+02 -0.23587757716E+03  0.20475617037E+03  0.31975304478E+03  0.12699999809E+01 0. -1.
</event>
<event>
 5   0  0.2324616E-03  0.5999320E+03  0.7818609E-02  0.9905547E-01
       -2   -1    0    0    0  501  0.00000000000E+00  0.00000000000E+00  0.22805810058E+03  0.22805810059E+03  0.25500000920E-02 0. -1.
        2   -1    0    0  501    0  0.00000000000E+00  0.00000000000E+00 -0.39454680357E+03  0.39454680358E+03  0.25500000920E-02 0.  1.
    10030    2    1    2    0    0  0.00000000000E+00  0.00000000000E+00 -0.16648870300E+03  0.62260490417E+03  0.59993197820E+03 0.  0.
        4    1    3    3  502    0 -0.21550607915E+03  0.94091147660E+02 -0.27651343577E+03  0.36298389397E+03  0.12699999809E+01 0.  1.
       -4    1    3    3    0  502  0.21550607915E+03 -0.94091147660E+02  0.11002473277E+03  0.25962101021E+03  0.12699999809E+01 0. -1.
</event>
<event>
 5   0  0.2313168E-03  0.6005950E+03  0.7818609E-02  0.9904172E-01
       -2   -1    0    0    0  501  0.00000000000E+00  0.00000000000E+00  0.81126671224E+02  0.81126671264E+02  0.25500000920E-02 0.  1.
        2   -1    0    0  501    0  0.00000000000E+00  0.00000000000E+00 -0.11115774676E+04  0.11115774676E+04  0.25500000920E-02 0. -1.
    10030    2    1    2    0    0  0.00000000000E+00  0.00000000000E+00 -0.10304507964E+04  0.11927041389E+04  0.60059497095E+03 0.  0.
        2    1    3    3  502    0 -0.27358030050E+02 -0.98714372761E+01 -0.11087738805E+04  0.11091552755E+04  0.25500000920E-02 0. -1.
       -2    1    3    3    0  502  0.27358030050E+02  0.98714372761E+01  0.78323084046E+02  0.83548863446E+02  0.25500000920E-02 0.  1.
</event>
<event>
 5   0  0.2406307E-03  0.6011219E+03  0.7818609E-02  0.9903081E-01
        2   -1    0    0  501    0  0.00000000000E+00  0.00000000000E+00  0.93346709975E+03  0.93346709976E+03  0.25500000920E-02 0.  1.
       -2   -1    0    0    0  501  0.00000000000E+00  0.00000000000E+00 -0.96775652857E+02  0.96775652891E+02  0.25500000920E-02 0. -1.
    10030    2    1    2    0    0  0.00000000000E+00  0.00000000000E+00  0.83669144690E+03  0.10302427526E+04  0.60112191116E+03 0.  0.
        5    1    3    3  502    0  0.15320281519E+03  0.20111552404E+03  0.13989518913E+03  0.28898323573E+03  0.46999998093E+01 0.  1.
       -5    1    3    3    0  502 -0.15320281519E+03 -0.20111552404E+03  0.69679625777E+03  0.74125951692E+03  0.46999998093E+01 0. -1.
</event>
<event>
 5   0  0.2346281E-03  0.5997756E+03  0.7818609E-02  0.9905872E-01
       -2   -1    0    0    0  501  0.00000000000E+00  0.00000000000E+00  0.66579442969E+02  0.66579443018E+02  0.25500000920E-02 0.  1.
        2   -1    0    0  501    0  0.00000000000E+00  0.00000000000E+00 -0.13507576846E+04  0.13507576846E+04  0.25500000920E-02 0. -1.
    10030    2    1    2    0    0  0.00000000000E+00  0.00000000000E+00 -0.12841782416E+04  0.14173371276E+04  0.59977560558E+03 0.  0.
        3    1    3    3  502    0  0.52566006117E+02 -0.28475861830E+03 -0.45779622823E+03  0.54168999666E+03  0.10100000352E+00 0. -1.
       -3    1    3    3    0  502 -0.52566006117E+02  0.28475861830E+03 -0.82638201339E+03  0.87564713096E+03  0.10100000352E+00 0.  1.
</event>
<event>
 5   0  0.2421210E-03  0.6000194E+03  0.7818609E-02  0.9905366E-01
       -2   -1    0    0    0  501  0.00000000000E+00  0.00000000000E+00  0.43346505983E+03  0.43346505984E+03  0.25500000920E-02 0.  1.
        2   -1    0    0  501    0  0.00000000000E+00  0.00000000000E+00 -0.20764258948E+03  0.20764258950E+03  0.25500000920E-02 0. -1.
    10030    2    1    2    0    0  0.00000000000E+00  0.00000000000E+00  0.22582247035E+03  0.64110764934E+03  0.60001935796E+03 0.  0.
        1    1    3    3  502    0 -0.19218039513E+03  0.18724287765E+03  0.25631283454E+03  0.37106531592E+03  0.50400001928E-02 0.  1.
       -1    1    3    3    0  502  0.19218039513E+03 -0.18724287765E+03 -0.30490364190E+02  0.27004233342E+03  0.50400001928E-02 0. -1.
</event>
<event>
 5   0  0.1479385E-03  0.5996113E+03  0.7818609E-02  0.9906213E-01
       -1   -1    0    0    0  501  0.00000000000E+00  0.00000000000E+00  0.24482066243E+03  0.24482066249E+03  0.50400001928E-02 0.  1.
        1   -1    0    0  501    0  0.00000000000E+00  0.00000000000E+00 -0.36713985836E+03  0.36713985839E+03  0.50400001928E-02 0. -1.
    10030    2    1    2    0    0  0.00000000000E+00  0.00000000000E+00 -0.12231919592E+03  0.61196052088E+03  0.59961128527E+03 0.  0.
        3    1    3    3  502    0  0.17266899129E+03 -0.13887730699E+03  0.14494490235E+03  0.26478391542E+03  0.10100000352E+00 0.  1.
       -3    1    3    3    0  502 -0.17266899129E+03  0.13887730699E+03 -0.26726409827E+03  0.34717660545E+03  0.10100000352E+00 0. -1.
</event>
<event>
 5   0  0.1423430E-03  0.5998291E+03  0.7818609E-02  0.9905761E-01
        1   -1    0    0  501    0  0.00000000000E+00  0.00000000000E+00  0.46434356075E+03  0.46434356078E+03  0.50400001928E-02 0. -1.
       -1   -1    0    0    0  501  0.00000000000E+00  0.00000000000E+00 -0.19371158839E+03  0.19371158846E+03  0.50400001928E-02 0.  1.
    10030    2    1    2    0    0  0.00000000000E+00  0.00000000000E+00  0.27063197236E+03  0.65805514924E+03  0.59982907146E+03 0.  0.
        1    1    3    3  502    0 -0.15089346658E+03  0.71400012878E+02 -0.13803294577E+03  0.21661000494E+03  0.50400001928E-02 0.  1.
       -1    1    3    3    0  502  0.15089346658E+03 -0.71400012878E+02  0.40866491812E+03  0.44144514430E+03  0.50400001928E-02 0. -1.
</event>
<event>
 5   0  0.2406307E-03  0.5998671E+03  0.7818609E-02  0.9905682E-01
        2   -1    0    0  501    0  0.00000000000E+00  0.00000000000E+00  0.90381442911E+03  0.90381442912E+03  0.25500000920E-02 0. -1.
       -2   -1    0    0    0  501  0.00000000000E+00  0.00000000000E+00 -0.99533853426E+02  0.99533853459E+02  0.25500000920E-02 0.  1.
    10030    2    1    2    0    0  0.00000000000E+00  0.00000000000E+00  0.80428057569E+03  0.10033482826E+04  0.59986709505E+03 0.  0.
        5    1    3    3  502    0  0.28618383789E+03 -0.68905506005E+02  0.49806290570E+03  0.57856538598E+03  0.46999998093E+01 0. -1.
       -5    1    3    3    0  502 -0.28618383789E+03  0.68905506005E+02  0.30621766999E+03  0.42478289659E+03  0.46999998093E+01 0.  1.
</event>
<event>
 5   0  0.1416315E-03  0.5993453E+03  0.7818609E-02  0.9906765E-01
       -1   -1    0    0    0  501  0.00000000000E+00  0.00000000000E+00  0.92855268309E+02  0.92855268446E+02  0.50400001928E-02 0. -1.
        1   -1    0    0  501    0  0.00000000000E+00  0.00000000000E+00 -0.96713619092E+03  0.96713619094E+03  0.50400001928E-02 0.  1.
    10030    2    1    2    0    0  0.00000000000E+00  0.00000000000E+00 -0.87428092261E+03  0.10599914594E+04  0.59934527805E+03 0.  0.
        2    1    3    3  502    0 -0.95971476480E+02 -0.27614687633E+03 -0.55359954500E+03  0.62605117829E+03  0.25500000920E-02 0. -1.
       -2    1    3    3    0  502  0.95971476480E+02  0.27614687633E+03 -0.32068137762E+03  0.43394028110E+03  0.25500000920E-02 0.  1.
</event>
<event>
 5   0  0.2421210E-03  0.6001153E+03  0.7818609E-02  0.9905167E-01
       -2   -1    0    0    0  501  0.00000000000E+00  0.00000000000E+00  0.12847776480E+04  0.12847776480E+04  0.25500000920E-02 0. -1.
        2   -1    0    0  501    0  0.00000000000E+00  0.00000000000E+00 -0.70077952605E+02  0.70077952651E+02  0.25500000920E-02 0.  1.
    10030    2    1    2    0    0  0.00000000000E+00  0.00000000000E+00  0.12146996954E+04  0.13548556007E+04  0.60011527945E+03 0.  0.
        1    1    3    3  502    0 -0.16035326477E+03 -0.73798251222E+02  0.11551531627E+04  0.11685624419E+04  0.50400001928E-02 0. -1.
       -1    1    3    3    0  502  0.16035326477E+03  0.73798251222E+02  0.59546532715E+02  0.18629315873E+03  0.50400001928E-02 0.  1.
</event>
<event>
 5   0  0.9496750E-04  0.5996005E+03  0.7818609E-02  0.9906235E-01
        3   -1    0    0  501    0  0.00000000000E+00  0.00000000000E+00  0.23135000441E+03  0.23135002645E+03  0.10100000352E+00 0.  1.
       -3   -1    0    0    0  501  0.00000000000E+00  0.00000000000E+00 -0.38850301649E+03  0.38850302962E+03  0.10100000352E+00 0. -1.
    10030    2    1    2    0    0  0.00000000000E+00  0.00000000000E+00 -0.15715301209E+03  0.61985305607E+03  0.59960048525E+03 0.  0.
        3    1    3    3  502    0  0.11199249942E+03  0.19595870293E+03  0.12541581822E+03  0.25820780553E+03  0.10100000352E+00 0.  1.
       -3    1    3    3    0  502 -0.11199249942E+03 -0.19595870293E+03 -0.28256883030E+03  0.36164525054E+03  0.10100000352E+00 0. -1.
</event>
<event>
 5   0  0.2346281E-03  0.6000128E+03  0.7818609E-02  0.9905379E-01
       -2   -1    0    0    0  501  0.00000000000E+00  0.00000000000E+00  0.49419926376E+02  0.49419926441E+02  0.25500000920E-02 0. -1.
        2   -1    0    0  501    0  0.00000000000E+00  0.00000000000E+00 -0.18212056275E+04  0.18212056275E+04  0.25500000920E-02 0.  1.
    10030    2    1    2    0    0  0.00000000000E+00  0.00000000000E+00 -0.17717857011E+04  0.18706255539E+04  0.60001282682E+03 0.  0.
        3    1    3    3  502    0 -0.86081088366E+02  0.35356586392E+02 -0.17750705163E+04  0.17775081968E+04  0.10100000352E+00 0.  1.
       -3    1    3    3    0  502  0.86081088366E+02 -0.35356586392E+02  0.32848151603E+01  0.93117357068E+02  0.10100000352E+00 0. -1.
</event>
<event>
 5   0  0.9496750E-04  0.6012672E+03  0.7818609E-02  0.9902781E-01
        3   -1    0    0  501    0  0.00000000000E+00  0.00000000000E+00  0.23416068015E+03  0.23416070193E+03  0.10100000352E+00 0.  1.
       -3   -1    0    0    0  501  0.00000000000E+00  0.00000000000E+00 -0.38597657631E+03  0.38597658953E+03  0.10100000352E+00 0. -1.
    10030    2    1    2    0    0  0.00000000000E+00  0.00000000000E+00 -0.15181589616E+03  0.62013729146E+03  0.60126715687E+03 0.  0.
        4    1    3    3  502    0  0.22511709830E+03 -0.89618463718E+02 -0.25945302600E+03  0.35500234166E+03  0.12699999809E+01 0. -1.
       -4    1    3    3    0  502 -0.22511709830E+03  0.89618463718E+02  0.10763712983E+03  0.26513494980E+03  0.12699999809E+01 0.  1.
</event>
<event>
 5   0  0.1423430E-03  0.5999266E+03  0.7818609E-02  0.9905558E-01
       -1   -1    0    0    0  501  0.00000000000E+00  0.00000000000E+00  0.13537506447E+03  0.13537506457E+03  0.50400001928E-02 0. -1.
        1   -1    0    0  501    0  0.00000000000E+00  0.00000000000E+00 -0.66465687943E+03  0.66465687945E+03  0.50400001928E-02 0.  1.
    10030    2    1    2    0    0  0.00000000000E+00  0.00000000000E+00 -0.52928181495E+03  0.80003194401E+03  0.59992655534E+03 0.  0.
        1    1    3    3  502    0 -0.20627568776E+03  0.64176631823E+01  0.25653994644E+02  0.20796387482E+03  0.50400001928E-02 0. -1.
       -1    1    3    3    0  502  0.20627568776E+03 -0.64176631823E+01 -0.55493580960E+03  0.59206806920E+03  0.50400001928E-02 0.  1.
</event>
<event>
 5   0  0.2346281E-03  0.5999387E+03  0.7818609E-02  0.9905533E-01
        2   -1    0    0  501    0  0.00000000000E+00  0.00000000000E+00  0.12243218840E+04  0.12243218840E+04  0.25500000920E-02 0.  1.
       -2   -1    0    0    0  501  0.00000000000E+00  0.00000000000E+00 -0.73495052016E+02  0.73495052060E+02  0.25500000920E-02 0. -1.
    10030    2    1    2    0    0  0.00000000000E+00  0.00000000000E+00  0.11508268320E+04  0.12978169360E+04  0.59993866546E+03 0.  0.
        3    1    3    3  502    0  0.12025911238E+03 -0.50052727608E+02 -0.91206627510E+01  0.13057842985E+03  0.10100000352E+00 0. -1.
       -3    1    3    3    0  502 -0.12025911238E+03  0.50052727608E+02  0.11599474947E+04  0.11672385062E+04  0.10100000352E+00 0.  1.
</event>
<event>
 5   0  0.2421210E-03  0.5999775E+03  0.7818609E-02  0.9905453E-01
        2   -1    0    0  501    0  0.00000000000E+00  0.00000000000E+00  0.28649419978E+03  0.28649419979E+03  0.25500000920E-02 0.  1.
       -2   -1    0    0    0  501  0.00000000000E+00  0.00000000000E+00 -0.31411889765E+03  0.31411889766E+03  0.25500000920E-02 0. -1.
    10030    2    1    2    0    0  0.00000000000E+00  0.00000000000E+00 -0.27624697874E+02  0.60061309745E+03  0.59997747365E+03 0.  0.
        1    1    3    3  502    0  0.12293233884E+03 -0.56182403319E+02  0.25428552844E+03  0.28797561073E+03  0.50400001928E-02 0.  1.
       -1    1    3    3    0  502 -0.12293233884E+03  0.56182403319E+02 -0.28191022631E+03  0.31263748672E+03  0.50400001928E-02 0. -1.
</event>
<event>
 5   0  0.1416315E-03  0.5999128E+03  0.7818609E-02  0.9905587E-01
       -1   -1    0    0    0  501  0.00000000000E+00  0.00000000000E+00  0.12669740090E+03  0.12669740100E+03  0.50400001928E-02 0.  1.
        1   -1    0    0  501    0  0.00000000000E+00  0.00000000000E+00 -0.71014741805E+03  0.71014741806E+03  0.50400001928E-02 0. -1.
    10030    2    1    2    0    0  0.00000000000E+00  0.00000000000E+00 -0.58345001714E+03  0.83684481907E+03  0.59991276757E+03 0.  0.
        2    1    3    3  502    0 -0.93113950843E+02  0.20456859481E+03 -0.56880781695E+03  0.61160514260E+03  0.25500000920E-02 0. -1.
       -2    1    3    3    0  502  0.93113950843E+02 -0.20456859481E+03 -0.14642200192E+02  0.22523967647E+03  0.25500000920E-02 0.  1.
</event>
<event>
 5   0  0.2324616E-03  0.5992486E+03  0.7818609E-02  0.9906966E-01
       -2   -1    0    0    0  501  0.00000000000E+00  0.00000000000E+00  0.18923961448E+03  0.18923961450E+03  0.25500000920E-02 0.  1.
        2   -1    0    0  501    0  0.00000000000E+00  0.00000000000E+00 -0.47439703530E+03  0.47439703530E+03  0.25500000920E-02 0. -1.
    10030    2    1    2    0    0  0.00000000000E+00  0.00000000000E+00 -0.28515742081E+03  0.66363664980E+03  0.59924856972E+03 0.  0.
        4    1    3    3  502    0 -0.18347197919E+03  0.21588100794E+03 -0.25055644088E+03  0.37821517645E+03  0.12699999809E+01 0. -1.
       -4    1    3    3    0  502  0.18347197919E+03 -0.21588100794E+03 -0.34600979937E+02  0.28542147335E+03  0.12699999809E+01 0.  1.
</event>
<event>
 5   0  0.2313168E-03  0.5999686E+03  0.7818609E-02  0.9905471E-01
       -2   -1    0    0    0  501  0.00000000000E+00  0.00000000000E+00  0.18781089783E+03  0.18781089785E+03  0.25500000920E-02 0. -1.
        2   -1    0    0  501    0  0.00000000000E+00  0.00000000000E+00 -0.47915534306E+03  0.47915534307E+03  0.25500000920E-02 0.  1.
    10030    2    1    2    0    0  0.00000000000E+00  0.00000000000E+00 -0.29134444523E+03  0.66696624091E+03  0.59996864981E+03 0.  0.
        2    1    3    3  502    0 -0.28604042128E+03 -0.11946766965E+02 -0.24528136248E+03  0.37699442255E+03  0.25500000920E-02 0. -1.
       -2    1    3    3    0  502  0.28604042128E+03  0.11946766965E+02 -0.46063082750E+02  0.28997181836E+03  0.25500000920E-02 0.  1.
</event>
<event>
 5   0  0.1479385E-03  0.5999111E+03  0.7818609E-02  0.9905591E-01
       -1   -1    0    0    0  501  0.00000000000E+00  0.00000000000E+00  0.52034464863E+03  0.52034464865E+03  0.50400001928E-02 0.  1.
        1   -1    0    0  501    0  0.00000000000E+00  0.00000000000E+00 -0.17291101187E+03  0.17291101194E+03  0.50400001928E-02 0. -1.
    10030    2    1    2    0    0  0.00000000000E+00  0.00000000000E+00  0.34743363676E+03  0.69325566059E+03  0.59991105923E+03 0.  0.
        3    1    3    3  502    0 -0.11415838841E+02  0.18877854922E+03 -0.95330597176E+02  0.21179139496E+03  0.10100000352E+00 0. -1.
       -3    1    3    3    0  502  0.11415838841E+02 -0.18877854922E+03  0.44276423394E+03  0.48146426563E+03  0.10100000352E+00 0.  1.
</event>
<event>
 5   0  0.1392854E-03  0.5990234E+03  0.7818609E-02  0.9907434E-01
       -1   -1    0    0    0  501  0.00000000000E+00  0.00000000000E+00  0.67479547324E+03  0.67479547326E+03  0.50400001928E-02 0. -1.
        1   -1    0    0  501    0  0.00000000000E+00  0.00000000000E+00 -0.13293993683E+03  0.13293993693E+03  0.50400001928E-02 0.  1.
    10030    2    1    2    0    0  0.00000000000E+00  0.00000000000E+00  0.54185553641E+03  0.80773541019E+03  0.59902343071E+03 0.  0.
        4    1    3    3  502    0 -0.47609569219E+02  0.25472224544E+03  0.47344040670E+03  0.53971985789E+03  0.12699999809E+01 0. -1.
       -4    1    3    3    0  502  0.47609569219E+02 -0.25472224544E+03  0.68415129716E+02  0.26801555230E+03  0.12699999809E+01 0.  1.
</event>
<event>
 5   0  0.1418763E-03  0.6011442E+03  0.7818609E-02  0.9903035E-01
       -1   -1    0    0    0  501  0.00000000000E+00  0.00000000000E+00  0.17307476237E+03  0.17307476245E+03  0.50400001928E-02 0.  1.
        1   -1    0    0  501    0  0.00000000000E+00  0.00000000000E+00 -0.52199165089E+03  0.52199165091E+03  0.50400001928E-02 0. -1.
    10030    2    1    2    0    0  0.00000000000E+00  0.00000000000E+00 -0.34891688852E+03  0.69506641336E+03  0.60114417895E+03 0.  0.
        5    1    3    3  502    0 -0.18496992205E+03 -0.10128468337E+03 -0.42203683850E+03  0.47181526279E+03  0.46999998093E+01 0. -1.
       -5    1    3    3    0  502  0.18496992205E+03  0.10128468337E+03  0.73119949983E+02  0.22325115057E+03  0.46999998093E+01 0.  1.
</event>
<event>
 5   0  0.1392854E-03  0.5999045E+03  0.7818609E-02  0.9905604E-01
        1   -1    0    0  501    0  0.00000000000E+00  0.00000000000E+00  0.83655555736E+03  0.83655555737E+03  0.50400001928E-02 0.  1.
       -1   -1    0    0    0  501  0.00000000000E+00  0.00000000000E+00 -0.10754975550E+03  0.10754975561E+03  0.50400001928E-02 0. -1.
    10030    2    1    2    0    0  0.00000000000E+00  0.00000000000E+00  0.72900580186E+03  0.94410531298E+03  0.59990447811E+03 0.  0.
        4    1    3    3  502    0 -0.12239299636E+03 -0.27343832993E+03  0.34109844840E+03  0.45398053949E+03  0.12699999809E+01 0. -1.
       -4    1    3    3    0  502  0.12239299636E+03  0.27343832993E+03  0.38790735346E+03  0.49012477350E+03  0.12699999809E+01 0.  1.
</event>
<event>
 5   0  0.1423430E-03  0.5996506E+03  0.7818609E-02  0.9906131E-01
       -1   -1    0    0    0  501  0.00000000000E+00  0.00000000000E+00  0.79749950404E+03  0.79749950405E+03  0.50400001928E-02 0.  1.
        1   -1    0    0  501    0  0.00000000000E+00  0.00000000000E+00 -0.11272134462E+03  0.11272134474E+03  0.50400001928E-02 0. -1.
    10030    2    1    2    0    0  0.00000000000E+00  0.00000000000E+00  0.68477815941E+03  0.91022084879E+03  0.59965061991E+03 0.  0.
        1    1    3    3  502    0 -0.12842115965E+03 -0.13301567172E+03  0.70066306847E+03  0.72464743062E+03  0.50400001928E-02 0.  1.
       -1    1    3    3    0  502  0.12842115965E+03  0.13301567172E+03 -0.15884909055E+02  0.18557341817E+03  0.50400001928E-02 0. -1.
</event>
<event>
 5   0  0.2406307E-03  0.5993211E+03  0.7818609E-02  0.9906816E-01
        2   -1    0    0  501    0  0.00000000000E+00  0.00000000000E+00  0.42741084793E+03  0.42741084793E+03  0.25500000920E-02 0. -1.
       -2   -1    0    0    0  501  0.00000000000E+00  0.00000000000E+00 -0.21009396897E+03  0.21009396898E+03  0.25500000920E-02 0.  1.
    10030    2    1    2    0    0  0.00000000000E+00  0.00000000000E+00  0.21731687896E+03  0.63750481692E+03  0.59932108733E+03 0.  0.
        5    1    3    3  502    0 -0.11245417730E+03 -0.57765748083E+01 -0.18669166759E+03  0.21807150101E+03  0.46999998093E+01 0.  1.
       -5    1    3    3    0  502  0.11245417730E+03  0.57765748083E+01  0.40400854655E+03  0.41943331590E+03  0.46999998093E+01 0. -1.
</event>
<event>
 5   0  0.1392854E-03  0.5998979E+03  0.7818609E-02  0.9905618E-01
        1   -1    0    0  501    0  0.00000000000E+00  0.00000000000E+00  0.12276171601E+04  0.12276171601E+04  0.50400001928E-02 0.  1.
       -1   -1    0    0    0  501  0.00000000000E+00  0.00000000000E+00 -0.73287800818E+02  0.73287800991E+02  0.50400001928E-02 0. -1.
    10030    2    1    2    0    0  0.00000000000E+00  0.00000000000E+00  0.11543293592E+04  0.13009049611E+04  0.59989786473E+03 0.  0.
        4    1    3    3  502    0 -0.84370033417E+02  0.36302143972E+02 -0.42035735486E+02  0.10101863270E+03  0.12699999809E+01 0. -1.
       -4    1    3    3    0  502  0.84370033417E+02 -0.36302143972E+02  0.11963650947E+04  0.11998863283E+04  0.12699999809E+01 0.  1.
</event>
<event>
 5   0  0.9496750E-04  0.5999682E+03  0.7818609E-02  0.9905472E-01
        4   -1    0    0  501    0  0.00000000000E+00  0.00000000000E+00  0.25344332473E+03  0.25344650668E+03  0.12699999809E+01 0.  1.
       -4   -1    0    0    0  501  0.00000000000E+00  0.00000000000E+00 -0.35506483256E+03  0.35506710383E+03  0.12699999809E+01 0. -1.
    10030    2    1    2    0    0  0.00000000000E+00  0.00000000000E+00 -0.10162150783E+03  0.60851361052E+03  0.59996823527E+03 0.  0.
        2    1    3    3  502    0  0.15041389673E+03 -0.24747045349E+03 -0.13018462120E+03  0.31751220651E+03  0.25500000920E-02 0. -1.
       -2    1    3    3    0  502 -0.15041389673E+03  0.24747045349E+03  0.28563113366E+02  0.29100140400E+03  0.25500000920E-02 0.  1.
</event>
<event>
 5   0  0.2346281E-03  0.6008727E+03  0.7818609E-02  0.9903597E-01
        2   -1    0    0  501    0  0.00000000000E+00  0.00000000000E+00  0.35130220045E+03  0.35130220046E+03  0.25500000920E-02 0. -1.
       -2   -1    0    0    0  501  0.00000000000E+00  0.00000000000E+00 -0.25693546968E+03  0.25693546969E+03  0.25500000920E-02 0.  1.
    10030    2    1    2    0    0  0.00000000000E+00  0.00000000000E+00  0.94366730776E+02  0.60823767015E+03  0.60087268495E+03 0.  0.
        3    1    3    3  502    0  0.25024298184E+03  0.16520198840E+03  0.66086810184E+02  0.30705166277E+03  0.10100000352E+00 0.  1.
       -3    1    3    3    0  502 -0.25024298184E+03 -0.16520198840E+03  0.28279920593E+02  0.30118600738E+03  0.10100000352E+00 0. -1.
</event>
<event>
 5   0  0.2346281E-03  0.6001823E+03  0.7818609E-02  0.9905028E-01
        2   -1    0    0  501    0  0.00000000000E+00  0.00000000000E+00  0.98478040194E+03  0.98478040195E+03  0.25500000920E-02 0.  1.
       -2   -1    0    0    0  501  0.00000000000E+00  0.00000000000E+00 -0.91446465454E+02  0.91446465490E+02  0.25500000920E-02 0. -1.
    10030    2    1    2    0    0  0.00000000000E+00  0.00000000000E+00  0.89333393649E+03  0.10762268674E+04  0.60018226241E+03 0.  0.
        3    1    3    3  502    0 -0.15256178018E+03  0.11870006854E+02  0.90956344598E+03  0.92234574119E+03  0.10100000352E+00 0.  1.
       -3    1    3    3    0  502  0.15256178018E+03 -0.11870006854E+02 -0.16229509487E+02  0.15388112625E+03  0.10100000352E+00 0. -1.
</event>
<event>
 5   0  0.1418763E-03  0.5998937E+03  0.7818609E-02  0.9905627E-01
        1   -1    0    0  501    0  0.00000000000E+00  0.00000000000E+00  0.62366303175E+03  0.62366303177E+03  0.50400001928E-02 0.  1.
       -1   -1    0    0    0  501  0.00000000000E+00  0.00000000000E+00 -0.14425759015E+03  0.14425759024E+03  0.50400001928E-02 0. -1.
    10030    2    1    2    0    0  0.00000000000E+00  0.00000000000E+00  0.47940544160E+03  0.76792062201E+03  0.59989374415E+03 0.  0.
        5    1    3    3  502    0  0.12790078008E+03  0.25585810166E+03  0.35508218401E+03  0.45599059763E+03  0.46999998093E+01 0.  1.
       -5    1    3    3    0  502 -0.12790078008E+03 -0.25585810166E+03  0.12432325760E+03  0.31193002438E+03  0.46999998093E+01 0. -1.
</event>
<event>
 5   0  0.2406307E-03  0.5997697E+03  0.7818609E-02  0.9905884E-01
       -2   -1    0    0    0  501  0.00000000000E+00  0.00000000000E+00  0.12361579348E+03  0.12361579350E+03  0.25500000920E-02 0. -1.
        2   -1    0    0  501    0  0.00000000000E+00  0.00000000000E+00 -0.72750354703E+03  0.72750354703E+03  0.25500000920E-02 0.  1.
    10030    2    1    2    0    0  0.00000000000E+00  0.00000000000E+00 -0.60388775355E+03  0.85111934054E+03  0.59976971659E+03 0.  0.
        5    1    3    3  502    0 -0.14476898988E+03  0.42334495987E+02  0.65809475401E+02  0.16463063819E+03  0.46999998093E+01 0. -1.
       -5    1    3    3    0  502  0.14476898988E+03 -0.42334495987E+02 -0.66969722895E+03  0.68648870235E+03  0.46999998093E+01 0.  1.
</event>
<event>
 5   0  0.2346281E-03  0.6029457E+03  0.7818609E-02  0.9899313E-01
        2   -1    0    0  501    0  0.00000000000E+00  0.00000000000E+00  0.10476145766E+04  0.10476145766E+04  0.25500000920E-02 0. -1.
       -2   -1    0    0    0  501  0.00000000000E+00  0.00000000000E+00 -0.86755081726E+02  0.86755081763E+02  0.25500000920E-02 0.  1.
    10030    2    1    2    0    0  0.00000000000E+00  0.00000000000E+00  0.96085949487E+03  0.11343696584E+04  0.60294572967E+03 0.  0.
        3    1    3    3  502    0 -0.17777771248E+03  0.82935028838E+02  0.49751048587E+02  0.20238159773E+03  0.10100000352E+00 0.  1.
       -3    1    3    3    0  502  0.17777771248E+03 -0.82935028838E+02  0.91110844629E+03  0.93198806063E+03  0.10100000352E+00 0. -1.
</event>
<event>
 5   0  0.1423430E-03  0.6000792E+03  0.7818609E-02  0.9905242E-01
        1   -1    0    0  501    0  0.00000000000E+00  0.00000000000E+00  0.43245612411E+03  0.43245612414E+03  0.50400001928E-02 0. -1.
       -1   -1    0    0    0  501  0.00000000000E+00  0.00000000000E+00 -0.20816856807E+03  0.20816856814E+03  0.50400001928E-02 0.  1.
    10030    2    1    2    0    0  0.00000000000E+00  0.00000000000E+00  0.22428755603E+03  0.64062469227E+03  0.60007923523E+03 0.  0.
        1    1    3    3  502    0 -0.24486413998E+03 -0.73067149734E+02  0.28001511343E+03  0.37908537191E+03  0.50400001928E-02 0. -1.
       -1    1    3    3    0  502  0.24486413998E+03  0.73067149734E+02 -0.55727557392E+02  0.26153932037E+03  0.50400001928E-02 0.  1.
</event>
<event>
 5   0  0.1479385E-03  0.6000614E+03  0.7818609E-02  0.9905279E-01
        1   -1    0    0  501    0  0.00000000000E+00  0.00000000000E+00  0.50180724148E+03  0.50180724150E+03  0.50400001928E-02 0.  1.
       -1   -1    0    0    0  501  0.00000000000E+00  0.00000000000E+00 -0.17938842341E+03  0.17938842348E+03  0.50400001928E-02 0. -1.
    10030    2    1    2    0    0  0.00000000000E+00  0.00000000000E+00  0.32241881807E+03  0.68119566498E+03  0.60006136332E+03 0.  0.
        3    1    3    3  502    0  0.85717970491E+02 -0.10977357162E+03 -0.14046737439E+03  0.19781026505E+03  0.10100000352E+00 0. -1.
       -3    1    3    3    0  502 -0.85717970491E+02  0.10977357162E+03  0.46288619246E+03  0.48338539993E+03  0.10100000352E+00 0.  1.
</event>
<event>
 5   0  0.1416315E-03  0.6005397E+03  0.7818609E-02  0.9904287E-01
        1   -1    0    0  501    0  0.00000000000E+00  0.00000000000E+00  0.31129564426E+03  0.31129564430E+03  0.50400001928E-02 0.  1.
       -1   -1    0    0    0  501  0.00000000000E+00  0.00000000000E+00 -0.28963457341E+03  0.28963457345E+03  0.50400001928E-02 0. -1.
    10030    2    1    2    0    0  0.00000000000E+00  0.00000000000E+00  0.21661070848E+02  0.60093021775E+03  0.60053969446E+03 0.  0.
        2    1    3    3  502    0 -0.23799930284E+03  0.14837239366E+03  0.11815673167E+03  0.30433377827E+03  0.25500000920E-02 0.  1.
       -2    1    3    3    0  502  0.23799930284E+03 -0.14837239366E+03 -0.96495660820E+02  0.29659643948E+03  0.25500000920E-02 0. -1.
</event>
<event>
 5   0  0.9496750E-04  0.5999734E+03  0.7818609E-02  0.9905461E-01
        3   -1    0    0  501    0  0.00000000000E+00  0.00000000000E+00  0.11455588586E+03  0.11455593038E+03  0.10100000352E+00 0.  1.
       -3   -1    0    0    0  501  0.00000000000E+00  0.00000000000E+00 -0.78557297301E+03  0.78557297950E+03  0.10100000352E+00 0. -1.
    10030    2    1    2    0    0  0.00000000000E+00  0.00000000000E+00 -0.67101708716E+03  0.90012890988E+03  0.59997343537E+03 0.  0.
        4    1    3    3  502    0  0.36556360919E+02  0.29541835242E+03 -0.39128284773E+03  0.49164240083E+03  0.12699999809E+01 0.  1.
       -4    1    3    3    0  502 -0.36556360919E+02 -0.29541835242E+03 -0.27973423942E+03  0.40848650905E+03  0.12699999809E+01 0. -1.
</event>
<event>
 5   0  0.2421210E-03  0.6027480E+03  0.7818609E-02  0.9899721E-01
       -2   -1    0    0    0  501  0.00000000000E+00  0.00000000000E+00  0.79812116988E+02  0.79812117029E+02  0.25500000920E-02 0.  1.
        2   -1    0    0  501    0  0.00000000000E+00  0.00000000000E+00 -0.11380011579E+04  0.11380011579E+04  0.25500000920E-02 0. -1.
    10030    2    1    2    0    0  0.00000000000E+00  0.00000000000E+00 -0.10581890409E+04  0.12178132749E+04  0.60274797909E+03 0.  0.
        1    1    3    3  502    0 -0.16541341678E+03 -0.18145613944E+03 -0.17601889005E+03  0.30211020947E+03  0.50400001928E-02 0.  1.
       -1    1    3    3    0  502  0.16541341678E+03  0.18145613944E+03 -0.88217015087E+03  0.91570306547E+03  0.50400001928E-02 0. -1.
</event>
<event>
 5   0  0.2406307E-03  0.6001204E+03  0.7818609E-02  0.9905156E-01
        2   -1    0    0  501    0  0.00000000000E+00  0.00000000000E+00  0.77280493216E+03  0.77280493216E+03  0.25500000920E-02 0. -1.
       -2   -1    0    0    0  501  0.00000000000E+00  0.00000000000E+00 -0.11650562032E+03  0.11650562035E+03  0.25500000920E-02 0.  1.
    10030    2    1    2    0    0  0.00000000000E+00  0.00000000000E+00  0.65629931184E+03  0.88931055250E+03  0.60012038132E+03 0.  0.
        5    1    3    3  502    0 -0.20004536407E+03  0.54041315804E+01  0.65939920627E+03  0.68911302088E+03  0.46999998093E+01 0. -1.
       -5    1    3    3    0  502  0.20004536407E+03 -0.54041315804E+01 -0.30998944281E+01  0.20019753162E+03  0.46999998093E+01 0.  1.
</event>
<event>
 5   0  0.2313168E-03  0.6000807E+03  0.7818609E-02  0.9905239E-01
       -2   -1    0    0    0  501  0.00000000000E+00  0.00000000000E+00  0.31529491108E+03  0.31529491109E+03  0.25500000920E-02 0.  1.
        2   -1    0    0  501    0  0.00000000000E+00  0.00000000000E+00 -0.28552379703E+03  0.28552379704E+03  0.25500000920E-02 0. -1.
    10030    2    1    2    0    0  0.00000000000E+00  0.00000000000E+00  0.29771114055E+02  0.60081870813E+03  0.60008066192E+03 0.  0.
        2    1    3    3  502    0  0.99937069504E+02  0.20539746428E+03 -0.17990105002E+03  0.29075750033E+03  0.25500000920E-02 0. -1.
       -2    1    3    3    0  502 -0.99937069504E+02 -0.20539746428E+03  0.20967216407E+03  0.31006120780E+03  0.25500000920E-02 0.  1.
</event>
<event>
 5   0  0.2346281E-03  0.6008831E+03  0.7818609E-02  0.9903576E-01
       -2   -1    0    0    0  501  0.00000000000E+00  0.00000000000E+00  0.86656475149E+02  0.86656475187E+02  0.25500000920E-02 0.  1.
        2   -1    0    0  501    0  0.00000000000E+00  0.00000000000E+00 -0.10416431553E+04  0.10416431553E+04  0.25500000920E-02 0. -1.
    10030    2    1    2    0    0  0.00000000000E+00  0.00000000000E+00 -0.95498668020E+03  0.11282996305E+04  0.60088309754E+03 0.  0.
        3    1    3    3  502    0  0.99586488443E+02  0.17001269219E+03 -0.51601818804E+02  0.20367754440E+03  0.10100000352E+00 0.  1.
       -3    1    3    3    0  502 -0.99586488443E+02 -0.17001269219E+03 -0.90338486139E+03  0.92462208614E+03  0.10100000352E+00 0. -1.
</event>
<event>
 5   0  0.1416315E-03  0.5997652E+03  0.7818609E-02  0.9905893E-01
       -1   -1    0    0    0  501  0.00000000000E+00  0.00000000000E+00  0.11525224502E+03  0.11525224513E+03  0.50400001928E-02 0. -1.
        1   -1    0    0  501    0  0.00000000000E+00  0.00000000000E+00 -0.78028478407E+03  0.78028478409E+03  0.50400001928E-02 0.  1.
    10030    2    1    2    0    0  0.00000000000E+00  0.00000000000E+00 -0.66503253904E+03  0.89553702922E+03  0.59976519799E+03 0.  0.
        2    1    3    3  502    0  0.26582747495E+03  0.86910673995E+02 -0.17092598343E+03  0.32777035179E+03  0.25500000920E-02 0. -1.
       -2    1    3    3    0  502 -0.26582747495E+03 -0.86910673995E+02 -0.49410655562E+03  0.56776667743E+03  0.25500000920E-02 0.  1.
</event>
<event>
 5   0  0.1423430E-03  0.5999029E+03  0.7818609E-02  0.9905607E-01
       -1   -1    0    0    0  501  0.00000000000E+00  0.00000000000E+00  0.10077400765E+03  0.10077400778E+03  0.50400001928E-02 0.  1.
        1   -1    0    0  501    0  0.00000000000E+00  0.00000000000E+00 -0.89279845784E+03  0.89279845785E+03  0.50400001928E-02 0. -1.
    10030    2    1    2    0    0  0.00000000000E+00  0.00000000000E+00 -0.79202445019E+03  0.99357246563E+03  0.59990292111E+03 0.  0.
        1    1    3    3  502    0  0.93937756253E+02  0.12423078046E+03 -0.82057818962E+03  0.83522820484E+03  0.50400001928E-02 0. -1.
       -1    1    3    3    0  502 -0.93937756253E+02 -0.12423078046E+03  0.28553739431E+02  0.15834426078E+03  0.50400001928E-02 0.  1.
</event>
<event>
 5   0  0.2346281E-03  0.6001735E+03  0.7818609E-02  0.9905046E-01
        2   -1    0    0  501    0  0.00000000000E+00  0.00000000000E+00  0.13048937352E+04  0.13048937352E+04  0.25500000920E-02 0. -1.
       -2   -1    0    0    0  501  0.00000000000E+00  0.00000000000E+00 -0.69011021925E+02  0.69011021972E+02  0.25500000920E-02 0.  1.
    10030    2    1    2    0    0  0.00000000000E+00  0.00000000000E+00  0.12358827132E+04  0.13739047571E+04  0.60017347559E+03 0.  0.
        3    1    3    3  502    0  0.82281462335E+02  0.27158705320E+03  0.39455833838E+03  0.48601034876E+03  0.10100000352E+00 0.  1.
       -3    1    3    3    0  502 -0.82281462335E+02 -0.27158705320E+03  0.84132437485E+03  0.88789440838E+03  0.10100000352E+00 0. -1.
</event>
<event>
 5   0  0.2406307E-03  0.6000362E+03  0.7818609E-02  0.9905331E-01
        2   -1    0    0  501    0  0.00000000000E+00  0.00000000000E+00  0.19227603725E+04  0.19227603725E+04  0.25500000920E-02 0. -1.
       -2   -1    0    0    0  501  0.00000000000E+00  0.00000000000E+00 -0.46813352930E+02  0.46813352999E+02  0.25500000920E-02 0.  1.
    10030    2    1    2    0    0  0.00000000000E+00  0.00000000000E+00  0.18759470195E+04  0.19695737255E+04  0.60003619886E+03 0.  0.
        5    1    3    3  502    0  0.19216926436E+03  0.22584812914E+03  0.78926965143E+03  0.84315187023E+03  0.46999998093E+01 0.  1.
       -5    1    3    3    0  502 -0.19216926436E+03 -0.22584812914E+03  0.10866773681E+04  0.11264218552E+04  0.46999998093E+01 0. -1.
</event>
<event>
 5   0  0.1479385E-03  0.5990097E+03  0.7818609E-02  0.9907463E-01
       -1   -1    0    0    0  501  0.00000000000E+00  0.00000000000E+00  0.14183921786E+03  0.14183921795E+03  0.50400001928E-02 0.  1.
        1   -1    0    0  501    0  0.00000000000E+00  0.00000000000E+00 -0.63242850964E+03  0.63242850966E+03  0.50400001928E-02 0. -1.
    10030    2    1    2    0    0  0.00000000000E+00  0.00000000000E+00 -0.49058929179E+03  0.77426772761E+03  0.59900973348E+03 0.  0.
        3    1    3    3  502    0  0.93802679316E+02 -0.12226519672E+02 -0.61261183179E+03  0.61987232321E+03  0.10100000352E+00 0. -1.
       -3    1    3    3    0  502 -0.93802679316E+02  0.12226519672E+02  0.12202254000E+03  0.15439540440E+03  0.10100000352E+00 0.  1.
</event>
<event>
 5   0  0.1416315E-03  0.5997287E+03  0.7818609E-02  0.9905969E-01
       -1   -1    0    0    0  501  0.00000000000E+00  0.00000000000E+00  0.10401094122E+04  0.10401094122E+04  0.50400001928E-02 0.  1.
        1   -1    0    0  501    0  0.00000000000E+00  0.00000000000E+00 -0.86451117758E+02  0.86451117905E+02  0.50400001928E-02 0. -1.
    10030    2    1    2    0    0  0.00000000000E+00  0.00000000000E+00  0.95365829439E+03  0.11265605301E+04  0.59972867652E+03 0.  0.
        2    1    3    3  502    0 -0.21520395681E+02  0.22239721468E+03  0.85249560413E+03  0.88129019261E+03  0.25500000920E-02 0.  1.
       -2    1    3    3    0  502  0.21520395681E+02 -0.22239721468E+03  0.10116269027E+03  0.24527033746E+03  0.25500000920E-02 0. -1.
</event>
<event>
 5   0  0.1416315E-03  0.6003852E+03  0.7818609E-02  0.9904607E-01
        1   -1    0    0  501    0  0.00000000000E+00  0.00000000000E+00  0.42512913499E+03  0.42512913502E+03  0.50400001928E-02 0.  1.
       -1   -1    0    0    0  501  0.00000000000E+00  0.00000000000E+00 -0.21197226813E+03  0.21197226819E+03  0.50400001928E-02 0. -1.
    10030    2    1    2    0    0  0.00000000000E+00  0.00000000000E+00  0.21315686686E+03  0.63710140321E+03  0.60038516643E+03 0.  0.
        2    1    3    3  502    0  0.21644406518E+03  0.59706470120E+02 -0.10486226283E+03  0.24780837375E+03  0.25500000920E-02 0. -1.
       -2    1    3    3    0  502 -0.21644406518E+03 -0.59706470120E+02  0.31801912969E+03  0.38929302946E+03  0.25500000920E-02 0.  1.
</event>
<event>
 5   0  0.2324616E-03  0.6001363E+03  0.7818609E-02  0.9905123E-01
       -2   -1    0    0    0  501  0.00000000000E+00  0.00000000000E+00  0.18409926531E+03  0.18409926533E+03  0.25500000920E-02 0.  1.
        2   -1    0    0  501    0  0.00000000000E+00  0.00000000000E+00 -0.48908883975E+03  0.48908883976E+03  0.25500000920E-02 0. -1.
    10030    2    1    2    0    0  0.00000000000E+00  0.00000000000E+00 -0.30498957444E+03  0.67318810508E+03  0.60013630477E+03 0.  0.
        4    1    3    3  502    0  0.25681884618E+03  0.33205917100E+02 -0.32254158131E+03  0.41363418289E+03  0.12699999809E+01 0. -1.
       -4    1    3    3    0  502 -0.25681884618E+03 -0.33205917100E+02  0.17552006864E+02  0.25955392220E+03  0.12699999809E+01 0.  1.
</event>
<event>
 5   0  0.9496750E-04  0.6000923E+03  0.7818609E-02  0.9905215E-01
       -3   -1    0    0    0  501  0.00000000000E+00  0.00000000000E+00  0.45139085457E+03  0.45139086587E+03  0.10100000352E+00 0. -1.
        3   -1    0    0  501    0  0.00000000000E+00  0.00000000000E+00 -0.19944508473E+03  0.19944511031E+03  0.10100000352E+00 0.  1.
    10030    2    1    2    0    0  0.00000000000E+00  0.00000000000E+00  0.25194576983E+03  0.65083597618E+03  0.60009232369E+03 0.  0.
        3    1    3    3  502    0  0.23515261168E+03  0.18355225051E+02 -0.75165507535E+02  0.24755510253E+03  0.10100000352E+00 0.  1.
       -3    1    3    3    0  502 -0.23515261168E+03 -0.18355225051E+02  0.32711127737E+03  0.40328087365E+03  0.10100000352E+00 0. -1.
</event>
<event>
 5   0  0.1418763E-03  0.6003145E+03  0.7818609E-02  0.9904754E-01
       -1   -1    0    0    0  501  0.00000000000E+00  0.00000000000E+00  0.49258427521E+02  0.49258427779E+02  0.50400001928E-02 0.  1.
        1   -1    0    0  501    0  0.00000000000E+00  0.00000000000E+00 -0.18290145103E+04  0.18290145103E+04  0.50400001928E-02 0. -1.
    10030    2    1    2    0    0  0.00000000000E+00  0.00000000000E+00 -0.17797560828E+04  0.18782729381E+04  0.60031451403E+03 0.  0.
        5    1    3    3  502    0  0.25289924880E+03 -0.89993719890E+02 -0.46992407917E+03  0.54120941403E+03  0.46999998093E+01 0.  1.
       -5    1    3    3    0  502 -0.25289924880E+03  0.89993719890E+02 -0.13098320036E+04  0.13370635240E+04  0.46999998093E+01 0. -1.
</event>
<event>
 5   0  0.2406307E-03  0.5999730E+03  0.7818609E-02  0.9905462E-01
       -2   -1    0    0    0  501  0.00000000000E+00  0.00000000000E+00  0.27507737685E+03  0.27507737686E+03  0.25500000920E-02 0.  1.
        2   -1    0    0  501    0  0.00000000000E+00  0.00000000000E+00 -0.32715118822E+03  0.32715118823E+03  0.25500000920E-02 0. -1.
    10030    2    1    2    0    0  0.00000000000E+00  0.00000000000E+00 -0.52073811363E+02  0.60222856509E+03  0.59997296837E+03 0.  0.
        5    1    3    3  502    0  0.16336315025E+03 -0.47549505322E+02 -0.27399054623E+03  0.32255446631E+03  0.46999998093E+01 0. -1.
       -5    1    3    3    0  502 -0.16336315025E+03  0.47549505322E+02  0.22191673486E+03  0.27967409878E+03  0.46999998093E+01 0.  1.
</event>
<event>
 5   0  0.1416315E-03  0.5999924E+03  0.7818609E-02  0.9905422E-01
       -1   -1    0    0    0  501  0.00000000000E+00  0.00000000000E+00  0.92556682047E+03  0.92556682049E+03  0.50400001928E-02 0.  1.
        1   -1    0    0  501    0  0.00000000000E+00  0.00000000000E+00 -0.97235248113E+02  0.97235248243E+02  0.50400001928E-02 0. -1.
    10030    2    1    2    0    0  0.00000000000E+00  0.00000000000E+00  0.82833157236E+03  0.10228020687E+04  0.59999239831E+03 0.  0.
        2    1    3    3  502    0  0.26358014805E+03 -0.94930712909E+02  0.23126750017E+03  0.36327811845E+03  0.25500000920E-02 0. -1.
       -2    1    3    3    0  502 -0.26358014805E+03  0.94930712909E+02  0.59706407219E+03  0.65952395028E+03  0.25500000920E-02 0.  1.
</event>
<event>
 5   0  0.9496750E-04  0.6001047E+03  0.7818609E-02  0.9905189E-01
       -3   -1    0    0    0  501  0.00000000000E+00  0.00000000000E+00  0.12282479420E+03  0.12282483572E+03  0.10100000352E+00 0.  1.
        3   -1    0    0  501    0  0.00000000000E+00  0.00000000000E+00 -0.73300674103E+03  0.73300674799E+03  0.10100000352E+00 0. -1.
    10030    2    1    2    0    0  0.00000000000E+00  0.00000000000E+00 -0.61018194683E+03  0.85583158371E+03  0.60010473372E+03 0.  0.
        5    1    3    3  502    0 -0.11661112272E+03  0.12645341090E+03 -0.65564437282E+03  0.67784972721E+03  0.46999998093E+01 0. -1.
       -5    1    3    3    0  502  0.11661112272E+03 -0.12645341090E+03  0.45462425988E+02  0.17798185650E+03  0.46999998093E+01 0.  1.
</event>
<event>
 5   0  0.9496750E-04  0.6001427E+03  0.7818609E-02  0.9905110E-01
       -3   -1    0    0    0  501  0.00000000000E+00  0.00000000000E+00  0.11128378982E+03  0.11128383565E+03  0.10100000352E+00 0. -1.
        3   -1    0    0  501    0  0.00000000000E+00  0.00000000000E+00 -0.80912775818E+03  0.80912776448E+03  0.10100000352E+00 0.  1.
    10030    2    1    2    0    0  0.00000000000E+00  0.00000000000E+00 -0.69784396836E+03  0.92041160013E+03  0.60014274092E+03 0.  0.
        1    1    3    3  502    0  0.12475848935E+03 -0.18609626998E+03 -0.65506310117E+03  0.69231796807E+03  0.50400001928E-02 0.  1.
       -1    1    3    3    0  502 -0.12475848935E+03  0.18609626998E+03 -0.42780867193E+02  0.22809363207E+03  0.50400001928E-02 0. -1.
</event>
<event>
 5   0  0.2421210E-03  0.6000061E+03  0.7818609E-02  0.9905393E-01
       -2   -1    0    0    0  501  0.00000000000E+00  0.00000000000E+00  0.24865140680E+03  0.24865140681E+03  0.25500000920E-02 0.  1.
        2   -1    0    0  501    0  0.00000000000E+00  0.00000000000E+00 -0.36195983809E+03  0.36195983810E+03  0.25500000920E-02 0. -1.
    10030    2    1    2    0    0  0.00000000000E+00  0.00000000000E+00 -0.11330843129E+03  0.61061124491E+03  0.60000607648E+03 0.  0.
        1    1    3    3  502    0  0.92200706876E+02 -0.24146180169E+03 -0.21165201674E+03  0.33406787969E+03  0.50400001928E-02 0. -1.
       -1    1    3    3    0  502 -0.92200706876E+02  0.24146180169E+03  0.98343585452E+02  0.27654336522E+03  0.50400001928E-02 0.  1.
</event>
<event>
 5   0  0.1479385E-03  0.6007964E+03  0.7818609E-02  0.9903755E-01
       -1   -1    0    0    0  501  0.00000000000E+00  0.00000000000E+00  0.16208163547E+03  0.16208163555E+03  0.50400001928E-02 0. -1.
        1   -1    0    0  501    0  0.00000000000E+00  0.00000000000E+00 -0.55675076566E+03  0.55675076568E+03  0.50400001928E-02 0.  1.
    10030    2    1    2    0    0  0.00000000000E+00  0.00000000000E+00 -0.39466913019E+03  0.71883240123E+03  0.60079638708E+03 0.  0.
        3    1    3    3  502    0 -0.27775099290E+03 -0.10332115365E+03 -0.13849824398E+03  0.32711259321E+03  0.10100000352E+00 0.  1.
       -3    1    3    3    0  502  0.27775099290E+03  0.10332115365E+03 -0.25617088620E+03  0.39171980802E+03  0.10100000352E+00 0. -1.
</event>
<event>
 5   0  0.9496750E-04  0.6023844E+03  0.7818609E-02  0.9900471E-01
        4   -1    0    0  501    0  0.00000000000E+00  0.00000000000E+00  0.72371558121E+03  0.72371669552E+03  0.12699999809E+01 0. -1.
       -4   -1    0    0    0  501  0.00000000000E+00  0.00000000000E+00 -0.12534419004E+03  0.12535062376E+03  0.12699999809E+01 0.  1.
    10030    2    1    2    0    0  0.00000000000E+00  0.00000000000E+00  0.59837139116E+03  0.84906731929E+03  0.60238442121E+03 0.  0.
        1    1    3    3  502    0 -0.97749434173E+01 -0.29959689394E+03  0.25778110836E+03  0.39535420603E+03  0.50400001928E-02 0. -1.
       -1    1    3    3    0  502  0.97749434173E+01  0.29959689394E+03  0.34059028281E+03  0.45371311326E+03  0.50400001928E-02 0.  1.
</event>
<event>
 5   0  0.2313168E-03  0.5999011E+03  0.7818609E-02  0.9905611E-01
        2   -1    0    0  501    0  0.00000000000E+00  0.00000000000E+00  0.74120272761E+03  0.74120272762E+03  0.25500000920E-02 0.  1.
       -2   -1    0    0    0  501  0.00000000000E+00  0.00000000000E+00 -0.12138425377E+03  0.12138425380E+03  0.25500000920E-02 0. -1.
    10030    2    1    2    0    0  0.00000000000E+00  0.00000000000E+00  0.61981847384E+03  0.86258698141E+03  0.59990112517E+03 0.  0.
        2    1    3    3  502    0  0.12476192383E+02  0.28890931428E+03  0.42445431430E+03  0.51360073227E+03  0.25500000920E-02 0.  1.
       -2    1    3    3    0  502 -0.12476192383E+02 -0.28890931428E+03  0.19536415954E+03  0.34898624914E+03  0.25500000920E-02 0. -1.
</event>
<event>
 5   0  0.2313168E-03  0.6001642E+03  0.7818609E-02  0.9905066E-01
        2   -1    0    0  501    0  0.00000000000E+00  0.00000000000E+00  0.11821319192E+04  0.11821319192E+04  0.25500000920E-02 0.  1.
       -2   -1    0    0    0  501  0.00000000000E+00  0.00000000000E+00 -0.76175304694E+02  0.76175304737E+02  0.25500000920E-02 0. -1.
    10030    2    1    2    0    0  0.00000000000E+00  0.00000000000E+00  0.11059566145E+04  0.12583072239E+04  0.60016417473E+03 0.  0.
        2    1    3    3  502    0  0.13485522472E+03  0.23379927716E+03  0.27800134048E+03  0.38746971359E+03  0.25500000920E-02 0. -1.
       -2    1    3    3    0  502 -0.13485522472E+03 -0.23379927716E+03  0.82795527398E+03  0.87083751031E+03  0.25500000920E-02 0.  1.
</event>
<event>
 5   0  0.2324616E-03  0.5997515E+03  0.7818609E-02  0.9905922E-01
        2   -1    0    0  501    0  0.00000000000E+00  0.00000000000E+00  0.59133634655E+03  0.59133634656E+03  0.25500000920E-02 0. -1.
       -2   -1    0    0    0  501  0.00000000000E+00  0.00000000000E+00 -0.15207159973E+03  0.15207159975E+03  0.25500000920E-02 0.  1.
    10030    2    1    2    0    0  0.00000000000E+00  0.00000000000E+00  0.43926474682E+03  0.74340794631E+03  0.59975149590E+03 0.  0.
        4    1    3    3  502    0  0.79231773519E+02  0.25834386481E+03  0.58471865195E+02  0.27647748252E+03  0.12699999809E+01 0.  1.
       -4    1    3    3    0  502 -0.79231773519E+02 -0.25834386481E+03  0.38079288162E+03  0.46693046379E+03  0.12699999809E+01 0. -1.
</event>
<event>
 5   0  0.2313168E-03  0.5998419E+03  0.7818609E-02  0.9905734E-01
        2   -1    0    0  501    0  0.00000000000E+00  0.00000000000E+00  0.10706861456E+04  0.10706861456E+04  0.25500000920E-02 0.  1.
       -2   -1    0    0    0  501  0.00000000000E+00  0.00000000000E+00 -0.84013965314E+02  0.84013965353E+02  0.25500000920E-02 0. -1.
    10030    2    1    2    0    0  0.00000000000E+00  0.00000000000E+00  0.98667218030E+03  0.11547001110E+04  0.59984194160E+03 0.  0.
        2    1    3    3  502    0 -0.21328755332E+03  0.19381415418E+03  0.33346679065E+03  0.44074437857E+03  0.25500000920E-02 0. -1.
       -2    1    3    3    0  502  0.21328755332E+03 -0.19381415418E+03  0.65320538965E+03  0.71395573241E+03  0.25500000920E-02 0.  1.
</event>
<event>
 5   0  0.2313168E-03  0.6004136E+03  0.7818609E-02  0.9904548E-01
       -2   -1    0    0    0  501  0.00000000000E+00  0.00000000000E+00  0.32114628315E+03  0.32114628316E+03  0.25500000920E-02 0.  1.
        2   -1    0    0  501    0  0.00000000000E+00  0.00000000000E+00 -0.28063266583E+03  0.28063266585E+03  0.25500000920E-02 0. -1.
    10030    2    1    2    0    0  0.00000000000E+00  0.00000000000E+00  0.40513617319E+02  0.60177894901E+03  0.60041364931E+03 0.  0.
        2    1    3    3  502    0 -0.18383227627E+03 -0.19575393066E+03 -0.11425055766E+03  0.29183402321E+03  0.25500000920E-02 0. -1.
       -2    1    3    3    0  502  0.18383227627E+03  0.19575393066E+03  0.15476417498E+03  0.30994492580E+03  0.25500000920E-02 0.  1.
</event>
<event>
 5   0  0.2346281E-03  0.6001299E+03  0.7818609E-02  0.9905137E-01
        2   -1    0    0  501    0  0.00000000000E+00  0.00000000000E+00  0.61668591954E+03  0.61668591955E+03  0.25500000920E-02 0. -1.
       -2   -1    0    0    0  501  0.00000000000E+00  0.00000000000E+00 -0.14600458570E+03  0.14600458572E+03  0.25500000920E-02 0.  1.
    10030    2    1    2    0    0  0.00000000000E+00  0.00000000000E+00  0.47068133385E+03  0.76269050527E+03  0.60012989326E+03 0.  0.
        3    1    3    3  502    0  0.19987026091E+03  0.20105958068E+03  0.11039422018E+03  0.30423670099E+03  0.10100000352E+00 0.  1.
       -3    1    3    3    0  502 -0.19987026091E+03 -0.20105958068E+03  0.36028711367E+03  0.45845380428E+03  0.10100000352E+00 0. -1.
</event>
<event>
 5   0  0.1416315E-03  0.6019083E+03  0.7818609E-02  0.9901455E-01
       -1   -1    0    0    0  501  0.00000000000E+00  0.00000000000E+00  0.24667473174E+03  0.24667473179E+03  0.50400001928E-02 0. -1.
        1   -1    0    0  501    0  0.00000000000E+00  0.00000000000E+00 -0.36717741698E+03  0.36717741701E+03  0.50400001928E-02 0.  1.
    10030    2    1    2    0    0  0.00000000000E+00  0.00000000000E+00 -0.12050268523E+03  0.61385214880E+03  0.60190826829E+03 0.  0.
        2    1    3    3  502    0  0.29320877749E+03  0.23734962561E+02 -0.12506281086E+03  0.31964893604E+03  0.25500000920E-02 0.  1.
       -2    1    3    3    0  502 -0.29320877749E+03 -0.23734962561E+02  0.45601256287E+01  0.29420321276E+03  0.25500000920E-02 0. -1.
</event>
<event>
 5   0  0.1423430E-03  0.6003802E+03  0.7818609E-02  0.9904618E-01
       -1   -1    0    0    0  501  0.00000000000E+00  0.00000000000E+00  0.15998267917E+03  0.15998267925E+03  0.50400001928E-02 0.  1.
        1   -1    0    0  501    0  0.00000000000E+00  0.00000000000E+00 -0.56327401723E+03  0.56327401725E+03  0.50400001928E-02 0. -1.
    10030    2    1    2    0    0  0.00000000000E+00  0.00000000000E+00 -0.40329133805E+03  0.72325669650E+03  0.60038016763E+03 0.  0.
        1    1    3    3  502    0  0.26140729986E+02  0.25392130622E+03 -0.11344057281E+02  0.25551527387E+03  0.50400001928E-02 0.  1.
       -1    1    3    3    0  502 -0.26140729986E+02 -0.25392130622E+03 -0.39194728077E+03  0.46774142264E+03  0.50400001928E-02 0. -1.
</event>
<event>
 5   0  0.1479385E-03  0.6000060E+03  0.7818609E-02  0.9905394E-01
        1   -1    0    0  501    0  0.00000000000E+00  0.00000000000E+00  0.85458843791E+02  0.85458843940E+02  0.50400001928E-02 0.  1.
       -1   -1    0    0    0  501  0.00000000000E+00  0.00000000000E+00 -0.10531596253E+04  0.10531596254E+04  0.50400001928E-02 0. -1.
    10030    2    1    2    0    0  0.00000000000E+00  0.00000000000E+00 -0.96770078156E+03  0.11386184693E+04  0.60000601331E+03 0.  0.
        3    1    3    3  502    0 -0.16579584638E+03 -0.21469083109E+03 -0.24067063246E+03  0.36263311922E+03  0.10100000352E+00 0.  1.
       -3    1    3    3    0  502  0.16579584638E+03  0.21469083109E+03 -0.72703014910E+03  0.77598535008E+03  0.10100000352E+00 0. -1.
</event>
<event>
 5   0  0.9496750E-04  0.5999676E+03  0.7818609E-02  0.9905473E-01
       -3   -1    0    0    0  501  0.00000000000E+00  0.00000000000E+00  0.93357057915E+03  0.93357058462E+03  0.10100000352E+00 0. -1.
        3   -1    0    0  501    0  0.00000000000E+00  0.00000000000E+00 -0.96393635202E+02  0.96393688115E+02  0.10100000352E+00 0.  1.
    10030    2    1    2    0    0  0.00000000000E+00  0.00000000000E+00  0.83717694395E+03  0.10299642727E+04  0.59996763881E+03 0.  0.
        4    1    3    3  502    0 -0.48408109721E+02 -0.33590501402E+02 -0.86357707516E+02  0.10455110434E+03  0.12699999809E+01 0.  1.
       -4    1    3    3    0  502  0.48408109721E+02  0.33590501402E+02  0.92353465147E+03  0.92541316839E+03  0.12699999809E+01 0. -1.
</event>
<event>
 5   0  0.1416315E-03  0.6001015E+03  0.7818609E-02  0.9905195E-01
       -1   -1    0    0    0  501  0.00000000000E+00  0.00000000000E+00  0.14919387148E+03  0.14919387156E+03  0.50400001928E-02 0. -1.
        1   -1    0    0  501    0  0.00000000000E+00  0.00000000000E+00 -0.60344614759E+03  0.60344614761E+03  0.50400001928E-02 0.  1.
    10030    2    1    2    0    0  0.00000000000E+00  0.00000000000E+00 -0.45425227611E+03  0.75264001917E+03  0.60010154816E+03 0.  0.
        2    1    3    3  502    0  0.26867109948E+03  0.11004362533E+03 -0.13213262998E+03  0.31898713310E+03  0.25500000920E-02 0. -1.
       -2    1    3    3    0  502 -0.26867109948E+03 -0.11004362533E+03 -0.32211964613E+03  0.43365288608E+03  0.25500000920E-02 0.  1.
</event>
<event>
 5   0  0.1423430E-03  0.6027357E+03  0.7818609E-02  0.9899747E-01
        1   -1    0    0  501    0  0.00000000000E+00  0.00000000000E+00  0.90472155233E+03  0.90472155235E+03  0.50400001928E-02 0. -1.
       -1   -1    0    0    0  501  0.00000000000E+00  0.00000000000E+00 -0.10038732132E+03  0.10038732145E+03  0.50400001928E-02 0.  1.
    10030    2    1    2    0    0  0.00000000000E+00  0.00000000000E+00  0.80433423101E+03  0.10051088738E+04  0.60273567424E+03 0.  0.
        1    1    3    3  502    0 -0.79169189839E+02 -0.13868413711E+03  0.82836801347E+03  0.84361994776E+03  0.50400001928E-02 0. -1.
       -1    1    3    3    0  502  0.79169189839E+02  0.13868413711E+03 -0.24033782455E+02  0.16148892603E+03  0.50400001928E-02 0.  1.
</event>
<event>
 5   0  0.2324616E-03  0.5999925E+03  0.7818609E-02  0.9905422E-01
        2   -1    0    0  501    0  0.00000000000E+00  0.00000000000E+00  0.72260988782E+03  0.72260988783E+03  0.25500000920E-02 0.  1.
       -2   -1    0    0    0  501  0.00000000000E+00  0.00000000000E+00 -0.12454543721E+03  0.12454543724E+03  0.25500000920E-02 0. -1.
    10030    2    1    2    0    0  0.00000000000E+00  0.00000000000E+00  0.59806445061E+03  0.84715532506E+03  0.59999254803E+03 0.  0.
        4    1    3    3  502    0  0.76262001436E+00 -0.49450349402E+02  0.71681048981E+03  0.71851569909E+03  0.12699999809E+01 0.  1.
       -4    1    3    3    0  502 -0.76262001436E+00  0.49450349402E+02 -0.11874603919E+03  0.12863962597E+03  0.12699999809E+01 0. -1.
</event>
<event>
 5   0  0.2324616E-03  0.6013631E+03  0.7818609E-02  0.9902582E-01
       -2   -1    0    0    0  501  0.00000000000E+00  0.00000000000E+00  0.19423809960E+03  0.19423809962E+03  0.25500000920E-02 0.  1.
        2   -1    0    0  501    0  0.00000000000E+00  0.00000000000E+00 -0.46545650559E+03  0.46545650559E+03  0.25500000920E-02 0. -1.
    10030    2    1    2    0    0  0.00000000000E+00  0.00000000000E+00 -0.27121840598E+03  0.65969460522E+03  0.60136307536E+03 0.  0.
        4    1    3    3  502    0  0.26000484256E+03 -0.21249057957E+02 -0.29962331224E+03  0.39727796661E+03  0.12699999809E+01 0. -1.
       -4    1    3    3    0  502 -0.26000484256E+03  0.21249057957E+02  0.28404906257E+02  0.26241663860E+03  0.12699999809E+01 0.  1.
</event>
<event>
 5   0  0.2313168E-03  0.6018916E+03  0.7818609E-02  0.9901489E-01
        2   -1    0    0  501    0  0.00000000000E+00  0.00000000000E+00  0.17074849556E+03  0.17074849558E+03  0.25500000920E-02 0.  1.
       -2   -1    0    0    0  501  0.00000000000E+00  0.00000000000E+00 -0.53041972004E+03  0.53041972005E+03  0.25500000920E-02 0. -1.
    10030    2    1    2    0    0  0.00000000000E+00  0.00000000000E+00 -0.35967122448E+03  0.70116821562E+03  0.60189158233E+03 0.  0.
        2    1    3    3  502    0  0.17264111088E+03  0.88891807751E+01  0.10713833892E+03  0.20337795941E+03  0.25500000920E-02 0.  1.
       -2    1    3    3    0  502 -0.17264111088E+03 -0.88891807751E+01 -0.46680956340E+03  0.49779025622E+03  0.25500000920E-02 0. -1.
</event>
<event>
 5   0  0.1418763E-03  0.5999395E+03  0.7818609E-02  0.9905532E-01
       -1   -1    0    0    0  501  0.00000000000E+00  0.00000000000E+00  0.34181896249E+03  0.34181896253E+03  0.50400001928E-02 0.  1.
        1   -1    0    0  501    0  0.00000000000E+00  0.00000000000E+00 -0.26324414653E+03  0.26324414658E+03  0.50400001928E-02 0. -1.
    10030    2    1    2    0    0  0.00000000000E+00  0.00000000000E+00  0.78574815960E+02  0.60506310911E+03  0.59993946720E+03 0.  0.
        5    1    3    3  502    0  0.15754330073E+03  0.13505387380E+03 -0.17912690820E+03  0.27416779474E+03  0.46999998093E+01 0. -1.
       -5    1    3    3    0  502 -0.15754330073E+03 -0.13505387380E+03  0.25770172416E+03  0.33089531436E+03  0.46999998093E+01 0.  1.
</event>
<event>
 5   0  0.1392854E-03  0.5999804E+03  0.7818609E-02  0.9905447E-01
       -1   -1    0    0    0  501  0.00000000000E+00  0.00000000000E+00  0.12739185673E+03  0.12739185683E+03  0.50400001928E-02 0. -1.
        1   -1    0    0  501    0  0.00000000000E+00  0.00000000000E+00 -0.70643545056E+03  0.70643545058E+03  0.50400001928E-02 0.  1.
    10030    2    1    2    0    0  0.00000000000E+00  0.00000000000E+00 -0.57904359383E+03  0.83382730741E+03  0.59998041221E+03 0.  0.
        4    1    3    3  502    0 -0.77278695251E+02 -0.73757874574E+02  0.10005748763E+03  0.14637395442E+03  0.12699999809E+01 0. -1.
       -4    1    3    3    0  502  0.77278695251E+02  0.73757874574E+02 -0.67910108146E+03  0.68745335300E+03  0.12699999809E+01 0.  1.
</event>
<event>
 5   0  0.1479385E-03  0.5988798E+03  0.7818609E-02  0.9907733E-01
        1   -1    0    0  501    0  0.00000000000E+00  0.00000000000E+00  0.53898883450E+03  0.53898883452E+03  0.50400001928E-02 0.  1.
       -1   -1    0    0    0  501  0.00000000000E+00  0.00000000000E+00 -0.16635643336E+03  0.16635643344E+03  0.50400001928E-02 0. -1.
    10030    2    1    2    0    0  0.00000000000E+00  0.00000000000E+00  0.37263240113E+03  0.70534526796E+03  0.59887982155E+03 0.  0.
        3    1    3    3  502    0 -0.13401766537E+03  0.51191779522E+02  0.49587803419E+03  0.51621349064E+03  0.10100000352E+00 0.  1.
       -3    1    3    3    0  502  0.13401766537E+03 -0.51191779522E+02 -0.12324563306E+03  0.18913177732E+03  0.10100000352E+00 0. -1.
</event>
<event>
 5   0  0.9496750E-04  0.5998081E+03  0.7818609E-02  0.9905804E-01
        3   -1    0    0  501    0  0.00000000000E+00  0.00000000000E+00  0.13898463202E+03  0.13898466872E+03  0.10100000352E+00 0. -1.
       -3   -1    0    0    0  501  0.00000000000E+00  0.00000000000E+00 -0.64713934979E+03  0.64713935767E+03  0.10100000352E+00 0.  1.
    10030    2    1    2    0    0  0.00000000000E+00  0.00000000000E+00 -0.50815471777E+03  0.78612402639E+03  0.59980810904E+03 0.  0.
        2    1    3    3  502    0 -0.15226716374E+03  0.20874847941E+03 -0.54529565772E+02  0.26407326703E+03  0.25500000920E-02 0. -1.
       -2    1    3    3    0  502  0.15226716374E+03 -0.20874847941E+03 -0.45362515200E+03  0.52205075935E+03  0.25500000920E-02 0.  1.
</event>
<event>
 5   0  0.1392854E-03  0.5998418E+03  0.7818609E-02  0.9905734E-01
       -1   -1    0    0    0  501  0.00000000000E+00  0.00000000000E+00  0.61884035020E+03  0.61884035022E+03  0.50400001928E-02 0.  1.
        1   -1    0    0  501    0  0.00000000000E+00  0.00000000000E+00 -0.14535662408E+03  0.14535662417E+03  0.50400001928E-02 0. -1.
    10030    2    1    2    0    0  0.00000000000E+00  0.00000000000E+00  0.47348372612E+03  0.76419697439E+03  0.59984179311E+03 0.  0.
        4    1    3    3  502    0 -0.19003943009E+03  0.67176072903E+02 -0.46198398167E+02  0.20679341057E+03  0.12699999809E+01 0. -1.
       -4    1    3    3    0  502  0.19003943009E+03 -0.67176072903E+02  0.51968212429E+03  0.55740356382E+03  0.12699999809E+01 0.  1.
</event>
<event>
 5   0  0.1416315E-03  0.6009421E+03  0.7818609E-02  0.9903453E-01
        1   -1    0    0  501    0  0.00000000000E+00  0.00000000000E+00  0.63824359451E+03  0.63824359453E+03  0.50400001928E-02 0.  1.
       -1   -1    0    0    0  501  0.00000000000E+00  0.00000000000E+00 -0.14145515013E+03  0.14145515022E+03  0.50400001928E-02 0. -1.
    10030    2    1    2    0    0  0.00000000000E+00  0.00000000000E+00  0.49678844438E+03  0.77969874474E+03  0.60094207215E+03 0.  0.
        2    1    3    3  502    0  0.75672084872E+02 -0.27256261882E+03  0.11693258369E+03  0.30608801797E+03  0.25500000920E-02 0. -1.
       -2    1    3    3    0  502 -0.75672084872E+02  0.27256261882E+03  0.37985586069E+03  0.47361072677E+03  0.25500000920E-02 0.  1.
</event>
<event>
 5   0  0.2421210E-03  0.6001812E+03  0.7818609E-02  0.9905030E-01
        2   -1    0    0  501    0  0.00000000000E+00  0.00000000000E+00  0.78462843518E+03  0.78462843518E+03  0.25500000920E-02 0.  1.
       -2   -1    0    0    0  501  0.00000000000E+00  0.00000000000E+00 -0.11477324955E+03  0.11477324958E+03  0.25500000920E-02 0. -1.
    10030    2    1    2    0    0  0.00000000000E+00  0.00000000000E+00  0.66985518563E+03  0.89940168476E+03  0.60018115668E+03 0.  0.
        1    1    3    3  502    0  0.22105825646E+03  0.18173299063E+03  0.19955347267E+03  0.34887708597E+03  0.50400001928E-02 0. -1.
       -1    1    3    3    0  502 -0.22105825646E+03 -0.18173299063E+03  0.47030171296E+03  0.55052459879E+03  0.50400001928E-02 0.  1.
</event>
<event>
 5   0  0.2313168E-03  0.5998697E+03  0.7818609E-02  0.9905676E-01
       -2   -1    0    0    0  501  0.00000000000E+00  0.00000000000E+00  0.52079147221E+03  0.52079147222E+03  0.25500000920E-02 0. -1.
        2   -1    0    0  501    0  0.00000000000E+00  0.00000000000E+00 -0.17273881902E+03  0.17273881904E+03  0.25500000920E-02 0.  1.
    10030    2    1    2    0    0  0.00000000000E+00  0.00000000000E+00  0.34805265319E+03  0.69353029126E+03  0.59986966543E+03 0.  0.
        2    1    3    3  502    0  0.56894686073E+02  0.11107885917E+03  0.48934692567E+03  0.50501082357E+03  0.25500000920E-02 0. -1.
       -2    1    3    3    0  502 -0.56894686073E+02 -0.11107885917E+03 -0.14129427248E+03  0.18851946769E+03  0.25500000920E-02 0.  1.
</event>
<event>
 5   0  0.2346281E-03  0.5998807E+03  0.7818609E-02  0.9905653E-01
        2   -1    0    0  501    0  0.00000000000E+00  0.00000000000E+00  0.16958955711E+03  0.16958955713E+03  0.25500000920E-02 0.  1.
       -2   -1    0    0    0  501  0.00000000000E+00  0.00000000000E+00 -0.53048211984E+03  0.53048211985E+03  0.25500000920E-02 0. -1.
    10030    2    1    2    0    0  0.00000000000E+00  0.00000000000E+00 -0.36089256273E+03  0.70007167698E+03  0.59988074738E+03 0.  0.
        3    1    3    3  502    0 -0.92972863561E+02 -0.20967898735E+03 -0.40600097842E+03  0.46631109334E+03  0.10100000352E+00 0. -1.
       -3    1    3    3    0  502  0.92972863561E+02  0.20967898735E+03  0.45108415687E+02  0.23376058364E+03  0.10100000352E+00 0.  1.
</event>
<event>
 5   0  0.2406307E-03  0.5998967E+03  0.7818609E-02  0.9905620E-01
       -2   -1    0    0    0  501  0.00000000000E+00  0.00000000000E+00  0.75771032216E+02  0.75771032259E+02  0.25500000920E-02 0.  1.
        2   -1    0    0  501    0  0.00000000000E+00  0.00000000000E+00 -0.11873798868E+04  0.11873798868E+04  0.25500000920E-02 0. -1.
    10030    2    1    2    0    0  0.00000000000E+00  0.00000000000E+00 -0.11116088546E+04  0.12631509190E+04  0.59989665671E+03 0.  0.
        5    1    3    3  502    0  0.11637068518E+03  0.18652116486E+03 -0.98534264536E+03  0.10095813489E+04  0.46999998093E+01 0. -1.
       -5    1    3    3    0  502 -0.11637068518E+03 -0.18652116486E+03 -0.12626620920E+03  0.25356957013E+03  0.46999998093E+01 0.  1.
</event>
<event>
 5   0  0.9496750E-04  0.5998311E+03  0.7818609E-02  0.9905757E-01
        3   -1    0    0  501    0  0.00000000000E+00  0.00000000000E+00  0.81753139699E+03  0.81753140322E+03  0.10100000352E+00 0. -1.
       -3   -1    0    0    0  501  0.00000000000E+00  0.00000000000E+00 -0.11002551987E+03  0.11002556623E+03  0.10100000352E+00 0.  1.
    10030    2    1    2    0    0  0.00000000000E+00  0.00000000000E+00  0.70750587711E+03  0.92755696945E+03  0.59983111409E+03 0.  0.
        1    1    3    3  502    0 -0.10568565460E+02  0.27736818978E+03  0.52941693849E+03  0.59776843514E+03  0.50400001928E-02 0. -1.
       -1    1    3    3    0  502  0.10568565460E+02 -0.27736818978E+03  0.17808893863E+03  0.32978853431E+03  0.50400001928E-02 0.  1.
</event>
<event>
 5   0  0.1479385E-03  0.5999715E+03  0.7818609E-02  0.9905465E-01
       -1   -1    0    0    0  501  0.00000000000E+00  0.00000000000E+00  0.54911726566E+02  0.54911726797E+02  0.50400001928E-02 0.  1.
        1   -1    0    0  501    0  0.00000000000E+00  0.00000000000E+00 -0.16388385921E+04  0.16388385921E+04  0.50400001928E-02 0. -1.
    10030    2    1    2    0    0  0.00000000000E+00  0.00000000000E+00 -0.15839268655E+04  0.16937503189E+04  0.59997152218E+03 0.  0.
        3    1    3    3  502    0 -0.27327184875E+03  0.80029382418E+02 -0.52549908269E+03  0.59768846523E+03  0.10100000352E+00 0.  1.
       -3    1    3    3    0  502  0.27327184875E+03 -0.80029382418E+02 -0.10584277829E+04  0.10960618537E+04  0.10100000352E+00 0. -1.
</event>
<event>
 5   0  0.9496750E-04  0.5999777E+03  0.7818609E-02  0.9905452E-01
       -3   -1    0    0    0  501  0.00000000000E+00  0.00000000000E+00  0.60189344047E+02  0.60189428788E+02  0.10100000352E+00 0.  1.
        3   -1    0    0  501    0  0.00000000000E+00  0.00000000000E+00 -0.14951688386E+04  0.14951688420E+04  0.10100000352E+00 0. -1.
    10030    2    1    2    0    0  0.00000000000E+00  0.00000000000E+00 -0.14349794945E+04  0.15553582708E+04  0.59997766688E+03 0.  0.
        5    1    3    3  502    0 -0.28784011065E+03 -0.74634355413E+02 -0.81951794377E+03  0.87181074004E+03  0.46999998093E+01 0.  1.
       -5    1    3    3    0  502  0.28784011065E+03  0.74634355413E+02 -0.61546155078E+03  0.68354753075E+03  0.46999998093E+01 0. -1.
</event>
<event>
 5   0  0.1416315E-03  0.6001141E+03  0.7818609E-02  0.9905169E-01
        1   -1    0    0  501    0  0.00000000000E+00  0.00000000000E+00  0.61770501888E+03  0.61770501890E+03  0.50400001928E-02 0.  1.
       -1   -1    0    0    0  501  0.00000000000E+00  0.00000000000E+00 -0.14575603158E+03  0.14575603166E+03  0.50400001928E-02 0. -1.
    10030    2    1    2    0    0  0.00000000000E+00  0.00000000000E+00  0.47194898730E+03  0.76346105056E+03  0.60011409674E+03 0.  0.
        2    1    3    3  502    0  0.11722837577E+03 -0.34449609774E+02  0.58462265552E+03  0.59725448266E+03  0.25500000920E-02 0.  1.
       -2    1    3    3    0  502 -0.11722837577E+03  0.34449609774E+02 -0.11267366822E+03  0.16620656791E+03  0.25500000920E-02 0. -1.
</event>
<event>
 5   0  0.1479385E-03  0.5999879E+03  0.7818609E-02  0.9905431E-01
        1   -1    0    0  501    0  0.00000000000E+00  0.00000000000E+00  0.42519637061E+03  0.42519637064E+03  0.50400001928E-02 0. -1.
       -1   -1    0    0    0  501  0.00000000000E+00  0.00000000000E+00 -0.21165833592E+03  0.21165833598E+03  0.50400001928E-02 0.  1.
    10030    2    1    2    0    0  0.00000000000E+00  0.00000000000E+00  0.21353803470E+03  0.63685470662E+03  0.59998785411E+03 0.  0.
        3    1    3    3  502    0  0.16270473446E+02  0.24353674236E+03  0.29190380082E+03  0.38050323562E+03  0.10100000352E+00 0. -1.
       -3    1    3    3    0  502 -0.16270473446E+02 -0.24353674236E+03 -0.78365766124E+02  0.25635147100E+03  0.10100000352E+00 0.  1.
</event>
<event>
 5   0  0.2313168E-03  0.6000147E+03  0.7818609E-02  0.9905376E-01
       -2   -1    0    0    0  501  0.00000000000E+00  0.00000000000E+00  0.39249906480E+03  0.39249906481E+03  0.25500000920E-02 0.  1.
        2   -1    0    0  501    0  0.00000000000E+00  0.00000000000E+00 -0.22931114425E+03  0.22931114427E+03  0.25500000920E-02 0. -1.
    10030    2    1    2    0    0  0.00000000000E+00  0.00000000000E+00  0.16318792055E+03  0.62181020908E+03  0.60001469873E+03 0.  0.
        2    1    3    3  502    0 -0.68105822462E+02 -0.17272707857E+03  0.32580490573E+03  0.37499584442E+03  0.25500000920E-02 0.  1.
       -2    1    3    3    0  502  0.68105822462E+02  0.17272707857E+03 -0.16261698518E+03  0.24681436466E+03  0.25500000920E-02 0. -1.
</event>
<event>
 5   0  0.2421210E-03  0.6001121E+03  0.7818609E-02  0.9905173E-01
       -2   -1    0    0    0  501  0.00000000000E+00  0.00000000000E+00  0.59301720493E+03  0.59301720493E+03  0.25500000920E-02 0. -1.
        2   -1    0    0  501    0  0.00000000000E+00  0.00000000000E+00 -0.15182297978E+03  0.15182297981E+03  0.25500000920E-02 0.  1.
    10030    2    1    2    0    0  0.00000000000E+00  0.00000000000E+00  0.44119422515E+03  0.74484018474E+03  0.60011211994E+03 0.  0.
        1    1    3    3  502    0 -0.15513934154E+03  0.43126042793E+02 -0.93655269453E+02  0.18627769696E+03  0.50400001928E-02 0.  1.
       -1    1    3    3    0  502  0.15513934154E+03 -0.43126042793E+02  0.53484949460E+03  0.55856248778E+03  0.50400001928E-02 0. -1.
</event>
<event>
 5   0  0.2421210E-03  0.5993310E+03  0.7818609E-02  0.9906795E-01
        2   -1    0    0  501    0  0.00000000000E+00  0.00000000000E+00  0.17908078308E+03  0.17908078310E+03  0.25500000920E-02 0.  1.
       -2   -1    0    0    0  501  0.00000000000E+00  0.00000000000E+00 -0.50144630966E+03  0.50144630967E+03  0.25500000920E-02 0. -1.
    10030    2    1    2    0    0  0.00000000000E+00  0.00000000000E+00 -0.32236552658E+03  0.68052709277E+03  0.59933095303E+03 0.  0.
        1    1    3    3  502    0  0.29947751896E+03  0.10579358617E+02 -0.16023915419E+03  0.33981655897E+03  0.50400001928E-02 0. -1.
       -1    1    3    3    0  502 -0.29947751896E+03 -0.10579358617E+02 -0.16212637239E+03  0.34071053380E+03  0.50400001928E-02 0.  1.
</event>
<event>
 5   0  0.2346281E-03  0.6000123E+03  0.7818609E-02  0.9905380E-01
        2   -1    0    0  501    0  0.00000000000E+00  0.00000000000E+00  0.14388954870E+04  0.14388954870E+04  0.25500000920E-02 0.  1.
       -2   -1    0    0    0  501  0.00000000000E+00  0.00000000000E+00 -0.62550545118E+02  0.62550545170E+02  0.25500000920E-02 0. -1.
    10030    2    1    2    0    0  0.00000000000E+00  0.00000000000E+00  0.13763449419E+04  0.15014460322E+04  0.60001232361E+03 0.  0.
        3    1    3    3  502    0  0.16514828963E+03  0.10548281426E+03  0.12566161928E+04  0.12718037773E+04  0.10100000352E+00 0.  1.
       -3    1    3    3    0  502 -0.16514828963E+03 -0.10548281426E+03  0.11972874905E+03  0.22964225487E+03  0.10100000352E+00 0. -1.
</event>
<event>
 5   0  0.1416315E-03  0.6000558E+03  0.7818609E-02  0.9905290E-01
       -1   -1    0    0    0  501  0.00000000000E+00  0.00000000000E+00  0.99000221618E+02  0.99000221746E+02  0.50400001928E-02 0. -1.
        1   -1    0    0  501    0  0.00000000000E+00  0.00000000000E+00 -0.90925800110E+03  0.90925800111E+03  0.50400001928E-02 0.  1.
    10030    2    1    2    0    0  0.00000000000E+00  0.00000000000E+00 -0.81025777948E+03  0.10082582229E+04  0.60005580970E+03 0.  0.
        2    1    3    3  502    0 -0.14997918753E+03 -0.25011668978E+03 -0.52352120264E+03  0.59927169532E+03  0.25500000920E-02 0.  1.
       -2    1    3    3    0  502  0.14997918753E+03  0.25011668978E+03 -0.28673657684E+03  0.40898652753E+03  0.25500000920E-02 0. -1.
</event>
<event>
 5   0  0.2346281E-03  0.6000144E+03  0.7818609E-02  0.9905376E-01
        2   -1    0    0  501    0  0.00000000000E+00  0.00000000000E+00  0.36851419655E+03  0.36851419656E+03  0.25500000920E-02 0.  1.
       -2   -1    0    0    0  501  0.00000000000E+00  0.00000000000E+00 -0.24423573305E+03  0.24423573307E+03  0.25500000920E-02 0. -1.
    10030    2    1    2    0    0  0.00000000000E+00  0.00000000000E+00  0.12427846350E+03  0.61274992963E+03  0.60001444963E+03 0.  0.
        3    1    3    3  502    0  0.18779681449E+03 -0.42460208142E+02  0.29709610054E+03  0.35402911740E+03  0.10100000352E+00 0.  1.
       -3    1    3    3    0  502 -0.18779681449E+03  0.42460208142E+02 -0.17281763704E+03  0.25872081223E+03  0.10100000352E+00 0. -1.
</event>
<event>
 5   0  0.1416315E-03  0.5997642E+03  0.7818609E-02  0.9905895E-01
        1   -1    0    0  501    0  0.00000000000E+00  0.00000000000E+00  0.17508920940E+04  0.17508920940E+04  0.50400001928E-02 0.  1.
       -1   -1    0    0    0  501  0.00000000000E+00  0.00000000000E+00 -0.51361980212E+02  0.51361980459E+02  0.50400001928E-02 0. -1.
    10030    2    1    2    0    0  0.00000000000E+00  0.00000000000E+00  0.16995301138E+04  0.18022540745E+04  0.59976423807E+03 0.  0.
        2    1    3    3  502    0 -0.23929295074E+02 -0.10552657265E+03  0.16901855274E+04  0.16936456494E+04  0.25500000920E-02 0.  1.
       -2    1    3    3    0  502  0.23929295074E+02  0.10552657265E+03  0.93445864129E+01  0.10860842509E+03  0.25500000920E-02 0. -1.
</event>
<event>
 5   0  0.2406307E-03  0.5998787E+03  0.7818609E-02  0.9905658E-01
        2   -1    0    0  501    0  0.00000000000E+00  0.00000000000E+00  0.15404003834E+04  0.15404003834E+04  0.25500000920E-02 0.  1.
       -2   -1    0    0    0  501  0.00000000000E+00  0.00000000000E+00 -0.58402737779E+02  0.58402737834E+02  0.25500000920E-02 0. -1.
    10030    2    1    2    0    0  0.00000000000E+00  0.00000000000E+00  0.14819976457E+04  0.15988031213E+04  0.59987865344E+03 0.  0.
        5    1    3    3  502    0 -0.27627631677E+03  0.52991299332E+02  0.10180375751E+04  0.10562003954E+04  0.46999998093E+01 0.  1.
       -5    1    3    3    0  502  0.27627631677E+03 -0.52991299332E+02  0.46396007055E+03  0.54260272583E+03  0.46999998093E+01 0. -1.
</event>
<event>
 5   0  0.2346281E-03  0.5999816E+03  0.7818609E-02  0.9905444E-01
        2   -1    0    0  501    0  0.00000000000E+00  0.00000000000E+00  0.38058150436E+03  0.38058150437E+03  0.25500000920E-02 0.  1.
       -2   -1    0    0    0  501  0.00000000000E+00  0.00000000000E+00 -0.23646572380E+03  0.23646572382E+03  0.25500000920E-02 0. -1.
    10030    2    1    2    0    0  0.00000000000E+00  0.00000000000E+00  0.14411578056E+03  0.61704722819E+03  0.59998160273E+03 0.  0.
        3    1    3    3  502    0 -0.29356031341E+03 -0.45568855273E+02  0.11496127930E+03  0.31854400656E+03  0.10100000352E+00 0. -1.
       -3    1    3    3    0  502  0.29356031341E+03  0.45568855273E+02  0.29154501264E+02  0.29850322163E+03  0.10100000352E+00 0.  1.
</event>
<event>
 5   0  0.1416315E-03  0.6000609E+03  0.7818609E-02  0.9905280E-01
        1   -1    0    0  501    0  0.00000000000E+00  0.00000000000E+00  0.29221891740E+03  0.29221891745E+03  0.50400001928E-02 0. -1.
       -1   -1    0    0    0  501  0.00000000000E+00  0.00000000000E+00 -0.30805079844E+03  0.30805079848E+03  0.50400001928E-02 0.  1.
    10030    2    1    2    0    0  0.00000000000E+00  0.00000000000E+00 -0.15831881037E+02  0.60026971593E+03  0.60006089975E+03 0.  0.
        2    1    3    3  502    0 -0.21360196466E+03  0.12170249368E+03 -0.17996699694E+03  0.30467263788E+03  0.25500000920E-02 0.  1.
       -2    1    3    3    0  502  0.21360196466E+03 -0.12170249368E+03  0.16413511590E+03  0.29559707805E+03  0.25500000920E-02 0. -1.
</event>
<event>
 5   0  0.1416315E-03  0.5981541E+03  0.7818609E-02  0.9909243E-01
       -1   -1    0    0    0  501  0.00000000000E+00  0.00000000000E+00  0.45735524421E+03  0.45735524424E+03  0.50400001928E-02 0.  1.
        1   -1    0    0  501    0  0.00000000000E+00  0.00000000000E+00 -0.19557465609E+03  0.19557465615E+03  0.50400001928E-02 0. -1.
    10030    2    1    2    0    0  0.00000000000E+00  0.00000000000E+00  0.26178058812E+03  0.65292990039E+03  0.59815414277E+03 0.  0.
        2    1    3    3  502    0 -0.24968491439E+03 -0.10416331928E+03  0.27005874662E+03  0.38226205695E+03  0.25500000920E-02 0. -1.
       -2    1    3    3    0  502  0.24968491439E+03  0.10416331928E+03 -0.82781584952E+01  0.27066784344E+03  0.25500000920E-02 0.  1.
</event>
<event>
 5   0  0.9496750E-04  0.6037540E+03  0.7818609E-02  0.9897648E-01
        3   -1    0    0  501    0  0.00000000000E+00  0.00000000000E+00  0.27316322074E+03  0.27316323941E+03  0.10100000352E+00 0.  1.
       -3   -1    0    0    0  501  0.00000000000E+00  0.00000000000E+00 -0.33360903599E+03  0.33360905128E+03  0.10100000352E+00 0. -1.
    10030    2    1    2    0    0  0.00000000000E+00  0.00000000000E+00 -0.60445815252E+02  0.60677229070E+03  0.60375401960E+03 0.  0.
        4    1    3    3  502    0 -0.79286633519E+01 -0.21416936985E+03 -0.24388094195E+03  0.32467046282E+03  0.12699999809E+01 0. -1.
       -4    1    3    3    0  502  0.79286633519E+01  0.21416936985E+03  0.18343512670E+03  0.28210182787E+03  0.12699999809E+01 0.  1.
</event>
<event>
 5   0  0.1418763E-03  0.5998815E+03  0.7818609E-02  0.9905652E-01
       -1   -1    0    0    0  501  0.00000000000E+00  0.00000000000E+00  0.12954640816E+03  0.12954640826E+03  0.50400001928E-02 0. -1.
        1   -1    0    0  501    0  0.00000000000E+00  0.00000000000E+00 -0.69445732728E+03  0.69445732730E+03  0.50400001928E-02 0.  1.
    10030    2    1    2    0    0  0.00000000000E+00  0.00000000000E+00 -0.56491091911E+03  0.82400373556E+03  0.59988149637E+03 0.  0.
        5    1    3    3  502    0  0.25904146179E+03  0.49152757076E+02 -0.47876117552E+03  0.54658286256E+03  0.46999998093E+01 0.  1.
       -5    1    3    3    0  502 -0.25904146179E+03 -0.49152757076E+02 -0.86149743588E+02  0.27742087300E+03  0.46999998093E+01 0. -1.
</event>
<event>
 5   0  0.2313168E-03  0.6001733E+03  0.7818609E-02  0.9905047E-01
        2   -1    0    0  501    0  0.00000000000E+00  0.00000000000E+00  0.11408903869E+04  0.11408903869E+04  0.25500000920E-02 0. -1.
       -2   -1    0    0    0  501  0.00000000000E+00  0.00000000000E+00 -0.78931334869E+02  0.78931334910E+02  0.25500000920E-02 0.  1.
    10030    2    1    2    0    0  0.00000000000E+00  0.00000000000E+00  0.10619590520E+04  0.12198217218E+04  0.60017331231E+03 0.  0.
        2    1    3    3  502    0 -0.25661524018E+03 -0.10186198877E+02  0.21547912212E+03  0.33524079736E+03  0.25500000920E-02 0.  1.
       -2    1    3    3    0  502  0.25661524018E+03  0.10186198877E+02  0.84647992990E+03  0.88458092444E+03  0.25500000920E-02 0. -1.
</event>
<event>
 5   0  0.2313168E-03  0.5999421E+03  0.7818609E-02  0.9905526E-01
        2   -1    0    0  501    0  0.00000000000E+00  0.00000000000E+00  0.13944942706E+04  0.13944942706E+04  0.25500000920E-02 0.  1.
       -2   -1    0    0    0  501  0.00000000000E+00  0.00000000000E+00 -0.64527062887E+02  0.64527062937E+02  0.25500000920E-02 0. -1.
    10030    2    1    2    0    0  0.00000000000E+00  0.00000000000E+00  0.13299672077E+04  0.14590213335E+04  0.59994206231E+03 0.  0.
        2    1    3    3  502    0  0.13029156119E+03  0.15885305763E+03  0.13343740338E+03  0.24498107164E+03  0.25500000920E-02 0. -1.
       -2    1    3    3    0  502 -0.13029156119E+03 -0.15885305763E+03  0.11965298043E+04  0.12140402619E+04  0.25500000920E-02 0.  1.
</event>
<event>
 5   0  0.1479385E-03  0.5996690E+03  0.7818609E-02  0.9906093E-01
       -1   -1    0    0    0  501  0.00000000000E+00  0.00000000000E+00  0.77011588972E+02  0.77011589137E+02  0.50400001928E-02 0.  1.
        1   -1    0    0  501    0  0.00000000000E+00  0.00000000000E+00 -0.11673662169E+04  0.11673662169E+04  0.50400001928E-02 0. -1.
    10030    2    1    2    0    0  0.00000000000E+00  0.00000000000E+00 -0.10903546279E+04  0.12443778061E+04  0.59966899999E+03 0.  0.
        3    1    3    3  502    0  0.92951700315E+02 -0.37152309104E+02 -0.11316675496E+04  0.11360861612E+04  0.10100000352E+00 0. -1.
       -3    1    3    3    0  502 -0.92951700315E+02  0.37152309104E+02  0.41312921611E+02  0.10829164490E+03  0.10100000352E+00 0.  1.
</event>
<event>
 5   0  0.2324616E-03  0.6004433E+03  0.7818609E-02  0.9904487E-01
        2   -1    0    0  501    0  0.00000000000E+00  0.00000000000E+00  0.18202266099E+04  0.18202266099E+04  0.25500000920E-02 0.  1.
       -2   -1    0    0    0  501  0.00000000000E+00  0.00000000000E+00 -0.49517484726E+02  0.49517484792E+02  0.25500000920E-02 0. -1.
    10030    2    1    2    0    0  0.00000000000E+00  0.00000000000E+00  0.17707091252E+04  0.18697440947E+04  0.60044331428E+03 0.  0.
        4    1    3    3  502    0  0.19737859729E+03 -0.76691063167E+02  0.15480576465E+04  0.15624736540E+04  0.12699999809E+01 0.  1.
       -4    1    3    3    0  502 -0.19737859729E+03  0.76691063167E+02  0.22265147870E+03  0.30727044067E+03  0.12699999809E+01 0. -1.
</event>
<event>
 5   0  0.1423430E-03  0.5997388E+03  0.7818609E-02  0.9905948E-01
       -1   -1    0    0    0  501  0.00000000000E+00  0.00000000000E+00  0.14480058758E+03  0.14480058767E+03  0.50400001928E-02 0. -1.
        1   -1    0    0  501    0  0.00000000000E+00  0.00000000000E+00 -0.62100339602E+03  0.62100339604E+03  0.50400001928E-02 0.  1.
    10030    2    1    2    0    0  0.00000000000E+00  0.00000000000E+00 -0.47620280844E+03  0.76580398371E+03  0.59973879873E+03 0.  0.
        1    1    3    3  502    0 -0.47602970218E+02 -0.24956701105E+03 -0.34710208300E+02  0.25642646970E+03  0.50400001928E-02 0. -1.
       -1    1    3    3    0  502  0.47602970218E+02  0.24956701105E+03 -0.44149260014E+03  0.50937751401E+03  0.50400001928E-02 0.  1.
</event>
<event>
 5   0  0.2313168E-03  0.5999619E+03  0.7818609E-02  0.9905485E-01
        2   -1    0    0  501    0  0.00000000000E+00  0.00000000000E+00  0.13476383097E+04  0.13476383097E+04  0.25500000920E-02 0.  1.
       -2   -1    0    0    0  501  0.00000000000E+00  0.00000000000E+00 -0.66775007579E+02  0.66775007628E+02  0.25500000920E-02 0. -1.
    10030    2    1    2    0    0  0.00000000000E+00  0.00000000000E+00  0.12808633022E+04  0.14144133174E+04  0.59996186006E+03 0.  0.
        2    1    3    3  502    0 -0.83878596995E+02 -0.19275060778E+03  0.13590268077E+03  0.25031570962E+03  0.25500000920E-02 0. -1.
       -2    1    3    3    0  502  0.83878596995E+02  0.19275060778E+03  0.11449606214E+04  0.11640976078E+04  0.25500000920E-02 0.  1.
</event>
<event>
 5   0  0.1479385E-03  0.5993129E+03  0.7818609E-02  0.9906833E-01
       -1   -1    0    0    0  501  0.00000000000E+00  0.00000000000E+00  0.15097790508E+03  0.15097790517E+03  0.50400001928E-02 0. -1.
        1   -1    0    0  501    0  0.00000000000E+00  0.00000000000E+00 -0.59474911718E+03  0.59474911721E+03  0.50400001928E-02 0.  1.
    10030    2    1    2    0    0  0.00000000000E+00  0.00000000000E+00 -0.44377121210E+03  0.74572702237E+03  0.59931285920E+03 0.  0.
        3    1    3    3  502    0 -0.51763021083E+02 -0.14771117696E+03 -0.53984338271E+03  0.56207552002E+03  0.10100000352E+00 0.  1.
       -3    1    3    3    0  502  0.51763021083E+02  0.14771117696E+03  0.96072170604E+02  0.18365150235E+03  0.10100000352E+00 0. -1.
</event>
<event>
 5   0  0.9496750E-04  0.5998238E+03  0.7818609E-02  0.9905772E-01
        3   -1    0    0  501    0  0.00000000000E+00  0.00000000000E+00  0.10035630249E+04  0.10035630300E+04  0.10100000352E+00 0.  1.
       -3   -1    0    0    0  501  0.00000000000E+00  0.00000000000E+00 -0.89627771429E+02  0.89627828336E+02  0.10100000352E+00 0. -1.
    10030    2    1    2    0    0  0.00000000000E+00  0.00000000000E+00  0.91393525352E+03  0.10931908584E+04  0.59982381179E+03 0.  0.
        1    1    3    3  502    0  0.10916540912E+03  0.10222970348E+03 -0.16814484941E+02  0.15050158056E+03  0.50400001928E-02 0. -1.
       -1    1    3    3    0  502 -0.10916540912E+03 -0.10222970348E+03  0.93074973846E+03  0.94268927780E+03  0.50400001928E-02 0.  1.
</event>
<event>
 5   0  0.2421210E-03  0.6001430E+03  0.7818609E-02  0.9905109E-01
       -2   -1    0    0    0  501  0.00000000000E+00  0.00000000000E+00  0.18595735540E+03  0.18595735542E+03  0.25500000920E-02 0. -1.
        2   -1    0    0  501    0  0.00000000000E+00  0.00000000000E+00 -0.48421271452E+03  0.48421271452E+03  0.25500000920E-02 0.  1.
    10030    2    1    2    0    0  0.00000000000E+00  0.00000000000E+00 -0.29825535912E+03  0.67017006994E+03  0.60014303579E+03 0.  0.
        1    1    3    3  502    0 -0.16696601783E+03  0.30931421230E+02 -0.42539923186E+03  0.45803811023E+03  0.50400001928E-02 0.  1.
       -1    1    3    3    0  502  0.16696601783E+03 -0.30931421230E+02  0.12714387275E+03  0.21213195971E+03  0.50400001928E-02 0. -1.
</event>
<event>
 5   0  0.2406307E-03  0.5966950E+03  0.7818609E-02  0.9912287E-01
        2   -1    0    0  501    0  0.00000000000E+00  0.00000000000E+00  0.19005039002E+04  0.19005039002E+04  0.25500000920E-02 0. -1.
       -2   -1    0    0    0  501  0.00000000000E+00  0.00000000000E+00 -0.46835587967E+02  0.46835588036E+02  0.25500000920E-02 0.  1.
    10030    2    1    2    0    0  0.00000000000E+00  0.00000000000E+00  0.18536683122E+04  0.19473394882E+04  0.59669495613E+03 0.  0.
        5    1    3    3  502    0 -0.92873575989E+02  0.24088844489E+03  0.43908588997E+03  0.50938320817E+03  0.46999998093E+01 0.  1.
       -5    1    3    3    0  502  0.92873575989E+02 -0.24088844489E+03  0.14145824223E+04  0.14379562801E+04  0.46999998093E+01 0. -1.
</event>
<event>
 5   0  0.1423430E-03  0.6001162E+03  0.7818609E-02  0.9905165E-01
       -1   -1    0    0    0  501  0.00000000000E+00  0.00000000000E+00  0.69474924306E+02  0.69474924489E+02  0.50400001928E-02 0. -1.
        1   -1    0    0  501    0  0.00000000000E+00  0.00000000000E+00 -0.12959334107E+04  0.12959334107E+04  0.50400001928E-02 0.  1.
    10030    2    1    2    0    0  0.00000000000E+00  0.00000000000E+00 -0.12264584864E+04  0.13654083352E+04  0.60011624122E+03 0.  0.
        1    1    3    3  502    0 -0.25567516135E+03 -0.13820630257E+03 -0.78294604843E+03  0.83514985780E+03  0.50400001928E-02 0.  1.
       -1    1    3    3    0  502  0.25567516135E+03  0.13820630257E+03 -0.44351243795E+03  0.53025847739E+03  0.50400001928E-02 0. -1.
</event>
<event>
 5   0  0.1416315E-03  0.5998407E+03  0.7818609E-02  0.9905737E-01
       -1   -1    0    0    0  501  0.00000000000E+00  0.00000000000E+00  0.27747726828E+03  0.27747726832E+03  0.50400001928E-02 0. -1.
        1   -1    0    0  501    0  0.00000000000E+00  0.00000000000E+00 -0.32417871295E+03  0.32417871299E+03  0.50400001928E-02 0.  1.
    10030    2    1    2    0    0  0.00000000000E+00  0.00000000000E+00 -0.46701444679E+02  0.60165598131E+03  0.59984072462E+03 0.  0.
        2    1    3    3  502    0 -0.60322847479E+02 -0.39737856078E+02  0.26862172094E+03  0.27816464926E+03  0.25500000920E-02 0. -1.
       -2    1    3    3    0  502  0.60322847479E+02  0.39737856078E+02 -0.31532316562E+03  0.32349133205E+03  0.25500000920E-02 0.  1.
</event>
<event>
 5   0  0.1392854E-03  0.5998058E+03  0.7818609E-02  0.9905809E-01
        1   -1    0    0  501    0  0.00000000000E+00  0.00000000000E+00  0.12593880213E+03  0.12593880223E+03  0.50400001928E-02 0. -1.
       -1   -1    0    0    0  501  0.00000000000E+00  0.00000000000E+00 -0.71417024379E+03  0.71417024381E+03  0.50400001928E-02 0.  1.
    10030    2    1    2    0    0  0.00000000000E+00  0.00000000000E+00 -0.58823144166E+03  0.84010904604E+03  0.59980578546E+03 0.  0.
        4    1    3    3  502    0  0.27378888765E+03 -0.91797218436E+02 -0.18073305069E+03  0.34066572006E+03  0.12699999809E+01 0.  1.
       -4    1    3    3    0  502 -0.27378888765E+03  0.91797218436E+02 -0.40749839098E+03  0.49944332598E+03  0.12699999809E+01 0. -1.
</event>
<event>
 5   0  0.2313168E-03  0.5995062E+03  0.7818609E-02  0.9906431E-01
       -2   -1    0    0    0  501  0.00000000000E+00  0.00000000000E+00  0.12612338192E+03  0.12612338195E+03  0.25500000920E-02 0.  1.
        2   -1    0    0  501    0  0.00000000000E+00  0.00000000000E+00 -0.71241293199E+03  0.71241293199E+03  0.25500000920E-02 0. -1.
    10030    2    1    2    0    0  0.00000000000E+00  0.00000000000E+00 -0.58628955007E+03  0.83853631394E+03  0.59950622456E+03 0.  0.
        2    1    3    3  502    0 -0.48924161042E+02  0.14727008881E+03  0.65563742415E+02  0.16846559565E+03  0.25500000920E-02 0.  1.
       -2    1    3    3    0  502  0.48924161042E+02 -0.14727008881E+03 -0.65185329248E+03  0.67007071829E+03  0.25500000920E-02 0. -1.
</event>
<event>
 5   0  0.2313168E-03  0.6000469E+03  0.7818609E-02  0.9905309E-01
        2   -1    0    0  501    0  0.00000000000E+00  0.00000000000E+00  0.13864612771E+04  0.13864612771E+04  0.25500000920E-02 0. -1.
       -2   -1    0    0    0  501  0.00000000000E+00  0.00000000000E+00 -0.64923615016E+02  0.64923615066E+02  0.25500000920E-02 0.  1.
    10030    2    1    2    0    0  0.00000000000E+00  0.00000000000E+00  0.13215376621E+04  0.14513848922E+04  0.60004692560E+03 0.  0.
        2    1    3    3  502    0  0.77567673619E+02 -0.14646351208E+03  0.12656866370E+04  0.12764916637E+04  0.25500000920E-02 0. -1.
       -2    1    3    3    0  502 -0.77567673619E+02  0.14646351208E+03  0.55851025091E+02  0.17489322849E+03  0.25500000920E-02 0.  1.
</event>
<event>
 5   0  0.2324616E-03  0.5999105E+03  0.7818609E-02  0.9905592E-01
       -2   -1    0    0    0  501  0.00000000000E+00  0.00000000000E+00  0.11372573302E+03  0.11372573305E+03  0.25500000920E-02 0. -1.
        2   -1    0    0  501    0  0.00000000000E+00  0.00000000000E+00 -0.79114142264E+03  0.79114142265E+03  0.25500000920E-02 0.  1.
    10030    2    1    2    0    0  0.00000000000E+00  0.00000000000E+00 -0.67741568962E+03  0.90486715570E+03  0.59991045408E+03 0.  0.
        4    1    3    3  502    0  0.10359553087E+03  0.15331754655E+03  0.17378620888E+02  0.18585460302E+03  0.12699999809E+01 0. -1.
       -4    1    3    3    0  502 -0.10359553087E+03 -0.15331754655E+03 -0.69479431051E+03  0.71901255268E+03  0.12699999809E+01 0.  1.
</event>
<event>
 5   0  0.9496750E-04  0.5998553E+03  0.7818609E-02  0.9905706E-01
       -3   -1    0    0    0  501  0.00000000000E+00  0.00000000000E+00  0.18969256935E+03  0.18969259624E+03  0.10100000352E+00 0. -1.
        3   -1    0    0  501    0  0.00000000000E+00  0.00000000000E+00 -0.47422302168E+03  0.47422303244E+03  0.10100000352E+00 0.  1.
    10030    2    1    2    0    0  0.00000000000E+00  0.00000000000E+00 -0.28453045233E+03  0.66391562868E+03  0.59985530230E+03 0.  0.
        3    1    3    3  502    0 -0.27951679867E+03 -0.62462926386E+01 -0.26243220494E+03  0.38345707621E+03  0.10100000352E+00 0.  1.
       -3    1    3    3    0  502  0.27951679867E+03  0.62462926386E+01 -0.22098247392E+02  0.28045855246E+03  0.10100000352E+00 0. -1.
</event>
<event>
 5   0  0.2406307E-03  0.6008334E+03  0.7818609E-02  0.9903678E-01
        2   -1    0    0  501    0  0.00000000000E+00  0.00000000000E+00  0.17583226235E+04  0.17583226235E+04  0.25500000920E-02 0.  1.
       -2   -1    0    0    0  501  0.00000000000E+00  0.00000000000E+00 -0.51327443306E+02  0.51327443370E+02  0.25500000920E-02 0. -1.
    10030    2    1    2    0    0  0.00000000000E+00  0.00000000000E+00  0.17069951802E+04  0.18096500669E+04  0.60083343725E+03 0.  0.
        5    1    3    3  502    0 -0.11474039829E+03 -0.15807918238E+03  0.16619205052E+03  0.25650784502E+03  0.46999998093E+01 0. -1.
       -5    1    3    3    0  502  0.11474039829E+03  0.15807918238E+03  0.15408031297E+04  0.15531422219E+04  0.46999998093E+01 0.  1.
</event>
<event>
 5   0  0.2313168E-03  0.6001366E+03  0.7818609E-02  0.9905123E-01
       -2   -1    0    0    0  501  0.00000000000E+00  0.00000000000E+00  0.21401907903E+03  0.21401907904E+03  0.25500000920E-02 0. -1.
        2   -1    0    0  501    0  0.00000000000E+00  0.00000000000E+00 -0.42071476503E+03  0.42071476503E+03  0.25500000920E-02 0.  1.
    10030    2    1    2    0    0  0.00000000000E+00  0.00000000000E+00 -0.20669568600E+03  0.63473384408E+03  0.60013660629E+03 0.  0.
        2    1    3    3  502    0  0.15482239922E+03 -0.18406084254E+03 -0.29311440178E+03  0.37916279036E+03  0.25500000920E-02 0.  1.
       -2    1    3    3    0  502 -0.15482239922E+03  0.18406084254E+03  0.86418715782E+02  0.25557105372E+03  0.25500000920E-02 0. -1.
</event>
<event>
 5   0  0.2421210E-03  0.5995118E+03  0.7818609E-02  0.9906420E-01
        2   -1    0    0  501    0  0.00000000000E+00  0.00000000000E+00  0.47223553199E+03  0.47223553199E+03  0.25500000920E-02 0. -1.
       -2   -1    0    0    0  501  0.00000000000E+00  0.00000000000E+00 -0.19027282369E+03  0.19027282370E+03  0.25500000920E-02 0.  1.
    10030    2    1    2    0    0  0.00000000000E+00  0.00000000000E+00  0.28196270830E+03  0.66250835570E+03  0.59951176177E+03 0.  0.
        1    1    3    3  502    0 -0.26598927747E+03  0.17335117025E+02  0.29251349353E+03  0.39574606244E+03  0.50400001928E-02 0. -1.
       -1    1    3    3    0  502  0.26598927747E+03 -0.17335117025E+02 -0.10550785234E+02  0.26676229326E+03  0.50400001928E-02 0.  1.
</event>
<event>
 5   0  0.2324616E-03  0.6002299E+03  0.7818609E-02  0.9904929E-01
        2   -1    0    0  501    0  0.00000000000E+00  0.00000000000E+00  0.71627358332E+03  0.71627358332E+03  0.25500000920E-02 0.  1.
       -2   -1    0    0    0  501  0.00000000000E+00  0.00000000000E+00 -0.12574662465E+03  0.12574662468E+03  0.25500000920E-02 0. -1.
    10030    2    1    2    0    0  0.00000000000E+00  0.00000000000E+00  0.59052695866E+03  0.84202020800E+03  0.60022990743E+03 0.  0.
        4    1    3    3  502    0  0.24709495745E+03 -0.12753108865E+03  0.13687865125E+03  0.30993140311E+03  0.12699999809E+01 0. -1.
       -4    1    3    3    0  502 -0.24709495745E+03  0.12753108865E+03  0.45364830742E+03  0.53208880489E+03  0.12699999809E+01 0.  1.
</event>
<event>
 5   0  0.2324616E-03  0.5998697E+03  0.7818609E-02  0.9905677E-01
        2   -1    0    0  501    0  0.00000000000E+00  0.00000000000E+00  0.56405102300E+03  0.56405102301E+03  0.25500000920E-02 0.  1.
       -2   -1    0    0    0  501  0.00000000000E+00  0.00000000000E+00 -0.15949071210E+03  0.15949071212E+03  0.25500000920E-02 0. -1.
    10030    2    1    2    0    0  0.00000000000E+00  0.00000000000E+00  0.40456031090E+03  0.72354173513E+03  0.59986965028E+03 0.  0.
        4    1    3    3  502    0 -0.22036436719E+02  0.21981491859E+03  0.44697140599E+03  0.49858725781E+03  0.12699999809E+01 0.  1.
       -4    1    3    3    0  502  0.22036436719E+02 -0.21981491859E+03 -0.42411095095E+02  0.22495447732E+03  0.12699999809E+01 0. -1.
</event>
<event>
 5   0  0.2406307E-03  0.5983125E+03  0.7818609E-02  0.9908913E-01
        2   -1    0    0  501    0  0.00000000000E+00  0.00000000000E+00  0.11449205140E+04  0.11449205140E+04  0.25500000920E-02 0. -1.
       -2   -1    0    0    0  501  0.00000000000E+00  0.00000000000E+00 -0.78166526267E+02  0.78166526309E+02  0.25500000920E-02 0.  1.
    10030    2    1    2    0    0  0.00000000000E+00  0.00000000000E+00  0.10667539877E+04  0.12230870403E+04  0.59831249180E+03 0.  0.
        5    1    3    3  502    0  0.83144836855E+02 -0.11832131120E+03 -0.18804457980E+01  0.14470184053E+03  0.46999998093E+01 0.  1.
       -5    1    3    3    0  502 -0.83144836855E+02  0.11832131120E+03  0.10686344335E+04  0.10783851998E+04  0.46999998093E+01 0. -1.
</event>
<event>
 5   0  0.1416315E-03  0.5998860E+03  0.7818609E-02  0.9905643E-01
        1   -1    0    0  501    0  0.00000000000E+00  0.00000000000E+00  0.27820505517E+04  0.27820505517E+04  0.50400001928E-02 0.  1.
       -1   -1    0    0    0  501  0.00000000000E+00  0.00000000000E+00 -0.32337944216E+02  0.32337944609E+02  0.50400001928E-02 0. -1.
    10030    2    1    2    0    0  0.00000000000E+00  0.00000000000E+00  0.27497126075E+04  0.28143884964E+04  0.59988597619E+03 0.  0.
        2    1    3    3  502    0 -0.11657446884E+03 -0.60949770709E+02  0.11021616012E+03  0.17161609276E+03  0.25500000920E-02 0. -1.
       -2    1    3    3    0  502  0.11657446884E+03  0.60949770709E+02  0.26394964474E+04  0.26427724036E+04  0.25500000920E-02 0.  1.
</event>
<event>
 5   0  0.2406307E-03  0.5998143E+03  0.7818609E-02  0.9905791E-01
        2   -1    0    0  501    0  0.00000000000E+00  0.00000000000E+00  0.61901171435E+03  0.61901171436E+03  0.25500000920E-02 0.  1.
       -2   -1    0    0    0  501  0.00000000000E+00  0.00000000000E+00 -0.14530306085E+03  0.14530306087E+03  0.25500000920E-02 0. -1.
    10030    2    1    2    0    0  0.00000000000E+00  0.00000000000E+00  0.47370865350E+03  0.76431477523E+03  0.59981429395E+03 0.  0.
        5    1    3    3  502    0 -0.23579485513E+02 -0.26005892081E+03  0.48991442953E+02  0.26572332587E+03  0.46999998093E+01 0. -1.
       -5    1    3    3    0  502  0.23579485513E+02  0.26005892081E+03  0.42471721055E+03  0.49859144935E+03  0.46999998093E+01 0.  1.
</event>
<event>
 5   0  0.2346281E-03  0.5997103E+03  0.7818609E-02  0.9906007E-01
        2   -1    0    0  501    0  0.00000000000E+00  0.00000000000E+00  0.10138616508E+04  0.10138616508E+04  0.25500000920E-02 0. -1.
       -2   -1    0    0    0  501  0.00000000000E+00  0.00000000000E+00 -0.88683818117E+02  0.88683818154E+02  0.25500000920E-02 0.  1.
    10030    2    1    2    0    0  0.00000000000E+00  0.00000000000E+00  0.92517783269E+03  0.11025454690E+04  0.59971033761E+03 0.  0.
        3    1    3    3  502    0 -0.43489060678E+02  0.21403131135E+03  0.84031332923E+03  0.86823222822E+03  0.10100000352E+00 0. -1.
       -3    1    3    3    0  502  0.43489060678E+02 -0.21403131135E+03  0.84864503457E+02  0.23431324074E+03  0.10100000352E+00 0.  1.
</event>
<event>
 5   0  0.9496750E-04  0.6003183E+03  0.7818609E-02  0.9904746E-01
       -4   -1    0    0    0  501  0.00000000000E+00  0.00000000000E+00  0.71821269230E+03  0.71821381515E+03  0.12699999809E+01 0.  1.
        4   -1    0    0  501    0  0.00000000000E+00  0.00000000000E+00 -0.12543963030E+03  0.12544605913E+03  0.12699999809E+01 0. -1.
    10030    2    1    2    0    0  0.00000000000E+00  0.00000000000E+00  0.59277306200E+03  0.84365987428E+03  0.60031831593E+03 0.  0.
        2    1    3    3  502    0 -0.21521542107E+03  0.10591163254E+03  0.42796725342E+02  0.24365243911E+03  0.25500000920E-02 0. -1.
       -2    1    3    3    0  502  0.21521542107E+03 -0.10591163254E+03  0.54997633665E+03  0.60000743517E+03  0.25500000920E-02 0.  1.
</event>
<event>
 5   0  0.1392854E-03  0.5998819E+03  0.7818609E-02  0.9905651E-01
       -1   -1    0    0    0  501  0.00000000000E+00  0.00000000000E+00  0.48946963081E+03  0.48946963084E+03  0.50400001928E-02 0.  1.
        1   -1    0    0  501    0  0.00000000000E+00  0.00000000000E+00 -0.18380014274E+03  0.18380014281E+03  0.50400001928E-02 0. -1.
    10030    2    1    2    0    0  0.00000000000E+00  0.00000000000E+00  0.30566948808E+03  0.67326977365E+03  0.59988194853E+03 0.  0.
        4    1    3    3  502    0 -0.22195225780E+03  0.12080219043E+03  0.33417817087E+03  0.41896615226E+03  0.12699999809E+01 0.  1.
       -4    1    3    3    0  502  0.22195225780E+03 -0.12080219043E+03 -0.28508682797E+02  0.25430362138E+03  0.12699999809E+01 0. -1.
</event>
<event>
 5   0  0.1418763E-03  0.5982129E+03  0.7818609E-02  0.9909121E-01
       -1   -1    0    0    0  501  0.00000000000E+00  0.00000000000E+00  0.52725924846E+03  0.52725924848E+03  0.50400001928E-02 0.  1.
        1   -1    0    0  501    0  0.00000000000E+00  0.00000000000E+00 -0.16967870814E+03  0.16967870821E+03  0.50400001928E-02 0. -1.
    10030    2    1    2    0    0  0.00000000000E+00  0.00000000000E+00  0.35758054032E+03  0.69693795669E+03  0.59821289911E+03 0.  0.
        5    1    3    3  502    0  0.25362281743E+03  0.13385275161E+03  0.27765682271E+03  0.39919480686E+03  0.46999998093E+01 0.  1.
       -5    1    3    3    0  502 -0.25362281743E+03 -0.13385275161E+03  0.79923717616E+02  0.29774314983E+03  0.46999998093E+01 0. -1.
</event>
<event>
 5   0  0.1418763E-03  0.6000298E+03  0.7818609E-02  0.9905344E-01
       -1   -1    0    0    0  501  0.00000000000E+00  0.00000000000E+00  0.13549443301E+03  0.13549443311E+03  0.50400001928E-02 0.  1.
        1   -1    0    0  501    0  0.00000000000E+00  0.00000000000E+00 -0.66429997541E+03  0.66429997543E+03  0.50400001928E-02 0. -1.
    10030    2    1    2    0    0  0.00000000000E+00  0.00000000000E+00 -0.52880554240E+03  0.79979440854E+03  0.60002982781E+03 0.  0.
        5    1    3    3  502    0  0.56191501995E+02 -0.11545444696E+01 -0.65717025296E+03  0.65958596805E+03  0.46999998093E+01 0. -1.
       -5    1    3    3    0  502 -0.56191501995E+02  0.11545444696E+01  0.12836471056E+03  0.14020844049E+03  0.46999998093E+01 0.  1.
</event>
<event>
 5   0  0.9496750E-04  0.5998922E+03  0.7818609E-02  0.9905630E-01
       -3   -1    0    0    0  501  0.00000000000E+00  0.00000000000E+00  0.56641968467E+02  0.56642058515E+02  0.10100000352E+00 0. -1.
        3   -1    0    0  501    0  0.00000000000E+00  0.00000000000E+00 -0.15883554742E+04  0.15883554774E+04  0.10100000352E+00 0.  1.
    10030    2    1    2    0    0  0.00000000000E+00  0.00000000000E+00 -0.15317135057E+04  0.16449975359E+04  0.59989218161E+03 0.  0.
        5    1    3    3  502    0 -0.23107831748E+03  0.23895115382E+02 -0.12859808197E+04  0.13068040878E+04  0.46999998093E+01 0.  1.
       -5    1    3    3    0  502  0.23107831748E+03 -0.23895115382E+02 -0.24573268604E+03  0.33819344810E+03  0.46999998093E+01 0. -1.
</event>
<event>
 5   0  0.9496750E-04  0.5998550E+03  0.7818609E-02  0.9905707E-01
        3   -1    0    0  501    0  0.00000000000E+00  0.00000000000E+00  0.92444051114E+02  0.92444106288E+02  0.10100000352E+00 0. -1.
       -3   -1    0    0    0  501  0.00000000000E+00  0.00000000000E+00 -0.97309103772E+03  0.97309104296E+03  0.10100000352E+00 0.  1.
    10030    2    1    2    0    0  0.00000000000E+00  0.00000000000E+00 -0.88064698661E+03  0.10655351493E+04  0.59985501521E+03 0.  0.
        4    1    3    3  502    0 -0.53265438918E+01  0.29951376808E+03 -0.46655221976E+03  0.55444517853E+03  0.12699999809E+01 0.  1.
       -4    1    3    3    0  502  0.53265438918E+01 -0.29951376808E+03 -0.41409476685E+03  0.51108997072E+03  0.12699999809E+01 0. -1.
</event>
<event>
 5   0  0.2421210E-03  0.6002316E+03  0.7818609E-02  0.9904926E-01
       -2   -1    0    0    0  501  0.00000000000E+00  0.00000000000E+00  0.14269910409E+03  0.14269910412E+03  0.25500000920E-02 0.  1.
        2   -1    0    0  501    0  0.00000000000E+00  0.00000000000E+00 -0.63118462910E+03  0.63118462911E+03  0.25500000920E-02 0. -1.
    10030    2    1    2    0    0  0.00000000000E+00  0.00000000000E+00 -0.48848552501E+03  0.77388373322E+03  0.60023155899E+03 0.  0.
        1    1    3    3  502    0  0.29621980870E+03  0.47952672965E+02 -0.25053891578E+03  0.39091608084E+03  0.50400001928E-02 0. -1.
       -1    1    3    3    0  502 -0.29621980870E+03 -0.47952672965E+02 -0.23794660922E+03  0.38296765239E+03  0.50400001928E-02 0.  1.
</event>
<event>
 5   0  0.2421210E-03  0.6001170E+03  0.7818609E-02  0.9905163E-01
        2   -1    0    0  501    0  0.00000000000E+00  0.00000000000E+00  0.50921213973E+03  0.50921213974E+03  0.25500000920E-02 0.  1.
       -2   -1    0    0    0  501  0.00000000000E+00  0.00000000000E+00 -0.17681257487E+03  0.17681257489E+03  0.25500000920E-02 0. -1.
    10030    2    1    2    0    0  0.00000000000E+00  0.00000000000E+00  0.33239956487E+03  0.68602471463E+03  0.60011702055E+03 0.  0.
        1    1    3    3  502    0  0.13921398637E+03 -0.22314576686E+03  0.33130721134E+03  0.42301186222E+03  0.50400001928E-02 0.  1.
       -1    1    3    3    0  502 -0.13921398637E+03  0.22314576686E+03  0.10923535244E+01  0.26301285240E+03  0.50400001928E-02 0. -1.
</event>
<event>
 5   0  0.1392854E-03  0.5998386E+03  0.7818609E-02  0.9905741E-01
       -1   -1    0    0    0  501  0.00000000000E+00  0.00000000000E+00  0.61360195725E+02  0.61360195932E+02  0.50400001928E-02 0. -1.
        1   -1    0    0  501    0  0.00000000000E+00  0.00000000000E+00 -0.14659599512E+04  0.14659599512E+04  0.50400001928E-02 0.  1.
    10030    2    1    2    0    0  0.00000000000E+00  0.00000000000E+00 -0.14045997555E+04  0.15273201471E+04  0.59983861061E+03 0.  0.
        4    1    3    3  502    0  0.16774673880E+03 -0.14501584139E+03 -0.12164936405E+04  0.12365382942E+04  0.12699999809E+01 0.  1.
       -4    1    3    3    0  502 -0.16774673880E+03  0.14501584139E+03 -0.18810611495E+03  0.29078185297E+03  0.12699999809E+01 0. -1.
</event>
<event>
 5   0  0.2313168E-03  0.5999321E+03  0.7818609E-02  0.9905547E-01
       -2   -1    0    0    0  501  0.00000000000E+00  0.00000000000E+00  0.61354809693E+02  0.61354809746E+02  0.25500000920E-02 0. -1.
        2   -1    0    0  501    0  0.00000000000E+00  0.00000000000E+00 -0.14665458766E+04  0.14665458766E+04  0.25500000920E-02 0.  1.
    10030    2    1    2    0    0  0.00000000000E+00  0.00000000000E+00 -0.14051910669E+04  0.15279006863E+04  0.59993214018E+03 0.  0.
        2    1    3    3  502    0  0.16486022190E+03 -0.10317790162E+03 -0.12097294125E+03  0.22903935179E+03  0.25500000920E-02 0. -1.
       -2    1    3    3    0  502 -0.16486022190E+03  0.10317790162E+03 -0.12842181256E+04  0.12988613345E+04  0.25500000920E-02 0.  1.
</event>
<event>
 5   0  0.1418763E-03  0.5999209E+03  0.7818609E-02  0.9905570E-01
       -1   -1    0    0    0  501  0.00000000000E+00  0.00000000000E+00  0.15305641280E+03  0.15305641288E+03  0.50400001928E-02 0.  1.
        1   -1    0    0  501    0  0.00000000000E+00  0.00000000000E+00 -0.58786337208E+03  0.58786337210E+03  0.50400001928E-02 0. -1.
    10030    2    1    2    0    0  0.00000000000E+00  0.00000000000E+00 -0.43480695928E+03  0.74091978499E+03  0.59992085807E+03 0.  0.
        5    1    3    3  502    0  0.15589957105E+03 -0.25025003264E+03 -0.28532350557E+03  0.41031859319E+03  0.46999998093E+01 0. -1.
       -5    1    3    3    0  502 -0.15589957105E+03  0.25025003264E+03 -0.14948345370E+03  0.33060119179E+03  0.46999998093E+01 0.  1.
</event>
<event>
 5   0  0.2406307E-03  0.5996016E+03  0.7818609E-02  0.9906233E-01
       -2   -1    0    0    0  501  0.00000000000E+00  0.00000000000E+00  0.56371074174E+02  0.56371074231E+02  0.25500000920E-02 0. -1.
        2   -1    0    0  501    0  0.00000000000E+00  0.00000000000E+00 -0.15944441001E+04  0.15944441001E+04  0.25500000920E-02 0.  1.
    10030    2    1    2    0    0  0.00000000000E+00  0.00000000000E+00 -0.15380730260E+04  0.16508151744E+04  0.59960162336E+03 0.  0.
        5    1    3    3  502    0  0.34595135167E+02  0.89299358301E+02 -0.15510929172E+04  0.15540535790E+04  0.46999998093E+01 0.  1.
       -5    1    3    3    0  502 -0.34595135167E+02 -0.89299358301E+02  0.13019891204E+02  0.96761595353E+02  0.46999998093E+01 0. -1.
</event>
<event>
 5   0  0.2406307E-03  0.5998182E+03  0.7818609E-02  0.9905783E-01
       -2   -1    0    0    0  501  0.00000000000E+00  0.00000000000E+00  0.68054707138E+02  0.68054707186E+02  0.25500000920E-02 0. -1.
        2   -1    0    0  501    0  0.00000000000E+00  0.00000000000E+00 -0.13216641301E+04  0.13216641301E+04  0.25500000920E-02 0.  1.
    10030    2    1    2    0    0  0.00000000000E+00  0.00000000000E+00 -0.12536094229E+04  0.13897188373E+04  0.59981819026E+03 0.  0.
        5    1    3    3  502    0 -0.29739108149E+03 -0.25806270913E+02 -0.69298684785E+03  0.75455965984E+03  0.46999998093E+01 0. -1.
       -5    1    3    3    0  502  0.29739108149E+03  0.25806270913E+02 -0.56062257508E+03  0.63515917741E+03  0.46999998093E+01 0.  1.
</event>
<event>
 5   0  0.1423430E-03  0.6017670E+03  0.7818609E-02  0.9901747E-01
       -1   -1    0    0    0  501  0.00000000000E+00  0.00000000000E+00  0.57393615561E+02  0.57393615783E+02  0.50400001928E-02 0.  1.
        1   -1    0    0  501    0  0.00000000000E+00  0.00000000000E+00 -0.15773687393E+04  0.15773687393E+04  0.50400001928E-02 0. -1.
    10030    2    1    2    0    0  0.00000000000E+00  0.00000000000E+00 -0.15199751238E+04  0.16347623551E+04  0.60176704865E+03 0.  0.
        1    1    3    3  502    0 -0.19776726377E+03 -0.13507185839E+03 -0.12547868400E+04  0.12774374002E+04  0.50400001928E-02 0.  1.
       -1    1    3    3    0  502  0.19776726377E+03  0.13507185839E+03 -0.26518828380E+03  0.35732495496E+03  0.50400001928E-02 0. -1.
</event>
<event>
 5   0  0.1392854E-03  0.5999962E+03  0.7818609E-02  0.9905414E-01
        1   -1    0    0  501    0  0.00000000000E+00  0.00000000000E+00  0.10450589198E+03  0.10450589210E+03  0.50400001928E-02 0. -1.
       -1   -1    0    0    0  501  0.00000000000E+00  0.00000000000E+00 -0.86118454078E+03  0.86118454080E+03  0.50400001928E-02 0.  1.
    10030    2    1    2    0    0  0.00000000000E+00  0.00000000000E+00 -0.75667864881E+03  0.96569043290E+03  0.59999619551E+03 0.  0.
        4    1    3    3  502    0  0.10872821133E+03 -0.25352257347E+03 -0.56810768390E+03  0.63154055500E+03  0.12699999809E+01 0.  1.
       -4    1    3    3    0  502 -0.10872821133E+03  0.25352257347E+03 -0.18857096490E+03  0.33414987790E+03  0.12699999809E+01 0. -1.
</event>
<event>
 5   0  0.2346281E-03  0.5999691E+03  0.7818609E-02  0.9905470E-01
       -2   -1    0    0    0  501  0.00000000000E+00  0.00000000000E+00  0.74046268408E+03  0.74046268408E+03  0.25500000920E-02 0. -1.
        2   -1    0    0  501    0  0.00000000000E+00  0.00000000000E+00 -0.12153311538E+03  0.12153311541E+03  0.25500000920E-02 0.  1.
    10030    2    1    2    0    0  0.00000000000E+00  0.00000000000E+00  0.61892956870E+03  0.86199579949E+03  0.59996912199E+03 0.  0.
        3    1    3    3  502    0  0.15021789728E+03 -0.25948675512E+03  0.29568907218E+03  0.42110667337E+03  0.10100000352E+00 0.  1.
       -3    1    3    3    0  502 -0.15021789728E+03  0.25948675512E+03  0.32324049652E+03  0.44088912613E+03  0.10100000352E+00 0. -1.
</event>
<event>
 5   0  0.2421210E-03  0.6000385E+03  0.7818609E-02  0.9905326E-01
       -2   -1    0    0    0  501  0.00000000000E+00  0.00000000000E+00  0.24945756664E+03  0.24945756665E+03  0.25500000920E-02 0.  1.
        2   -1    0    0  501    0  0.00000000000E+00  0.00000000000E+00 -0.36082910796E+03  0.36082910797E+03  0.25500000920E-02 0. -1.
    10030    2    1    2    0    0  0.00000000000E+00  0.00000000000E+00 -0.11137154132E+03  0.61028667462E+03  0.60003850294E+03 0.  0.
        1    1    3    3  502    0 -0.41569831975E+02 -0.29702666975E+03 -0.63475412462E+02  0.30656487321E+03  0.50400001928E-02 0.  1.
       -1    1    3    3    0  502  0.41569831975E+02  0.29702666975E+03 -0.47896128855E+02  0.30372180142E+03  0.50400001928E-02 0. -1.
</event>
<event>
 5   0  0.2406307E-03  0.5999229E+03  0.7818609E-02  0.9905566E-01
       -2   -1    0    0    0  501  0.00000000000E+00  0.00000000000E+00  0.80690193566E+02  0.80690193606E+02  0.25500000920E-02 0.  1.
        2   -1    0    0  501    0  0.00000000000E+00  0.00000000000E+00 -0.11150905131E+04  0.11150905131E+04  0.25500000920E-02 0. -1.
    10030    2    1    2    0    0  0.00000000000E+00  0.00000000000E+00 -0.10344003195E+04  0.11957807067E+04  0.59992289294E+03 0.  0.
        5    1    3    3  502    0  0.35548753058E-01 -0.26061733468E+03 -0.22133304353E+03  0.34195292448E+03  0.46999998093E+01 0.  1.
       -5    1    3    3    0  502 -0.35548753058E-01  0.26061733468E+03 -0.81306727597E+03  0.85382778220E+03  0.46999998093E+01 0. -1.
</event>
<event>
 5   0  0.9496750E-04  0.5988770E+03  0.7818609E-02  0.9907739E-01
        4   -1    0    0  501    0  0.00000000000E+00  0.00000000000E+00  0.13484812228E+03  0.13485410258E+03  0.12699999809E+01 0. -1.
       -4   -1    0    0    0  501  0.00000000000E+00  0.00000000000E+00 -0.66490018041E+03  0.66490139330E+03  0.12699999809E+01 0.  1.
    10030    2    1    2    0    0  0.00000000000E+00  0.00000000000E+00 -0.53005205812E+03  0.79975549588E+03  0.59887700646E+03 0.  0.
        2    1    3    3  502    0 -0.86854919951E+02  0.28440440309E+03 -0.21811902653E+03  0.36878930483E+03  0.25500000920E-02 0.  1.
       -2    1    3    3    0  502  0.86854919951E+02 -0.28440440309E+03 -0.31193303160E+03  0.43096619105E+03  0.25500000920E-02 0. -1.
</event>
<event>
 5   0  0.2346281E-03  0.6001005E+03  0.7818609E-02  0.9905198E-01
       -2   -1    0    0    0  501  0.00000000000E+00  0.00000000000E+00  0.25354380432E+03  0.25354380434E+03  0.25500000920E-02 0. -1.
        2   -1    0    0  501    0  0.00000000000E+00  0.00000000000E+00 -0.35508712717E+03  0.35508712718E+03  0.25500000920E-02 0.  1.
    10030    2    1    2    0    0  0.00000000000E+00  0.00000000000E+00 -0.10154332285E+03  0.60863093152E+03  0.60010046191E+03 0.  0.
        3    1    3    3  502    0  0.28995063808E+03 -0.70985000032E+02 -0.20010865423E+02  0.29918336800E+03  0.10100000352E+00 0.  1.
       -3    1    3    3    0  502 -0.28995063808E+03  0.70985000032E+02 -0.81532457423E+02  0.30944756352E+03  0.10100000352E+00 0. -1.
</event>
<event>
 5   0  0.2324616E-03  0.6000045E+03  0.7818609E-02  0.9905397E-01
       -2   -1    0    0    0  501  0.00000000000E+00  0.00000000000E+00  0.20449762897E+03  0.20449762898E+03  0.25500000920E-02 0. -1.
        2   -1    0    0  501    0  0.00000000000E+00  0.00000000000E+00 -0.44010946146E+03  0.44010946147E+03  0.25500000920E-02 0.  1.
    10030    2    1    2    0    0  0.00000000000E+00  0.00000000000E+00 -0.23561183250E+03  0.64460709045E+03  0.60000447119E+03 0.  0.
        4    1    3    3  502    0  0.27225945953E+03  0.43365381676E+02  0.92839397326E+01  0.27585063724E+03  0.12699999809E+01 0. -1.
       -4    1    3    3    0  502 -0.27225945953E+03 -0.43365381676E+02 -0.24489577223E+03  0.36875645321E+03  0.12699999809E+01 0.  1.
</event>
<event>
 5   0  0.1418763E-03  0.5991130E+03  0.7818609E-02  0.9907248E-01
        1   -1    0    0  501    0  0.00000000000E+00  0.00000000000E+00  0.53940324263E+03  0.53940324265E+03  0.50400001928E-02 0.  1.
       -1   -1    0    0    0  501  0.00000000000E+00  0.00000000000E+00 -0.16635807949E+03  0.16635807957E+03  0.50400001928E-02 0. -1.
    10030    2    1    2    0    0  0.00000000000E+00  0.00000000000E+00  0.37304516314E+03  0.70576132221E+03  0.59911296948E+03 0.  0.
        5    1    3    3  502    0  0.23899722572E+03  0.17173046694E+03  0.12092347245E+03  0.31820685625E+03  0.46999998093E+01 0. -1.
       -5    1    3    3    0  502 -0.23899722572E+03 -0.17173046694E+03  0.25212169069E+03  0.38755446597E+03  0.46999998093E+01 0.  1.
</event>
<event>
 5   0  0.2346281E-03  0.5998792E+03  0.7818609E-02  0.9905657E-01
       -2   -1    0    0    0  501  0.00000000000E+00  0.00000000000E+00  0.80798216819E+02  0.80798216859E+02  0.25500000920E-02 0.  1.
        2   -1    0    0  501    0  0.00000000000E+00  0.00000000000E+00 -0.11134376599E+04  0.11134376599E+04  0.25500000920E-02 0. -1.
    10030    2    1    2    0    0  0.00000000000E+00  0.00000000000E+00 -0.10326394431E+04  0.11942358768E+04  0.59987924614E+03 0.  0.
        3    1    3    3  502    0  0.12131485976E+03  0.10731576271E+03 -0.13748574487E+02  0.16255153529E+03  0.10100000352E+00 0.  1.
       -3    1    3    3    0  502 -0.12131485976E+03 -0.10731576271E+03 -0.10188908686E+04  0.10316843415E+04  0.10100000352E+00 0. -1.
</event>
<event>
 5   0  0.2324616E-03  0.6002235E+03  0.7818609E-02  0.9904942E-01
        2   -1    0    0  501    0  0.00000000000E+00  0.00000000000E+00  0.46357575679E+03  0.46357575680E+03  0.25500000920E-02 0.  1.
       -2   -1    0    0    0  501  0.00000000000E+00  0.00000000000E+00 -0.19428770843E+03  0.19428770844E+03  0.25500000920E-02 0. -1.
    10030    2    1    2    0    0  0.00000000000E+00  0.00000000000E+00  0.26928804837E+03  0.65786346524E+03  0.60022352995E+03 0.  0.
        4    1    3    3  502    0  0.16838952345E+03 -0.16397122165E+03  0.33917601222E+03  0.41265430242E+03  0.12699999809E+01 0.  1.
       -4    1    3    3    0  502 -0.16838952345E+03  0.16397122165E+03 -0.69887963855E+02  0.24520916282E+03  0.12699999809E+01 0. -1.
</event>
<event>
 5   0  0.2421210E-03  0.5999940E+03  0.7818609E-02  0.9905418E-01
       -2   -1    0    0    0  501  0.00000000000E+00  0.00000000000E+00  0.12247540717E+03  0.12247540719E+03  0.25500000920E-02 0.  1.
        2   -1    0    0  501    0  0.00000000000E+00  0.00000000000E+00 -0.73482674529E+03  0.73482674529E+03  0.25500000920E-02 0. -1.
    10030    2    1    2    0    0  0.00000000000E+00  0.00000000000E+00 -0.61235133812E+03  0.85730215248E+03  0.59999401610E+03 0.  0.
        1    1    3    3  502    0 -0.93511040214E+02  0.35267348328E+02  0.97989993297E+02  0.13996477883E+03  0.50400001928E-02 0.  1.
       -1    1    3    3    0  502  0.93511040214E+02 -0.35267348328E+02 -0.71034133142E+03  0.71733737366E+03  0.50400001928E-02 0. -1.
</event>
<event>
 5   0  0.1392854E-03  0.6001660E+03  0.7818609E-02  0.9905062E-01
       -1   -1    0    0    0  501  0.00000000000E+00  0.00000000000E+00  0.40649236992E+03  0.40649236995E+03  0.50400001928E-02 0.  1.
        1   -1    0    0  501    0  0.00000000000E+00  0.00000000000E+00 -0.22152886476E+03  0.22152886481E+03  0.50400001928E-02 0. -1.
    10030    2    1    2    0    0  0.00000000000E+00  0.00000000000E+00  0.18496350517E+03  0.62802123477E+03  0.60016595461E+03 0.  0.
        4    1    3    3  502    0  0.78509640346E+02  0.13780614777E+03  0.35904781162E+03  0.39251909753E+03  0.12699999809E+01 0.  1.
       -4    1    3    3    0  502 -0.78509640346E+02 -0.13780614777E+03 -0.17408430646E+03  0.23550213724E+03  0.12699999809E+01 0. -1.
</event>
<event>
 5   0  0.2346281E-03  0.5998691E+03  0.7818609E-02  0.9905678E-01
       -2   -1    0    0    0  501  0.00000000000E+00  0.00000000000E+00  0.73971039757E+02  0.73971039801E+02  0.25500000920E-02 0. -1.
        2   -1    0    0  501    0  0.00000000000E+00  0.00000000000E+00 -0.12161615663E+04  0.12161615663E+04  0.25500000920E-02 0.  1.
    10030    2    1    2    0    0  0.00000000000E+00  0.00000000000E+00 -0.11421905265E+04  0.12901326061E+04  0.59986910439E+03 0.  0.
        3    1    3    3  502    0 -0.16329728377E+03 -0.93897628102E+02 -0.69113121847E+02  0.20064745516E+03  0.10100000352E+00 0. -1.
       -3    1    3    3    0  502  0.16329728377E+03  0.93897628102E+02 -0.10730774047E+04  0.10894851509E+04  0.10100000352E+00 0.  1.
</event>
<event>
 5   0  0.2406307E-03  0.5999479E+03  0.7818609E-02  0.9905514E-01
        2   -1    0    0  501    0  0.00000000000E+00  0.00000000000E+00  0.52238299857E+03  0.52238299858E+03  0.25500000920E-02 0.  1.
       -2   -1    0    0    0  501  0.00000000000E+00  0.00000000000E+00 -0.17225745900E+03  0.17225745901E+03  0.25500000920E-02 0. -1.
    10030    2    1    2    0    0  0.00000000000E+00  0.00000000000E+00  0.35012553958E+03  0.69464045759E+03  0.59994789095E+03 0.  0.
        5    1    3    3  502    0 -0.17754949492E+03 -0.17211854670E+03 -0.21474881639E+02  0.24825768428E+03  0.46999998093E+01 0. -1.
       -5    1    3    3    0  502  0.17754949492E+03  0.17211854670E+03  0.37160042122E+03  0.44638277331E+03  0.46999998093E+01 0.  1.
</event>
<event>
 5   0  0.1423430E-03  0.5990838E+03  0.7818609E-02  0.9907309E-01
        1   -1    0    0  501    0  0.00000000000E+00  0.00000000000E+00  0.79085974268E+03  0.79085974270E+03  0.50400001928E-02 0.  1.
       -1   -1    0    0    0  501  0.00000000000E+00  0.00000000000E+00 -0.11345293607E+03  0.11345293619E+03  0.50400001928E-02 0. -1.
    10030    2    1    2    0    0  0.00000000000E+00  0.00000000000E+00  0.67740680661E+03  0.90431267888E+03  0.59908383349E+03 0.  0.
        1    1    3    3  502    0  0.45252741680E+01  0.23158458057E+03  0.52005218991E+02  0.23739511135E+03  0.50400001928E-02 0. -1.
       -1    1    3    3    0  502 -0.45252741680E+01 -0.23158458057E+03  0.62540158761E+03  0.66691756753E+03  0.50400001928E-02 0.  1.
</event>
<event>
 5   0  0.9496750E-04  0.6002856E+03  0.7818609E-02  0.9904814E-01
       -3   -1    0    0    0  501  0.00000000000E+00  0.00000000000E+00  0.10680849461E+03  0.10680854236E+03  0.10100000352E+00 0. -1.
        3   -1    0    0  501    0  0.00000000000E+00  0.00000000000E+00 -0.84343183653E+03  0.84343184257E+03  0.10100000352E+00 0.  1.
    10030    2    1    2    0    0  0.00000000000E+00  0.00000000000E+00 -0.73662334192E+03  0.95024038493E+03  0.60028563309E+03 0.  0.
        2    1    3    3  502    0 -0.62578751523E+02 -0.15806437176E+03 -0.75987224421E+03  0.77865671081E+03  0.25500000920E-02 0.  1.
       -2    1    3    3    0  502  0.62578751523E+02  0.15806437176E+03  0.23248902293E+02  0.17158367412E+03  0.25500000920E-02 0. -1.
</event>
<event>
 5   0  0.1416315E-03  0.5986869E+03  0.7818609E-02  0.9908134E-01
        1   -1    0    0  501    0  0.00000000000E+00  0.00000000000E+00  0.66498164118E+03  0.66498164120E+03  0.50400001928E-02 0.  1.
       -1   -1    0    0    0  501  0.00000000000E+00  0.00000000000E+00 -0.13475035050E+03  0.13475035059E+03  0.50400001928E-02 0. -1.
    10030    2    1    2    0    0  0.00000000000E+00  0.00000000000E+00  0.53023129068E+03  0.79973199179E+03  0.59868692742E+03 0.  0.
        2    1    3    3  502    0  0.25714250354E+00 -0.27351102265E+03  0.10261742582E+03  0.29212785167E+03  0.25500000920E-02 0. -1.
       -2    1    3    3    0  502 -0.25714250354E+00  0.27351102265E+03  0.42761386486E+03  0.50760414012E+03  0.25500000920E-02 0.  1.
</event>
<event>
 5   0  0.2324616E-03  0.6000329E+03  0.7818609E-02  0.9905338E-01
        2   -1    0    0  501    0  0.00000000000E+00  0.00000000000E+00  0.20077252607E+03  0.20077252608E+03  0.25500000920E-02 0.  1.
       -2   -1    0    0    0  501  0.00000000000E+00  0.00000000000E+00 -0.44831768403E+03  0.44831768404E+03  0.25500000920E-02 0. -1.
    10030    2    1    2    0    0  0.00000000000E+00  0.00000000000E+00 -0.24754515797E+03  0.64909021012E+03  0.60003291213E+03 0.  0.
        4    1    3    3  502    0  0.27381741488E+03 -0.22250602410E+02  0.66552588434E+01  0.27480351412E+03  0.12699999809E+01 0.  1.
       -4    1    3    3    0  502 -0.27381741488E+03  0.22250602410E+02 -0.25420041681E+03  0.37428669601E+03  0.12699999809E+01 0. -1.
</event>
<event>
 5   0  0.1479385E-03  0.6000501E+03  0.7818609E-02  0.9905302E-01
        1   -1    0    0  501    0  0.00000000000E+00  0.00000000000E+00  0.10795022422E+04  0.10795022422E+04  0.50400001928E-02 0. -1.
       -1   -1    0    0    0  501  0.00000000000E+00  0.00000000000E+00 -0.83385669189E+02  0.83385669341E+02  0.50400001928E-02 0.  1.
    10030    2    1    2    0    0  0.00000000000E+00  0.00000000000E+00  0.99611657296E+03  0.11628879115E+04  0.60005005441E+03 0.  0.
        3    1    3    3  502    0  0.95529765851E+02  0.15121909089E+03  0.96487477685E+03  0.98131365772E+03  0.10100000352E+00 0. -1.
       -3    1    3    3    0  502 -0.95529765851E+02 -0.15121909089E+03  0.31241796114E+02  0.18157425379E+03  0.10100000352E+00 0.  1.
</event>
<event>
 5   0  0.2406307E-03  0.6001312E+03  0.7818609E-02  0.9905134E-01
       -2   -1    0    0    0  501  0.00000000000E+00  0.00000000000E+00  0.10490141128E+03  0.10490141131E+03  0.25500000920E-02 0.  1.
        2   -1    0    0  501    0  0.00000000000E+00  0.00000000000E+00 -0.85832372061E+03  0.85832372061E+03  0.25500000920E-02 0. -1.
    10030    2    1    2    0    0  0.00000000000E+00  0.00000000000E+00 -0.75342230933E+03  0.96322513192E+03  0.60013121780E+03 0.  0.
        5    1    3    3  502    0 -0.19201311729E+03 -0.22582402128E+03 -0.30225889546E+03  0.42337696641E+03  0.46999998093E+01 0. -1.
       -5    1    3    3    0  502  0.19201311729E+03  0.22582402128E+03 -0.45116341386E+03  0.53984816551E+03  0.46999998093E+01 0.  1.
</event>
<event>
 5   0  0.2313168E-03  0.6001004E+03  0.7818609E-02  0.9905198E-01
        2   -1    0    0  501    0  0.00000000000E+00  0.00000000000E+00  0.12562723460E+03  0.12562723463E+03  0.25500000920E-02 0.  1.
       -2   -1    0    0    0  501  0.00000000000E+00  0.00000000000E+00 -0.71664496922E+03  0.71664496922E+03  0.25500000920E-02 0. -1.
    10030    2    1    2    0    0  0.00000000000E+00  0.00000000000E+00 -0.59101773462E+03  0.84227220385E+03  0.60010041056E+03 0.  0.
        2    1    3    3  502    0  0.22762307683E+03 -0.17815219231E+03 -0.18252809176E+03  0.34185811826E+03  0.25500000920E-02 0. -1.
       -2    1    3    3    0  502 -0.22762307683E+03  0.17815219231E+03 -0.40848964286E+03  0.50041408560E+03  0.25500000920E-02 0.  1.
</event>
<event>
 5   0  0.2406307E-03  0.5996082E+03  0.7818609E-02  0.9906219E-01
        2   -1    0    0  501    0  0.00000000000E+00  0.00000000000E+00  0.11756971091E+04  0.11756971091E+04  0.25500000920E-02 0. -1.
       -2   -1    0    0    0  501  0.00000000000E+00  0.00000000000E+00 -0.76450377339E+02  0.76450377382E+02  0.25500000920E-02 0.  1.
    10030    2    1    2    0    0  0.00000000000E+00  0.00000000000E+00  0.10992467317E+04  0.12521474865E+04  0.59960816424E+03 0.  0.
        5    1    3    3  502    0  0.10766147095E+03  0.22419294456E+03  0.89910205116E+03  0.93287730013E+03  0.46999998093E+01 0.  1.
       -5    1    3    3    0  502 -0.10766147095E+03 -0.22419294456E+03  0.20014468059E+03  0.31927018634E+03  0.46999998093E+01 0. -1.
</event>
<event>
 5   0  0.1479385E-03  0.5998272E+03  0.7818609E-02  0.9905765E-01
       -1   -1    0    0    0  501  0.00000000000E+00  0.00000000000E+00  0.25573216089E+03  0.25573216094E+03  0.50400001928E-02 0.  1.
        1   -1    0    0  501    0  0.00000000000E+00  0.00000000000E+00 -0.35172807778E+03  0.35172807782E+03  0.50400001928E-02 0. -1.
    10030    2    1    2    0    0  0.00000000000E+00  0.00000000000E+00 -0.95995916888E+02  0.60746023876E+03  0.59982724647E+03 0.  0.
        3    1    3    3  502    0  0.20036535794E+03  0.22307442886E+03 -0.54378427444E+02  0.30473841413E+03  0.10100000352E+00 0. -1.
       -3    1    3    3    0  502 -0.20036535794E+03 -0.22307442886E+03 -0.41617489444E+02  0.30272182462E+03  0.10100000352E+00 0.  1.
</event>
<event>
 5   0  0.1416315E-03  0.5998786E+03  0.7818609E-02  0.9905658E-01
       -1   -1    0    0    0  501  0.00000000000E+00  0.00000000000E+00  0.19291174108E+03  0.19291174114E+03  0.50400001928E-02 0. -1.
        1   -1    0    0  501    0  0.00000000000E+00  0.00000000000E+00 -0.46634583426E+03  0.46634583429E+03  0.50400001928E-02 0.  1.
    10030    2    1    2    0    0  0.00000000000E+00  0.00000000000E+00 -0.27343409318E+03  0.65925757543E+03  0.59987861059E+03 0.  0.
        2    1    3    3  502    0 -0.91465110901E+02 -0.71869041883E+02 -0.44054725970E+03  0.45564560102E+03  0.25500000920E-02 0.  1.
       -2    1    3    3    0  502  0.91465110901E+02  0.71869041883E+02  0.16711316652E+03  0.20361197441E+03  0.25500000920E-02 0. -1.
</event>
<event>
 5   0  0.2346281E-03  0.5997197E+03  0.7818609E-02  0.9905988E-01
        2   -1    0    0  501    0  0.00000000000E+00  0.00000000000E+00  0.16538981685E+04  0.16538981685E+04  0.25500000920E-02 0. -1.
       -2   -1    0    0    0  501  0.00000000000E+00  0.00000000000E+00 -0.54366056459E+02  0.54366056519E+02  0.25500000920E-02 0.  1.
    10030    2    1    2    0    0  0.00000000000E+00  0.00000000000E+00  0.15995321121E+04  0.17082642250E+04  0.59971967205E+03 0.  0.
        3    1    3    3  502    0  0.13003703048E+03 -0.16577079652E+03  0.19199775212E+03  0.28504865075E+03  0.10100000352E+00 0.  1.
       -3    1    3    3    0  502 -0.13003703048E+03  0.16577079652E+03  0.14075343599E+04  0.14232155743E+04  0.10100000352E+00 0. -1.
</event>
<event>
 5   0  0.1416315E-03  0.6016530E+03  0.7818609E-02  0.9901982E-01
        1   -1    0    0  501    0  0.00000000000E+00  0.00000000000E+00  0.13224054357E+04  0.13224054358E+04  0.50400001928E-02 0. -1.
       -1   -1    0    0    0  501  0.00000000000E+00  0.00000000000E+00 -0.68433321326E+02  0.68433321511E+02  0.50400001928E-02 0.  1.
    10030    2    1    2    0    0  0.00000000000E+00  0.00000000000E+00  0.12539721144E+04  0.13908387573E+04  0.60165304368E+03 0.  0.
        2    1    3    3  502    0  0.24594978369E+03 -0.14644718319E+03  0.84084630667E+03  0.88823453266E+03  0.25500000920E-02 0.  1.
       -2    1    3    3    0  502 -0.24594978369E+03  0.14644718319E+03  0.41312580775E+03  0.50260422461E+03  0.25500000920E-02 0. -1.
</event>
<event>
 5   0  0.2324616E-03  0.6000766E+03  0.7818609E-02  0.9905247E-01
       -2   -1    0    0    0  501  0.00000000000E+00  0.00000000000E+00  0.52273548573E+03  0.52273548574E+03  0.25500000920E-02 0. -1.
        2   -1    0    0  501    0  0.00000000000E+00  0.00000000000E+00 -0.17221518001E+03  0.17221518003E+03  0.25500000920E-02 0.  1.
    10030    2    1    2    0    0  0.00000000000E+00  0.00000000000E+00  0.35052030572E+03  0.69495066577E+03  0.60007661439E+03 0.  0.
        4    1    3    3  502    0  0.26185864269E+03  0.13872966097E+03  0.22964793211E+03  0.37490752621E+03  0.12699999809E+01 0.  1.
       -4    1    3    3    0  502 -0.26185864269E+03 -0.13872966097E+03  0.12087237360E+03  0.32004313956E+03  0.12699999809E+01 0. -1.
</event>
<event>
 5   0  0.9496750E-04  0.5999939E+03  0.7818609E-02  0.9905419E-01
       -3   -1    0    0    0  501  0.00000000000E+00  0.00000000000E+00  0.33697096490E+03  0.33697098004E+03  0.10100000352E+00 0.  1.
        3   -1    0    0  501    0  0.00000000000E+00  0.00000000000E+00 -0.26707985918E+03  0.26707987827E+03  0.10100000352E+00 0. -1.
    10030    2    1    2    0    0  0.00000000000E+00  0.00000000000E+00  0.69891105723E+02  0.60405085831E+03  0.59999389394E+03 0.  0.
        5    1    3    3  502    0  0.23244726038E+02  0.10613066397E+02  0.33583615701E+03  0.33683967821E+03  0.46999998093E+01 0.  1.
       -5    1    3    3    0  502 -0.23244726038E+02 -0.10613066397E+02 -0.26594505128E+03  0.26721118010E+03  0.46999998093E+01 0. -1.
</event>
<event>
 5   0  0.1392854E-03  0.6038400E+03  0.7818609E-02  0.9897471E-01
        1   -1    0    0  501    0  0.00000000000E+00  0.00000000000E+00  0.17886619211E+04  0.17886619211E+04  0.50400001928E-02 0.  1.
       -1   -1    0    0    0  501  0.00000000000E+00  0.00000000000E+00 -0.50963053716E+02  0.50963053965E+02  0.50400001928E-02 0. -1.
    10030    2    1    2    0    0  0.00000000000E+00  0.00000000000E+00  0.17376988674E+04  0.18396249751E+04  0.60383995827E+03 0.  0.
        4    1    3    3  502    0  0.24912622340E+03 -0.16838015951E+03  0.95162956638E+03  0.99800611111E+03  0.12699999809E+01 0. -1.
       -4    1    3    3    0  502 -0.24912622340E+03  0.16838015951E+03  0.78606930101E+03  0.84161886397E+03  0.12699999809E+01 0.  1.
</event>
<event>
 5   0  0.1423430E-03  0.5995496E+03  0.7818609E-02  0.9906341E-01
       -1   -1    0    0    0  501  0.00000000000E+00  0.00000000000E+00  0.70568171865E+02  0.70568172045E+02  0.50400001928E-02 0.  1.
        1   -1    0    0  501    0  0.00000000000E+00  0.00000000000E+00 -0.12734484980E+04  0.12734484980E+04  0.50400001928E-02 0. -1.
    10030    2    1    2    0    0  0.00000000000E+00  0.00000000000E+00 -0.12028803261E+04  0.13440166700E+04  0.59954960627E+03 0.  0.
        1    1    3    3  502    0 -0.19051445113E+01 -0.21477430353E+03 -0.10702380716E+04  0.10915773729E+04  0.50400001928E-02 0. -1.
       -1    1    3    3    0  502  0.19051445113E+01  0.21477430353E+03 -0.13264225446E+03  0.25243929711E+03  0.50400001928E-02 0.  1.
</event>
<event>
 5   0  0.1479385E-03  0.5999707E+03  0.7818609E-02  0.9905467E-01
       -1   -1    0    0    0  501  0.00000000000E+00  0.00000000000E+00  0.95157506398E+02  0.95157506532E+02  0.50400001928E-02 0. -1.
        1   -1    0    0  501    0  0.00000000000E+00  0.00000000000E+00 -0.94570809240E+03  0.94570809241E+03  0.50400001928E-02 0.  1.
    10030    2    1    2    0    0  0.00000000000E+00  0.00000000000E+00 -0.85055058600E+03  0.10408655989E+04  0.59997074572E+03 0.  0.
        3    1    3    3  502    0 -0.36829643056E+02  0.13528981617E+03 -0.88536168332E+03  0.89639560321E+03  0.10100000352E+00 0.  1.
       -3    1    3    3    0  502  0.36829643056E+02 -0.13528981617E+03  0.34811097322E+02  0.14446999573E+03  0.10100000352E+00 0. -1.
</event>
<event>
 5   0  0.1423430E-03  0.6005400E+03  0.7818609E-02  0.9904286E-01
       -1   -1    0    0    0  501  0.00000000000E+00  0.00000000000E+00  0.10650345817E+03  0.10650345829E+03  0.50400001928E-02 0.  1.
        1   -1    0    0  501    0  0.00000000000E+00  0.00000000000E+00 -0.84656460748E+03  0.84656460749E+03  0.50400001928E-02 0. -1.
    10030    2    1    2    0    0  0.00000000000E+00  0.00000000000E+00 -0.74006114931E+03  0.95306806578E+03  0.60053995145E+03 0.  0.
        1    1    3    3  502    0  0.22456918975E+02  0.16315882818E+03  0.28424701062E+02  0.16713192418E+03  0.50400001928E-02 0.  1.
       -1    1    3    3    0  502 -0.22456918975E+02 -0.16315882818E+03 -0.76848585037E+03  0.78593614160E+03  0.50400001928E-02 0. -1.
</event>
<event>
 5   0  0.2313168E-03  0.6001169E+03  0.7818609E-02  0.9905164E-01
       -2   -1    0    0    0  501  0.00000000000E+00  0.00000000000E+00  0.45984354544E+03  0.45984354545E+03  0.25500000920E-02 0.  1.
        2   -1    0    0  501    0  0.00000000000E+00  0.00000000000E+00 -0.19579502019E+03  0.19579502021E+03  0.25500000920E-02 0. -1.
    10030    2    1    2    0    0  0.00000000000E+00  0.00000000000E+00  0.26404852525E+03  0.65563856566E+03  0.60011690952E+03 0.  0.
        2    1    3    3  502    0  0.72749128497E+02  0.23667417589E+03  0.31719874307E+03  0.40239550674E+03  0.25500000920E-02 0.  1.
       -2    1    3    3    0  502 -0.72749128497E+02 -0.23667417589E+03 -0.53150217825E+02  0.25324305892E+03  0.25500000920E-02 0. -1.
</event>
<event>
 5   0  0.1392854E-03  0.5978550E+03  0.7818609E-02  0.9909866E-01
        1   -1    0    0  501    0  0.00000000000E+00  0.00000000000E+00  0.35601512452E+03  0.35601512456E+03  0.50400001928E-02 0. -1.
       -1   -1    0    0    0  501  0.00000000000E+00  0.00000000000E+00 -0.25099398712E+03  0.25099398717E+03  0.50400001928E-02 0.  1.
    10030    2    1    2    0    0  0.00000000000E+00  0.00000000000E+00  0.10502113741E+03  0.60700911173E+03  0.59785501789E+03 0.  0.
        4    1    3    3  502    0  0.25642352420E+02  0.29062784674E+03 -0.13554680037E+02  0.29207433607E+03  0.12699999809E+01 0.  1.
       -4    1    3    3    0  502 -0.25642352420E+02 -0.29062784674E+03  0.11857581744E+03  0.31493477566E+03  0.12699999809E+01 0. -1.
</event>
<event>
 5   0  0.2346281E-03  0.6000184E+03  0.7818609E-02  0.9905368E-01
        2   -1    0    0  501    0  0.00000000000E+00  0.00000000000E+00  0.41628710766E+03  0.41628710767E+03  0.25500000920E-02 0.  1.
       -2   -1    0    0    0  501  0.00000000000E+00  0.00000000000E+00 -0.21621022384E+03  0.21621022385E+03  0.25500000920E-02 0. -1.
    10030    2    1    2    0    0  0.00000000000E+00  0.00000000000E+00  0.20007688383E+03  0.63249733152E+03  0.60001842884E+03 0.  0.
        3    1    3    3  502    0  0.24207695669E+03 -0.17355684553E+03  0.13778581365E+03  0.32818923236E+03  0.10100000352E+00 0. -1.
       -3    1    3    3    0  502 -0.24207695669E+03  0.17355684553E+03  0.62291070181E+02  0.30430809917E+03  0.10100000352E+00 0.  1.
</event>
<event>
 5   0  0.9496750E-04  0.6001237E+03  0.7818609E-02  0.9905150E-01
       -3   -1    0    0    0  501  0.00000000000E+00  0.00000000000E+00  0.33522899208E+03  0.33522900730E+03  0.10100000352E+00 0.  1.
        3   -1    0    0  501    0  0.00000000000E+00  0.00000000000E+00 -0.26858385562E+03  0.26858387461E+03  0.10100000352E+00 0. -1.
    10030    2    1    2    0    0  0.00000000000E+00  0.00000000000E+00  0.66645136464E+02  0.60381288191E+03  0.60012367237E+03 0.  0.
        2    1    3    3  502    0 -0.12132880756E+03  0.82709634253E+01 -0.24267747248E+03  0.27144326117E+03  0.25500000920E-02 0. -1.
       -2    1    3    3    0  502  0.12132880756E+03 -0.82709634253E+01  0.30932260894E+03  0.33236962074E+03  0.25500000920E-02 0.  1.
</event>
<event>
 5   0  0.2324616E-03  0.6001612E+03  0.7818609E-02  0.9905072E-01
       -2   -1    0    0    0  501  0.00000000000E+00  0.00000000000E+00  0.16509788136E+03  0.16509788138E+03  0.25500000920E-02 0. -1.
        2   -1    0    0  501    0  0.00000000000E+00  0.00000000000E+00 -0.54542417872E+03  0.54542417872E+03  0.25500000920E-02 0.  1.
    10030    2    1    2    0    0  0.00000000000E+00  0.00000000000E+00 -0.38032629735E+03  0.71052206010E+03  0.60016123287E+03 0.  0.
        4    1    3    3  502    0  0.24068972869E+03  0.17387609672E+03 -0.13879942921E+03  0.32776719933E+03  0.12699999809E+01 0.  1.
       -4    1    3    3    0  502 -0.24068972869E+03 -0.17387609672E+03 -0.24152686815E+03  0.38275486077E+03  0.12699999809E+01 0. -1.
</event>
<event>
 5   0  0.1423430E-03  0.6000749E+03  0.7818609E-02  0.9905251E-01
        1   -1    0    0  501    0  0.00000000000E+00  0.00000000000E+00  0.46832353395E+03  0.46832353397E+03  0.50400001928E-02 0. -1.
       -1   -1    0    0    0  501  0.00000000000E+00  0.00000000000E+00 -0.19222283615E+03  0.19222283622E+03  0.50400001928E-02 0.  1.
    10030    2    1    2    0    0  0.00000000000E+00  0.00000000000E+00  0.27610069779E+03  0.66054637019E+03  0.60007492187E+03 0.  0.
        1    1    3    3  502    0  0.72087306584E+01  0.29766340262E+03  0.17874935648E+03  0.34728489676E+03  0.50400001928E-02 0. -1.
       -1    1    3    3    0  502 -0.72087306584E+01 -0.29766340262E+03  0.97351341315E+02  0.31326147343E+03  0.50400001928E-02 0.  1.
</event>
<event>
 5   0  0.2406307E-03  0.6019635E+03  0.7818609E-02  0.9901341E-01
        2   -1    0    0  501    0  0.00000000000E+00  0.00000000000E+00  0.13774395243E+04  0.13774395243E+04  0.25500000920E-02 0. -1.
       -2   -1    0    0    0  501  0.00000000000E+00  0.00000000000E+00 -0.65766966588E+02  0.65766966638E+02  0.25500000920E-02 0.  1.
    10030    2    1    2    0    0  0.00000000000E+00  0.00000000000E+00  0.13116725577E+04  0.14432064909E+04  0.60196351786E+03 0.  0.
        5    1    3    3  502    0 -0.83483004499E+02  0.15212913912E+03  0.12453247076E+04  0.12573656606E+04  0.46999998093E+01 0. -1.
       -5    1    3    3    0  502  0.83483004499E+02 -0.15212913912E+03  0.66347850060E+02  0.18584083032E+03  0.46999998093E+01 0.  1.
</event>
<event>
 5   0  0.1418763E-03  0.6006285E+03  0.7818609E-02  0.9904103E-01
        1   -1    0    0  501    0  0.00000000000E+00  0.00000000000E+00  0.80370145853E+03  0.80370145855E+03  0.50400001928E-02 0. -1.
       -1   -1    0    0    0  501  0.00000000000E+00  0.00000000000E+00 -0.11221662123E+03  0.11221662134E+03  0.50400001928E-02 0.  1.
    10030    2    1    2    0    0  0.00000000000E+00  0.00000000000E+00  0.69148483730E+03  0.91591807989E+03  0.60062854482E+03 0.  0.
        5    1    3    3  502    0 -0.51897304112E+02  0.25245491347E+03  0.58069964891E+03  0.63534320312E+03  0.46999998093E+01 0. -1.
       -5    1    3    3    0  502  0.51897304112E+02 -0.25245491347E+03  0.11078518840E+03  0.28057487677E+03  0.46999998093E+01 0.  1.
</event>
<event>
 5   0  0.2421210E-03  0.5996507E+03  0.7818609E-02  0.9906131E-01
       -2   -1    0    0    0  501  0.00000000000E+00  0.00000000000E+00  0.78068432057E+02  0.78068432099E+02  0.25500000920E-02 0.  1.
        2   -1    0    0  501    0  0.00000000000E+00  0.00000000000E+00 -0.11514929998E+04  0.11514929998E+04  0.25500000920E-02 0. -1.
    10030    2    1    2    0    0  0.00000000000E+00  0.00000000000E+00 -0.10734245677E+04  0.12295614319E+04  0.59965074183E+03 0.  0.
        1    1    3    3  502    0  0.23471452006E+03 -0.15542784898E+03 -0.32514139273E+03  0.43007632747E+03  0.50400001928E-02 0.  1.
       -1    1    3    3    0  502 -0.23471452006E+03  0.15542784898E+03 -0.74828317501E+03  0.79948510442E+03  0.50400001928E-02 0. -1.
</event>
<event>
 5   0  0.2346281E-03  0.5998939E+03  0.7818609E-02  0.9905626E-01
       -2   -1    0    0    0  501  0.00000000000E+00  0.00000000000E+00  0.24916914724E+03  0.24916914726E+03  0.25500000920E-02 0. -1.
        2   -1    0    0  501    0  0.00000000000E+00  0.00000000000E+00 -0.36107265427E+03  0.36107265428E+03  0.25500000920E-02 0.  1.
    10030    2    1    2    0    0  0.00000000000E+00  0.00000000000E+00 -0.11190350703E+03  0.61024180154E+03  0.59989387516E+03 0.  0.
        3    1    3    3  502    0 -0.91723441909E+02 -0.25101491072E+03 -0.19448635921E+03  0.33052477868E+03  0.10100000352E+00 0.  1.
       -3    1    3    3    0  502  0.91723441909E+02  0.25101491072E+03  0.82582852187E+02  0.27971702286E+03  0.10100000352E+00 0. -1.
</event>
<event>
 5   0  0.1392854E-03  0.5996039E+03  0.7818609E-02  0.9906228E-01
       -1   -1    0    0    0  501  0.00000000000E+00  0.00000000000E+00  0.97198435031E+02  0.97198435162E+02  0.50400001928E-02 0. -1.
        1   -1    0    0  501    0  0.00000000000E+00  0.00000000000E+00 -0.92471860346E+03  0.92471860347E+03  0.50400001928E-02 0.  1.
    10030    2    1    2    0    0  0.00000000000E+00  0.00000000000E+00 -0.82752016843E+03  0.10219170386E+04  0.59960387315E+03 0.  0.
        4    1    3    3  502    0 -0.17377995214E+03  0.24386044530E+03 -0.38893311973E+03  0.49085432979E+03  0.12699999809E+01 0.  1.
       -4    1    3    3    0  502  0.17377995214E+03 -0.24386044530E+03 -0.43858704869E+03  0.53106270885E+03  0.12699999809E+01 0. -1.
</event>
<event>
 5   0  0.9496750E-04  0.5998041E+03  0.7818609E-02  0.9905813E-01
        4   -1    0    0  501    0  0.00000000000E+00  0.00000000000E+00  0.14575737006E+03  0.14576290278E+03  0.12699999809E+01 0. -1.
       -4   -1    0    0    0  501  0.00000000000E+00  0.00000000000E+00 -0.61704346235E+03  0.61704476931E+03  0.12699999809E+01 0.  1.
    10030    2    1    2    0    0  0.00000000000E+00  0.00000000000E+00 -0.47128609229E+03  0.76280767209E+03  0.59980410453E+03 0.  0.
        1    1    3    3  502    0  0.11403832434E+03  0.10898360961E+03 -0.56002714635E+03  0.58181833184E+03  0.50400001928E-02 0.  1.
       -1    1    3    3    0  502 -0.11403832434E+03 -0.10898360961E+03  0.88741054070E+02  0.18098934025E+03  0.50400001928E-02 0. -1.
</event>
<event>
 5   0  0.2421210E-03  0.5997555E+03  0.7818609E-02  0.9905914E-01
       -2   -1    0    0    0  501  0.00000000000E+00  0.00000000000E+00  0.10764703229E+03  0.10764703232E+03  0.25500000920E-02 0. -1.
        2   -1    0    0  501    0  0.00000000000E+00  0.00000000000E+00 -0.83538439574E+03  0.83538439575E+03  0.25500000920E-02 0.  1.
    10030    2    1    2    0    0  0.00000000000E+00  0.00000000000E+00 -0.72773736345E+03  0.94303142807E+03  0.59975545363E+03 0.  0.
        1    1    3    3  502    0  0.24046212059E+02  0.17026490372E+03  0.22427518472E+02  0.17341093208E+03  0.50400001928E-02 0. -1.
       -1    1    3    3    0  502 -0.24046212059E+02 -0.17026490372E+03 -0.75016488192E+03  0.76962049599E+03  0.50400001928E-02 0.  1.
</event>
<event>
 5   0  0.2346281E-03  0.6000752E+03  0.7818609E-02  0.9905250E-01
       -2   -1    0    0    0  501  0.00000000000E+00  0.00000000000E+00  0.33601856892E+03  0.33601856893E+03  0.25500000920E-02 0.  1.
        2   -1    0    0  501    0  0.00000000000E+00  0.00000000000E+00 -0.26790945879E+03  0.26790945881E+03  0.25500000920E-02 0. -1.
    10030    2    1    2    0    0  0.00000000000E+00  0.00000000000E+00  0.68109110123E+02  0.60392802773E+03  0.60007517179E+03 0.  0.
        3    1    3    3  502    0  0.16035829880E+03  0.71315424235E+02  0.27897248600E+03  0.32958509049E+03  0.10100000352E+00 0. -1.
       -3    1    3    3    0  502 -0.16035829880E+03 -0.71315424235E+02 -0.21086337588E+03  0.27434293724E+03  0.10100000352E+00 0.  1.
</event>
<event>
 5   0  0.1418763E-03  0.5998093E+03  0.7818609E-02  0.9905802E-01
       -1   -1    0    0    0  501  0.00000000000E+00  0.00000000000E+00  0.20685744295E+03  0.20685744301E+03  0.50400001928E-02 0.  1.
        1   -1    0    0  501    0  0.00000000000E+00  0.00000000000E+00 -0.43480577248E+03  0.43480577251E+03  0.50400001928E-02 0. -1.
    10030    2    1    2    0    0  0.00000000000E+00  0.00000000000E+00 -0.22794832952E+03  0.64166321552E+03  0.59980933739E+03 0.  0.
        5    1    3    3  502    0  0.28966944071E+03 -0.74921610800E+02 -0.13534532356E+03  0.32842362773E+03  0.46999998093E+01 0. -1.
       -5    1    3    3    0  502 -0.28966944071E+03  0.74921610800E+02 -0.92603005962E+02  0.31323958779E+03  0.46999998093E+01 0.  1.
</event>
<event>
 5   0  0.2346281E-03  0.5998124E+03  0.7818609E-02  0.9905795E-01
        2   -1    0    0  501    0  0.00000000000E+00  0.00000000000E+00  0.86397597445E+03  0.86397597446E+03  0.25500000920E-02 0. -1.
       -2   -1    0    0    0  501  0.00000000000E+00  0.00000000000E+00 -0.10410442886E+03  0.10410442889E+03  0.25500000920E-02 0.  1.
    10030    2    1    2    0    0  0.00000000000E+00  0.00000000000E+00  0.75987154560E+03  0.96808040334E+03  0.59981238861E+03 0.  0.
        3    1    3    3  502    0 -0.28898343002E+03 -0.53501459201E+02  0.47636821920E+03  0.55973254276E+03  0.10100000352E+00 0. -1.
       -3    1    3    3    0  502  0.28898343002E+03  0.53501459201E+02  0.28350332640E+03  0.40834786058E+03  0.10100000352E+00 0.  1.
</event>
<event>
 5   0  0.1416315E-03  0.5999796E+03  0.7818609E-02  0.9905448E-01
       -1   -1    0    0    0  501  0.00000000000E+00  0.00000000000E+00  0.27139057846E+03  0.27139057850E+03  0.50400001928E-02 0. -1.
        1   -1    0    0  501    0  0.00000000000E+00  0.00000000000E+00 -0.33160280788E+03  0.33160280792E+03  0.50400001928E-02 0.  1.
    10030    2    1    2    0    0  0.00000000000E+00  0.00000000000E+00 -0.60212229427E+02  0.60299338642E+03  0.59997959257E+03 0.  0.
        2    1    3    3  502    0 -0.24675896192E+03  0.14683926739E+03 -0.11738774519E+03  0.31021224744E+03  0.25500000920E-02 0.  1.
       -2    1    3    3    0  502  0.24675896192E+03 -0.14683926739E+03  0.57175515763E+02  0.29278113898E+03  0.25500000920E-02 0. -1.
</event>
<event>
 5   0  0.1392854E-03  0.5996699E+03  0.7818609E-02  0.9906091E-01
       -1   -1    0    0    0  501  0.00000000000E+00  0.00000000000E+00  0.12760700460E+03  0.12760700470E+03  0.50400001928E-02 0. -1.
        1   -1    0    0  501    0  0.00000000000E+00  0.00000000000E+00 -0.70451452316E+03  0.70451452317E+03  0.50400001928E-02 0.  1.
    10030    2    1    2    0    0  0.00000000000E+00  0.00000000000E+00 -0.57690751855E+03  0.83212152788E+03  0.59966986934E+03 0.  0.
        4    1    3    3  502    0 -0.23609900859E+03 -0.66631789847E+02 -0.52766182935E+03  0.58190304719E+03  0.12699999809E+01 0.  1.
       -4    1    3    3    0  502  0.23609900859E+03  0.66631789847E+02 -0.49245689205E+02  0.25021848069E+03  0.12699999809E+01 0. -1.
</event>
<event>
 5   0  0.2346281E-03  0.6000993E+03  0.7818609E-02  0.9905200E-01
       -2   -1    0    0    0  501  0.00000000000E+00  0.00000000000E+00  0.45311104359E+02  0.45311104431E+02  0.25500000920E-02 0.  1.
        2   -1    0    0  501    0  0.00000000000E+00  0.00000000000E+00 -0.19869257555E+04  0.19869257555E+04  0.25500000920E-02 0. -1.
    10030    2    1    2    0    0  0.00000000000E+00  0.00000000000E+00 -0.19416146511E+04  0.20322368599E+04  0.60009932623E+03 0.  0.
        3    1    3    3  502    0 -0.42370951961E+02 -0.27110067470E+02  0.30930474619E+02  0.59050468156E+02  0.10100000352E+00 0.  1.
       -3    1    3    3    0  502  0.42370951961E+02  0.27110067470E+02 -0.19725451258E+04  0.19731863918E+04  0.10100000352E+00 0. -1.
</event>
<event>
 5   0  0.1479385E-03  0.6000324E+03  0.7818609E-02  0.9905339E-01
       -1   -1    0    0    0  501  0.00000000000E+00  0.00000000000E+00  0.71994471330E+02  0.71994471507E+02  0.50400001928E-02 0.  1.
        1   -1    0    0  501    0  0.00000000000E+00  0.00000000000E+00 -0.12502309168E+04  0.12502309168E+04  0.50400001928E-02 0. -1.
    10030    2    1    2    0    0  0.00000000000E+00  0.00000000000E+00 -0.11782364455E+04  0.13222253884E+04  0.60003237920E+03 0.  0.
        3    1    3    3  502    0 -0.24770549097E+03  0.42300396158E+02 -0.22795545791E+03  0.33928017149E+03  0.10100000352E+00 0.  1.
       -3    1    3    3    0  502  0.24770549097E+03 -0.42300396158E+02 -0.95028098759E+03  0.98294521686E+03  0.10100000352E+00 0. -1.
</event>
<event>
 5   0  0.1423430E-03  0.6001415E+03  0.7818609E-02  0.9905113E-01
        1   -1    0    0  501    0  0.00000000000E+00  0.00000000000E+00  0.13274918877E+04  0.13274918878E+04  0.50400001928E-02 0.  1.
       -1   -1    0    0    0  501  0.00000000000E+00  0.00000000000E+00 -0.67828996296E+02  0.67828996484E+02  0.50400001928E-02 0. -1.
    10030    2    1    2    0    0  0.00000000000E+00  0.00000000000E+00  0.12596628914E+04  0.13953208842E+04  0.60014145824E+03 0.  0.
        1    1    3    3  502    0 -0.23586707498E+03 -0.11614501895E+03  0.96610763323E+03  0.10012426786E+04  0.50400001928E-02 0. -1.
       -1    1    3    3    0  502  0.23586707498E+03  0.11614501895E+03  0.29355525822E+03  0.39407820562E+03  0.50400001928E-02 0.  1.
</event>
<event>
 5   0  0.1392854E-03  0.5999752E+03  0.7818609E-02  0.9905457E-01
        1   -1    0    0  501    0  0.00000000000E+00  0.00000000000E+00  0.88366996546E+03  0.88366996548E+03  0.50400001928E-02 0. -1.
       -1   -1    0    0    0  501  0.00000000000E+00  0.00000000000E+00 -0.10183956132E+03  0.10183956144E+03  0.50400001928E-02 0.  1.
    10030    2    1    2    0    0  0.00000000000E+00  0.00000000000E+00  0.78183040415E+03  0.98550952692E+03  0.59997520515E+03 0.  0.
        4    1    3    3  502    0 -0.18865697409E+03 -0.22501640980E+03  0.29009868511E+03  0.41277439183E+03  0.12699999809E+01 0.  1.
       -4    1    3    3    0  502  0.18865697409E+03  0.22501640980E+03  0.49173171904E+03  0.57273513508E+03  0.12699999809E+01 0. -1.
</event>
<event>
 5   0  0.2313168E-03  0.6004984E+03  0.7818609E-02  0.9904373E-01
        2   -1    0    0  501    0  0.00000000000E+00  0.00000000000E+00  0.65448163324E+03  0.65448163324E+03  0.25500000920E-02 0.  1.
       -2   -1    0    0    0  501  0.00000000000E+00  0.00000000000E+00 -0.13774196244E+03  0.13774196246E+03  0.25500000920E-02 0. -1.
    10030    2    1    2    0    0  0.00000000000E+00  0.00000000000E+00  0.51673967080E+03  0.79222359571E+03  0.60049840817E+03 0.  0.
        2    1    3    3  502    0  0.31753897711E+02 -0.28913832075E+03  0.16017180229E+03  0.33206066434E+03  0.25500000920E-02 0. -1.
       -2    1    3    3    0  502 -0.31753897711E+02  0.28913832075E+03  0.35656786850E+03  0.46016293136E+03  0.25500000920E-02 0.  1.
</event>
<event>
 5   0  0.2313168E-03  0.6002085E+03  0.7818609E-02  0.9904974E-01
        2   -1    0    0  501    0  0.00000000000E+00  0.00000000000E+00  0.16620097898E+04  0.16620097898E+04  0.25500000920E-02 0.  1.
       -2   -1    0    0    0  501  0.00000000000E+00  0.00000000000E+00 -0.54188950296E+02  0.54188950356E+02  0.25500000920E-02 0. -1.
    10030    2    1    2    0    0  0.00000000000E+00  0.00000000000E+00  0.16078208395E+04  0.17161987401E+04  0.60020851691E+03 0.  0.
        2    1    3    3  502    0  0.25996281810E+03 -0.50600268759E+02  0.40033326598E+03  0.48000810186E+03  0.25500000920E-02 0. -1.
       -2    1    3    3    0  502 -0.25996281810E+03  0.50600268759E+02  0.12074875735E+04  0.12361906383E+04  0.25500000920E-02 0.  1.
</event>
<event>
 5   0  0.2313168E-03  0.5999106E+03  0.7818609E-02  0.9905592E-01
        2   -1    0    0  501    0  0.00000000000E+00  0.00000000000E+00  0.70858430497E+03  0.70858430497E+03  0.25500000920E-02 0. -1.
       -2   -1    0    0    0  501  0.00000000000E+00  0.00000000000E+00 -0.12697596051E+03  0.12697596053E+03  0.25500000920E-02 0.  1.
    10030    2    1    2    0    0  0.00000000000E+00  0.00000000000E+00  0.58160834446E+03  0.83556026550E+03  0.59991056912E+03 0.  0.
        2    1    3    3  502    0  0.39819403414E+02 -0.25649250092E+03  0.50018535693E+03  0.56352407155E+03  0.25500000920E-02 0. -1.
       -2    1    3    3    0  502 -0.39819403414E+02  0.25649250092E+03  0.81422987529E+02  0.27203619396E+03  0.25500000920E-02 0.  1.
</event>
<event>
 5   0  0.9496750E-04  0.5983149E+03  0.7818609E-02  0.9908908E-01
        4   -1    0    0  501    0  0.00000000000E+00  0.00000000000E+00  0.23805607336E+03  0.23805946099E+03  0.12699999809E+01 0.  1.
       -4   -1    0    0    0  501  0.00000000000E+00  0.00000000000E+00 -0.37593442029E+03  0.37593656547E+03  0.12699999809E+01 0. -1.
    10030    2    1    2    0    0  0.00000000000E+00  0.00000000000E+00 -0.13787834693E+03  0.61399602646E+03  0.59831486857E+03 0.  0.
        3    1    3    3  502    0  0.28764957846E+02 -0.15822724427E+03 -0.32780405163E+03  0.36512845698E+03  0.10100000352E+00 0. -1.
       -3    1    3    3    0  502 -0.28764957846E+02  0.15822724427E+03  0.18992570471E+03  0.24886756948E+03  0.10100000352E+00 0.  1.
</event>
<event>
 5   0  0.1392854E-03  0.6007418E+03  0.7818609E-02  0.9903868E-01
       -1   -1    0    0    0  501  0.00000000000E+00  0.00000000000E+00  0.13277186688E+03  0.13277186697E+03  0.50400001928E-02 0.  1.
        1   -1    0    0  501    0  0.00000000000E+00  0.00000000000E+00 -0.67953159422E+03  0.67953159424E+03  0.50400001928E-02 0. -1.
    10030    2    1    2    0    0  0.00000000000E+00  0.00000000000E+00 -0.54675972735E+03  0.81230346121E+03  0.60074180281E+03 0.  0.
        4    1    3    3  502    0  0.16268599832E+03 -0.12093775517E+03 -0.57308674872E+03  0.60788379575E+03  0.12699999809E+01 0. -1.
       -4    1    3    3    0  502 -0.16268599832E+03  0.12093775517E+03  0.26327021374E+02  0.20441966546E+03  0.12699999809E+01 0.  1.
</event>
<event>
 5   0  0.1479385E-03  0.6000390E+03  0.7818609E-02  0.9905325E-01
        1   -1    0    0  501    0  0.00000000000E+00  0.00000000000E+00  0.17032344390E+04  0.17032344390E+04  0.50400001928E-02 0. -1.
       -1   -1    0    0    0  501  0.00000000000E+00  0.00000000000E+00 -0.52847515078E+02  0.52847515318E+02  0.50400001928E-02 0.  1.
    10030    2    1    2    0    0  0.00000000000E+00  0.00000000000E+00  0.16503869239E+04  0.17560819543E+04  0.60003902510E+03 0.  0.
        3    1    3    3  502    0  0.16741121104E+03  0.24809754777E+03  0.76430929709E+03  0.82082130735E+03  0.10100000352E+00 0.  1.
       -3    1    3    3    0  502 -0.16741121104E+03 -0.24809754777E+03  0.88607762680E+03  0.93526064693E+03  0.10100000352E+00 0. -1.
</event>
<event>
 5   0  0.2406307E-03  0.6002852E+03  0.7818609E-02  0.9904814E-01
        2   -1    0    0  501    0  0.00000000000E+00  0.00000000000E+00  0.21192633103E+03  0.21192633105E+03  0.25500000920E-02 0.  1.
       -2   -1    0    0    0  501  0.00000000000E+00  0.00000000000E+00 -0.42507974848E+03  0.42507974849E+03  0.25500000920E-02 0. -1.
    10030    2    1    2    0    0  0.00000000000E+00  0.00000000000E+00 -0.21315341745E+03  0.63700607953E+03  0.60028523719E+03 0.  0.
        5    1    3    3  502    0 -0.44617059660E+02 -0.28424153795E+03 -0.19711633673E+03  0.34879918881E+03  0.46999998093E+01 0.  1.
       -5    1    3    3    0  502  0.44617059660E+02  0.28424153795E+03 -0.16037080716E+02  0.28820689073E+03  0.46999998093E+01 0. -1.
</event>
<event>
 5   0  0.1416315E-03  0.6000373E+03  0.7818609E-02  0.9905329E-01
       -1   -1    0    0    0  501  0.00000000000E+00  0.00000000000E+00  0.69218838286E+03  0.69218838287E+03  0.50400001928E-02 0. -1.
        1   -1    0    0  501    0  0.00000000000E+00  0.00000000000E+00 -0.13003857822E+03  0.13003857832E+03  0.50400001928E-02 0.  1.
    10030    2    1    2    0    0  0.00000000000E+00  0.00000000000E+00  0.56214980463E+03  0.82222696120E+03  0.60003730957E+03 0.  0.
        2    1    3    3  502    0  0.12289644907E+03 -0.84878280205E+02 -0.75473491815E+02  0.16734427871E+03  0.25500000920E-02 0.  1.
       -2    1    3    3    0  502 -0.12289644907E+03  0.84878280205E+02  0.63762329645E+03  0.65488268249E+03  0.25500000920E-02 0. -1.
</event>
<event>
 5   0  0.2406307E-03  0.6000449E+03  0.7818609E-02  0.9905313E-01
        2   -1    0    0  501    0  0.00000000000E+00  0.00000000000E+00  0.96173095621E+03  0.96173095621E+03  0.25500000920E-02 0.  1.
       -2   -1    0    0    0  501  0.00000000000E+00  0.00000000000E+00 -0.93595280652E+02  0.93595280687E+02  0.25500000920E-02 0. -1.
    10030    2    1    2    0    0  0.00000000000E+00  0.00000000000E+00  0.86813567556E+03  0.10553262369E+04  0.60004492758E+03 0.  0.
        5    1    3    3  502    0 -0.27787428641E+03 -0.10336795224E+03  0.35361919916E+03  0.46148421491E+03  0.46999998093E+01 0. -1.
       -5    1    3    3    0  502  0.27787428641E+03  0.10336795224E+03  0.51451647640E+03  0.59384202199E+03  0.46999998093E+01 0.  1.
</event>
<event>
 5   0  0.1392854E-03  0.5992922E+03  0.7818609E-02  0.9906876E-01
       -1   -1    0    0    0  501  0.00000000000E+00  0.00000000000E+00  0.43190769389E+02  0.43190769683E+02  0.50400001928E-02 0. -1.
        1   -1    0    0  501    0  0.00000000000E+00  0.00000000000E+00 -0.20788651756E+04  0.20788651756E+04  0.50400001928E-02 0.  1.
    10030    2    1    2    0    0  0.00000000000E+00  0.00000000000E+00 -0.20356744062E+04  0.21220559453E+04  0.59929220489E+03 0.  0.
        4    1    3    3  502    0  0.11271219664E+03 -0.25732761070E+03 -0.64875272853E+03  0.70696764719E+03  0.12699999809E+01 0. -1.
       -4    1    3    3    0  502 -0.11271219664E+03  0.25732761070E+03 -0.13869216777E+04  0.14150882981E+04  0.12699999809E+01 0.  1.
</event>
<event>
 5   0  0.1418763E-03  0.6000778E+03  0.7818609E-02  0.9905245E-01
       -1   -1    0    0    0  501  0.00000000000E+00  0.00000000000E+00  0.43024067308E+02  0.43024067604E+02  0.50400001928E-02 0. -1.
        1   -1    0    0  501    0  0.00000000000E+00  0.00000000000E+00 -0.20923950628E+04  0.20923950628E+04  0.50400001928E-02 0.  1.
    10030    2    1    2    0    0  0.00000000000E+00  0.00000000000E+00 -0.20493709955E+04  0.21354191304E+04  0.60007781608E+03 0.  0.
        5    1    3    3  502    0  0.87767328640E+02  0.98387494302E+02 -0.19836396820E+04  0.19880220525E+04  0.46999998093E+01 0.  1.
       -5    1    3    3    0  502 -0.87767328640E+02 -0.98387494302E+02 -0.65731313437E+02  0.14739707791E+03  0.46999998093E+01 0. -1.
</event>
<event>
 5   0  0.1479385E-03  0.5998532E+03  0.7818609E-02  0.9905711E-01
       -1   -1    0    0    0  501  0.00000000000E+00  0.00000000000E+00  0.29696107684E+03  0.29696107688E+03  0.50400001928E-02 0. -1.
        1   -1    0    0  501    0  0.00000000000E+00  0.00000000000E+00 -0.30292169695E+03  0.30292169699E+03  0.50400001928E-02 0.  1.
    10030    2    1    2    0    0  0.00000000000E+00  0.00000000000E+00 -0.59606201134E+01  0.59988277387E+03  0.59985315986E+03 0.  0.
        3    1    3    3  502    0  0.14124145201E+03  0.10435835973E+02  0.26141483064E+03  0.29731427534E+03  0.10100000352E+00 0. -1.
       -3    1    3    3    0  502 -0.14124145201E+03 -0.10435835973E+02 -0.26737545076E+03  0.30256849854E+03  0.10100000352E+00 0.  1.
</event>
<event>
 5   0  0.1423430E-03  0.5998336E+03  0.7818609E-02  0.9905751E-01
        1   -1    0    0  501    0  0.00000000000E+00  0.00000000000E+00  0.11037892438E+04  0.11037892438E+04  0.50400001928E-02 0.  1.
       -1   -1    0    0    0  501  0.00000000000E+00  0.00000000000E+00 -0.81492076167E+02  0.81492076323E+02  0.50400001928E-02 0. -1.
    10030    2    1    2    0    0  0.00000000000E+00  0.00000000000E+00  0.10222971676E+04  0.11852813201E+04  0.59983356767E+03 0.  0.
        1    1    3    3  502    0  0.14715367941E+03  0.10253680654E+03  0.36155548808E+02  0.18296236169E+03  0.50400001928E-02 0. -1.
       -1    1    3    3    0  502 -0.14715367941E+03 -0.10253680654E+03  0.98614161883E+03  0.10023189585E+04  0.50400001928E-02 0.  1.
</event>
<event>
 5   0  0.2324616E-03  0.5999011E+03  0.7818609E-02  0.9905611E-01
       -2   -1    0    0    0  501  0.00000000000E+00  0.00000000000E+00  0.18736463178E+03  0.18736463180E+03  0.25500000920E-02 0. -1.
        2   -1    0    0  501    0  0.00000000000E+00  0.00000000000E+00 -0.48018845729E+03  0.48018845730E+03  0.25500000920E-02 0.  1.
    10030    2    1    2    0    0  0.00000000000E+00  0.00000000000E+00 -0.29282382551E+03  0.66755308909E+03  0.59990110349E+03 0.  0.
        4    1    3    3  502    0 -0.71644635549E+02 -0.21253121534E+03 -0.36803587634E+03  0.43099244827E+03  0.12699999809E+01 0.  1.
       -4    1    3    3    0  502  0.71644635549E+02  0.21253121534E+03  0.75212050824E+02  0.23656064082E+03  0.12699999809E+01 0. -1.
</event>
<event>
 5   0  0.2313168E-03  0.6001588E+03  0.7818609E-02  0.9905077E-01
        2   -1    0    0  501    0  0.00000000000E+00  0.00000000000E+00  0.42576420705E+03  0.42576420706E+03  0.25500000920E-02 0.  1.
       -2   -1    0    0    0  501  0.00000000000E+00  0.00000000000E+00 -0.21149655076E+03  0.21149655078E+03  0.25500000920E-02 0. -1.
    10030    2    1    2    0    0  0.00000000000E+00  0.00000000000E+00  0.21426765629E+03  0.63726075783E+03  0.60015884976E+03 0.  0.
        2    1    3    3  502    0 -0.18768116544E+02 -0.28682226617E+03  0.15617455790E+02  0.28785961769E+03  0.25500000920E-02 0. -1.
       -2    1    3    3    0  502  0.18768116544E+02  0.28682226617E+03  0.19865020050E+03  0.34940114014E+03  0.25500000920E-02 0.  1.
</event>
<event>
 5   0  0.1479385E-03  0.5998852E+03  0.7818609E-02  0.9905644E-01
        1   -1    0    0  501    0  0.00000000000E+00  0.00000000000E+00  0.11642935988E+04  0.11642935988E+04  0.50400001928E-02 0.  1.
       -1   -1    0    0    0  501  0.00000000000E+00  0.00000000000E+00 -0.77270508608E+02  0.77270508773E+02  0.50400001928E-02 0. -1.
    10030    2    1    2    0    0  0.00000000000E+00  0.00000000000E+00  0.10870230901E+04  0.12415641075E+04  0.59988518453E+03 0.  0.
        3    1    3    3  502    0 -0.26495093617E+03 -0.29756831368E+02  0.82790162215E+03  0.86977328871E+03  0.10100000352E+00 0.  1.
       -3    1    3    3    0  502  0.26495093617E+03  0.29756831368E+02  0.25912146800E+03  0.37179081883E+03  0.10100000352E+00 0. -1.
</event>
<event>
 5   0  0.2346281E-03  0.6001651E+03  0.7818609E-02  0.9905064E-01
        2   -1    0    0  501    0  0.00000000000E+00  0.00000000000E+00  0.21161947064E+03  0.21161947066E+03  0.25500000920E-02 0.  1.
       -2   -1    0    0    0  501  0.00000000000E+00  0.00000000000E+00 -0.42552573153E+03  0.42552573154E+03  0.25500000920E-02 0. -1.
    10030    2    1    2    0    0  0.00000000000E+00  0.00000000000E+00 -0.21390626089E+03  0.63714520219E+03  0.60016507748E+03 0.  0.
        3    1    3    3  502    0 -0.19581451689E+03  0.19096027320E+03  0.24105442783E+02  0.27457282010E+03  0.10100000352E+00 0. -1.
       -3    1    3    3    0  502  0.19581451689E+03 -0.19096027320E+03 -0.23801170367E+03  0.36257238209E+03  0.10100000352E+00 0.  1.
</event>
<event>
 5   0  0.1423430E-03  0.6002427E+03  0.7818609E-02  0.9904903E-01
        1   -1    0    0  501    0  0.00000000000E+00  0.00000000000E+00  0.67420313871E+03  0.67420313873E+03  0.50400001928E-02 0.  1.
       -1   -1    0    0    0  501  0.00000000000E+00  0.00000000000E+00 -0.13359895772E+03  0.13359895782E+03  0.50400001928E-02 0. -1.
    10030    2    1    2    0    0  0.00000000000E+00  0.00000000000E+00  0.54060418099E+03  0.80780209655E+03  0.60024273980E+03 0.  0.
        1    1    3    3  502    0  0.22694217753E+03 -0.16331832625E+03  0.41709348826E+03  0.50213803442E+03  0.50400001928E-02 0.  1.
       -1    1    3    3    0  502 -0.22694217753E+03  0.16331832625E+03  0.12351069273E+03  0.30566406213E+03  0.50400001928E-02 0. -1.
</event>
<event>
 5   0  0.1392854E-03  0.5999849E+03  0.7818609E-02  0.9905437E-01
        1   -1    0    0  501    0  0.00000000000E+00  0.00000000000E+00  0.25979937517E+03  0.25979937522E+03  0.50400001928E-02 0. -1.
       -1   -1    0    0    0  501  0.00000000000E+00  0.00000000000E+00 -0.34640366702E+03  0.34640366706E+03  0.50400001928E-02 0.  1.
    10030    2    1    2    0    0  0.00000000000E+00  0.00000000000E+00 -0.86604291844E+02  0.60620304228E+03  0.59998485406E+03 0.  0.
        4    1    3    3  502    0 -0.39565994091E+01 -0.45598154590E+02  0.25624817144E+03  0.26030671264E+03  0.12699999809E+01 0. -1.
       -4    1    3    3    0  502  0.39565994091E+01  0.45598154590E+02 -0.34285246328E+03  0.34589632964E+03  0.12699999809E+01 0.  1.
</event>
<event>
 5   0  0.1418763E-03  0.6000274E+03  0.7818609E-02  0.9905349E-01
       -1   -1    0    0    0  501  0.00000000000E+00  0.00000000000E+00  0.85623937323E+02  0.85623937471E+02  0.50400001928E-02 0. -1.
        1   -1    0    0  501    0  0.00000000000E+00  0.00000000000E+00 -0.10512040233E+04  0.10512040233E+04  0.50400001928E-02 0.  1.
    10030    2    1    2    0    0  0.00000000000E+00  0.00000000000E+00 -0.96558008594E+03  0.11368279607E+04  0.60002742435E+03 0.  0.
        5    1    3    3  502    0 -0.24666769053E+03 -0.59991370884E+02 -0.17999204765E+03  0.31122843917E+03  0.46999998093E+01 0.  1.
       -5    1    3    3    0  502  0.24666769053E+03  0.59991370884E+02 -0.78558803828E+03  0.82559952157E+03  0.46999998093E+01 0. -1.
</event>
<event>
 5   0  0.2346281E-03  0.6000112E+03  0.7818609E-02  0.9905383E-01
        2   -1    0    0  501    0  0.00000000000E+00  0.00000000000E+00  0.16472903166E+04  0.16472903166E+04  0.25500000920E-02 0. -1.
       -2   -1    0    0    0  501  0.00000000000E+00  0.00000000000E+00 -0.54637215846E+02  0.54637215906E+02  0.25500000920E-02 0.  1.
    10030    2    1    2    0    0  0.00000000000E+00  0.00000000000E+00  0.15926531008E+04  0.17019275325E+04  0.60001118871E+03 0.  0.
        3    1    3    3  502    0  0.24034860353E+02 -0.29328374574E+03  0.63068127521E+03  0.69595395763E+03  0.10100000352E+00 0.  1.
       -3    1    3    3    0  502 -0.24034860353E+02  0.29328374574E+03  0.96197182558E+03  0.10059735749E+04  0.10100000352E+00 0. -1.
</event>
<event>
 5   0  0.1392854E-03  0.6000201E+03  0.7818609E-02  0.9905364E-01
       -1   -1    0    0    0  501  0.00000000000E+00  0.00000000000E+00  0.86176671118E+02  0.86176671266E+02  0.50400001928E-02 0. -1.
        1   -1    0    0  501    0  0.00000000000E+00  0.00000000000E+00 -0.10444361416E+04  0.10444361417E+04  0.50400001928E-02 0.  1.
    10030    2    1    2    0    0  0.00000000000E+00  0.00000000000E+00 -0.95825947053E+03  0.11306128129E+04  0.60002009957E+03 0.  0.
        4    1    3    3  502    0 -0.42110191458E+02  0.26430507434E+03 -0.22371280394E+03  0.34882584780E+03  0.12699999809E+01 0. -1.
       -4    1    3    3    0  502  0.42110191458E+02 -0.26430507434E+03 -0.73454666658E+03  0.78178696512E+03  0.12699999809E+01 0.  1.
</event>
<event>
 5   0  0.2421210E-03  0.5999686E+03  0.7818609E-02  0.9905471E-01
        2   -1    0    0  501    0  0.00000000000E+00  0.00000000000E+00  0.12907145297E+04  0.12907145297E+04  0.25500000920E-02 0. -1.
       -2   -1    0    0    0  501  0.00000000000E+00  0.00000000000E+00 -0.69721522310E+02  0.69721522357E+02  0.25500000920E-02 0.  1.
    10030    2    1    2    0    0  0.00000000000E+00  0.00000000000E+00  0.12209930074E+04  0.13604360521E+04  0.59996860555E+03 0.  0.
        1    1    3    3  502    0 -0.11616378536E+03  0.15537120197E+03  0.11293374862E+04  0.11458784374E+04  0.50400001928E-02 0. -1.
       -1    1    3    3    0  502  0.11616378536E+03 -0.15537120197E+03  0.91655521154E+02  0.21455761467E+03  0.50400001928E-02 0.  1.
</event>
<event>
 5   0  0.1392854E-03  0.5993836E+03  0.7818609E-02  0.9906686E-01
       -1   -1    0    0    0  501  0.00000000000E+00  0.00000000000E+00  0.42143635955E+03  0.42143635958E+03  0.50400001928E-02 0.  1.
        1   -1    0    0  501    0  0.00000000000E+00  0.00000000000E+00 -0.21311684809E+03  0.21311684815E+03  0.50400001928E-02 0. -1.
    10030    2    1    2    0    0  0.00000000000E+00  0.00000000000E+00  0.20831951146E+03  0.63455320773E+03  0.59938364558E+03 0.  0.
        4    1    3    3  502    0  0.46736440275E+02 -0.24247137739E+03 -0.75618652718E+02  0.25825657251E+03  0.12699999809E+01 0. -1.
       -4    1    3    3    0  502 -0.46736440275E+02  0.24247137739E+03  0.28393816418E+03  0.37629663523E+03  0.12699999809E+01 0.  1.
</event>
<event>
 5   0  0.1418763E-03  0.6000999E+03  0.7818609E-02  0.9905199E-01
        1   -1    0    0  501    0  0.00000000000E+00  0.00000000000E+00  0.20922647053E+04  0.20922647053E+04  0.50400001928E-02 0. -1.
       -1   -1    0    0    0  501  0.00000000000E+00  0.00000000000E+00 -0.43029912684E+02  0.43029912979E+02  0.50400001928E-02 0.  1.
    10030    2    1    2    0    0  0.00000000000E+00  0.00000000000E+00  0.20492347927E+04  0.21352946183E+04  0.60009988470E+03 0.  0.
        5    1    3    3  502    0  0.22221473949E+03 -0.25214137840E+02  0.17361991662E+04  0.17505498502E+04  0.46999998093E+01 0. -1.
       -5    1    3    3    0  502 -0.22221473949E+03  0.25214137840E+02  0.31303562643E+03  0.38474476814E+03  0.46999998093E+01 0.  1.
</event>
<event>
 5   0  0.9496750E-04  0.5998933E+03  0.7818609E-02  0.9905627E-01
       -3   -1    0    0    0  501  0.00000000000E+00  0.00000000000E+00  0.55649485548E+03  0.55649486464E+03  0.10100000352E+00 0. -1.
        3   -1    0    0  501    0  0.00000000000E+00  0.00000000000E+00 -0.16166901625E+03  0.16166904780E+03  0.10100000352E+00 0.  1.
    10030    2    1    2    0    0  0.00000000000E+00  0.00000000000E+00  0.39482583923E+03  0.71816391244E+03  0.59989329202E+03 0.  0.
        4    1    3    3  502    0 -0.88754052209E+01  0.29601082119E+03  0.25439032941E+03  0.39040649544E+03  0.12699999809E+01 0.  1.
       -4    1    3    3    0  502  0.88754052209E+01 -0.29601082119E+03  0.14043550982E+03  0.32775741700E+03  0.12699999809E+01 0. -1.
</event>
<event>
 5   0  0.9496750E-04  0.5999376E+03  0.7818609E-02  0.9905535E-01
       -3   -1    0    0    0  501  0.00000000000E+00  0.00000000000E+00  0.21534567631E+03  0.21534569999E+03  0.10100000352E+00 0. -1.
        3   -1    0    0  501    0  0.00000000000E+00  0.00000000000E+00 -0.41784578665E+03  0.41784579886E+03  0.10100000352E+00 0.  1.
    10030    2    1    2    0    0  0.00000000000E+00  0.00000000000E+00 -0.20250011034E+03  0.63319149885E+03  0.59993764636E+03 0.  0.
        3    1    3    3  502    0 -0.33871508986E+02  0.80974170857E+01 -0.41570486933E+03  0.41716111501E+03  0.10100000352E+00 0.  1.
       -3    1    3    3    0  502  0.33871508986E+02 -0.80974170857E+01  0.21320475899E+03  0.21603038384E+03  0.10100000352E+00 0. -1.
</event>
<event>
 5   0  0.1416315E-03  0.5994516E+03  0.7818609E-02  0.9906544E-01
        1   -1    0    0  501    0  0.00000000000E+00  0.00000000000E+00  0.49459730791E+03  0.49459730793E+03  0.50400001928E-02 0. -1.
       -1   -1    0    0    0  501  0.00000000000E+00  0.00000000000E+00 -0.18163372614E+03  0.18163372621E+03  0.50400001928E-02 0.  1.
    10030    2    1    2    0    0  0.00000000000E+00  0.00000000000E+00  0.31296358177E+03  0.67623103414E+03  0.59945158939E+03 0.  0.
        2    1    3    3  502    0  0.57137504445E+01 -0.29535815098E+03  0.21363082357E+03  0.36456441554E+03  0.25500000920E-02 0. -1.
       -2    1    3    3    0  502 -0.57137504445E+01  0.29535815098E+03  0.99332758207E+02  0.31166661860E+03  0.25500000920E-02 0.  1.
</event>
<event>
 5   0  0.9496750E-04  0.5997890E+03  0.7818609E-02  0.9905844E-01
        3   -1    0    0  501    0  0.00000000000E+00  0.00000000000E+00  0.26138669037E+03  0.26138670989E+03  0.10100000352E+00 0.  1.
       -3   -1    0    0    0  501  0.00000000000E+00  0.00000000000E+00 -0.34407528832E+03  0.34407530315E+03  0.10100000352E+00 0. -1.
    10030    2    1    2    0    0  0.00000000000E+00  0.00000000000E+00 -0.82688597951E+02  0.60546201303E+03  0.59978900040E+03 0.  0.
        3    1    3    3  502    0  0.18817486667E+03 -0.16855638764E+03 -0.20447621846E+03  0.32501010812E+03  0.10100000352E+00 0. -1.
       -3    1    3    3    0  502 -0.18817486667E+03  0.16855638764E+03  0.12178762051E+03  0.28045190492E+03  0.10100000352E+00 0.  1.
</event>
<event>
 5   0  0.1416315E-03  0.5996507E+03  0.7818609E-02  0.9906131E-01
        1   -1    0    0  501    0  0.00000000000E+00  0.00000000000E+00  0.17278791620E+03  0.17278791627E+03  0.50400001928E-02 0. -1.
       -1   -1    0    0    0  501  0.00000000000E+00  0.00000000000E+00 -0.52026349641E+03  0.52026349643E+03  0.50400001928E-02 0.  1.
    10030    2    1    2    0    0  0.00000000000E+00  0.00000000000E+00 -0.34747558021E+03  0.69305141270E+03  0.59965071651E+03 0.  0.
        2    1    3    3  502    0 -0.12525738186E+03  0.11931188166E+03  0.10929448495E+03  0.20462165394E+03  0.25500000920E-02 0. -1.
       -2    1    3    3    0  502  0.12525738186E+03 -0.11931188166E+03 -0.45677006515E+03  0.48842975876E+03  0.25500000920E-02 0.  1.
</event>
<event>
 5   0  0.9496750E-04  0.6006415E+03  0.7818609E-02  0.9904076E-01
       -3   -1    0    0    0  501  0.00000000000E+00  0.00000000000E+00  0.82597327235E+02  0.82597388986E+02  0.10100000352E+00 0. -1.
        3   -1    0    0  501    0  0.00000000000E+00  0.00000000000E+00 -0.10919543815E+04  0.10919543862E+04  0.10100000352E+00 0.  1.
    10030    2    1    2    0    0  0.00000000000E+00  0.00000000000E+00 -0.10093570543E+04  0.11745517752E+04  0.60064149835E+03 0.  0.
        1    1    3    3  502    0  0.25668978115E+03 -0.83413268960E+02 -0.24713794347E+03  0.36595707441E+03  0.50400001928E-02 0. -1.
       -1    1    3    3    0  502 -0.25668978115E+03  0.83413268960E+02 -0.76221911085E+03  0.80859470079E+03  0.50400001928E-02 0.  1.
</event>
<event>
 5   0  0.1418763E-03  0.6002001E+03  0.7818609E-02  0.9904991E-01
        1   -1    0    0  501    0  0.00000000000E+00  0.00000000000E+00  0.70170464280E+03  0.70170464282E+03  0.50400001928E-02 0.  1.
       -1   -1    0    0    0  501  0.00000000000E+00  0.00000000000E+00 -0.12834463377E+03  0.12834463387E+03  0.50400001928E-02 0. -1.
    10030    2    1    2    0    0  0.00000000000E+00  0.00000000000E+00  0.57336000903E+03  0.83004927668E+03  0.60020005145E+03 0.  0.
        5    1    3    3  502    0  0.28005817121E+03  0.99050554735E+02  0.34526152975E+03  0.45549007188E+03  0.46999998093E+01 0.  1.
       -5    1    3    3    0  502 -0.28005817121E+03 -0.99050554735E+02  0.22809847928E+03  0.37455920481E+03  0.46999998093E+01 0. -1.
</event>
<event>
 5   0  0.9496750E-04  0.5997088E+03  0.7818609E-02  0.9906010E-01
       -3   -1    0    0    0  501  0.00000000000E+00  0.00000000000E+00  0.92174133806E+03  0.92174134359E+03  0.10100000352E+00 0.  1.
        3   -1    0    0  501    0  0.00000000000E+00  0.00000000000E+00 -0.97546504355E+02  0.97546556643E+02  0.10100000352E+00 0. -1.
    10030    2    1    2    0    0  0.00000000000E+00  0.00000000000E+00  0.82419483370E+03  0.10192879002E+04  0.59970884574E+03 0.  0.
        5    1    3    3  502    0 -0.10145235821E+03 -0.80969465665E+01  0.89142075649E+03  0.89722416187E+03  0.46999998093E+01 0.  1.
       -5    1    3    3    0  502  0.10145235821E+03  0.80969465665E+01 -0.67225922794E+02  0.12206373837E+03  0.46999998093E+01 0. -1.
</event>
<event>
 5   0  0.2313168E-03  0.5999962E+03  0.7818609E-02  0.9905414E-01
        2   -1    0    0  501    0  0.00000000000E+00  0.00000000000E+00  0.21884292586E+03  0.21884292588E+03  0.25500000920E-02 0. -1.
       -2   -1    0    0    0  501  0.00000000000E+00  0.00000000000E+00 -0.41124862243E+03  0.41124862244E+03  0.25500000920E-02 0.  1.
    10030    2    1    2    0    0  0.00000000000E+00  0.00000000000E+00 -0.19240569657E+03  0.63009154831E+03  0.59999617264E+03 0.  0.
        2    1    3    3  502    0  0.77894366110E+02  0.24869278708E+03  0.59855262807E+02  0.26739163620E+03  0.25500000920E-02 0. -1.
       -2    1    3    3    0  502 -0.77894366110E+02 -0.24869278708E+03 -0.25226095937E+03  0.36269991211E+03  0.25500000920E-02 0.  1.
</event>
<event>
 5   0  0.1392854E-03  0.5996685E+03  0.7818609E-02  0.9906094E-01
       -1   -1    0    0    0  501  0.00000000000E+00  0.00000000000E+00  0.43023520758E+02  0.43023521053E+02  0.50400001928E-02 0.  1.
        1   -1    0    0  501    0  0.00000000000E+00  0.00000000000E+00 -0.20895678060E+04  0.20895678060E+04  0.50400001928E-02 0. -1.
    10030    2    1    2    0    0  0.00000000000E+00  0.00000000000E+00 -0.20465442852E+04  0.21325913270E+04  0.59966845572E+03 0.  0.
        4    1    3    3  502    0  0.21406721379E+03 -0.98113090804E+02 -0.36321969638E+03  0.43287539933E+03  0.12699999809E+01 0.  1.
       -4    1    3    3    0  502 -0.21406721379E+03  0.98113090804E+02 -0.16833245888E+04  0.16997159277E+04  0.12699999809E+01 0. -1.
</event>
<event>
 5   0  0.1423430E-03  0.6003776E+03  0.7818609E-02  0.9904623E-01
        1   -1    0    0  501    0  0.00000000000E+00  0.00000000000E+00  0.11680513847E+04  0.11680513847E+04  0.50400001928E-02 0.  1.
       -1   -1    0    0    0  501  0.00000000000E+00  0.00000000000E+00 -0.77148418756E+02  0.77148418920E+02  0.50400001928E-02 0. -1.
    10030    2    1    2    0    0  0.00000000000E+00  0.00000000000E+00  0.10909029659E+04  0.12451998036E+04  0.60037760605E+03 0.  0.
        1    1    3    3  502    0 -0.28820264881E+03  0.14791378358E+02  0.37399867438E+03  0.47239237940E+03  0.50400001928E-02 0. -1.
       -1    1    3    3    0  502  0.28820264881E+03 -0.14791378358E+02  0.71690429152E+03  0.77280742419E+03  0.50400001928E-02 0.  1.
</event>
<event>
 5   0  0.1423430E-03  0.6000526E+03  0.7818609E-02  0.9905297E-01
        1   -1    0    0  501    0  0.00000000000E+00  0.00000000000E+00  0.71212722336E+03  0.71212722338E+03  0.50400001928E-02 0. -1.
       -1   -1    0    0    0  501  0.00000000000E+00  0.00000000000E+00 -0.12640405115E+03  0.12640405125E+03  0.50400001928E-02 0.  1.
    10030    2    1    2    0    0  0.00000000000E+00  0.00000000000E+00  0.58572317222E+03  0.83853127463E+03  0.60005255108E+03 0.  0.
        1    1    3    3  502    0  0.80590241533E+01 -0.29283637697E+03  0.20232286508E+03  0.35602336062E+03  0.50400001928E-02 0.  1.
       -1    1    3    3    0  502 -0.80590241533E+01  0.29283637697E+03  0.38340030714E+03  0.48250791401E+03  0.50400001928E-02 0. -1.
</event>
<event>
 5   0  0.9496750E-04  0.5996155E+03  0.7818609E-02  0.9906204E-01
       -3   -1    0    0    0  501  0.00000000000E+00  0.00000000000E+00  0.36854855200E+03  0.36854856584E+03  0.10100000352E+00 0. -1.
        3   -1    0    0  501    0  0.00000000000E+00  0.00000000000E+00 -0.24388826197E+03  0.24388828288E+03  0.10100000352E+00 0.  1.
    10030    2    1    2    0    0  0.00000000000E+00  0.00000000000E+00  0.12466029003E+03  0.61243684872E+03  0.59961546491E+03 0.  0.
        2    1    3    3  502    0  0.24574778878E+02 -0.27029379869E+03 -0.67758964705E+02  0.27973904746E+03  0.25500000920E-02 0.  1.
       -2    1    3    3    0  502 -0.24574778878E+02  0.27029379869E+03  0.19241925473E+03  0.33269780126E+03  0.25500000920E-02 0. -1.
</event>
<event>
 5   0  0.2324616E-03  0.5998991E+03  0.7818609E-02  0.9905615E-01
       -2   -1    0    0    0  501  0.00000000000E+00  0.00000000000E+00  0.83658868644E+02  0.83658868683E+02  0.25500000920E-02 0. -1.
        2   -1    0    0  501    0  0.00000000000E+00  0.00000000000E+00 -0.10754355548E+04  0.10754355548E+04  0.25500000920E-02 0.  1.
    10030    2    1    2    0    0  0.00000000000E+00  0.00000000000E+00 -0.99177668614E+03  0.11590944235E+04  0.59989906430E+03 0.  0.
        4    1    3    3  502    0  0.21154502849E+03  0.12473080438E+03 -0.16313751141E+03  0.29482966806E+03  0.12699999809E+01 0. -1.
       -4    1    3    3    0  502 -0.21154502849E+03 -0.12473080438E+03 -0.82863917473E+03  0.86426475541E+03  0.12699999809E+01 0.  1.
</event>
<event>
 5   0  0.1423430E-03  0.5999799E+03  0.7818609E-02  0.9905448E-01
        1   -1    0    0  501    0  0.00000000000E+00  0.00000000000E+00  0.11015670269E+04  0.11015670269E+04  0.50400001928E-02 0.  1.
       -1   -1    0    0    0  501  0.00000000000E+00  0.00000000000E+00 -0.81696304304E+02  0.81696304460E+02  0.50400001928E-02 0. -1.
    10030    2    1    2    0    0  0.00000000000E+00  0.00000000000E+00  0.10198707226E+04  0.11832633314E+04  0.59997985013E+03 0.  0.
        1    1    3    3  502    0 -0.93238796417E+02  0.32043597965E+02  0.10687031391E+04  0.10732411961E+04  0.50400001928E-02 0.  1.
       -1    1    3    3    0  502  0.93238796417E+02 -0.32043597965E+02 -0.48832416530E+02  0.11002213531E+03  0.50400001928E-02 0. -1.
</event>
<event>
 5   0  0.2324616E-03  0.6001041E+03  0.7818609E-02  0.9905190E-01
       -2   -1    0    0    0  501  0.00000000000E+00  0.00000000000E+00  0.92101646563E+02  0.92101646598E+02  0.25500000920E-02 0. -1.
        2   -1    0    0  501    0  0.00000000000E+00  0.00000000000E+00 -0.97752034113E+03  0.97752034114E+03  0.25500000920E-02 0.  1.
    10030    2    1    2    0    0  0.00000000000E+00  0.00000000000E+00 -0.88541869457E+03  0.10696219877E+04  0.60010410093E+03 0.  0.
        4    1    3    3  502    0  0.13747761285E+03  0.20427423928E+03 -0.13708431431E+03  0.28181870236E+03  0.12699999809E+01 0. -1.
       -4    1    3    3    0  502 -0.13747761285E+03 -0.20427423928E+03 -0.74833438026E+03  0.78780328537E+03  0.12699999809E+01 0.  1.
</event>
<event>
 5   0  0.2346281E-03  0.5998983E+03  0.7818609E-02  0.9905617E-01
       -2   -1    0    0    0  501  0.00000000000E+00  0.00000000000E+00  0.17862980444E+03  0.17862980446E+03  0.25500000920E-02 0.  1.
        2   -1    0    0  501    0  0.00000000000E+00  0.00000000000E+00 -0.50366452267E+03  0.50366452268E+03  0.25500000920E-02 0. -1.
    10030    2    1    2    0    0  0.00000000000E+00  0.00000000000E+00 -0.32503471823E+03  0.68229432714E+03  0.59989830871E+03 0.  0.
        3    1    3    3  502    0 -0.98700019925E+02  0.21365662220E+02  0.15871364588E+03  0.18811756177E+03  0.10100000352E+00 0.  1.
       -3    1    3    3    0  502  0.98700019925E+02 -0.21365662220E+02 -0.48374836411E+03  0.49417676537E+03  0.10100000352E+00 0. -1.
</event>
<event>
 5   0  0.2421210E-03  0.6002165E+03  0.7818609E-02  0.9904957E-01
        2   -1    0    0  501    0  0.00000000000E+00  0.00000000000E+00  0.97991051801E+03  0.97991051801E+03  0.25500000920E-02 0. -1.
       -2   -1    0    0    0  501  0.00000000000E+00  0.00000000000E+00 -0.91911415887E+02  0.91911415922E+02  0.25500000920E-02 0.  1.
    10030    2    1    2    0    0  0.00000000000E+00  0.00000000000E+00  0.88799910212E+03  0.10718219339E+04  0.60021650485E+03 0.  0.
        1    1    3    3  502    0 -0.65696927395E+02  0.27162207428E+01 -0.78890336345E+02  0.10269931508E+03  0.50400001928E-02 0.  1.
       -1    1    3    3    0  502  0.65696927395E+02 -0.27162207428E+01  0.96688943847E+03  0.96912261885E+03  0.50400001928E-02 0. -1.
</event>
<event>
 5   0  0.2324616E-03  0.5988439E+03  0.7818609E-02  0.9907807E-01
        2   -1    0    0  501    0  0.00000000000E+00  0.00000000000E+00  0.24851725206E+03  0.24851725207E+03  0.25500000920E-02 0. -1.
       -2   -1    0    0    0  501  0.00000000000E+00  0.00000000000E+00 -0.36075365608E+03  0.36075365609E+03  0.25500000920E-02 0.  1.
    10030    2    1    2    0    0  0.00000000000E+00  0.00000000000E+00 -0.11223640402E+03  0.60927090817E+03  0.59884391051E+03 0.  0.
        4    1    3    3  502    0  0.16377210996E+03  0.14312243715E+02  0.19849051836E+03  0.25773289100E+03  0.12699999809E+01 0. -1.
       -4    1    3    3    0  502 -0.16377210996E+03 -0.14312243715E+02 -0.31072692238E+03  0.35153801717E+03  0.12699999809E+01 0.  1.
</event>
<event>
 5   0  0.1423430E-03  0.6000140E+03  0.7818609E-02  0.9905377E-01
        1   -1    0    0  501    0  0.00000000000E+00  0.00000000000E+00  0.52748196346E+03  0.52748196348E+03  0.50400001928E-02 0. -1.
       -1   -1    0    0    0  501  0.00000000000E+00  0.00000000000E+00 -0.17062992536E+03  0.17062992543E+03  0.50400001928E-02 0.  1.
    10030    2    1    2    0    0  0.00000000000E+00  0.00000000000E+00  0.35685203810E+03  0.69811188891E+03  0.60001402679E+03 0.  0.
        1    1    3    3  502    0  0.25211453132E+03 -0.41935030556E+02 -0.43716840849E+01  0.25561571810E+03  0.50400001928E-02 0.  1.
       -1    1    3    3    0  502 -0.25211453132E+03  0.41935030556E+02  0.36122372219E+03  0.44249617081E+03  0.50400001928E-02 0. -1.
</event>
<event>
 5   0  0.2346281E-03  0.6007388E+03  0.7818609E-02  0.9903875E-01
        2   -1    0    0  501    0  0.00000000000E+00  0.00000000000E+00  0.87747372928E+03  0.87747372928E+03  0.25500000920E-02 0. -1.
       -2   -1    0    0    0  501  0.00000000000E+00  0.00000000000E+00 -0.10281990818E+03  0.10281990821E+03  0.25500000920E-02 0.  1.
    10030    2    1    2    0    0  0.00000000000E+00  0.00000000000E+00  0.77465382110E+03  0.98029363749E+03  0.60073877281E+03 0.  0.
        3    1    3    3  502    0 -0.48332474893E+02  0.24617129813E+03  0.11777906938E+03  0.27714302361E+03  0.10100000352E+00 0.  1.
       -3    1    3    3    0  502  0.48332474893E+02 -0.24617129813E+03  0.65687475172E+03  0.70315061388E+03  0.10100000352E+00 0. -1.
</event>
<event>
 5   0  0.1423430E-03  0.5999660E+03  0.7818609E-02  0.9905477E-01
        1   -1    0    0  501    0  0.00000000000E+00  0.00000000000E+00  0.92531474593E+03  0.92531474594E+03  0.50400001928E-02 0.  1.
       -1   -1    0    0    0  501  0.00000000000E+00  0.00000000000E+00 -0.97253173543E+02  0.97253173674E+02  0.50400001928E-02 0. -1.
    10030    2    1    2    0    0  0.00000000000E+00  0.00000000000E+00  0.82806157238E+03  0.10225679196E+04  0.59996598451E+03 0.  0.
        1    1    3    3  502    0 -0.65713358279E+02  0.26783741398E+03  0.21283731814E+03  0.34836022993E+03  0.50400001928E-02 0.  1.
       -1    1    3    3    0  502  0.65713358279E+02 -0.26783741398E+03  0.61522425425E+03  0.67420768968E+03  0.50400001928E-02 0. -1.
</event>
<event>
 5   0  0.2324616E-03  0.6001989E+03  0.7818609E-02  0.9904993E-01
       -2   -1    0    0    0  501  0.00000000000E+00  0.00000000000E+00  0.65510795337E+02  0.65510795386E+02  0.25500000920E-02 0. -1.
        2   -1    0    0  501    0  0.00000000000E+00  0.00000000000E+00 -0.13747304673E+04  0.13747304673E+04  0.25500000920E-02 0.  1.
    10030    2    1    2    0    0  0.00000000000E+00  0.00000000000E+00 -0.13092196720E+04  0.14402412627E+04  0.60019892144E+03 0.  0.
        4    1    3    3  502    0 -0.44277552764E+02  0.27100841652E+03 -0.94507137929E+03  0.98415831468E+03  0.12699999809E+01 0.  1.
       -4    1    3    3    0  502  0.44277552764E+02 -0.27100841652E+03 -0.36414829266E+03  0.45608294800E+03  0.12699999809E+01 0. -1.
</event>
<event>
 5   0  0.2313168E-03  0.6003044E+03  0.7818609E-02  0.9904775E-01
       -2   -1    0    0    0  501  0.00000000000E+00  0.00000000000E+00  0.12094195868E+03  0.12094195870E+03  0.25500000920E-02 0.  1.
        2   -1    0    0  501    0  0.00000000000E+00  0.00000000000E+00 -0.74491388794E+03  0.74491388794E+03  0.25500000920E-02 0. -1.
    10030    2    1    2    0    0  0.00000000000E+00  0.00000000000E+00 -0.62397192926E+03  0.86585584664E+03  0.60030440500E+03 0.  0.
        2    1    3    3  502    0  0.23772892540E+03  0.70095114254E+02 -0.67792117980E+02  0.25695162635E+03  0.25500000920E-02 0.  1.
       -2    1    3    3    0  502 -0.23772892540E+03 -0.70095114254E+02 -0.55617981128E+03  0.60890422030E+03  0.25500000920E-02 0. -1.
</event>
<event>
 5   0  0.2421210E-03  0.6004288E+03  0.7818609E-02  0.9904517E-01
       -2   -1    0    0    0  501  0.00000000000E+00  0.00000000000E+00  0.57570213731E+02  0.57570213788E+02  0.25500000920E-02 0. -1.
        2   -1    0    0  501    0  0.00000000000E+00  0.00000000000E+00 -0.15655435994E+04  0.15655435994E+04  0.25500000920E-02 0.  1.
    10030    2    1    2    0    0  0.00000000000E+00  0.00000000000E+00 -0.15079733857E+04  0.16231138132E+04  0.60042877902E+03 0.  0.
        1    1    3    3  502    0  0.29752756320E+03  0.24102870026E+02 -0.84053656805E+03  0.89196710784E+03  0.50400001928E-02 0. -1.
       -1    1    3    3    0  502 -0.29752756320E+03 -0.24102870026E+02 -0.66743681761E+03  0.73114670534E+03  0.50400001928E-02 0.  1.
</event>
<event>
 5   0  0.2346281E-03  0.6001193E+03  0.7818609E-02  0.9905159E-01
       -2   -1    0    0    0  501  0.00000000000E+00  0.00000000000E+00  0.14096301042E+03  0.14096301044E+03  0.25500000920E-02 0. -1.
        2   -1    0    0  501    0  0.00000000000E+00  0.00000000000E+00 -0.63871922267E+03  0.63871922268E+03  0.25500000920E-02 0.  1.
    10030    2    1    2    0    0  0.00000000000E+00  0.00000000000E+00 -0.49775621225E+03  0.77968223311E+03  0.60011926964E+03 0.  0.
        3    1    3    3  502    0  0.19681091607E+03 -0.20663263621E+03 -0.36939143769E+03  0.46677792094E+03  0.10100000352E+00 0.  1.
       -3    1    3    3    0  502 -0.19681091607E+03  0.20663263621E+03 -0.12836477456E+03  0.31290431218E+03  0.10100000352E+00 0. -1.
</event>
<event>
 5   0  0.9496750E-04  0.5997883E+03  0.7818609E-02  0.9905845E-01
        3   -1    0    0  501    0  0.00000000000E+00  0.00000000000E+00  0.64066647025E+03  0.64066647821E+03  0.10100000352E+00 0.  1.
       -3   -1    0    0    0  501  0.00000000000E+00  0.00000000000E+00 -0.14037957343E+03  0.14037960976E+03  0.10100000352E+00 0. -1.
    10030    2    1    2    0    0  0.00000000000E+00  0.00000000000E+00  0.50028689682E+03  0.78104608797E+03  0.59978830632E+03 0.  0.
        2    1    3    3  502    0  0.14800426471E+03 -0.63224072478E+02  0.57966501104E+03  0.60159294440E+03  0.25500000920E-02 0.  1.
       -2    1    3    3    0  502 -0.14800426471E+03  0.63224072478E+02 -0.79378114223E+02  0.17945314357E+03  0.25500000920E-02 0. -1.
</event>
<event>
 5   0  0.2313168E-03  0.5994499E+03  0.7818609E-02  0.9906548E-01
        2   -1    0    0  501    0  0.00000000000E+00  0.00000000000E+00  0.94693702490E+03  0.94693702491E+03  0.25500000920E-02 0.  1.
       -2   -1    0    0    0  501  0.00000000000E+00  0.00000000000E+00 -0.94869095298E+02  0.94869095332E+02  0.25500000920E-02 0. -1.
    10030    2    1    2    0    0  0.00000000000E+00  0.00000000000E+00  0.85206792961E+03  0.10418061202E+04  0.59944994412E+03 0.  0.
        2    1    3    3  502    0 -0.23004785873E+03  0.86465352843E+02  0.72421441309E+03  0.76477760864E+03  0.25500000920E-02 0.  1.
       -2    1    3    3    0  502  0.23004785873E+03 -0.86465352843E+02  0.12785351652E+03  0.27702851160E+03  0.25500000920E-02 0. -1.
</event>
<event>
 5   0  0.1416315E-03  0.5997779E+03  0.7818609E-02  0.9905867E-01
       -1   -1    0    0    0  501  0.00000000000E+00  0.00000000000E+00  0.91566313929E+02  0.91566314068E+02  0.50400001928E-02 0.  1.
        1   -1    0    0  501    0  0.00000000000E+00  0.00000000000E+00 -0.98216666123E+03  0.98216666124E+03  0.50400001928E-02 0. -1.
    10030    2    1    2    0    0  0.00000000000E+00  0.00000000000E+00 -0.89060034730E+03  0.10737329753E+04  0.59977789527E+03 0.  0.
        2    1    3    3  502    0  0.16124897640E+03  0.22743217669E+03 -0.64309089885E+03  0.70092262881E+03  0.25500000920E-02 0. -1.
       -2    1    3    3    0  502 -0.16124897640E+03 -0.22743217669E+03 -0.24750944845E+03  0.37281034650E+03  0.25500000920E-02 0.  1.
</event>
<event>
 5   0  0.1416315E-03  0.6002382E+03  0.7818609E-02  0.9904912E-01
        1   -1    0    0  501    0  0.00000000000E+00  0.00000000000E+00  0.50251134789E+03  0.50251134791E+03  0.50400001928E-02 0.  1.
       -1   -1    0    0    0  501  0.00000000000E+00  0.00000000000E+00 -0.17924268562E+03  0.17924268569E+03  0.50400001928E-02 0. -1.
    10030    2    1    2    0    0  0.00000000000E+00  0.00000000000E+00  0.32326866227E+03  0.68175403360E+03  0.60023823131E+03 0.  0.
        2    1    3    3  502    0  0.19950026160E+03 -0.12055810482E+03  0.37634930581E+03  0.44268884220E+03  0.25500000920E-02 0.  1.
       -2    1    3    3    0  502 -0.19950026160E+03  0.12055810482E+03 -0.53080643538E+02  0.23906519140E+03  0.25500000920E-02 0. -1.
</event>
<event>
 5   0  0.1392854E-03  0.5996717E+03  0.7818609E-02  0.9906087E-01
       -1   -1    0    0    0  501  0.00000000000E+00  0.00000000000E+00  0.63765768804E+03  0.63765768806E+03  0.50400001928E-02 0. -1.
        1   -1    0    0  501    0  0.00000000000E+00  0.00000000000E+00 -0.14098712739E+03  0.14098712748E+03  0.50400001928E-02 0.  1.
    10030    2    1    2    0    0  0.00000000000E+00  0.00000000000E+00  0.49667056066E+03  0.77864481554E+03  0.59967166261E+03 0.  0.
        4    1    3    3  502    0  0.26127334656E+03  0.95781372545E+02  0.10338430734E+03  0.29686320225E+03  0.12699999809E+01 0.  1.
       -4    1    3    3    0  502 -0.26127334656E+03 -0.95781372545E+02  0.39328625332E+03  0.48178161329E+03  0.12699999809E+01 0. -1.
</event>
<event>
 5   0  0.1418763E-03  0.6001950E+03  0.7818609E-02  0.9905002E-01
       -1   -1    0    0    0  501  0.00000000000E+00  0.00000000000E+00  0.89133515107E+02  0.89133515249E+02  0.50400001928E-02 0. -1.
        1   -1    0    0  501    0  0.00000000000E+00  0.00000000000E+00 -0.10103775266E+04  0.10103775266E+04  0.50400001928E-02 0.  1.
    10030    2    1    2    0    0  0.00000000000E+00  0.00000000000E+00 -0.92124401146E+03  0.10995110418E+04  0.60019497037E+03 0.  0.
        5    1    3    3  502    0  0.16436768359E+03 -0.48081217709E+02 -0.91198894664E+03  0.92794098288E+03  0.46999998093E+01 0.  1.
       -5    1    3    3    0  502 -0.16436768359E+03  0.48081217709E+02 -0.92550648180E+01  0.17157005895E+03  0.46999998093E+01 0. -1.
</event>
<event>
 5   0  0.1418763E-03  0.5999671E+03  0.7818609E-02  0.9905474E-01
       -1   -1    0    0    0  501  0.00000000000E+00  0.00000000000E+00  0.24028210437E+03  0.24028210442E+03  0.50400001928E-02 0. -1.
        1   -1    0    0  501    0  0.00000000000E+00  0.00000000000E+00 -0.37451864399E+03  0.37451864402E+03  0.50400001928E-02 0.  1.
    10030    2    1    2    0    0  0.00000000000E+00  0.00000000000E+00 -0.13423653962E+03  0.61480074844E+03  0.59996709219E+03 0.  0.
        5    1    3    3  502    0 -0.23786599288E+03  0.18140094315E+03 -0.89604023087E+02  0.31230994813E+03  0.46999998093E+01 0.  1.
       -5    1    3    3    0  502  0.23786599288E+03 -0.18140094315E+03 -0.44632516533E+02  0.30249080032E+03  0.46999998093E+01 0. -1.
</event>
<event>
 5   0  0.2346281E-03  0.6001822E+03  0.7818609E-02  0.9905028E-01
        2   -1    0    0  501    0  0.00000000000E+00  0.00000000000E+00  0.10625520373E+04  0.10625520373E+04  0.25500000920E-02 0.  1.
       -2   -1    0    0    0  501  0.00000000000E+00  0.00000000000E+00 -0.84753187249E+02  0.84753187287E+02  0.25500000920E-02 0. -1.
    10030    2    1    2    0    0  0.00000000000E+00  0.00000000000E+00  0.97779885009E+03  0.11473052246E+04  0.60018221169E+03 0.  0.
        3    1    3    3  502    0 -0.29971808306E+03 -0.53306073165E+01  0.51561507743E+03  0.59642121270E+03  0.10100000352E+00 0.  1.
       -3    1    3    3    0  502  0.29971808306E+03  0.53306073165E+01  0.46218377266E+03  0.55088401193E+03  0.10100000352E+00 0. -1.
</event>
<event>
 5   0  0.2346281E-03  0.6002241E+03  0.7818609E-02  0.9904941E-01
       -2   -1    0    0    0  501  0.00000000000E+00  0.00000000000E+00  0.44417650444E+02  0.44417650517E+02  0.25500000920E-02 0.  1.
        2   -1    0    0  501    0  0.00000000000E+00  0.00000000000E+00 -0.20277352380E+04  0.20277352380E+04  0.25500000920E-02 0. -1.
    10030    2    1    2    0    0  0.00000000000E+00  0.00000000000E+00 -0.19833175875E+04  0.20721528885E+04  0.60022407506E+03 0.  0.
        3    1    3    3  502    0  0.31753218391E+02  0.22902386932E+02 -0.20188812466E+04  0.20192608262E+04  0.10100000352E+00 0. -1.
       -3    1    3    3    0  502 -0.31753218391E+02 -0.22902386932E+02  0.35563659066E+02  0.52892062283E+02  0.10100000352E+00 0.  1.
</event>
<event>
 5   0  0.1418763E-03  0.5970975E+03  0.7818609E-02  0.9911446E-01
       -1   -1    0    0    0  501  0.00000000000E+00  0.00000000000E+00  0.43077352193E+02  0.43077352488E+02  0.50400001928E-02 0. -1.
        1   -1    0    0  501    0  0.00000000000E+00  0.00000000000E+00 -0.20691003070E+04  0.20691003070E+04  0.50400001928E-02 0.  1.
    10030    2    1    2    0    0  0.00000000000E+00  0.00000000000E+00 -0.20260229548E+04  0.21121776595E+04  0.59709752291E+03 0.  0.
        5    1    3    3  502    0  0.44076053602E+02 -0.28451267534E+03 -0.73404670402E+03  0.78850289449E+03  0.46999998093E+01 0. -1.
       -5    1    3    3    0  502 -0.44076053602E+02  0.28451267534E+03 -0.12919762508E+04  0.13236747650E+04  0.46999998093E+01 0.  1.
</event>
<event>
 5   0  0.2421210E-03  0.6000581E+03  0.7818609E-02  0.9905286E-01
       -2   -1    0    0    0  501  0.00000000000E+00  0.00000000000E+00  0.24535443878E+03  0.24535443879E+03  0.25500000920E-02 0. -1.
        2   -1    0    0  501    0  0.00000000000E+00  0.00000000000E+00 -0.36688729296E+03  0.36688729297E+03  0.25500000920E-02 0.  1.
    10030    2    1    2    0    0  0.00000000000E+00  0.00000000000E+00 -0.12153285419E+03  0.61224173176E+03  0.60005808341E+03 0.  0.
        1    1    3    3  502    0 -0.67689139432E+01  0.27177067600E+03  0.68745124533E+02  0.28041221568E+03  0.50400001928E-02 0. -1.
       -1    1    3    3    0  502  0.67689139432E+01 -0.27177067600E+03 -0.19027797872E+03  0.33182951608E+03  0.50400001928E-02 0.  1.
</event>
<event>
 5   0  0.1416315E-03  0.5992283E+03  0.7818609E-02  0.9907008E-01
       -1   -1    0    0    0  501  0.00000000000E+00  0.00000000000E+00  0.72141008012E+03  0.72141008013E+03  0.50400001928E-02 0. -1.
        1   -1    0    0  501    0  0.00000000000E+00  0.00000000000E+00 -0.12443497056E+03  0.12443497066E+03  0.50400001928E-02 0.  1.
    10030    2    1    2    0    0  0.00000000000E+00  0.00000000000E+00  0.59697510956E+03  0.84584505079E+03  0.59922831084E+03 0.  0.
        2    1    3    3  502    0 -0.28588988900E+03  0.70103957096E+02  0.21962900959E+03  0.36726624578E+03  0.25500000920E-02 0.  1.
       -2    1    3    3    0  502  0.28588988900E+03 -0.70103957096E+02  0.37734609997E+03  0.47857880501E+03  0.25500000920E-02 0. -1.
</event>
<event>
 5   0  0.2346281E-03  0.6000604E+03  0.7818609E-02  0.9905281E-01
       -2   -1    0    0    0  501  0.00000000000E+00  0.00000000000E+00  0.80929339232E+02  0.80929339272E+02  0.25500000920E-02 0.  1.
        2   -1    0    0  501    0  0.00000000000E+00  0.00000000000E+00 -0.11123053344E+04  0.11123053344E+04  0.25500000920E-02 0. -1.
    10030    2    1    2    0    0  0.00000000000E+00  0.00000000000E+00 -0.10313759952E+04  0.11932346737E+04  0.60006044950E+03 0.  0.
        3    1    3    3  502    0 -0.66739388193E+02 -0.86386885205E+02  0.40037026664E+02  0.11627473318E+03  0.10100000352E+00 0.  1.
       -3    1    3    3    0  502  0.66739388193E+02  0.86386885205E+02 -0.10714130219E+04  0.10769599405E+04  0.10100000352E+00 0. -1.
</event>
<event>
 5   0  0.2324616E-03  0.6000196E+03  0.7818609E-02  0.9905365E-01
        2   -1    0    0  501    0  0.00000000000E+00  0.00000000000E+00  0.84598281924E+03  0.84598281924E+03  0.25500000920E-02 0.  1.
       -2   -1    0    0    0  501  0.00000000000E+00  0.00000000000E+00 -0.10639208554E+03  0.10639208557E+03  0.25500000920E-02 0. -1.
    10030    2    1    2    0    0  0.00000000000E+00  0.00000000000E+00  0.73959073369E+03  0.95237490481E+03  0.60001958797E+03 0.  0.
        4    1    3    3  502    0 -0.95114024326E+02 -0.22976807546E+03  0.10342165701E+03  0.26932823499E+03  0.12699999809E+01 0. -1.
       -4    1    3    3    0  502  0.95114024326E+02  0.22976807546E+03  0.63616907669E+03  0.68304666983E+03  0.12699999809E+01 0.  1.
</event>
<event>
 5   0  0.2406307E-03  0.6002283E+03  0.7818609E-02  0.9904933E-01
       -2   -1    0    0    0  501  0.00000000000E+00  0.00000000000E+00  0.37798588181E+03  0.37798588182E+03  0.25500000920E-02 0. -1.
        2   -1    0    0  501    0  0.00000000000E+00  0.00000000000E+00 -0.23828533216E+03  0.23828533218E+03  0.25500000920E-02 0.  1.
    10030    2    1    2    0    0  0.00000000000E+00  0.00000000000E+00  0.13970054964E+03  0.61627121399E+03  0.60022826127E+03 0.  0.
        5    1    3    3  502    0 -0.71781372552E+02  0.34819562399E+02 -0.22715899176E+03  0.24080752668E+03  0.46999998093E+01 0.  1.
       -5    1    3    3    0  502  0.71781372552E+02 -0.34819562399E+02  0.36685954141E+03  0.37546368731E+03  0.46999998093E+01 0. -1.
</event>
<event>
 5   0  0.1423430E-03  0.6004747E+03  0.7818609E-02  0.9904422E-01
        1   -1    0    0  501    0  0.00000000000E+00  0.00000000000E+00  0.75890767377E+03  0.75890767379E+03  0.50400001928E-02 0.  1.
       -1   -1    0    0    0  501  0.00000000000E+00  0.00000000000E+00 -0.11877921078E+03  0.11877921089E+03  0.50400001928E-02 0. -1.
    10030    2    1    2    0    0  0.00000000000E+00  0.00000000000E+00  0.64012846299E+03  0.87768688467E+03  0.60047466091E+03 0.  0.
        1    1    3    3  502    0  0.21308303644E+03  0.47149737647E+02  0.62144524865E+03  0.65865140649E+03  0.50400001928E-02 0.  1.
       -1    1    3    3    0  502 -0.21308303644E+03 -0.47149737647E+02  0.18683214344E+02  0.21903547818E+03  0.50400001928E-02 0. -1.
</event>
<event>
 5   0  0.9496750E-04  0.5999843E+03  0.7818609E-02  0.9905439E-01
       -3   -1    0    0    0  501  0.00000000000E+00  0.00000000000E+00  0.92094756933E+03  0.92094757487E+03  0.10100000352E+00 0. -1.
        3   -1    0    0  501    0  0.00000000000E+00  0.00000000000E+00 -0.97720272967E+02  0.97720325161E+02  0.10100000352E+00 0.  1.
    10030    2    1    2    0    0  0.00000000000E+00  0.00000000000E+00  0.82322729636E+03  0.10186679000E+04  0.59998425735E+03 0.  0.
        1    1    3    3  502    0  0.15802934354E+03 -0.65682484461E+02  0.82993984949E+03  0.84740050506E+03  0.50400001928E-02 0. -1.
       -1    1    3    3    0  502 -0.15802934354E+03  0.65682484461E+02 -0.67125531239E+01  0.17126739497E+03  0.50400001928E-02 0.  1.
</event>
<event>
 5   0  0.1423430E-03  0.5998911E+03  0.7818609E-02  0.9905632E-01
       -1   -1    0    0    0  501  0.00000000000E+00  0.00000000000E+00  0.47684220659E+03  0.47684220662E+03  0.50400001928E-02 0. -1.
        1   -1    0    0  501    0  0.00000000000E+00  0.00000000000E+00 -0.18867316838E+03  0.18867316845E+03  0.50400001928E-02 0.  1.
    10030    2    1    2    0    0  0.00000000000E+00  0.00000000000E+00  0.28816903821E+03  0.66551537506E+03  0.59989109000E+03 0.  0.
        1    1    3    3  502    0  0.29215178351E+03 -0.24125705590E+02  0.21453421099E+03  0.36326249736E+03  0.50400001928E-02 0. -1.
       -1    1    3    3    0  502 -0.29215178351E+03  0.24125705590E+02  0.73634827217E+02  0.30225287771E+03  0.50400001928E-02 0.  1.
</event>
<event>
 5   0  0.1392854E-03  0.5994536E+03  0.7818609E-02  0.9906540E-01
       -1   -1    0    0    0  501  0.00000000000E+00  0.00000000000E+00  0.24041674974E+03  0.24041674980E+03  0.50400001928E-02 0.  1.
        1   -1    0    0  501    0  0.00000000000E+00  0.00000000000E+00 -0.37366849901E+03  0.37366849904E+03  0.50400001928E-02 0. -1.
    10030    2    1    2    0    0  0.00000000000E+00  0.00000000000E+00 -0.13325174926E+03  0.61408524884E+03  0.59945363804E+03 0.  0.
        4    1    3    3  502    0  0.19344641183E+03  0.12906760106E+03 -0.26033005161E+03  0.34907493259E+03  0.12699999809E+01 0. -1.
       -4    1    3    3    0  502 -0.19344641183E+03 -0.12906760106E+03  0.12707830235E+03  0.26501031625E+03  0.12699999809E+01 0.  1.
</event>
<event>
 5   0  0.1479385E-03  0.5999298E+03  0.7818609E-02  0.9905552E-01
       -1   -1    0    0    0  501  0.00000000000E+00  0.00000000000E+00  0.12257216581E+03  0.12257216592E+03  0.50400001928E-02 0. -1.
        1   -1    0    0  501    0  0.00000000000E+00  0.00000000000E+00 -0.73408952946E+03  0.73408952947E+03  0.50400001928E-02 0.  1.
    10030    2    1    2    0    0  0.00000000000E+00  0.00000000000E+00 -0.61151736364E+03  0.85666169539E+03  0.59992980782E+03 0.  0.
        3    1    3    3  502    0  0.20682717776E+03 -0.21534459905E+03 -0.26466596334E+03  0.39899731848E+03  0.10100000352E+00 0.  1.
       -3    1    3    3    0  502 -0.20682717776E+03  0.21534459905E+03 -0.34685140030E+03  0.45766437691E+03  0.10100000352E+00 0. -1.
</event>
<event>
 5   0  0.2346281E-03  0.6000356E+03  0.7818609E-02  0.9905332E-01
        2   -1    0    0  501    0  0.00000000000E+00  0.00000000000E+00  0.17149377540E+04  0.17149377540E+04  0.25500000920E-02 0.  1.
       -2   -1    0    0    0  501  0.00000000000E+00  0.00000000000E+00 -0.52486269276E+02  0.52486269338E+02  0.25500000920E-02 0. -1.
    10030    2    1    2    0    0  0.00000000000E+00  0.00000000000E+00  0.16624514848E+04  0.17674240234E+04  0.60003561497E+03 0.  0.
        3    1    3    3  502    0  0.16017184214E+03 -0.12269203047E+03  0.17719613522E+03  0.26852715672E+03  0.10100000352E+00 0. -1.
       -3    1    3    3    0  502 -0.16017184214E+03  0.12269203047E+03  0.14852553495E+04  0.14988968667E+04  0.10100000352E+00 0.  1.
</event>
<event>
 5   0  0.1416315E-03  0.6001874E+03  0.7818609E-02  0.9905017E-01
       -1   -1    0    0    0  501  0.00000000000E+00  0.00000000000E+00  0.10059858817E+03  0.10059858830E+03  0.50400001928E-02 0. -1.
        1   -1    0    0  501    0  0.00000000000E+00  0.00000000000E+00 -0.89520378961E+03  0.89520378963E+03  0.50400001928E-02 0.  1.
    10030    2    1    2    0    0  0.00000000000E+00  0.00000000000E+00 -0.79460520144E+03  0.99580237792E+03  0.60018742883E+03 0.  0.
        2    1    3    3  502    0  0.78570697291E+02  0.21266037790E+03 -0.72352100867E+03  0.75820870530E+03  0.25500000920E-02 0.  1.
       -2    1    3    3    0  502 -0.78570697291E+02 -0.21266037790E+03 -0.71084192766E+02  0.23759367262E+03  0.25500000920E-02 0. -1.
</event>
<event>
 5   0  0.1392854E-03  0.5999626E+03  0.7818609E-02  0.9905484E-01
        1   -1    0    0  501    0  0.00000000000E+00  0.00000000000E+00  0.87035999411E+03  0.87035999412E+03  0.50400001928E-02 0.  1.
       -1   -1    0    0    0  501  0.00000000000E+00  0.00000000000E+00 -0.10339259470E+03  0.10339259483E+03  0.50400001928E-02 0. -1.
    10030    2    1    2    0    0  0.00000000000E+00  0.00000000000E+00  0.76696739940E+03  0.97375258895E+03  0.59996259278E+03 0.  0.
        4    1    3    3  502    0 -0.85874532573E+02 -0.81442084506E+01 -0.82825008245E+02  0.11959246785E+03  0.12699999809E+01 0. -1.
       -4    1    3    3    0  502  0.85874532573E+02  0.81442084506E+01  0.84979240765E+03  0.85416012110E+03  0.12699999809E+01 0.  1.
</event>
<event>
 5   0  0.1479385E-03  0.5997080E+03  0.7818609E-02  0.9906012E-01
        1   -1    0    0  501    0  0.00000000000E+00  0.00000000000E+00  0.72237575006E+03  0.72237575008E+03  0.50400001928E-02 0.  1.
       -1   -1    0    0    0  501  0.00000000000E+00  0.00000000000E+00 -0.12446764951E+03  0.12446764961E+03  0.50400001928E-02 0. -1.
    10030    2    1    2    0    0  0.00000000000E+00  0.00000000000E+00  0.59790810055E+03  0.84684339969E+03  0.59970796801E+03 0.  0.
        3    1    3    3  502    0  0.17288134426E+03 -0.21413306739E+03  0.13085286873E+03  0.30473498847E+03  0.10100000352E+00 0.  1.
       -3    1    3    3    0  502 -0.17288134426E+03  0.21413306739E+03  0.46705523182E+03  0.54210841122E+03  0.10100000352E+00 0. -1.
</event>
<event>
 5   0  0.1392854E-03  0.6000021E+03  0.7818609E-02  0.9905402E-01
        1   -1    0    0  501    0  0.00000000000E+00  0.00000000000E+00  0.11663964262E+04  0.11663964262E+04  0.50400001928E-02 0.  1.
       -1   -1    0    0    0  501  0.00000000000E+00  0.00000000000E+00 -0.77161274041E+02  0.77161274206E+02  0.50400001928E-02 0. -1.
    10030    2    1    2    0    0  0.00000000000E+00  0.00000000000E+00  0.10892351522E+04  0.12435577004E+04  0.60000211464E+03 0.  0.
        4    1    3    3  502    0  0.22526445191E+03  0.15646252728E+03  0.29269420155E+03  0.40111856634E+03  0.12699999809E+01 0. -1.
       -4    1    3    3    0  502 -0.22526445191E+03 -0.15646252728E+03  0.79654095063E+03  0.84243913410E+03  0.12699999809E+01 0.  1.
</event>
<event>
 5   0  0.2313168E-03  0.6025965E+03  0.7818609E-02  0.9900034E-01
       -2   -1    0    0    0  501  0.00000000000E+00  0.00000000000E+00  0.57036761293E+03  0.57036761294E+03  0.25500000920E-02 0.  1.
        2   -1    0    0  501    0  0.00000000000E+00  0.00000000000E+00 -0.15916164771E+03  0.15916164773E+03  0.25500000920E-02 0. -1.
    10030    2    1    2    0    0  0.00000000000E+00  0.00000000000E+00  0.41120596522E+03  0.72952926067E+03  0.60259654524E+03 0.  0.
        2    1    3    3  502    0 -0.35743846733E+02 -0.28996578968E+03  0.11645109000E+03  0.31451333539E+03  0.25500000920E-02 0. -1.
       -2    1    3    3    0  502  0.35743846733E+02  0.28996578968E+03  0.29475487522E+03  0.41501592528E+03  0.25500000920E-02 0.  1.
</event>
<event>
 5   0  0.2406307E-03  0.5984271E+03  0.7818609E-02  0.9908675E-01
        2   -1    0    0  501    0  0.00000000000E+00  0.00000000000E+00  0.13809610251E+04  0.13809610251E+04  0.25500000920E-02 0.  1.
       -2   -1    0    0    0  501  0.00000000000E+00  0.00000000000E+00 -0.64830766444E+02  0.64830766494E+02  0.25500000920E-02 0. -1.
    10030    2    1    2    0    0  0.00000000000E+00  0.00000000000E+00  0.13161302587E+04  0.14457917916E+04  0.59842714419E+03 0.  0.
        5    1    3    3  502    0 -0.31215830580E+02  0.16137112904E+03  0.54109128802E+02  0.17310389130E+03  0.46999998093E+01 0. -1.
       -5    1    3    3    0  502  0.31215830580E+02 -0.16137112904E+03  0.12620211299E+04  0.12726879003E+04  0.46999998093E+01 0.  1.
</event>
<event>
 5   0  0.2346281E-03  0.5997662E+03  0.7818609E-02  0.9905891E-01
        2   -1    0    0  501    0  0.00000000000E+00  0.00000000000E+00  0.17542693921E+04  0.17542693921E+04  0.25500000920E-02 0.  1.
       -2   -1    0    0    0  501  0.00000000000E+00  0.00000000000E+00 -0.51263432558E+02  0.51263432621E+02  0.25500000920E-02 0. -1.
    10030    2    1    2    0    0  0.00000000000E+00  0.00000000000E+00  0.17030059596E+04  0.18055328247E+04  0.59976619021E+03 0.  0.
        3    1    3    3  502    0  0.28899928025E+03 -0.22133319403E+02  0.10831154748E+04  0.11212268324E+04  0.10100000352E+00 0.  1.
       -3    1    3    3    0  502 -0.28899928025E+03  0.22133319403E+02  0.61989048481E+03  0.68430599236E+03  0.10100000352E+00 0. -1.
</event>
<event>
 5   0  0.2406307E-03  0.5999317E+03  0.7818609E-02  0.9905548E-01
       -2   -1    0    0    0  501  0.00000000000E+00  0.00000000000E+00  0.17107157916E+03  0.17107157918E+03  0.25500000920E-02 0.  1.
        2   -1    0    0  501    0  0.00000000000E+00  0.00000000000E+00 -0.52597579385E+03  0.52597579385E+03  0.25500000920E-02 0. -1.
    10030    2    1    2    0    0  0.00000000000E+00  0.00000000000E+00 -0.35490421468E+03  0.69704737303E+03  0.59993169499E+03 0.  0.
        5    1    3    3  502    0 -0.13741284602E+03  0.24678431029E+02  0.13097363570E+03  0.19148759348E+03  0.46999998093E+01 0.  1.
       -5    1    3    3    0  502  0.13741284602E+03 -0.24678431029E+02 -0.48587785039E+03  0.50555977955E+03  0.46999998093E+01 0. -1.
</event>
<event>
 5   0  0.1392854E-03  0.6000812E+03  0.7818609E-02  0.9905238E-01
        1   -1    0    0  501    0  0.00000000000E+00  0.00000000000E+00  0.11374257752E+04  0.11374257753E+04  0.50400001928E-02 0. -1.
       -1   -1    0    0    0  501  0.00000000000E+00  0.00000000000E+00 -0.79147452644E+02  0.79147452804E+02  0.50400001928E-02 0.  1.
    10030    2    1    2    0    0  0.00000000000E+00  0.00000000000E+00  0.10582783226E+04  0.12165732281E+04  0.60008117047E+03 0.  0.
        4    1    3    3  502    0 -0.79567457423E+02  0.44016929788E+01  0.11155734142E+04  0.11184167428E+04  0.12699999809E+01 0. -1.
       -4    1    3    3    0  502  0.79567457423E+02 -0.44016929788E+01 -0.57295091591E+02  0.98156485279E+02  0.12699999809E+01 0.  1.
</event>
<event>
 5   0  0.1479385E-03  0.5998026E+03  0.7818609E-02  0.9905816E-01
        1   -1    0    0  501    0  0.00000000000E+00  0.00000000000E+00  0.99354679193E+03  0.99354679194E+03  0.50400001928E-02 0. -1.
       -1   -1    0    0    0  501  0.00000000000E+00  0.00000000000E+00 -0.90524977915E+02  0.90524978056E+02  0.50400001928E-02 0.  1.
    10030    2    1    2    0    0  0.00000000000E+00  0.00000000000E+00  0.90302181401E+03  0.10840717700E+04  0.59980263914E+03 0.  0.
        3    1    3    3  502    0 -0.20932233115E+03 -0.13891184761E+03  0.74754891049E+03  0.78863281919E+03  0.10100000352E+00 0. -1.
       -3    1    3    3    0  502  0.20932233115E+03  0.13891184761E+03  0.15547290352E+03  0.29543895081E+03  0.10100000352E+00 0.  1.
</event>
<event>
 5   0  0.1479385E-03  0.6002314E+03  0.7818609E-02  0.9904926E-01
       -1   -1    0    0    0  501  0.00000000000E+00  0.00000000000E+00  0.88245460184E+02  0.88245460328E+02  0.50400001928E-02 0.  1.
        1   -1    0    0  501    0  0.00000000000E+00  0.00000000000E+00 -0.10206693962E+04  0.10206693962E+04  0.50400001928E-02 0. -1.
    10030    2    1    2    0    0  0.00000000000E+00  0.00000000000E+00 -0.93242393602E+03  0.11089148565E+04  0.60023142420E+03 0.  0.
        3    1    3    3  502    0 -0.92942760836E+02 -0.26580768817E+03 -0.65800613627E+03  0.71572632301E+03  0.10100000352E+00 0. -1.
       -3    1    3    3    0  502  0.92942760836E+02  0.26580768817E+03 -0.27441779975E+03  0.39318853353E+03  0.10100000352E+00 0.  1.
</event>
<event>
 5   0  0.1418763E-03  0.6002517E+03  0.7818609E-02  0.9904884E-01
        1   -1    0    0  501    0  0.00000000000E+00  0.00000000000E+00  0.64359887267E+03  0.64359887269E+03  0.50400001928E-02 0. -1.
       -1   -1    0    0    0  501  0.00000000000E+00  0.00000000000E+00 -0.13995598626E+03  0.13995598635E+03  0.50400001928E-02 0.  1.
    10030    2    1    2    0    0  0.00000000000E+00  0.00000000000E+00  0.50364288641E+03  0.78355485904E+03  0.60025166396E+03 0.  0.
        5    1    3    3  502    0  0.20583441617E+02 -0.29904840567E+03  0.27027294105E+03  0.40363743590E+03  0.46999998093E+01 0.  1.
       -5    1    3    3    0  502 -0.20583441617E+02  0.29904840567E+03  0.23336994537E+03  0.37991742314E+03  0.46999998093E+01 0. -1.
</event>
<event>
 5   0  0.2313168E-03  0.5999516E+03  0.7818609E-02  0.9905506E-01
        2   -1    0    0  501    0  0.00000000000E+00  0.00000000000E+00  0.35889850409E+03  0.35889850410E+03  0.25500000920E-02 0. -1.
       -2   -1    0    0    0  501  0.00000000000E+00  0.00000000000E+00 -0.25072683711E+03  0.25072683712E+03  0.25500000920E-02 0.  1.
    10030    2    1    2    0    0  0.00000000000E+00  0.00000000000E+00  0.10817166698E+03  0.60962534122E+03  0.59995162065E+03 0.  0.
        2    1    3    3  502    0 -0.25776992210E+03 -0.81825696893E+02  0.18596571306E+03  0.32821338159E+03  0.25500000920E-02 0. -1.
       -2    1    3    3    0  502  0.25776992210E+03  0.81825696893E+02 -0.77794046075E+02  0.28141195963E+03  0.25500000920E-02 0.  1.
</event>
<event>
 5   0  0.2346281E-03  0.6027813E+03  0.7818609E-02  0.9899652E-01
        2   -1    0    0  501    0  0.00000000000E+00  0.00000000000E+00  0.21707101580E+04  0.21707101580E+04  0.25500000920E-02 0. -1.
       -2   -1    0    0    0  501  0.00000000000E+00  0.00000000000E+00 -0.41846364751E+02  0.41846364829E+02  0.25500000920E-02 0.  1.
    10030    2    1    2    0    0  0.00000000000E+00  0.00000000000E+00  0.21288637932E+04  0.22125565228E+04  0.60278131731E+03 0.  0.
        3    1    3    3  502    0 -0.27383825402E+03  0.12438160362E+03  0.11358099147E+04  0.11749563163E+04  0.10100000352E+00 0. -1.
       -3    1    3    3    0  502  0.27383825402E+03 -0.12438160362E+03  0.99305387846E+03  0.10376002064E+04  0.10100000352E+00 0.  1.
</event>
<event>
 5   0  0.2346281E-03  0.6000053E+03  0.7818609E-02  0.9905395E-01
       -2   -1    0    0    0  501  0.00000000000E+00  0.00000000000E+00  0.13342396100E+03  0.13342396103E+03  0.25500000920E-02 0. -1.
        2   -1    0    0  501    0  0.00000000000E+00  0.00000000000E+00 -0.67455340792E+03  0.67455340792E+03  0.25500000920E-02 0.  1.
    10030    2    1    2    0    0  0.00000000000E+00  0.00000000000E+00 -0.54112944691E+03  0.80797736895E+03  0.60000529199E+03 0.  0.
        3    1    3    3  502    0 -0.29960816455E+02  0.35432873659E+02 -0.66969175171E+03  0.67129739428E+03  0.10100000352E+00 0.  1.
       -3    1    3    3    0  502  0.29960816455E+02 -0.35432873659E+02  0.12856230480E+03  0.13667997466E+03  0.10100000352E+00 0. -1.
</event>
<event>
 5   0  0.1416315E-03  0.6000676E+03  0.7818609E-02  0.9905266E-01
       -1   -1    0    0    0  501  0.00000000000E+00  0.00000000000E+00  0.28462781877E+03  0.28462781881E+03  0.50400001928E-02 0. -1.
        1   -1    0    0  501    0  0.00000000000E+00  0.00000000000E+00 -0.31627360686E+03  0.31627360690E+03  0.50400001928E-02 0.  1.
    10030    2    1    2    0    0  0.00000000000E+00  0.00000000000E+00 -0.31645788096E+02  0.60090142572E+03  0.60006755247E+03 0.  0.
        2    1    3    3  502    0 -0.25609472138E+03 -0.10490153980E+03  0.10023219172E+03  0.29433880416E+03  0.25500000920E-02 0. -1.
       -2    1    3    3    0  502  0.25609472138E+03  0.10490153980E+03 -0.13187797982E+03  0.30656262156E+03  0.25500000920E-02 0.  1.
</event>
<event>
 5   0  0.2324616E-03  0.5999110E+03  0.7818609E-02  0.9905591E-01
        2   -1    0    0  501    0  0.00000000000E+00  0.00000000000E+00  0.79080212850E+03  0.79080212851E+03  0.25500000920E-02 0. -1.
       -2   -1    0    0    0  501  0.00000000000E+00  0.00000000000E+00 -0.11377473712E+03  0.11377473715E+03  0.25500000920E-02 0.  1.
    10030    2    1    2    0    0  0.00000000000E+00  0.00000000000E+00  0.67702739138E+03  0.90457686565E+03  0.59991100773E+03 0.  0.
        4    1    3    3  502    0  0.12640550950E+03 -0.26240588676E+03  0.23044700965E+03  0.37140629962E+03  0.12699999809E+01 0. -1.
       -4    1    3    3    0  502 -0.12640550950E+03  0.26240588676E+03  0.44658038173E+03  0.53317056604E+03  0.12699999809E+01 0.  1.
</event>
<event>
 5   0  0.2346281E-03  0.5999271E+03  0.7818609E-02  0.9905557E-01
       -2   -1    0    0    0  501  0.00000000000E+00  0.00000000000E+00  0.59510916777E+02  0.59510916832E+02  0.25500000920E-02 0.  1.
        2   -1    0    0  501    0  0.00000000000E+00  0.00000000000E+00 -0.15119601442E+04  0.15119601442E+04  0.25500000920E-02 0. -1.
    10030    2    1    2    0    0  0.00000000000E+00  0.00000000000E+00 -0.14524492275E+04  0.15714710611E+04  0.59992711010E+03 0.  0.
        3    1    3    3  502    0 -0.26781513183E+03 -0.13024947878E+03 -0.63220717547E+03  0.69883889022E+03  0.10100000352E+00 0.  1.
       -3    1    3    3    0  502  0.26781513183E+03  0.13024947878E+03 -0.82024205199E+03  0.87263217085E+03  0.10100000352E+00 0. -1.
</event>
<event>
 5   0  0.2346281E-03  0.5997930E+03  0.7818609E-02  0.9905836E-01
       -2   -1    0    0    0  501  0.00000000000E+00  0.00000000000E+00  0.47588447411E+02  0.47588447479E+02  0.25500000920E-02 0. -1.
        2   -1    0    0  501    0  0.00000000000E+00  0.00000000000E+00 -0.18899108726E+04  0.18899108726E+04  0.25500000920E-02 0.  1.
    10030    2    1    2    0    0  0.00000000000E+00  0.00000000000E+00 -0.18423224252E+04  0.19374993201E+04  0.59979304511E+03 0.  0.
        3    1    3    3  502    0  0.28725879145E+03  0.33870017331E+01 -0.11992061031E+04  0.12331359912E+04  0.10100000352E+00 0.  1.
       -3    1    3    3    0  502 -0.28725879145E+03 -0.33870017331E+01 -0.64311632212E+03  0.70436332884E+03  0.10100000352E+00 0. -1.
</event>
<event>
 5   0  0.9496750E-04  0.6001370E+03  0.7818609E-02  0.9905122E-01
        3   -1    0    0  501    0  0.00000000000E+00  0.00000000000E+00  0.58672813748E+02  0.58672900680E+02  0.10100000352E+00 0.  1.
       -3   -1    0    0    0  501  0.00000000000E+00  0.00000000000E+00 -0.15346296660E+04  0.15346296693E+04  0.10100000352E+00 0. -1.
    10030    2    1    2    0    0  0.00000000000E+00  0.00000000000E+00 -0.14759568523E+04  0.15933025700E+04  0.60013702592E+03 0.  0.
        4    1    3    3  502    0 -0.28855504590E+03 -0.34621495642E+02 -0.93624149037E+03  0.98031240106E+03  0.12699999809E+01 0. -1.
       -4    1    3    3    0  502  0.28855504590E+03  0.34621495642E+02 -0.53971536190E+03  0.61299016896E+03  0.12699999809E+01 0.  1.
</event>
<event>
 5   0  0.2346281E-03  0.6003716E+03  0.7818609E-02  0.9904635E-01
       -2   -1    0    0    0  501  0.00000000000E+00  0.00000000000E+00  0.42088781951E+03  0.42088781952E+03  0.25500000920E-02 0. -1.
        2   -1    0    0  501    0  0.00000000000E+00  0.00000000000E+00 -0.21409868475E+03  0.21409868477E+03  0.25500000920E-02 0.  1.
    10030    2    1    2    0    0  0.00000000000E+00  0.00000000000E+00  0.20678913476E+03  0.63498650429E+03  0.60037164687E+03 0.  0.
        3    1    3    3  502    0 -0.18604250286E+03  0.15177303118E+03  0.29396244644E+03  0.37955341651E+03  0.10100000352E+00 0. -1.
       -3    1    3    3    0  502  0.18604250286E+03 -0.15177303118E+03 -0.87173311684E+02  0.25543308778E+03  0.10100000352E+00 0.  1.
</event>
<event>
 5   0  0.2406307E-03  0.6000187E+03  0.7818609E-02  0.9905367E-01
       -2   -1    0    0    0  501  0.00000000000E+00  0.00000000000E+00  0.77125347398E+02  0.77125347440E+02  0.25500000920E-02 0.  1.
        2   -1    0    0  501    0  0.00000000000E+00  0.00000000000E+00 -0.11670041881E+04  0.11670041881E+04  0.25500000920E-02 0. -1.
    10030    2    1    2    0    0  0.00000000000E+00  0.00000000000E+00 -0.10898788407E+04  0.12441295356E+04  0.60001867789E+03 0.  0.
        5    1    3    3  502    0 -0.13715547439E+03  0.87619057493E+02 -0.22459172890E+02  0.16436309755E+03  0.46999998093E+01 0.  1.
       -5    1    3    3    0  502  0.13715547439E+03 -0.87619057493E+02 -0.10674196679E+04  0.10797664380E+04  0.46999998093E+01 0. -1.
</event>
<event>
 5   0  0.1479385E-03  0.5999424E+03  0.7818609E-02  0.9905525E-01
        1   -1    0    0  501    0  0.00000000000E+00  0.00000000000E+00  0.96703900088E+03  0.96703900090E+03  0.50400001928E-02 0.  1.
       -1   -1    0    0    0  501  0.00000000000E+00  0.00000000000E+00 -0.93049747235E+02  0.93049747372E+02  0.50400001928E-02 0. -1.
    10030    2    1    2    0    0  0.00000000000E+00  0.00000000000E+00  0.87398925365E+03  0.10600887483E+04  0.59994244617E+03 0.  0.
        3    1    3    3  502    0 -0.24173319797E+03  0.94770970356E+02  0.17155710132E+03  0.31120463531E+03  0.10100000352E+00 0.  1.
       -3    1    3    3    0  502  0.24173319797E+03 -0.94770970356E+02  0.70243215233E+03  0.74888411296E+03  0.10100000352E+00 0. -1.
</event>
<event>
 5   0  0.9496750E-04  0.5999645E+03  0.7818609E-02  0.9905480E-01
        3   -1    0    0  501    0  0.00000000000E+00  0.00000000000E+00  0.58695998313E+03  0.58695999182E+03  0.10100000352E+00 0.  1.
       -3   -1    0    0    0  501  0.00000000000E+00  0.00000000000E+00 -0.15331426947E+03  0.15331430274E+03  0.10100000352E+00 0. -1.
    10030    2    1    2    0    0  0.00000000000E+00  0.00000000000E+00  0.43364571367E+03  0.74027429456E+03  0.59996452079E+03 0.  0.
        2    1    3    3  502    0  0.28444868125E+03  0.91369367933E+02  0.18348700631E+03  0.35060931983E+03  0.25500000920E-02 0.  1.
       -2    1    3    3    0  502 -0.28444868125E+03 -0.91369367933E+02  0.25015870736E+03  0.38966497473E+03  0.25500000920E-02 0. -1.
</event>
<event>
 5   0  0.1416315E-03  0.5990377E+03  0.7818609E-02  0.9907404E-01
        1   -1    0    0  501    0  0.00000000000E+00  0.00000000000E+00  0.26247764150E+03  0.26247764155E+03  0.50400001928E-02 0. -1.
       -1   -1    0    0    0  501  0.00000000000E+00  0.00000000000E+00 -0.34178739072E+03  0.34178739075E+03  0.50400001928E-02 0.  1.
    10030    2    1    2    0    0  0.00000000000E+00  0.00000000000E+00 -0.79309749211E+02  0.60426503231E+03  0.59903772247E+03 0.  0.
        2    1    3    3  502    0 -0.14019843576E+03 -0.22993386875E+03  0.92585868147E+02  0.28477592661E+03  0.25500000920E-02 0. -1.
       -2    1    3    3    0  502  0.14019843576E+03  0.22993386875E+03 -0.17189561736E+03  0.31948910570E+03  0.25500000920E-02 0.  1.
</event>
<event>
 5   0  0.1392854E-03  0.6001312E+03  0.7818609E-02  0.9905134E-01
       -1   -1    0    0    0  501  0.00000000000E+00  0.00000000000E+00  0.15336968401E+03  0.15336968410E+03  0.50400001928E-02 0.  1.
        1   -1    0    0  501    0  0.00000000000E+00  0.00000000000E+00 -0.58707411117E+03  0.58707411119E+03  0.50400001928E-02 0. -1.
    10030    2    1    2    0    0  0.00000000000E+00  0.00000000000E+00 -0.43370442716E+03  0.74044379529E+03  0.60013122219E+03 0.  0.
        4    1    3    3  502    0 -0.25791822232E+02 -0.12301696167E+03  0.11932092347E+03  0.17331326155E+03  0.12699999809E+01 0.  1.
       -4    1    3    3    0  502  0.25791822232E+02  0.12301696167E+03 -0.55302535063E+03  0.56713053373E+03  0.12699999809E+01 0. -1.
</event>
<event>
 5   0  0.2346281E-03  0.5998803E+03  0.7818609E-02  0.9905654E-01
        2   -1    0    0  501    0  0.00000000000E+00  0.00000000000E+00  0.10363129737E+04  0.10363129737E+04  0.25500000920E-02 0.  1.
       -2   -1    0    0    0  501  0.00000000000E+00  0.00000000000E+00 -0.86811693259E+02  0.86811693297E+02  0.25500000920E-02 0. -1.
    10030    2    1    2    0    0  0.00000000000E+00  0.00000000000E+00  0.94950128044E+03  0.11231246670E+04  0.59988026811E+03 0.  0.
        3    1    3    3  502    0  0.29948197949E+03  0.67136521759E+01  0.50311656680E+03  0.58554318300E+03  0.10100000352E+00 0.  1.
       -3    1    3    3    0  502 -0.29948197949E+03 -0.67136521759E+01  0.44638471364E+03  0.53758148400E+03  0.10100000352E+00 0. -1.
</event>
<event>
 5   0  0.2346281E-03  0.5998693E+03  0.7818609E-02  0.9905677E-01
        2   -1    0    0  501    0  0.00000000000E+00  0.00000000000E+00  0.79954597726E+03  0.79954597727E+03  0.25500000920E-02 0. -1.
       -2   -1    0    0    0  501  0.00000000000E+00  0.00000000000E+00 -0.11251484499E+03  0.11251484502E+03  0.25500000920E-02 0.  1.
    10030    2    1    2    0    0  0.00000000000E+00  0.00000000000E+00  0.68703113227E+03  0.91206082229E+03  0.59986929146E+03 0.  0.
        3    1    3    3  502    0  0.16954371465E+03 -0.45677712283E+02 -0.26200549481E+02  0.17753310556E+03  0.10100000352E+00 0.  1.
       -3    1    3    3    0  502 -0.16954371465E+03  0.45677712283E+02  0.71323168175E+03  0.73452771672E+03  0.10100000352E+00 0. -1.
</event>
<event>
 5   0  0.2421210E-03  0.6010677E+03  0.7818609E-02  0.9903193E-01
        2   -1    0    0  501    0  0.00000000000E+00  0.00000000000E+00  0.97391461877E+03  0.97391461877E+03  0.25500000920E-02 0. -1.
       -2   -1    0    0    0  501  0.00000000000E+00  0.00000000000E+00 -0.92739749221E+02  0.92739749256E+02  0.25500000920E-02 0.  1.
    10030    2    1    2    0    0  0.00000000000E+00  0.00000000000E+00  0.88117486955E+03  0.10666543680E+04  0.60106770843E+03 0.  0.
        1    1    3    3  502    0  0.47788543107E+02  0.13032835042E+03  0.91361511923E+03  0.92410054100E+03  0.50400001928E-02 0. -1.
       -1    1    3    3    0  502 -0.47788543107E+02 -0.13032835042E+03 -0.32440249676E+02  0.14255382703E+03  0.50400001928E-02 0.  1.
</event>
<event>
 5   0  0.1423430E-03  0.6000147E+03  0.7818609E-02  0.9905375E-01
        1   -1    0    0  501    0  0.00000000000E+00  0.00000000000E+00  0.13399545999E+04  0.13399545999E+04  0.50400001928E-02 0.  1.
       -1   -1    0    0    0  501  0.00000000000E+00  0.00000000000E+00 -0.67169753838E+02  0.67169754027E+02  0.50400001928E-02 0. -1.
    10030    2    1    2    0    0  0.00000000000E+00  0.00000000000E+00  0.12727848460E+04  0.14071243539E+04  0.60001473571E+03 0.  0.
        1    1    3    3  502    0  0.15324202926E+03 -0.66303887678E+02  0.51866066139E+02  0.17484111042E+03  0.50400001928E-02 0. -1.
       -1    1    3    3    0  502 -0.15324202926E+03  0.66303887678E+02  0.12209187799E+04  0.12322832435E+04  0.50400001928E-02 0.  1.
</event>
<event>
 5   0  0.2313168E-03  0.6008065E+03  0.7818609E-02  0.9903734E-01
        2   -1    0    0  501    0  0.00000000000E+00  0.00000000000E+00  0.89582622364E+03  0.89582622365E+03  0.25500000920E-02 0.  1.
       -2   -1    0    0    0  501  0.00000000000E+00  0.00000000000E+00 -0.10073618786E+03  0.10073618789E+03  0.25500000920E-02 0. -1.
    10030    2    1    2    0    0  0.00000000000E+00  0.00000000000E+00  0.79509003579E+03  0.99656241154E+03  0.60080652050E+03 0.  0.
        2    1    3    3  502    0 -0.20653812009E+03  0.15803394511E+03  0.64695529469E+03  0.69726886937E+03  0.25500000920E-02 0.  1.
       -2    1    3    3    0  502  0.20653812009E+03 -0.15803394511E+03  0.14813474109E+03  0.29929354216E+03  0.25500000920E-02 0. -1.
</event>
<event>
 5   0  0.2346281E-03  0.6000286E+03  0.7818609E-02  0.9905347E-01
       -2   -1    0    0    0  501  0.00000000000E+00  0.00000000000E+00  0.79034090223E+02  0.79034090264E+02  0.25500000920E-02 0. -1.
        2   -1    0    0  501    0  0.00000000000E+00  0.00000000000E+00 -0.11388577045E+04  0.11388577045E+04  0.25500000920E-02 0.  1.
    10030    2    1    2    0    0  0.00000000000E+00  0.00000000000E+00 -0.10598236143E+04  0.12178917948E+04  0.60002860797E+03 0.  0.
        3    1    3    3  502    0 -0.89201182093E+02 -0.15439962114E+03 -0.40195244174E+02  0.18278884471E+03  0.10100000352E+00 0. -1.
       -3    1    3    3    0  502  0.89201182093E+02  0.15439962114E+03 -0.10196283701E+04  0.10351029500E+04  0.10100000352E+00 0.  1.
</event>
<event>
 5   0  0.1423430E-03  0.6002665E+03  0.7818609E-02  0.9904853E-01
        1   -1    0    0  501    0  0.00000000000E+00  0.00000000000E+00  0.82499235484E+03  0.82499235485E+03  0.50400001928E-02 0. -1.
       -1   -1    0    0    0  501  0.00000000000E+00  0.00000000000E+00 -0.10918885102E+03  0.10918885114E+03  0.50400001928E-02 0.  1.
    10030    2    1    2    0    0  0.00000000000E+00  0.00000000000E+00  0.71580350382E+03  0.93418120599E+03  0.60026649877E+03 0.  0.
        1    1    3    3  502    0  0.24614871105E+03 -0.12138452677E+03  0.16885038555E+03  0.32223259304E+03  0.50400001928E-02 0.  1.
       -1    1    3    3    0  502 -0.24614871105E+03  0.12138452677E+03  0.54695311826E+03  0.61194861295E+03  0.50400001928E-02 0. -1.
</event>
<event>
 5   0  0.2324616E-03  0.6001110E+03  0.7818609E-02  0.9905176E-01
       -2   -1    0    0    0  501  0.00000000000E+00  0.00000000000E+00  0.10614387900E+03  0.10614387903E+03  0.25500000920E-02 0.  1.
        2   -1    0    0  501    0  0.00000000000E+00  0.00000000000E+00 -0.84821934755E+03  0.84821934755E+03  0.25500000920E-02 0. -1.
    10030    2    1    2    0    0  0.00000000000E+00  0.00000000000E+00 -0.74207546855E+03  0.95436322658E+03  0.60011096242E+03 0.  0.
        4    1    3    3  502    0  0.17069530798E+03  0.16316012806E+03 -0.66545397718E+03  0.70610815333E+03  0.12699999809E+01 0. -1.
       -4    1    3    3    0  502 -0.17069530798E+03 -0.16316012806E+03 -0.76621491369E+02  0.24825507325E+03  0.12699999809E+01 0.  1.
</event>
<event>
 5   0  0.1418763E-03  0.6001957E+03  0.7818609E-02  0.9905000E-01
        1   -1    0    0  501    0  0.00000000000E+00  0.00000000000E+00  0.14860571838E+04  0.14860571838E+04  0.50400001928E-02 0.  1.
       -1   -1    0    0    0  501  0.00000000000E+00  0.00000000000E+00 -0.60602451098E+02  0.60602451307E+02  0.50400001928E-02 0. -1.
    10030    2    1    2    0    0  0.00000000000E+00  0.00000000000E+00  0.14254547327E+04  0.15466596351E+04  0.60019566135E+03 0.  0.
        5    1    3    3  502    0  0.20542426011E+03 -0.20676663293E+01  0.14913293852E+03  0.25390180234E+03  0.46999998093E+01 0.  1.
       -5    1    3    3    0  502 -0.20542426011E+03  0.20676663293E+01  0.12763217941E+04  0.12927578327E+04  0.46999998093E+01 0. -1.
</event>
<event>
 5   0  0.2406307E-03  0.5999996E+03  0.7818609E-02  0.9905407E-01
       -2   -1    0    0    0  501  0.00000000000E+00  0.00000000000E+00  0.88729424115E+02  0.88729424151E+02  0.25500000920E-02 0. -1.
        2   -1    0    0  501    0  0.00000000000E+00  0.00000000000E+00 -0.10143184590E+04  0.10143184590E+04  0.25500000920E-02 0.  1.
    10030    2    1    2    0    0  0.00000000000E+00  0.00000000000E+00 -0.92558903489E+03  0.11030478832E+04  0.59999964253E+03 0.  0.
        5    1    3    3  502    0  0.21220697780E+03 -0.21114418919E+03 -0.49787561879E+03  0.58096117929E+03  0.46999998093E+01 0.  1.
       -5    1    3    3    0  502 -0.21220697780E+03  0.21114418919E+03 -0.42771341610E+03  0.52208670388E+03  0.46999998093E+01 0. -1.
</event>
<event>
 5   0  0.2324616E-03  0.6000140E+03  0.7818609E-02  0.9905377E-01
       -2   -1    0    0    0  501  0.00000000000E+00  0.00000000000E+00  0.80943971887E+02  0.80943971927E+02  0.25500000920E-02 0.  1.
        2   -1    0    0  501    0  0.00000000000E+00  0.00000000000E+00 -0.11119319331E+04  0.11119319331E+04  0.25500000920E-02 0. -1.
    10030    2    1    2    0    0  0.00000000000E+00  0.00000000000E+00 -0.10309879612E+04  0.11928759050E+04  0.60001395702E+03 0.  0.
        4    1    3    3  502    0 -0.58852657688E+02 -0.28937847041E+03 -0.62067526033E+03  0.68734483786E+03  0.12699999809E+01 0. -1.
       -4    1    3    3    0  502  0.58852657688E+02  0.28937847041E+03 -0.41031270084E+03  0.50553106712E+03  0.12699999809E+01 0.  1.
</event>
<event>
 5   0  0.2346281E-03  0.6008198E+03  0.7818609E-02  0.9903707E-01
       -2   -1    0    0    0  501  0.00000000000E+00  0.00000000000E+00  0.57530718786E+03  0.57530718787E+03  0.25500000920E-02 0.  1.
        2   -1    0    0  501    0  0.00000000000E+00  0.00000000000E+00 -0.15686593774E+03  0.15686593777E+03  0.25500000920E-02 0. -1.
    10030    2    1    2    0    0  0.00000000000E+00  0.00000000000E+00  0.41844125012E+03  0.73217312563E+03  0.60081977839E+03 0.  0.
        3    1    3    3  502    0  0.19233109074E+03  0.22574278135E+03  0.15084055012E+03  0.33272200643E+03  0.10100000352E+00 0. -1.
       -3    1    3    3    0  502 -0.19233109074E+03 -0.22574278135E+03  0.26760069999E+03  0.39945111921E+03  0.10100000352E+00 0.  1.
</event>
<event>
 5   0  0.2346281E-03  0.5999474E+03  0.7818609E-02  0.9905515E-01
        2   -1    0    0  501    0  0.00000000000E+00  0.00000000000E+00  0.12132643894E+04  0.12132643894E+04  0.25500000920E-02 0. -1.
       -2   -1    0    0    0  501  0.00000000000E+00  0.00000000000E+00 -0.74167044496E+02  0.74167044540E+02  0.25500000920E-02 0.  1.
    10030    2    1    2    0    0  0.00000000000E+00  0.00000000000E+00  0.11390973449E+04  0.12874314340E+04  0.59994744432E+03 0.  0.
        3    1    3    3  502    0 -0.21012581025E+03 -0.19409152860E+03  0.76339246001E+03  0.81522538957E+03  0.10100000352E+00 0. -1.
       -3    1    3    3    0  502  0.21012581025E+03  0.19409152860E+03  0.37570488491E+03  0.47220604438E+03  0.10100000352E+00 0.  1.
</event>
<event>
 5   0  0.9496750E-04  0.5998122E+03  0.7818609E-02  0.9905796E-01
       -3   -1    0    0    0  501  0.00000000000E+00  0.00000000000E+00  0.66058114317E+02  0.66058191529E+02  0.10100000352E+00 0.  1.
        3   -1    0    0  501    0  0.00000000000E+00  0.00000000000E+00 -0.13615832250E+04  0.13615832288E+04  0.10100000352E+00 0. -1.
    10030    2    1    2    0    0  0.00000000000E+00  0.00000000000E+00 -0.12955251107E+04  0.14276414203E+04  0.59981223102E+03 0.  0.
        5    1    3    3  502    0  0.11246767332E+03  0.14885001014E+02  0.12920388825E+02  0.11427846360E+03  0.46999998093E+01 0.  1.
       -5    1    3    3    0  502 -0.11246767332E+03 -0.14885001014E+02 -0.13084454995E+04  0.13133629567E+04  0.46999998093E+01 0. -1.
</event>
<event>
 5   0  0.2324616E-03  0.6000254E+03  0.7818609E-02  0.9905353E-01
        2   -1    0    0  501    0  0.00000000000E+00  0.00000000000E+00  0.11824071291E+03  0.11824071294E+03  0.25500000920E-02 0.  1.
       -2   -1    0    0    0  501  0.00000000000E+00  0.00000000000E+00 -0.76122366629E+03  0.76122366630E+03  0.25500000920E-02 0. -1.
    10030    2    1    2    0    0  0.00000000000E+00  0.00000000000E+00 -0.64298295338E+03  0.87946437924E+03  0.60002542947E+03 0.  0.
        4    1    3    3  502    0  0.16555107568E+03  0.14547031005E+03 -0.61985384180E+03  0.65786713541E+03  0.12699999809E+01 0. -1.
       -4    1    3    3    0  502 -0.16555107568E+03 -0.14547031005E+03 -0.23129111585E+02  0.22159724382E+03  0.12699999809E+01 0.  1.
</event>
<event>
 5   0  0.2346281E-03  0.5999483E+03  0.7818609E-02  0.9905513E-01
       -2   -1    0    0    0  501  0.00000000000E+00  0.00000000000E+00  0.71394539541E+03  0.71394539542E+03  0.25500000920E-02 0.  1.
        2   -1    0    0  501    0  0.00000000000E+00  0.00000000000E+00 -0.12603834481E+03  0.12603834484E+03  0.25500000920E-02 0. -1.
    10030    2    1    2    0    0  0.00000000000E+00  0.00000000000E+00  0.58790705060E+03  0.83998374025E+03  0.59994831756E+03 0.  0.
        3    1    3    3  502    0  0.95798561018E+02 -0.24283775087E+03  0.87057088373E+02  0.27518445519E+03  0.10100000352E+00 0. -1.
       -3    1    3    3    0  502 -0.95798561018E+02  0.24283775087E+03  0.50084996223E+03  0.56479928506E+03  0.10100000352E+00 0.  1.
</event>
<event>
 5   0  0.9496750E-04  0.6005786E+03  0.7818609E-02  0.9904206E-01
       -3   -1    0    0    0  501  0.00000000000E+00  0.00000000000E+00  0.16549438019E+03  0.16549441101E+03  0.10100000352E+00 0. -1.
        3   -1    0    0  501    0  0.00000000000E+00  0.00000000000E+00 -0.54487448010E+03  0.54487448946E+03  0.10100000352E+00 0.  1.
    10030    2    1    2    0    0  0.00000000000E+00  0.00000000000E+00 -0.37938009991E+03  0.71036890046E+03  0.60057864975E+03 0.  0.
        2    1    3    3  502    0  0.16344041101E+03  0.11408329970E+03  0.75970481575E+02  0.21330560541E+03  0.25500000920E-02 0. -1.
       -2    1    3    3    0  502 -0.16344041101E+03 -0.11408329970E+03 -0.45535058148E+03  0.49706329505E+03  0.25500000920E-02 0.  1.
</event>
<event>
 5   0  0.1479385E-03  0.5998192E+03  0.7818609E-02  0.9905781E-01
       -1   -1    0    0    0  501  0.00000000000E+00  0.00000000000E+00  0.37803938342E+03  0.37803938345E+03  0.50400001928E-02 0. -1.
        1   -1    0    0  501    0  0.00000000000E+00  0.00000000000E+00 -0.23792697869E+03  0.23792697875E+03  0.50400001928E-02 0.  1.
    10030    2    1    2    0    0  0.00000000000E+00  0.00000000000E+00  0.14011240472E+03  0.61596636220E+03  0.59981920059E+03 0.  0.
        3    1    3    3  502    0 -0.17959245622E+03 -0.23154317677E+03  0.13565111818E+03  0.32290390073E+03  0.10100000352E+00 0. -1.
       -3    1    3    3    0  502  0.17959245622E+03  0.23154317677E+03  0.44612865419E+01  0.29306246147E+03  0.10100000352E+00 0.  1.
</event>
<event>
 5   0  0.2421210E-03  0.6001874E+03  0.7818609E-02  0.9905017E-01
        2   -1    0    0  501    0  0.00000000000E+00  0.00000000000E+00  0.37480282239E+03  0.37480282239E+03  0.25500000920E-02 0.  1.
       -2   -1    0    0    0  501  0.00000000000E+00  0.00000000000E+00 -0.24027629921E+03  0.24027629923E+03  0.25500000920E-02 0. -1.
    10030    2    1    2    0    0  0.00000000000E+00  0.00000000000E+00  0.13452652317E+03  0.61507912162E+03  0.60018742107E+03 0.  0.
        1    1    3    3  502    0 -0.12658012804E+03  0.56252904104E+02 -0.20555486363E+03  0.24787036939E+03  0.50400001928E-02 0. -1.
       -1    1    3    3    0  502  0.12658012804E+03 -0.56252904104E+02  0.34008138681E+03  0.36720875223E+03  0.50400001928E-02 0.  1.
</event>
<event>
 5   0  0.1423430E-03  0.5996463E+03  0.7818609E-02  0.9906140E-01
       -1   -1    0    0    0  501  0.00000000000E+00  0.00000000000E+00  0.20425402761E+03  0.20425402768E+03  0.50400001928E-02 0. -1.
        1   -1    0    0  501    0  0.00000000000E+00  0.00000000000E+00 -0.44010846150E+03  0.44010846153E+03  0.50400001928E-02 0.  1.
    10030    2    1    2    0    0  0.00000000000E+00  0.00000000000E+00 -0.23585443388E+03  0.64436248920E+03  0.59964631535E+03 0.  0.
        1    1    3    3  502    0  0.11981454552E+03  0.25384949845E+03 -0.23113433459E+03  0.36361817039E+03  0.50400001928E-02 0.  1.
       -1    1    3    3    0  502 -0.11981454552E+03 -0.25384949845E+03 -0.47200992922E+01  0.28074431881E+03  0.50400001928E-02 0. -1.
</event>
<event>
 5   0  0.2324616E-03  0.5998570E+03  0.7818609E-02  0.9905703E-01
        2   -1    0    0  501    0  0.00000000000E+00  0.00000000000E+00  0.10746031136E+04  0.10746031136E+04  0.25500000920E-02 0. -1.
       -2   -1    0    0    0  501  0.00000000000E+00  0.00000000000E+00 -0.83711926904E+02  0.83711926943E+02  0.25500000920E-02 0.  1.
    10030    2    1    2    0    0  0.00000000000E+00  0.00000000000E+00  0.99089118672E+03  0.11583150406E+04  0.59985697403E+03 0.  0.
        4    1    3    3  502    0  0.78867073329E+02  0.21958018720E+03  0.85937363994E+03  0.89048309349E+03  0.12699999809E+01 0. -1.
       -4    1    3    3    0  502 -0.78867073329E+02 -0.21958018720E+03  0.13151754678E+03  0.26783194708E+03  0.12699999809E+01 0.  1.
</event>
<event>
 5   0  0.2324616E-03  0.5998280E+03  0.7818609E-02  0.9905763E-01
       -2   -1    0    0    0  501  0.00000000000E+00  0.00000000000E+00  0.14601806793E+03  0.14601806795E+03  0.25500000920E-02 0. -1.
        2   -1    0    0  501    0  0.00000000000E+00  0.00000000000E+00 -0.61600883109E+03  0.61600883109E+03  0.25500000920E-02 0.  1.
    10030    2    1    2    0    0  0.00000000000E+00  0.00000000000E+00 -0.46999076316E+03  0.76202689905E+03  0.59982803987E+03 0.  0.
        4    1    3    3  502    0  0.11682395468E+03 -0.13451102633E+03  0.71501808620E+02  0.19197701458E+03  0.12699999809E+01 0. -1.
       -4    1    3    3    0  502 -0.11682395468E+03  0.13451102633E+03 -0.54149257178E+03  0.57004988447E+03  0.12699999809E+01 0.  1.
</event>
<event>
 5   0  0.1418763E-03  0.5987204E+03  0.7818609E-02  0.9908064E-01
        1   -1    0    0  501    0  0.00000000000E+00  0.00000000000E+00  0.12523826138E+04  0.12523826138E+04  0.50400001928E-02 0.  1.
       -1   -1    0    0    0  501  0.00000000000E+00  0.00000000000E+00 -0.71556833160E+02  0.71556833337E+02  0.50400001928E-02 0. -1.
    10030    2    1    2    0    0  0.00000000000E+00  0.00000000000E+00  0.11808257807E+04  0.13239394472E+04  0.59872041514E+03 0.  0.
        5    1    3    3  502    0 -0.26833271597E+03  0.11230872997E+03  0.43438434254E+03  0.52280736828E+03  0.46999998093E+01 0. -1.
       -5    1    3    3    0  502  0.26833271597E+03 -0.11230872997E+03  0.74644143813E+03  0.80113207890E+03  0.46999998093E+01 0.  1.
</event>
<event>
 5   0  0.2324616E-03  0.5999595E+03  0.7818609E-02  0.9905490E-01
        2   -1    0    0  501    0  0.00000000000E+00  0.00000000000E+00  0.64969697583E+03  0.64969697584E+03  0.25500000920E-02 0.  1.
       -2   -1    0    0    0  501  0.00000000000E+00  0.00000000000E+00 -0.13850740166E+03  0.13850740169E+03  0.25500000920E-02 0. -1.
    10030    2    1    2    0    0  0.00000000000E+00  0.00000000000E+00  0.51118957417E+03  0.78820437752E+03  0.59995946531E+03 0.  0.
        4    1    3    3  502    0 -0.56953170504E+01  0.21043318041E+03 -0.25168530221E+02  0.21201327286E+03  0.12699999809E+01 0. -1.
       -4    1    3    3    0  502  0.56953170504E+01 -0.21043318041E+03  0.53635810439E+03  0.57619110467E+03  0.12699999809E+01 0.  1.
</event>
<event>
 5   0  0.2421210E-03  0.6043870E+03  0.7818609E-02  0.9896346E-01
       -2   -1    0    0    0  501  0.00000000000E+00  0.00000000000E+00  0.51794460385E+02  0.51794460447E+02  0.25500000920E-02 0.  1.
        2   -1    0    0  501    0  0.00000000000E+00  0.00000000000E+00 -0.17631404151E+04  0.17631404151E+04  0.25500000920E-02 0. -1.
    10030    2    1    2    0    0  0.00000000000E+00  0.00000000000E+00 -0.17113459547E+04  0.18149348755E+04  0.60438698344E+03 0.  0.
        1    1    3    3  502    0  0.21469039945E+03 -0.11049931082E+03 -0.14013389304E+04  0.14219890518E+04  0.50400001928E-02 0. -1.
       -1    1    3    3    0  502 -0.21469039945E+03  0.11049931082E+03 -0.31000702422E+03  0.39294582375E+03  0.50400001928E-02 0.  1.
</event>
<event>
 5   0  0.1392854E-03  0.5999614E+03  0.7818609E-02  0.9905486E-01
       -1   -1    0    0    0  501  0.00000000000E+00  0.00000000000E+00  0.66218743088E+02  0.66218743280E+02  0.50400001928E-02 0.  1.
        1   -1    0    0  501    0  0.00000000000E+00  0.00000000000E+00 -0.13589570727E+04  0.13589570727E+04  0.50400001928E-02 0. -1.
    10030    2    1    2    0    0  0.00000000000E+00  0.00000000000E+00 -0.12927383296E+04  0.14251758159E+04  0.59996143011E+03 0.  0.
        4    1    3    3  502    0 -0.26421948763E+03 -0.85797097693E+02 -0.91526434232E+03  0.95649543064E+03  0.12699999809E+01 0. -1.
       -4    1    3    3    0  502  0.26421948763E+03  0.85797097693E+02 -0.37747398724E+03  0.46868038530E+03  0.12699999809E+01 0.  1.
</event>
<event>
 5   0  0.1418763E-03  0.6000708E+03  0.7818609E-02  0.9905259E-01
        1   -1    0    0  501    0  0.00000000000E+00  0.00000000000E+00  0.27487467814E+03  0.27487467819E+03  0.50400001928E-02 0.  1.
       -1   -1    0    0    0  501  0.00000000000E+00  0.00000000000E+00 -0.32749925208E+03  0.32749925212E+03  0.50400001928E-02 0. -1.
    10030    2    1    2    0    0  0.00000000000E+00  0.00000000000E+00 -0.52624573939E+02  0.60237393031E+03  0.60007083426E+03 0.  0.
        5    1    3    3  502    0  0.23491800295E+03  0.17908067818E+03 -0.78885079495E+02  0.30577982794E+03  0.46999998093E+01 0. -1.
       -5    1    3    3    0  502 -0.23491800295E+03 -0.17908067818E+03  0.26260505555E+02  0.29659410237E+03  0.46999998093E+01 0.  1.
</event>
<event>
 5   0  0.1479385E-03  0.5999677E+03  0.7818609E-02  0.9905473E-01
        1   -1    0    0  501    0  0.00000000000E+00  0.00000000000E+00  0.71167010134E+03  0.71167010135E+03  0.50400001928E-02 0. -1.
       -1   -1    0    0    0  501  0.00000000000E+00  0.00000000000E+00 -0.12644947997E+03  0.12644948007E+03  0.50400001928E-02 0.  1.
    10030    2    1    2    0    0  0.00000000000E+00  0.00000000000E+00  0.58522062136E+03  0.83811958143E+03  0.59996771338E+03 0.  0.
        3    1    3    3  502    0  0.22922426863E+03  0.42504743159E+02  0.55633224827E+03  0.60320477384E+03  0.10100000352E+00 0. -1.
       -3    1    3    3    0  502 -0.22922426863E+03 -0.42504743159E+02  0.28888373091E+02  0.23491480758E+03  0.10100000352E+00 0.  1.
</event>
<event>
 5   0  0.2324616E-03  0.5999240E+03  0.7818609E-02  0.9905564E-01
       -2   -1    0    0    0  501  0.00000000000E+00  0.00000000000E+00  0.15100793963E+03  0.15100793965E+03  0.25500000920E-02 0.  1.
        2   -1    0    0  501    0  0.00000000000E+00  0.00000000000E+00 -0.59584419986E+03  0.59584419987E+03  0.25500000920E-02 0. -1.
    10030    2    1    2    0    0  0.00000000000E+00  0.00000000000E+00 -0.44483626023E+03  0.74685213952E+03  0.59992401176E+03 0.  0.
        4    1    3    3  502    0  0.99269089736E+02  0.20111472368E+03  0.25547774484E+02  0.22573388301E+03  0.12699999809E+01 0.  1.
       -4    1    3    3    0  502 -0.99269089736E+02 -0.20111472368E+03 -0.47038403472E+03  0.52111825651E+03  0.12699999809E+01 0. -1.
</event>
<event>
 5   0  0.2421210E-03  0.5998191E+03  0.7818609E-02  0.9905781E-01
       -2   -1    0    0    0  501  0.00000000000E+00  0.00000000000E+00  0.13195359418E+03  0.13195359421E+03  0.25500000920E-02 0. -1.
        2   -1    0    0  501    0  0.00000000000E+00  0.00000000000E+00 -0.68164684104E+03  0.68164684104E+03  0.25500000920E-02 0.  1.
    10030    2    1    2    0    0  0.00000000000E+00  0.00000000000E+00 -0.54969324685E+03  0.81360043525E+03  0.59981914158E+03 0.  0.
        1    1    3    3  502    0 -0.66436587152E+02  0.11828739016E+03  0.87951800367E+02  0.16168254698E+03  0.50400001928E-02 0. -1.
       -1    1    3    3    0  502  0.66436587152E+02 -0.11828739016E+03 -0.63764504722E+03  0.65191788827E+03  0.50400001928E-02 0.  1.
</event>
<event>
 5   0  0.2313168E-03  0.6000236E+03  0.7818609E-02  0.9905357E-01
        2   -1    0    0  501    0  0.00000000000E+00  0.00000000000E+00  0.14953690880E+04  0.14953690880E+04  0.25500000920E-02 0.  1.
       -2   -1    0    0    0  501  0.00000000000E+00  0.00000000000E+00 -0.60190536872E+02  0.60190536926E+02  0.25500000920E-02 0. -1.
    10030    2    1    2    0    0  0.00000000000E+00  0.00000000000E+00  0.14351785511E+04  0.15555596249E+04  0.60002356044E+03 0.  0.
        2    1    3    3  502    0  0.25548068438E+03 -0.14463783815E+03  0.87774990547E+03  0.92554599068E+03  0.25500000920E-02 0. -1.
       -2    1    3    3    0  502 -0.25548068438E+03  0.14463783815E+03  0.55742864563E+03  0.63001363421E+03  0.25500000920E-02 0.  1.
</event>
<event>
 5   0  0.2406307E-03  0.6000303E+03  0.7818609E-02  0.9905343E-01
        2   -1    0    0  501    0  0.00000000000E+00  0.00000000000E+00  0.34287833941E+03  0.34287833942E+03  0.25500000920E-02 0. -1.
       -2   -1    0    0    0  501  0.00000000000E+00  0.00000000000E+00 -0.26251030756E+03  0.26251030757E+03  0.25500000920E-02 0.  1.
    10030    2    1    2    0    0  0.00000000000E+00  0.00000000000E+00  0.80368031854E+02  0.60538864699E+03  0.60003032703E+03 0.  0.
        5    1    3    3  502    0  0.44590376953E+01  0.20909840232E+03 -0.17678283481E+03  0.27389101035E+03  0.46999998093E+01 0.  1.
       -5    1    3    3    0  502 -0.44590376953E+01 -0.20909840232E+03  0.25715086667E+03  0.33149763664E+03  0.46999998093E+01 0. -1.
</event>
<event>
 5   0  0.2313168E-03  0.5999684E+03  0.7818609E-02  0.9905472E-01
       -2   -1    0    0    0  501  0.00000000000E+00  0.00000000000E+00  0.92741016158E+02  0.92741016193E+02  0.25500000920E-02 0. -1.
        2   -1    0    0  501    0  0.00000000000E+00  0.00000000000E+00 -0.97034220168E+03  0.97034220169E+03  0.25500000920E-02 0.  1.
    10030    2    1    2    0    0  0.00000000000E+00  0.00000000000E+00 -0.87760118553E+03  0.10630832179E+04  0.59996840525E+03 0.  0.
        2    1    3    3  502    0 -0.16897774752E+03 -0.21551154858E+03 -0.22184742780E+03  0.35244146742E+03  0.25500000920E-02 0. -1.
       -2    1    3    3    0  502  0.16897774752E+03  0.21551154858E+03 -0.65575375772E+03  0.71064175046E+03  0.25500000920E-02 0.  1.
</event>
<event>
 5   0  0.1479385E-03  0.6001468E+03  0.7818609E-02  0.9905102E-01
       -1   -1    0    0    0  501  0.00000000000E+00  0.00000000000E+00  0.48674132028E+02  0.48674132289E+02  0.50400001928E-02 0.  1.
        1   -1    0    0  501    0  0.00000000000E+00  0.00000000000E+00 -0.18499361591E+04  0.18499361591E+04  0.50400001928E-02 0. -1.
    10030    2    1    2    0    0  0.00000000000E+00  0.00000000000E+00 -0.18012620271E+04  0.18986102914E+04  0.60014677241E+03 0.  0.
        3    1    3    3  502    0  0.16031722910E+03 -0.70516974640E+02 -0.16714653224E+04  0.16806161346E+04  0.10100000352E+00 0. -1.
       -3    1    3    3    0  502 -0.16031722910E+03  0.70516974640E+02 -0.12979670467E+03  0.21799415681E+03  0.10100000352E+00 0.  1.
</event>
<event>
 5   0  0.2421210E-03  0.5998247E+03  0.7818609E-02  0.9905770E-01
       -2   -1    0    0    0  501  0.00000000000E+00  0.00000000000E+00  0.26212909242E+03  0.26212909243E+03  0.25500000920E-02 0.  1.
        2   -1    0    0  501    0  0.00000000000E+00  0.00000000000E+00 -0.34314167413E+03  0.34314167414E+03  0.25500000920E-02 0. -1.
    10030    2    1    2    0    0  0.00000000000E+00  0.00000000000E+00 -0.81012581712E+02  0.60527076657E+03  0.59982469312E+03 0.  0.
        1    1    3    3  502    0 -0.26387193981E+03 -0.57169531436E+01 -0.18422956971E+03  0.32187205308E+03  0.50400001928E-02 0. -1.
       -1    1    3    3    0  502  0.26387193981E+03  0.57169531436E+01  0.10321698800E+03  0.28339871349E+03  0.50400001928E-02 0.  1.
</event>
<event>
 5   0  0.1416315E-03  0.5998291E+03  0.7818609E-02  0.9905761E-01
        1   -1    0    0  501    0  0.00000000000E+00  0.00000000000E+00  0.19958916702E+03  0.19958916709E+03  0.50400001928E-02 0.  1.
       -1   -1    0    0    0  501  0.00000000000E+00  0.00000000000E+00 -0.45066941782E+03  0.45066941785E+03  0.50400001928E-02 0. -1.
    10030    2    1    2    0    0  0.00000000000E+00  0.00000000000E+00 -0.25108025080E+03  0.65025858494E+03  0.59982908811E+03 0.  0.
        2    1    3    3  502    0 -0.74874869743E+02  0.24034412333E+03  0.51191024230E+02  0.25688920706E+03  0.25500000920E-02 0.  1.
       -2    1    3    3    0  502  0.74874869743E+02 -0.24034412333E+03 -0.30227127503E+03  0.39336937788E+03  0.25500000920E-02 0. -1.
</event>
<event>
 5   0  0.1392854E-03  0.6003322E+03  0.7818609E-02  0.9904717E-01
       -1   -1    0    0    0  501  0.00000000000E+00  0.00000000000E+00  0.33717471632E+03  0.33717471636E+03  0.50400001928E-02 0.  1.
        1   -1    0    0  501    0  0.00000000000E+00  0.00000000000E+00 -0.26721956026E+03  0.26721956031E+03  0.50400001928E-02 0. -1.
    10030    2    1    2    0    0  0.00000000000E+00  0.00000000000E+00  0.69955156063E+02  0.60439427666E+03  0.60033217289E+03 0.  0.
        4    1    3    3  502    0 -0.15825209803E+03  0.26578288116E+02 -0.22040780126E+03  0.27263775176E+03  0.12699999809E+01 0. -1.
       -4    1    3    3    0  502  0.15825209803E+03 -0.26578288116E+02  0.29036295732E+03  0.33175652490E+03  0.12699999809E+01 0.  1.
</event>
<event>
 5   0  0.2346281E-03  0.6000897E+03  0.7818609E-02  0.9905220E-01
       -2   -1    0    0    0  501  0.00000000000E+00  0.00000000000E+00  0.11822177774E+03  0.11822177777E+03  0.25500000920E-02 0. -1.
        2   -1    0    0  501    0  0.00000000000E+00  0.00000000000E+00 -0.76150870586E+03  0.76150870586E+03  0.25500000920E-02 0.  1.
    10030    2    1    2    0    0  0.00000000000E+00  0.00000000000E+00 -0.64328692812E+03  0.87973048363E+03  0.60008970325E+03 0.  0.
        3    1    3    3  502    0 -0.77358106630E+02 -0.22556846776E+03 -0.58860611134E+03  0.63507682591E+03  0.10100000352E+00 0.  1.
       -3    1    3    3    0  502  0.77358106630E+02  0.22556846776E+03 -0.54680816783E+02  0.24465365772E+03  0.10100000352E+00 0. -1.
</event>
<event>
 5   0  0.2406307E-03  0.6006546E+03  0.7818609E-02  0.9904049E-01
       -2   -1    0    0    0  501  0.00000000000E+00  0.00000000000E+00  0.32549353755E+03  0.32549353756E+03  0.25500000920E-02 0.  1.
        2   -1    0    0  501    0  0.00000000000E+00  0.00000000000E+00 -0.27710687406E+03  0.27710687407E+03  0.25500000920E-02 0. -1.
    10030    2    1    2    0    0  0.00000000000E+00  0.00000000000E+00  0.48386663496E+02  0.60260041163E+03  0.60065463196E+03 0.  0.
        5    1    3    3  502    0  0.21440580300E+03 -0.15416587057E+03  0.16761602377E+03  0.31281653638E+03  0.46999998093E+01 0.  1.
       -5    1    3    3    0  502 -0.21440580300E+03  0.15416587057E+03 -0.11922936027E+03  0.28978387525E+03  0.46999998093E+01 0. -1.
</event>
<event>
 5   0  0.9496750E-04  0.5987244E+03  0.7818609E-02  0.9908056E-01
        3   -1    0    0  501    0  0.00000000000E+00  0.00000000000E+00  0.11636064539E+03  0.11636068922E+03  0.10100000352E+00 0. -1.
       -3   -1    0    0    0  501  0.00000000000E+00  0.00000000000E+00 -0.77017182449E+03  0.77017183111E+03  0.10100000352E+00 0.  1.
    10030    2    1    2    0    0  0.00000000000E+00  0.00000000000E+00 -0.65381117910E+03  0.88653252034E+03  0.59872435369E+03 0.  0.
        4    1    3    3  502    0  0.57376012178E+02  0.27589012071E+03 -0.17729797339E+03  0.33293174938E+03  0.12699999809E+01 0. -1.
       -4    1    3    3    0  502 -0.57376012178E+02 -0.27589012071E+03 -0.47651320571E+03  0.55360077095E+03  0.12699999809E+01 0.  1.
</event>
<event>
 5   0  0.1418763E-03  0.5998232E+03  0.7818609E-02  0.9905773E-01
       -1   -1    0    0    0  501  0.00000000000E+00  0.00000000000E+00  0.69211061175E+02  0.69211061359E+02  0.50400001928E-02 0. -1.
        1   -1    0    0  501    0  0.00000000000E+00  0.00000000000E+00 -0.12996037820E+04  0.12996037820E+04  0.50400001928E-02 0.  1.
    10030    2    1    2    0    0  0.00000000000E+00  0.00000000000E+00 -0.12303927208E+04  0.13688148433E+04  0.59982316390E+03 0.  0.
        5    1    3    3  502    0  0.79823504024E+02 -0.25606723964E+03 -0.30917746312E+03  0.40933484669E+03  0.46999998093E+01 0. -1.
       -5    1    3    3    0  502 -0.79823504024E+02  0.25606723964E+03 -0.92121525766E+03  0.95947999664E+03  0.46999998093E+01 0.  1.
</event>
<event>
 5   0  0.2406307E-03  0.6000809E+03  0.7818609E-02  0.9905238E-01
        2   -1    0    0  501    0  0.00000000000E+00  0.00000000000E+00  0.12479951445E+04  0.12479951445E+04  0.25500000920E-02 0. -1.
       -2   -1    0    0    0  501  0.00000000000E+00  0.00000000000E+00 -0.72135123772E+02  0.72135123817E+02  0.25500000920E-02 0.  1.
    10030    2    1    2    0    0  0.00000000000E+00  0.00000000000E+00  0.11758600207E+04  0.13201302683E+04  0.60008094203E+03 0.  0.
        5    1    3    3  502    0  0.88098594032E+01  0.26715251366E+03  0.88758883892E+03  0.92697579049E+03  0.46999998093E+01 0. -1.
       -5    1    3    3    0  502 -0.88098594032E+01 -0.26715251366E+03  0.28827118181E+03  0.39315447783E+03  0.46999998093E+01 0.  1.
</event>
<event>
 5   0  0.2421210E-03  0.5999966E+03  0.7818609E-02  0.9905413E-01
        2   -1    0    0  501    0  0.00000000000E+00  0.00000000000E+00  0.43486352901E+03  0.43486352902E+03  0.25500000920E-02 0.  1.
       -2   -1    0    0    0  501  0.00000000000E+00  0.00000000000E+00 -0.20695913884E+03  0.20695913886E+03  0.25500000920E-02 0. -1.
    10030    2    1    2    0    0  0.00000000000E+00  0.00000000000E+00  0.22790439017E+03  0.64182266788E+03  0.59999660495E+03 0.  0.
        1    1    3    3  502    0 -0.16584971577E+03  0.11226089978E+03  0.35288429832E+03  0.40575357777E+03  0.50400001928E-02 0.  1.
       -1    1    3    3    0  502  0.16584971577E+03 -0.11226089978E+03 -0.12497990815E+03  0.23606909011E+03  0.50400001928E-02 0. -1.
</event>
<event>
 5   0  0.1392854E-03  0.6000201E+03  0.7818609E-02  0.9905364E-01
        1   -1    0    0  501    0  0.00000000000E+00  0.00000000000E+00  0.47940831918E+03  0.47940831921E+03  0.50400001928E-02 0. -1.
       -1   -1    0    0    0  501  0.00000000000E+00  0.00000000000E+00 -0.18774398753E+03  0.18774398760E+03  0.50400001928E-02 0.  1.
    10030    2    1    2    0    0  0.00000000000E+00  0.00000000000E+00  0.29166433165E+03  0.66715230681E+03  0.60002009810E+03 0.  0.
        4    1    3    3  502    0  0.77176558685E+02 -0.27696526982E+03  0.24108127278E+03  0.37521697041E+03  0.12699999809E+01 0. -1.
       -4    1    3    3    0  502 -0.77176558685E+02  0.27696526982E+03  0.50583058867E+02  0.29193533640E+03  0.12699999809E+01 0.  1.
</event>
<event>
 5   0  0.9496750E-04  0.6010787E+03  0.7818609E-02  0.9903171E-01
        3   -1    0    0  501    0  0.00000000000E+00  0.00000000000E+00  0.41647611998E+03  0.41647613223E+03  0.10100000352E+00 0.  1.
       -3   -1    0    0    0  501  0.00000000000E+00  0.00000000000E+00 -0.21687654099E+03  0.21687656451E+03  0.10100000352E+00 0. -1.
    10030    2    1    2    0    0  0.00000000000E+00  0.00000000000E+00  0.19959957898E+03  0.63335269674E+03  0.60107873572E+03 0.  0.
        1    1    3    3  502    0  0.12072267348E+03 -0.15795839551E+03  0.33728810053E+03  0.39152021837E+03  0.50400001928E-02 0.  1.
       -1    1    3    3    0  502 -0.12072267348E+03  0.15795839551E+03 -0.13768852155E+03  0.24183247837E+03  0.50400001928E-02 0. -1.
</event>
<event>
 5   0  0.1418763E-03  0.5999854E+03  0.7818609E-02  0.9905436E-01
        1   -1    0    0  501    0  0.00000000000E+00  0.00000000000E+00  0.23421098984E+03  0.23421098990E+03  0.50400001928E-02 0.  1.
       -1   -1    0    0    0  501  0.00000000000E+00  0.00000000000E+00 -0.38425016910E+03  0.38425016913E+03  0.50400001928E-02 0. -1.
    10030    2    1    2    0    0  0.00000000000E+00  0.00000000000E+00 -0.15003917925E+03  0.61846115902E+03  0.59998537475E+03 0.  0.
        5    1    3    3  502    0 -0.60814931617E+02 -0.36818259916E+02 -0.37540264802E+03  0.38210375333E+03  0.46999998093E+01 0. -1.
       -5    1    3    3    0  502  0.60814931617E+02  0.36818259916E+02  0.22536346877E+03  0.23635740569E+03  0.46999998093E+01 0.  1.
</event>
<event>
 5   0  0.2406307E-03  0.5999203E+03  0.7818609E-02  0.9905572E-01
        2   -1    0    0  501    0  0.00000000000E+00  0.00000000000E+00  0.11044840390E+04  0.11044840390E+04  0.25500000920E-02 0.  1.
       -2   -1    0    0    0  501  0.00000000000E+00  0.00000000000E+00 -0.81464353191E+02  0.81464353231E+02  0.25500000920E-02 0. -1.
    10030    2    1    2    0    0  0.00000000000E+00  0.00000000000E+00  0.10230196858E+04  0.11859483922E+04  0.59992025427E+03 0.  0.
        5    1    3    3  502    0 -0.94540348433E+00  0.62238652013E+02 -0.68482143791E+02  0.92663032589E+02  0.46999998093E+01 0. -1.
       -5    1    3    3    0  502  0.94540348433E+00 -0.62238652013E+02  0.10915018296E+04  0.10932853596E+04  0.46999998093E+01 0.  1.
</event>
<event>
 5   0  0.2313168E-03  0.5994007E+03  0.7818609E-02  0.9906650E-01
        2   -1    0    0  501    0  0.00000000000E+00  0.00000000000E+00  0.68195473578E+03  0.68195473579E+03  0.25500000920E-02 0.  1.
       -2   -1    0    0    0  501  0.00000000000E+00  0.00000000000E+00 -0.13171006128E+03  0.13171006130E+03  0.25500000920E-02 0. -1.
    10030    2    1    2    0    0  0.00000000000E+00  0.00000000000E+00  0.55024467451E+03  0.81366479709E+03  0.59940070086E+03 0.  0.
        2    1    3    3  502    0  0.62895945755E+02 -0.13169841063E+03  0.63045631006E+03  0.64712868137E+03  0.25500000920E-02 0.  1.
       -2    1    3    3    0  502 -0.62895945755E+02  0.13169841063E+03 -0.80211635550E+02  0.16653611572E+03  0.25500000920E-02 0. -1.
</event>
<event>
 5   0  0.2346281E-03  0.5998253E+03  0.7818609E-02  0.9905768E-01
        2   -1    0    0  501    0  0.00000000000E+00  0.00000000000E+00  0.10875333304E+04  0.10875333304E+04  0.25500000920E-02 0. -1.
       -2   -1    0    0    0  501  0.00000000000E+00  0.00000000000E+00 -0.82707912612E+02  0.82707912652E+02  0.25500000920E-02 0.  1.
    10030    2    1    2    0    0  0.00000000000E+00  0.00000000000E+00  0.10048254178E+04  0.11702412430E+04  0.59982534683E+03 0.  0.
        3    1    3    3  502    0 -0.22078657870E+03 -0.16708487233E+03  0.72727021786E+03  0.77819409397E+03  0.10100000352E+00 0.  1.
       -3    1    3    3    0  502  0.22078657870E+03  0.16708487233E+03  0.27755519990E+03  0.39204714906E+03  0.10100000352E+00 0. -1.
</event>
<event>
 5   0  0.1423430E-03  0.5994954E+03  0.7818609E-02  0.9906454E-01
        1   -1    0    0  501    0  0.00000000000E+00  0.00000000000E+00  0.11119171332E+04  0.11119171332E+04  0.50400001928E-02 0.  1.
       -1   -1    0    0    0  501  0.00000000000E+00  0.00000000000E+00 -0.80805192463E+02  0.80805192620E+02  0.50400001928E-02 0. -1.
    10030    2    1    2    0    0  0.00000000000E+00  0.00000000000E+00  0.10311119407E+04  0.11927223258E+04  0.59949538131E+03 0.  0.
        1    1    3    3  502    0  0.12828590223E+03  0.26624646888E+03  0.41599479439E+03  0.51029023495E+03  0.50400001928E-02 0. -1.
       -1    1    3    3    0  502 -0.12828590223E+03 -0.26624646888E+03  0.61511714635E+03  0.68243209088E+03  0.50400001928E-02 0.  1.
</event>
<event>
 5   0  0.2346281E-03  0.6000014E+03  0.7818609E-02  0.9905403E-01
       -2   -1    0    0    0  501  0.00000000000E+00  0.00000000000E+00  0.13123031705E+03  0.13123031708E+03  0.25500000920E-02 0. -1.
        2   -1    0    0  501    0  0.00000000000E+00  0.00000000000E+00 -0.68582037344E+03  0.68582037345E+03  0.25500000920E-02 0.  1.
    10030    2    1    2    0    0  0.00000000000E+00  0.00000000000E+00 -0.55459005639E+03  0.81705069052E+03  0.60000141686E+03 0.  0.
        3    1    3    3  502    0 -0.12562671884E+03 -0.65624954392E+01 -0.64816896215E+03  0.66026369924E+03  0.10100000352E+00 0.  1.
       -3    1    3    3    0  502  0.12562671884E+03  0.65624954392E+01  0.93578905761E+02  0.15678699128E+03  0.10100000352E+00 0. -1.
</event>
<event>
 5   0  0.2406307E-03  0.5997876E+03  0.7818609E-02  0.9905847E-01
       -2   -1    0    0    0  501  0.00000000000E+00  0.00000000000E+00  0.38205571588E+03  0.38205571589E+03  0.25500000920E-02 0. -1.
        2   -1    0    0  501    0  0.00000000000E+00  0.00000000000E+00 -0.23540095375E+03  0.23540095376E+03  0.25500000920E-02 0.  1.
    10030    2    1    2    0    0  0.00000000000E+00  0.00000000000E+00  0.14665476213E+03  0.61745666965E+03  0.59978756210E+03 0.  0.
        5    1    3    3  502    0  0.66379190146E+02 -0.27079014313E+03 -0.40290059329E+02  0.28174257289E+03  0.46999998093E+01 0. -1.
       -5    1    3    3    0  502 -0.66379190146E+02  0.27079014313E+03  0.18694482146E+03  0.33571409677E+03  0.46999998093E+01 0.  1.
</event>
<event>
 5   0  0.1392854E-03  0.6002147E+03  0.7818609E-02  0.9904961E-01
        1   -1    0    0  501    0  0.00000000000E+00  0.00000000000E+00  0.45777009492E+03  0.45777009495E+03  0.50400001928E-02 0.  1.
       -1   -1    0    0    0  501  0.00000000000E+00  0.00000000000E+00 -0.19674599877E+03  0.19674599883E+03  0.50400001928E-02 0. -1.
    10030    2    1    2    0    0  0.00000000000E+00  0.00000000000E+00  0.26102409615E+03  0.65451609378E+03  0.60021474344E+03 0.  0.
        4    1    3    3  502    0 -0.15138522111E+03  0.52859808143E+02 -0.14611326514E+03  0.21693857111E+03  0.12699999809E+01 0. -1.
       -4    1    3    3    0  502  0.15138522111E+03 -0.52859808143E+02  0.40713736129E+03  0.43757752267E+03  0.12699999809E+01 0.  1.
</event>
<event>
 5   0  0.1416315E-03  0.5998456E+03  0.7818609E-02  0.9905726E-01
        1   -1    0    0  501    0  0.00000000000E+00  0.00000000000E+00  0.25651301610E+03  0.25651301615E+03  0.50400001928E-02 0. -1.
       -1   -1    0    0    0  501  0.00000000000E+00  0.00000000000E+00 -0.35067886224E+03  0.35067886227E+03  0.50400001928E-02 0.  1.
    10030    2    1    2    0    0  0.00000000000E+00  0.00000000000E+00 -0.94165846136E+02  0.60719187843E+03  0.59984562235E+03 0.  0.
        2    1    3    3  502    0 -0.16752243872E+03  0.16119590932E+03  0.14472599170E+03  0.27384941361E+03  0.25500000920E-02 0. -1.
       -2    1    3    3    0  502  0.16752243872E+03 -0.16119590932E+03 -0.23889183784E+03  0.33334246481E+03  0.25500000920E-02 0.  1.
</event>
<event>
 5   0  0.2324616E-03  0.5995115E+03  0.7818609E-02  0.9906420E-01
        2   -1    0    0  501    0  0.00000000000E+00  0.00000000000E+00  0.38775202026E+03  0.38775202027E+03  0.25500000920E-02 0.  1.
       -2   -1    0    0    0  501  0.00000000000E+00  0.00000000000E+00 -0.23172933957E+03  0.23172933959E+03  0.25500000920E-02 0. -1.
    10030    2    1    2    0    0  0.00000000000E+00  0.00000000000E+00  0.15602268069E+03  0.61948135986E+03  0.59951153310E+03 0.  0.
        4    1    3    3  502    0 -0.91856606667E+02 -0.10696196029E+03  0.35134758209E+03  0.37858319228E+03  0.12699999809E+01 0.  1.
       -4    1    3    3    0  502  0.91856606667E+02  0.10696196029E+03 -0.19532490140E+03  0.24089816758E+03  0.12699999809E+01 0. -1.
</event>
<event>
 5   0  0.2324616E-03  0.5999087E+03  0.7818609E-02  0.9905595E-01
        2   -1    0    0  501    0  0.00000000000E+00  0.00000000000E+00  0.50843135668E+03  0.50843135668E+03  0.25500000920E-02 0. -1.
       -2   -1    0    0    0  501  0.00000000000E+00  0.00000000000E+00 -0.17696118396E+03  0.17696118398E+03  0.25500000920E-02 0.  1.
    10030    2    1    2    0    0  0.00000000000E+00  0.00000000000E+00  0.33147017271E+03  0.68539254067E+03  0.59990870922E+03 0.  0.
        4    1    3    3  502    0  0.13288318298E+03 -0.15322703932E+03  0.41820971363E+03  0.46479828245E+03  0.12699999809E+01 0. -1.
       -4    1    3    3    0  502 -0.13288318298E+03  0.15322703932E+03 -0.86739540915E+02  0.22059425821E+03  0.12699999809E+01 0.  1.
</event>
<event>
 5   0  0.2313168E-03  0.5997601E+03  0.7818609E-02  0.9905904E-01
        2   -1    0    0  501    0  0.00000000000E+00  0.00000000000E+00  0.70808206389E+03  0.70808206389E+03  0.25500000920E-02 0.  1.
       -2   -1    0    0    0  501  0.00000000000E+00  0.00000000000E+00 -0.12700230410E+03  0.12700230413E+03  0.25500000920E-02 0. -1.
    10030    2    1    2    0    0  0.00000000000E+00  0.00000000000E+00  0.58107975978E+03  0.83508436802E+03  0.59976013079E+03 0.  0.
        2    1    3    3  502    0 -0.15966621117E+03 -0.22932153248E+03  0.13899343138E+03  0.31209107360E+03  0.25500000920E-02 0. -1.
       -2    1    3    3    0  502  0.15966621117E+03  0.22932153248E+03  0.44208632840E+03  0.52299329442E+03  0.25500000920E-02 0.  1.
</event>
<event>
 5   0  0.2421210E-03  0.6004872E+03  0.7818609E-02  0.9904396E-01
        2   -1    0    0  501    0  0.00000000000E+00  0.00000000000E+00  0.14796695868E+03  0.14796695870E+03  0.25500000920E-02 0.  1.
       -2   -1    0    0    0  501  0.00000000000E+00  0.00000000000E+00 -0.60923201169E+03  0.60923201169E+03  0.25500000920E-02 0. -1.
    10030    2    1    2    0    0  0.00000000000E+00  0.00000000000E+00 -0.46126505301E+03  0.75719897039E+03  0.60048716192E+03 0.  0.
        1    1    3    3  502    0 -0.76172791719E+02  0.59948285312E+02  0.12769309879E+03  0.16031724366E+03  0.50400001928E-02 0.  1.
       -1    1    3    3    0  502  0.76172791719E+02 -0.59948285312E+02 -0.58895815180E+03  0.59688172674E+03  0.50400001928E-02 0. -1.
</event>
<event>
 5   0  0.2324616E-03  0.5998742E+03  0.7818609E-02  0.9905667E-01
        2   -1    0    0  501    0  0.00000000000E+00  0.00000000000E+00  0.18329872323E+04  0.18329872323E+04  0.25500000920E-02 0.  1.
       -2   -1    0    0    0  501  0.00000000000E+00  0.00000000000E+00 -0.49079589038E+02  0.49079589105E+02  0.25500000920E-02 0. -1.
    10030    2    1    2    0    0  0.00000000000E+00  0.00000000000E+00  0.17839076432E+04  0.18820668214E+04  0.59987418726E+03 0.  0.
        4    1    3    3  502    0 -0.21602557390E+02 -0.23015107704E+02  0.18277530917E+04  0.18280260782E+04  0.12699999809E+01 0.  1.
       -4    1    3    3    0  502  0.21602557390E+02  0.23015107704E+02 -0.43845448454E+02  0.54040743134E+02  0.12699999809E+01 0. -1.
</event>
<event>
 5   0  0.2346281E-03  0.5994837E+03  0.7818609E-02  0.9906478E-01
        2   -1    0    0  501    0  0.00000000000E+00  0.00000000000E+00  0.59360722729E+03  0.59360722729E+03  0.25500000920E-02 0. -1.
       -2   -1    0    0    0  501  0.00000000000E+00  0.00000000000E+00 -0.15135458909E+03  0.15135458911E+03  0.25500000920E-02 0.  1.
    10030    2    1    2    0    0  0.00000000000E+00  0.00000000000E+00  0.44225263820E+03  0.74496181640E+03  0.59948370445E+03 0.  0.
        3    1    3    3  502    0  0.24458151147E+03 -0.17313012644E+03  0.23000176143E+03  0.37774988669E+03  0.10100000352E+00 0.  1.
       -3    1    3    3    0  502 -0.24458151147E+03  0.17313012644E+03  0.21225087677E+03  0.36721192971E+03  0.10100000352E+00 0. -1.
</event>
<event>
 5   0  0.9496750E-04  0.5999786E+03  0.7818609E-02  0.9905450E-01
       -3   -1    0    0    0  501  0.00000000000E+00  0.00000000000E+00  0.11726206847E+03  0.11726211197E+03  0.10100000352E+00 0.  1.
        3   -1    0    0  501    0  0.00000000000E+00  0.00000000000E+00 -0.76745679961E+03  0.76745680626E+03  0.10100000352E+00 0. -1.
    10030    2    1    2    0    0  0.00000000000E+00  0.00000000000E+00 -0.65019473114E+03  0.88471891822E+03  0.59997864617E+03 0.  0.
        1    1    3    3  502    0 -0.21902046182E+03 -0.81338223265E+02 -0.47625770869E+02  0.23844094307E+03  0.50400001928E-02 0.  1.
       -1    1    3    3    0  502  0.21902046182E+03  0.81338223265E+02 -0.60256896027E+03  0.64627797515E+03  0.50400001928E-02 0. -1.
</event>
<event>
 5   0  0.1423430E-03  0.5999063E+03  0.7818609E-02  0.9905600E-01
       -1   -1    0    0    0  501  0.00000000000E+00  0.00000000000E+00  0.16611396045E+03  0.16611396053E+03  0.50400001928E-02 0.  1.
        1   -1    0    0  501    0  0.00000000000E+00  0.00000000000E+00 -0.54162753792E+03  0.54162753794E+03  0.50400001928E-02 0. -1.
    10030    2    1    2    0    0  0.00000000000E+00  0.00000000000E+00 -0.37551357746E+03  0.70774149847E+03  0.59990631085E+03 0.  0.
        1    1    3    3  502    0 -0.24910926959E+03  0.15678544911E+03 -0.11962881266E+03  0.31772339872E+03  0.50400001928E-02 0.  1.
       -1    1    3    3    0  502  0.24910926959E+03 -0.15678544911E+03 -0.25588476480E+03  0.39001809975E+03  0.50400001928E-02 0. -1.
</event>
<event>
 5   0  0.1423430E-03  0.5998719E+03  0.7818609E-02  0.9905672E-01
        1   -1    0    0  501    0  0.00000000000E+00  0.00000000000E+00  0.44256293189E+03  0.44256293192E+03  0.50400001928E-02 0. -1.
       -1   -1    0    0    0  501  0.00000000000E+00  0.00000000000E+00 -0.20327407490E+03  0.20327407497E+03  0.50400001928E-02 0.  1.
    10030    2    1    2    0    0  0.00000000000E+00  0.00000000000E+00  0.23928885699E+03  0.64583700688E+03  0.59987188831E+03 0.  0.
        1    1    3    3  502    0  0.21642271633E+03  0.69524895890E+02  0.33031399913E+03  0.40097361676E+03  0.50400001928E-02 0. -1.
       -1    1    3    3    0  502 -0.21642271633E+03 -0.69524895890E+02 -0.91025142145E+02  0.24486339012E+03  0.50400001928E-02 0.  1.
</event>
<event>
 5   0  0.1392854E-03  0.5999199E+03  0.7818609E-02  0.9905572E-01
        1   -1    0    0  501    0  0.00000000000E+00  0.00000000000E+00  0.51296399492E+03  0.51296399495E+03  0.50400001928E-02 0.  1.
       -1   -1    0    0    0  501  0.00000000000E+00  0.00000000000E+00 -0.17540406413E+03  0.17540406421E+03  0.50400001928E-02 0. -1.
    10030    2    1    2    0    0  0.00000000000E+00  0.00000000000E+00  0.33755993079E+03  0.68836805915E+03  0.59991989298E+03 0.  0.
        4    1    3    3  502    0  0.27334415886E+03  0.79438994190E+02  0.60247249304E+02  0.29096207129E+03  0.12699999809E+01 0. -1.
       -4    1    3    3    0  502 -0.27334415886E+03 -0.79438994190E+02  0.27731268148E+03  0.39740598787E+03  0.12699999809E+01 0.  1.
</event>
<event>
 5   0  0.1423430E-03  0.6002353E+03  0.7818609E-02  0.9904918E-01
        1   -1    0    0  501    0  0.00000000000E+00  0.00000000000E+00  0.77810811582E+03  0.77810811583E+03  0.50400001928E-02 0. -1.
       -1   -1    0    0    0  501  0.00000000000E+00  0.00000000000E+00 -0.11575588784E+03  0.11575588795E+03  0.50400001928E-02 0.  1.
    10030    2    1    2    0    0  0.00000000000E+00  0.00000000000E+00  0.66235222798E+03  0.89386400378E+03  0.60023527333E+03 0.  0.
        1    1    3    3  502    0  0.24963080565E+03 -0.24131011220E+02  0.57665646710E+03  0.62883266924E+03  0.50400001928E-02 0. -1.
       -1    1    3    3    0  502 -0.24963080565E+03  0.24131011220E+02  0.85695760874E+02  0.26503133454E+03  0.50400001928E-02 0.  1.
</event>
<event>
 5   0  0.2421210E-03  0.6001773E+03  0.7818609E-02  0.9905038E-01
        2   -1    0    0  501    0  0.00000000000E+00  0.00000000000E+00  0.19720774157E+04  0.19720774157E+04  0.25500000920E-02 0.  1.
       -2   -1    0    0    0  501  0.00000000000E+00  0.00000000000E+00 -0.45664122291E+02  0.45664122362E+02  0.25500000920E-02 0. -1.
    10030    2    1    2    0    0  0.00000000000E+00  0.00000000000E+00  0.19264132934E+04  0.20177415381E+04  0.60017725499E+03 0.  0.
        1    1    3    3  502    0 -0.22331859859E+03  0.15676446391E+03  0.54321157312E+03  0.60788576790E+03  0.50400001928E-02 0.  1.
       -1    1    3    3    0  502  0.22331859859E+03 -0.15676446391E+03  0.13832017203E+04  0.14098557702E+04  0.50400001928E-02 0. -1.
</event>
<event>
 5   0  0.2324616E-03  0.5995971E+03  0.7818609E-02  0.9906242E-01
        2   -1    0    0  501    0  0.00000000000E+00  0.00000000000E+00  0.17528011015E+04  0.17528011015E+04  0.25500000920E-02 0.  1.
       -2   -1    0    0    0  501  0.00000000000E+00  0.00000000000E+00 -0.51277453039E+02  0.51277453102E+02  0.25500000920E-02 0. -1.
    10030    2    1    2    0    0  0.00000000000E+00  0.00000000000E+00  0.17015236485E+04  0.18040785546E+04  0.59959711883E+03 0.  0.
        4    1    3    3  502    0  0.46485640525E+02 -0.39197218580E+02  0.17340445204E+04  0.17351107597E+04  0.12699999809E+01 0.  1.
       -4    1    3    3    0  502 -0.46485640525E+02  0.39197218580E+02 -0.32520871968E+02  0.68967794897E+02  0.12699999809E+01 0. -1.
</event>
<event>
 5   0  0.2313168E-03  0.6003895E+03  0.7818609E-02  0.9904598E-01
        2   -1    0    0  501    0  0.00000000000E+00  0.00000000000E+00  0.41129521344E+03  0.41129521345E+03  0.25500000920E-02 0. -1.
       -2   -1    0    0    0  501  0.00000000000E+00  0.00000000000E+00 -0.21910514821E+03  0.21910514822E+03  0.25500000920E-02 0.  1.
    10030    2    1    2    0    0  0.00000000000E+00  0.00000000000E+00  0.19219006524E+03  0.63040036167E+03  0.60038953590E+03 0.  0.
        2    1    3    3  502    0 -0.16365987605E+03  0.10081892976E+03  0.33820241934E+03  0.38901142410E+03  0.25500000920E-02 0. -1.
       -2    1    3    3    0  502  0.16365987605E+03 -0.10081892976E+03 -0.14601235410E+03  0.24138893757E+03  0.25500000920E-02 0.  1.
</event>
<event>
 5   0  0.1418763E-03  0.6001319E+03  0.7818609E-02  0.9905132E-01
       -1   -1    0    0    0  501  0.00000000000E+00  0.00000000000E+00  0.11421503676E+03  0.11421503687E+03  0.50400001928E-02 0. -1.
        1   -1    0    0  501    0  0.00000000000E+00  0.00000000000E+00 -0.78833387515E+03  0.78833387517E+03  0.50400001928E-02 0.  1.
    10030    2    1    2    0    0  0.00000000000E+00  0.00000000000E+00 -0.67411883839E+03  0.90254891203E+03  0.60013192744E+03 0.  0.
        5    1    3    3  502    0 -0.14252759911E+02  0.10087423312E+03  0.87351165341E+02  0.13427981292E+03  0.46999998093E+01 0. -1.
       -5    1    3    3    0  502  0.14252759911E+02 -0.10087423312E+03 -0.76147000374E+03  0.76826909912E+03  0.46999998093E+01 0.  1.
</event>
<event>
 5   0  0.1479385E-03  0.5994573E+03  0.7818609E-02  0.9906533E-01
        1   -1    0    0  501    0  0.00000000000E+00  0.00000000000E+00  0.90691804964E+03  0.90691804965E+03  0.50400001928E-02 0. -1.
       -1   -1    0    0    0  501  0.00000000000E+00  0.00000000000E+00 -0.99057743661E+02  0.99057743789E+02  0.50400001928E-02 0.  1.
    10030    2    1    2    0    0  0.00000000000E+00  0.00000000000E+00  0.80786030598E+03  0.10059757934E+04  0.59945727372E+03 0.  0.
        3    1    3    3  502    0 -0.17871157343E+03 -0.95852136255E+02  0.33551176231E+02  0.20555084561E+03  0.10100000352E+00 0.  1.
       -3    1    3    3    0  502  0.17871157343E+03  0.95852136255E+02  0.77430912975E+03  0.80042494783E+03  0.10100000352E+00 0. -1.
</event>
<event>
 5   0  0.2421210E-03  0.6003511E+03  0.7818609E-02  0.9904678E-01
        2   -1    0    0  501    0  0.00000000000E+00  0.00000000000E+00  0.68499801941E+03  0.68499801941E+03  0.25500000920E-02 0.  1.
       -2   -1    0    0    0  501  0.00000000000E+00  0.00000000000E+00 -0.13154104611E+03  0.13154104613E+03  0.25500000920E-02 0. -1.
    10030    2    1    2    0    0  0.00000000000E+00  0.00000000000E+00  0.55345697330E+03  0.81653906554E+03  0.60035108417E+03 0.  0.
        1    1    3    3  502    0 -0.36273557497E+02 -0.28939770278E+03  0.18018462707E+03  0.34283130138E+03  0.50400001928E-02 0. -1.
       -1    1    3    3    0  502  0.36273557497E+02  0.28939770278E+03  0.37327234622E+03  0.47370776416E+03  0.50400001928E-02 0.  1.
</event>
<event>
 5   0  0.1392854E-03  0.5999059E+03  0.7818609E-02  0.9905601E-01
       -1   -1    0    0    0  501  0.00000000000E+00  0.00000000000E+00  0.12157297246E+03  0.12157297257E+03  0.50400001928E-02 0. -1.
        1   -1    0    0  501    0  0.00000000000E+00  0.00000000000E+00 -0.74006391871E+03  0.74006391873E+03  0.50400001928E-02 0.  1.
    10030    2    1    2    0    0  0.00000000000E+00  0.00000000000E+00 -0.61849094625E+03  0.86163689130E+03  0.59990589416E+03 0.  0.
        4    1    3    3  502    0  0.10423230931E+03  0.11973499758E+03  0.56286864269E+02  0.16843594610E+03  0.12699999809E+01 0. -1.
       -4    1    3    3    0  502 -0.10423230931E+03 -0.11973499758E+03 -0.67477781052E+03  0.69320094520E+03  0.12699999809E+01 0.  1.
</event>
<event>
 5   0  0.1423430E-03  0.6002185E+03  0.7818609E-02  0.9904953E-01
        1   -1    0    0  501    0  0.00000000000E+00  0.00000000000E+00  0.73473790384E+03  0.73473790385E+03  0.50400001928E-02 0.  1.
       -1   -1    0    0    0  501  0.00000000000E+00  0.00000000000E+00 -0.12258189424E+03  0.12258189435E+03  0.50400001928E-02 0. -1.
    10030    2    1    2    0    0  0.00000000000E+00  0.00000000000E+00  0.61215600959E+03  0.85731979820E+03  0.60021850714E+03 0.  0.
        1    1    3    3  502    0  0.83939503581E+02  0.24274538651E+03  0.84364810617E+02  0.27034900449E+03  0.50400001928E-02 0. -1.
       -1    1    3    3    0  502 -0.83939503581E+02 -0.24274538651E+03  0.52779119898E+03  0.58697079371E+03  0.50400001928E-02 0.  1.
</event>
<event>
 5   0  0.1423430E-03  0.5994338E+03  0.7818609E-02  0.9906581E-01
        1   -1    0    0  501    0  0.00000000000E+00  0.00000000000E+00  0.10863034414E+04  0.10863034414E+04  0.50400001928E-02 0.  1.
       -1   -1    0    0    0  501  0.00000000000E+00  0.00000000000E+00 -0.82693487179E+02  0.82693487333E+02  0.50400001928E-02 0. -1.
    10030    2    1    2    0    0  0.00000000000E+00  0.00000000000E+00  0.10036099542E+04  0.11689969287E+04  0.59943379885E+03 0.  0.
        1    1    3    3  502    0  0.48100079801E+02 -0.25724893295E+03  0.78668707874E+03  0.82907610692E+03  0.50400001928E-02 0.  1.
       -1    1    3    3    0  502 -0.48100079801E+02  0.25724893295E+03  0.21692287548E+03  0.33992082183E+03  0.50400001928E-02 0. -1.
</event>
<event>
 5   0  0.9496750E-04  0.6000298E+03  0.7818609E-02  0.9905344E-01
       -3   -1    0    0    0  501  0.00000000000E+00  0.00000000000E+00  0.15494243947E+03  0.15494247239E+03  0.10100000352E+00 0.  1.
        3   -1    0    0  501    0  0.00000000000E+00  0.00000000000E+00 -0.58091842776E+03  0.58091843654E+03  0.10100000352E+00 0. -1.
    10030    2    1    2    0    0  0.00000000000E+00  0.00000000000E+00 -0.42597598830E+03  0.73586090893E+03  0.60002977817E+03 0.  0.
        2    1    3    3  502    0  0.21198409979E+03  0.20788452318E+02  0.46121104755E+02  0.21793708868E+03  0.25500000920E-02 0.  1.
       -2    1    3    3    0  502 -0.21198409979E+03 -0.20788452318E+02 -0.47209709305E+03  0.51792382025E+03  0.25500000920E-02 0. -1.
</event>
<event>
 5   0  0.1418763E-03  0.5999195E+03  0.7818609E-02  0.9905573E-01
       -1   -1    0    0    0  501  0.00000000000E+00  0.00000000000E+00  0.20301280913E+03  0.20301280920E+03  0.50400001928E-02 0.  1.
        1   -1    0    0  501    0  0.00000000000E+00  0.00000000000E+00 -0.44320276201E+03  0.44320276204E+03  0.50400001928E-02 0. -1.
    10030    2    1    2    0    0  0.00000000000E+00  0.00000000000E+00 -0.24018995287E+03  0.64621557123E+03  0.59991945380E+03 0.  0.
        5    1    3    3  502    0 -0.24622502767E+02  0.71062079970E+02  0.19265136317E+03  0.20686402438E+03  0.46999998093E+01 0.  1.
       -5    1    3    3    0  502  0.24622502767E+02 -0.71062079970E+02 -0.43284131604E+03  0.43935154685E+03  0.46999998093E+01 0. -1.
</event>
<event>
 5   0  0.1479385E-03  0.6031874E+03  0.7818609E-02  0.9898815E-01
       -1   -1    0    0    0  501  0.00000000000E+00  0.00000000000E+00  0.14844123927E+03  0.14844123935E+03  0.50400001928E-02 0. -1.
        1   -1    0    0  501    0  0.00000000000E+00  0.00000000000E+00 -0.61275941003E+03  0.61275941005E+03  0.50400001928E-02 0.  1.
    10030    2    1    2    0    0  0.00000000000E+00  0.00000000000E+00 -0.46431817076E+03  0.76120064940E+03  0.60318742108E+03 0.  0.
        3    1    3    3  502    0  0.37382727483E+02 -0.19930881959E+03  0.49565046401E+02  0.20875386920E+03  0.10100000352E+00 0. -1.
       -3    1    3    3    0  502 -0.37382727483E+02  0.19930881959E+03 -0.51388321717E+03  0.55244678021E+03  0.10100000352E+00 0.  1.
</event>
<event>
 5   0  0.2324616E-03  0.6029069E+03  0.7818609E-02  0.9899393E-01
        2   -1    0    0  501    0  0.00000000000E+00  0.00000000000E+00  0.39477732311E+03  0.39477732311E+03  0.25500000920E-02 0.  1.
       -2   -1    0    0    0  501  0.00000000000E+00  0.00000000000E+00 -0.23019100968E+03  0.23019100969E+03  0.25500000920E-02 0. -1.
    10030    2    1    2    0    0  0.00000000000E+00  0.00000000000E+00  0.16458631343E+03  0.62496833280E+03  0.60290692685E+03 0.  0.
        4    1    3    3  502    0 -0.89380336061E+02 -0.27363531840E+03  0.17505187550E+03  0.33691230902E+03  0.12699999809E+01 0.  1.
       -4    1    3    3    0  502  0.89380336061E+02  0.27363531840E+03 -0.10465562073E+02  0.28805602379E+03  0.12699999809E+01 0. -1.
</event>
<event>
 5   0  0.2421210E-03  0.6000291E+03  0.7818609E-02  0.9905346E-01
       -2   -1    0    0    0  501  0.00000000000E+00  0.00000000000E+00  0.28570809968E+03  0.28570809970E+03  0.25500000920E-02 0. -1.
        2   -1    0    0  501    0  0.00000000000E+00  0.00000000000E+00 -0.31503738649E+03  0.31503738650E+03  0.25500000920E-02 0.  1.
    10030    2    1    2    0    0  0.00000000000E+00  0.00000000000E+00 -0.29329286804E+02  0.60074548619E+03  0.60002910939E+03 0.  0.
        1    1    3    3  502    0  0.28562334221E+03  0.22006317935E+02  0.74569547650E+02  0.29601619737E+03  0.50400001928E-02 0. -1.
       -1    1    3    3    0  502 -0.28562334221E+03 -0.22006317935E+02 -0.10389883445E+03  0.30472928883E+03  0.50400001928E-02 0.  1.
</event>
<event>
 5   0  0.1392854E-03  0.5993007E+03  0.7818609E-02  0.9906858E-01
        1   -1    0    0  501    0  0.00000000000E+00  0.00000000000E+00  0.10096865468E+04  0.10096865468E+04  0.50400001928E-02 0.  1.
       -1   -1    0    0    0  501  0.00000000000E+00  0.00000000000E+00 -0.88928905531E+02  0.88928905674E+02  0.50400001928E-02 0. -1.
    10030    2    1    2    0    0  0.00000000000E+00  0.00000000000E+00  0.92075764122E+03  0.10986154524E+04  0.59930065783E+03 0.  0.
        4    1    3    3  502    0  0.25931217224E+03  0.21904704752E+02  0.73268884013E+03  0.77753274408E+03  0.12699999809E+01 0.  1.
       -4    1    3    3    0  502 -0.25931217224E+03 -0.21904704752E+02  0.18806880109E+03  0.32108270836E+03  0.12699999809E+01 0. -1.
</event>
<event>
 5   0  0.2406307E-03  0.6007050E+03  0.7818609E-02  0.9903944E-01
       -2   -1    0    0    0  501  0.00000000000E+00  0.00000000000E+00  0.38947223328E+03  0.38947223329E+03  0.25500000920E-02 0. -1.
        2   -1    0    0  501    0  0.00000000000E+00  0.00000000000E+00 -0.23162532854E+03  0.23162532855E+03  0.25500000920E-02 0.  1.
    10030    2    1    2    0    0  0.00000000000E+00  0.00000000000E+00  0.15784690474E+03  0.62109756184E+03  0.60070503243E+03 0.  0.
        5    1    3    3  502    0 -0.18800933354E+03  0.17308696642E+03  0.24202172829E+03  0.35199888410E+03  0.46999998093E+01 0. -1.
       -5    1    3    3    0  502  0.18800933354E+03 -0.17308696642E+03 -0.84174823552E+02  0.26909867774E+03  0.46999998093E+01 0.  1.
</event>
<event>
 5   0  0.1392854E-03  0.5999627E+03  0.7818609E-02  0.9905484E-01
       -1   -1    0    0    0  501  0.00000000000E+00  0.00000000000E+00  0.26725661576E+03  0.26725661581E+03  0.50400001928E-02 0.  1.
        1   -1    0    0  501    0  0.00000000000E+00  0.00000000000E+00 -0.33671307276E+03  0.33671307279E+03  0.50400001928E-02 0. -1.
    10030    2    1    2    0    0  0.00000000000E+00  0.00000000000E+00 -0.69456456998E+02  0.60396968860E+03  0.59996265328E+03 0.  0.
        4    1    3    3  502    0  0.29975905893E+03  0.10389106780E+02 -0.39634843463E+02  0.30254910456E+03  0.12699999809E+01 0.  1.
       -4    1    3    3    0  502 -0.29975905893E+03 -0.10389106780E+02 -0.29821613536E+02  0.30142058404E+03  0.12699999809E+01 0. -1.
</event>
<event>
 5   0  0.1423430E-03  0.5999827E+03  0.7818609E-02  0.9905442E-01
       -1   -1    0    0    0  501  0.00000000000E+00  0.00000000000E+00  0.10697106408E+03  0.10697106420E+03  0.50400001928E-02 0. -1.
        1   -1    0    0  501    0  0.00000000000E+00  0.00000000000E+00 -0.84130063314E+03  0.84130063316E+03  0.50400001928E-02 0.  1.
    10030    2    1    2    0    0  0.00000000000E+00  0.00000000000E+00 -0.73432956907E+03  0.94827169735E+03  0.59998274642E+03 0.  0.
        1    1    3    3  502    0 -0.17275314925E+03 -0.43861670981E+02 -0.74854438074E+03  0.76947136835E+03  0.50400001928E-02 0.  1.
       -1    1    3    3    0  502  0.17275314925E+03  0.43861670981E+02  0.14214811669E+02  0.17880032900E+03  0.50400001928E-02 0. -1.
</event>
<event>
 5   0  0.1423430E-03  0.6001981E+03  0.7818609E-02  0.9904995E-01
        1   -1    0    0  501    0  0.00000000000E+00  0.00000000000E+00  0.90516286075E+02  0.90516286215E+02  0.50400001928E-02 0.  1.
       -1   -1    0    0    0  501  0.00000000000E+00  0.00000000000E+00 -0.99495296467E+03  0.99495296468E+03  0.50400001928E-02 0. -1.
    10030    2    1    2    0    0  0.00000000000E+00  0.00000000000E+00 -0.90443667860E+03  0.10854692509E+04  0.60019812484E+03 0.  0.
        1    1    3    3  502    0  0.27185908392E+03  0.63073876463E+02 -0.65176086730E+03  0.70899781634E+03  0.50400001928E-02 0. -1.
       -1    1    3    3    0  502 -0.27185908392E+03 -0.63073876463E+02 -0.25267581129E+03  0.37647143456E+03  0.50400001928E-02 0.  1.
</event>
<event>
 5   0  0.1479385E-03  0.6000521E+03  0.7818609E-02  0.9905298E-01
        1   -1    0    0  501    0  0.00000000000E+00  0.00000000000E+00  0.48224878033E+03  0.48224878036E+03  0.50400001928E-02 0. -1.
       -1   -1    0    0    0  501  0.00000000000E+00  0.00000000000E+00 -0.18665808549E+03  0.18665808556E+03  0.50400001928E-02 0.  1.
    10030    2    1    2    0    0  0.00000000000E+00  0.00000000000E+00  0.29559069485E+03  0.66890686592E+03  0.60005211139E+03 0.  0.
        3    1    3    3  502    0 -0.65174775447E+02 -0.22139396004E+03 -0.65912585015E+02  0.24001565774E+03  0.10100000352E+00 0.  1.
       -3    1    3    3    0  502  0.65174775447E+02  0.22139396004E+03  0.36150327986E+03  0.42889120817E+03  0.10100000352E+00 0. -1.
</event>
<event>
 5   0  0.2406307E-03  0.5999915E+03  0.7818609E-02  0.9905424E-01
       -2   -1    0    0    0  501  0.00000000000E+00  0.00000000000E+00  0.10434468248E+03  0.10434468251E+03  0.25500000920E-02 0.  1.
        2   -1    0    0  501    0  0.00000000000E+00  0.00000000000E+00 -0.86250145867E+03  0.86250145868E+03  0.25500000920E-02 0. -1.
    10030    2    1    2    0    0  0.00000000000E+00  0.00000000000E+00 -0.75815677619E+03  0.96684614119E+03  0.59999146948E+03 0.  0.
        5    1    3    3  502    0  0.24112032161E+03 -0.60754316383E+02 -0.64942123434E+03  0.69541363667E+03  0.46999998093E+01 0. -1.
       -5    1    3    3    0  502 -0.24112032161E+03  0.60754316383E+02 -0.10873554185E+03  0.27143250452E+03  0.46999998093E+01 0.  1.
</event>
<event>
 5   0  0.2421210E-03  0.6005806E+03  0.7818609E-02  0.9904202E-01
        2   -1    0    0  501    0  0.00000000000E+00  0.00000000000E+00  0.11014949363E+03  0.11014949366E+03  0.25500000920E-02 0. -1.
       -2   -1    0    0    0  501  0.00000000000E+00  0.00000000000E+00 -0.81865337754E+03  0.81865337755E+03  0.25500000920E-02 0.  1.
    10030    2    1    2    0    0  0.00000000000E+00  0.00000000000E+00 -0.70850388391E+03  0.92880287121E+03  0.60058056915E+03 0.  0.
        1    1    3    3  502    0  0.81941384867E+02 -0.76905550722E+02 -0.78490773573E+03  0.79291172770E+03  0.50400001928E-02 0.  1.
       -1    1    3    3    0  502 -0.81941384867E+02  0.76905550722E+02  0.76403851820E+02  0.13589114351E+03  0.50400001928E-02 0. -1.
</event>
<event>
 5   0  0.1392854E-03  0.6000315E+03  0.7818609E-02  0.9905341E-01
        1   -1    0    0  501    0  0.00000000000E+00  0.00000000000E+00  0.92879071224E+03  0.92879071226E+03  0.50400001928E-02 0. -1.
       -1   -1    0    0    0  501  0.00000000000E+00  0.00000000000E+00 -0.96910354934E+02  0.96910355065E+02  0.50400001928E-02 0.  1.
    10030    2    1    2    0    0  0.00000000000E+00  0.00000000000E+00  0.83188035731E+03  0.10257010673E+04  0.60003145803E+03 0.  0.
        4    1    3    3  502    0  0.15505024910E+03  0.12372931591E+03  0.80068439438E+03  0.82489189332E+03  0.12699999809E+01 0. -1.
       -4    1    3    3    0  502 -0.15505024910E+03 -0.12372931591E+03  0.31195962935E+02  0.20080917401E+03  0.12699999809E+01 0.  1.
</event>
<event>
 5   0  0.1479385E-03  0.5991421E+03  0.7818609E-02  0.9907187E-01
        1   -1    0    0  501    0  0.00000000000E+00  0.00000000000E+00  0.13696528380E+03  0.13696528389E+03  0.50400001928E-02 0.  1.
       -1   -1    0    0    0  501  0.00000000000E+00  0.00000000000E+00 -0.65522315676E+03  0.65522315678E+03  0.50400001928E-02 0. -1.
    10030    2    1    2    0    0  0.00000000000E+00  0.00000000000E+00 -0.51825787296E+03  0.79218844067E+03  0.59914213894E+03 0.  0.
        3    1    3    3  502    0 -0.10683596329E+03  0.20027896956E+03 -0.51760969541E+03  0.56519500677E+03  0.10100000352E+00 0. -1.
       -3    1    3    3    0  502  0.10683596329E+03 -0.20027896956E+03 -0.64817755085E+00  0.22699343390E+03  0.10100000352E+00 0.  1.
</event>
<event>
 5   0  0.2406307E-03  0.6000172E+03  0.7818609E-02  0.9905370E-01
       -2   -1    0    0    0  501  0.00000000000E+00  0.00000000000E+00  0.13300035400E+03  0.13300035402E+03  0.25500000920E-02 0.  1.
        2   -1    0    0  501    0  0.00000000000E+00  0.00000000000E+00 -0.67672867659E+03  0.67672867660E+03  0.25500000920E-02 0. -1.
    10030    2    1    2    0    0  0.00000000000E+00  0.00000000000E+00 -0.54372832260E+03  0.80972903062E+03  0.60001717829E+03 0.  0.
        5    1    3    3  502    0  0.56158082767E+02 -0.27223840649E+03 -0.42403946246E+03  0.50704934272E+03  0.46999998093E+01 0. -1.
       -5    1    3    3    0  502 -0.56158082767E+02  0.27223840649E+03 -0.11968886013E+03  0.30267968790E+03  0.46999998093E+01 0.  1.
</event>
<event>
 5   0  0.1479385E-03  0.5997855E+03  0.7818609E-02  0.9905851E-01
        1   -1    0    0  501    0  0.00000000000E+00  0.00000000000E+00  0.89344194931E+03  0.89344194933E+03  0.50400001928E-02 0.  1.
       -1   -1    0    0    0  501  0.00000000000E+00  0.00000000000E+00 -0.10066200563E+03  0.10066200576E+03  0.50400001928E-02 0. -1.
    10030    2    1    2    0    0  0.00000000000E+00  0.00000000000E+00  0.79277994368E+03  0.99410395509E+03  0.59978549034E+03 0.  0.
        3    1    3    3  502    0  0.20113421411E+03 -0.17192439107E+03  0.16244714855E+03  0.31048680262E+03  0.10100000352E+00 0. -1.
       -3    1    3    3    0  502 -0.20113421411E+03  0.17192439107E+03  0.63033279512E+03  0.68361715246E+03  0.10100000352E+00 0.  1.
</event>
<event>
 5   0  0.1423430E-03  0.6000068E+03  0.7818609E-02  0.9905392E-01
        1   -1    0    0  501    0  0.00000000000E+00  0.00000000000E+00  0.46528286147E+03  0.46528286150E+03  0.50400001928E-02 0.  1.
       -1   -1    0    0    0  501  0.00000000000E+00  0.00000000000E+00 -0.19343509614E+03  0.19343509620E+03  0.50400001928E-02 0. -1.
    10030    2    1    2    0    0  0.00000000000E+00  0.00000000000E+00  0.27184776533E+03  0.65871795770E+03  0.60000678353E+03 0.  0.
        1    1    3    3  502    0 -0.16660268850E+02  0.16239436652E+03 -0.14040441360E+03  0.21532044543E+03  0.50400001928E-02 0. -1.
       -1    1    3    3    0  502  0.16660268850E+02 -0.16239436652E+03  0.41225217893E+03  0.44339751228E+03  0.50400001928E-02 0.  1.
</event>
<event>
 5   0  0.2324616E-03  0.5999811E+03  0.7818609E-02  0.9905445E-01
        2   -1    0    0  501    0  0.00000000000E+00  0.00000000000E+00  0.11063693636E+04  0.11063693636E+04  0.25500000920E-02 0. -1.
       -2   -1    0    0    0  501  0.00000000000E+00  0.00000000000E+00 -0.81342021203E+02  0.81342021243E+02  0.25500000920E-02 0.  1.
    10030    2    1    2    0    0  0.00000000000E+00  0.00000000000E+00  0.10250273424E+04  0.11877113849E+04  0.59998106724E+03 0.  0.
        4    1    3    3  502    0 -0.54399825859E+02 -0.26945712313E+03  0.27474768548E+03  0.38865715719E+03  0.12699999809E+01 0.  1.
       -4    1    3    3    0  502  0.54399825859E+02  0.26945712313E+03  0.75027965696E+03  0.79905422770E+03  0.12699999809E+01 0. -1.
</event>
<event>
 5   0  0.2313168E-03  0.5997775E+03  0.7818609E-02  0.9905868E-01
        2   -1    0    0  501    0  0.00000000000E+00  0.00000000000E+00  0.16674865343E+04  0.16674865343E+04  0.25500000920E-02 0.  1.
       -2   -1    0    0    0  501  0.00000000000E+00  0.00000000000E+00 -0.53933424878E+02  0.53933424938E+02  0.25500000920E-02 0. -1.
    10030    2    1    2    0    0  0.00000000000E+00  0.00000000000E+00  0.16135531094E+04  0.17214199593E+04  0.59977749136E+03 0.  0.
        2    1    3    3  502    0  0.12823999940E+03 -0.25396888116E+03  0.53468328009E+03  0.60566649243E+03  0.25500000920E-02 0. -1.
       -2    1    3    3    0  502 -0.12823999940E+03  0.25396888116E+03  0.10788698293E+04  0.11157534668E+04  0.25500000920E-02 0.  1.
</event>
<event>
 5   0  0.1416315E-03  0.5998666E+03  0.7818609E-02  0.9905683E-01
       -1   -1    0    0    0  501  0.00000000000E+00  0.00000000000E+00  0.77505414676E+02  0.77505414840E+02  0.50400001928E-02 0.  1.
        1   -1    0    0  501    0  0.00000000000E+00  0.00000000000E+00 -0.11606927481E+04  0.11606927481E+04  0.50400001928E-02 0. -1.
    10030    2    1    2    0    0  0.00000000000E+00  0.00000000000E+00 -0.10831873334E+04  0.12381981629E+04  0.59986656136E+03 0.  0.
        2    1    3    3  502    0  0.14770106455E+03 -0.69440241076E+02 -0.10610083928E+04  0.10734879417E+04  0.25500000920E-02 0. -1.
       -2    1    3    3    0  502 -0.14770106455E+03  0.69440241076E+02 -0.22178940644E+02  0.16471022119E+03  0.25500000920E-02 0.  1.
</event>
<event>
 5   0  0.2313168E-03  0.6005216E+03  0.7818609E-02  0.9904324E-01
       -2   -1    0    0    0  501  0.00000000000E+00  0.00000000000E+00  0.65382260272E+02  0.65382260321E+02  0.25500000920E-02 0.  1.
        2   -1    0    0  501    0  0.00000000000E+00  0.00000000000E+00 -0.13789145375E+04  0.13789145375E+04  0.25500000920E-02 0. -1.
    10030    2    1    2    0    0  0.00000000000E+00  0.00000000000E+00 -0.13135322772E+04  0.14442967978E+04  0.60052160400E+03 0.  0.
        2    1    3    3  502    0 -0.13192197722E+03  0.14411553842E+03 -0.10841084008E+03  0.22344038744E+03  0.25500000920E-02 0.  1.
       -2    1    3    3    0  502  0.13192197722E+03 -0.14411553842E+03 -0.12051214371E+04  0.12208564103E+04  0.25500000920E-02 0. -1.
</event>
<event>
 5   0  0.1416315E-03  0.6002089E+03  0.7818609E-02  0.9904973E-01
        1   -1    0    0  501    0  0.00000000000E+00  0.00000000000E+00  0.75623487939E+03  0.75623487941E+03  0.50400001928E-02 0.  1.
       -1   -1    0    0    0  501  0.00000000000E+00  0.00000000000E+00 -0.11909354067E+03  0.11909354078E+03  0.50400001928E-02 0. -1.
    10030    2    1    2    0    0  0.00000000000E+00  0.00000000000E+00  0.63714133872E+03  0.87532842018E+03  0.60020892835E+03 0.  0.
        2    1    3    3  502    0  0.22638552133E+03 -0.17890391711E+03  0.43888133669E+03  0.52523694037E+03  0.25500000920E-02 0.  1.
       -2    1    3    3    0  502 -0.22638552133E+03  0.17890391711E+03  0.19826000203E+03  0.35009147981E+03  0.25500000920E-02 0. -1.
</event>
<event>
 5   0  0.1418763E-03  0.6002751E+03  0.7818609E-02  0.9904835E-01
       -1   -1    0    0    0  501  0.00000000000E+00  0.00000000000E+00  0.22158953737E+03  0.22158953743E+03  0.50400001928E-02 0. -1.
        1   -1    0    0  501    0  0.00000000000E+00  0.00000000000E+00 -0.40652892561E+03  0.40652892565E+03  0.50400001928E-02 0.  1.
    10030    2    1    2    0    0  0.00000000000E+00  0.00000000000E+00 -0.18493938824E+03  0.62811846307E+03  0.60027512553E+03 0.  0.
        5    1    3    3  502    0 -0.27116027532E+03 -0.45869451288E+02 -0.21816028965E+03  0.35106680767E+03  0.46999998093E+01 0.  1.
       -5    1    3    3    0  502  0.27116027532E+03  0.45869451288E+02  0.33220901405E+02  0.27705165540E+03  0.46999998093E+01 0. -1.
</event>
<event>
 5   0  0.1423430E-03  0.5999710E+03  0.7818609E-02  0.9905466E-01
        1   -1    0    0  501    0  0.00000000000E+00  0.00000000000E+00  0.78214485075E+03  0.78214485077E+03  0.50400001928E-02 0. -1.
       -1   -1    0    0    0  501  0.00000000000E+00  0.00000000000E+00 -0.11505706108E+03  0.11505706119E+03  0.50400001928E-02 0.  1.
    10030    2    1    2    0    0  0.00000000000E+00  0.00000000000E+00  0.66708778967E+03  0.89720191197E+03  0.59997095905E+03 0.  0.
        1    1    3    3  502    0  0.16693908212E+03  0.19862496325E+03  0.55870478156E+03  0.61601263472E+03  0.50400001928E-02 0. -1.
       -1    1    3    3    0  502 -0.16693908212E+03 -0.19862496325E+03  0.10838300811E+03  0.28118927725E+03  0.50400001928E-02 0.  1.
</event>
<event>
 5   0  0.2313168E-03  0.6000410E+03  0.7818609E-02  0.9905321E-01
       -2   -1    0    0    0  501  0.00000000000E+00  0.00000000000E+00  0.92410444320E+03  0.92410444320E+03  0.25500000920E-02 0. -1.
        2   -1    0    0  501    0  0.00000000000E+00  0.00000000000E+00 -0.97404901360E+02  0.97404901393E+02  0.25500000920E-02 0.  1.
    10030    2    1    2    0    0  0.00000000000E+00  0.00000000000E+00  0.82669954184E+03  0.10215093446E+04  0.60004100578E+03 0.  0.
        2    1    3    3  502    0  0.35616333561E+01 -0.29918953467E+03  0.45085047131E+03  0.54110369651E+03  0.25500000920E-02 0.  1.
       -2    1    3    3    0  502 -0.35616333561E+01  0.29918953467E+03  0.37584907053E+03  0.48040564809E+03  0.25500000920E-02 0. -1.
</event>
<event>
 5   0  0.2324616E-03  0.6000518E+03  0.7818609E-02  0.9905299E-01
       -2   -1    0    0    0  501  0.00000000000E+00  0.00000000000E+00  0.23172676197E+03  0.23172676199E+03  0.25500000920E-02 0.  1.
        2   -1    0    0  501    0  0.00000000000E+00  0.00000000000E+00 -0.38845551806E+03  0.38845551807E+03  0.25500000920E-02 0. -1.
    10030    2    1    2    0    0  0.00000000000E+00  0.00000000000E+00 -0.15672875609E+03  0.62018228006E+03  0.60005179569E+03 0.  0.
        4    1    3    3  502    0 -0.63244200302E+02 -0.19939078823E+03 -0.30065506880E+03  0.36626711373E+03  0.12699999809E+01 0. -1.
       -4    1    3    3    0  502  0.63244200302E+02  0.19939078823E+03  0.14392631271E+03  0.25391516633E+03  0.12699999809E+01 0.  1.
</event>
<event>
 5   0  0.2421210E-03  0.5982474E+03  0.7818609E-02  0.9909049E-01
        2   -1    0    0  501    0  0.00000000000E+00  0.00000000000E+00  0.14584133455E+04  0.14584133455E+04  0.25500000920E-02 0. -1.
       -2   -1    0    0    0  501  0.00000000000E+00  0.00000000000E+00 -0.61350918901E+02  0.61350918954E+02  0.25500000920E-02 0.  1.
    10030    2    1    2    0    0  0.00000000000E+00  0.00000000000E+00  0.13970624266E+04  0.15197642644E+04  0.59824743685E+03 0.  0.
        1    1    3    3  502    0 -0.24469157372E+03  0.87022148307E+02  0.32149360327E+03  0.41328556412E+03  0.50400001928E-02 0.  1.
       -1    1    3    3    0  502  0.24469157372E+03 -0.87022148307E+02  0.10755688233E+04  0.11064787003E+04  0.50400001928E-02 0. -1.
</event>
<event>
 5   0  0.2421210E-03  0.5996764E+03  0.7818609E-02  0.9906078E-01
       -2   -1    0    0    0  501  0.00000000000E+00  0.00000000000E+00  0.31804767580E+03  0.31804767581E+03  0.25500000920E-02 0.  1.
        2   -1    0    0  501    0  0.00000000000E+00  0.00000000000E+00 -0.28267129007E+03  0.28267129008E+03  0.25500000920E-02 0. -1.
    10030    2    1    2    0    0  0.00000000000E+00  0.00000000000E+00  0.35376385733E+02  0.60071896589E+03  0.59967640216E+03 0.  0.
        1    1    3    3  502    0 -0.22767639674E+03  0.99356969334E+02  0.18589258675E+03  0.31026505253E+03  0.50400001928E-02 0.  1.
       -1    1    3    3    0  502  0.22767639674E+03 -0.99356969334E+02 -0.15051620102E+03  0.29045391336E+03  0.50400001928E-02 0. -1.
</event>
<event>
 5   0  0.9496750E-04  0.6006384E+03  0.7818609E-02  0.9904083E-01
       -4   -1    0    0    0  501  0.00000000000E+00  0.00000000000E+00  0.52292376485E+03  0.52292530704E+03  0.12699999809E+01 0. -1.
        4   -1    0    0  501    0  0.00000000000E+00  0.00000000000E+00 -0.17247150322E+03  0.17247617900E+03  0.12699999809E+01 0.  1.
    10030    2    1    2    0    0  0.00000000000E+00  0.00000000000E+00  0.35045226163E+03  0.69540148604E+03  0.60063835967E+03 0.  0.
        5    1    3    3  502    0  0.76663026449E+02 -0.21079117401E+03 -0.55920637089E+02  0.23121277282E+03  0.46999998093E+01 0.  1.
       -5    1    3    3    0  502 -0.76663026449E+02  0.21079117401E+03  0.40637289872E+03  0.46418871321E+03  0.46999998093E+01 0. -1.
</event>
<event>
 5   0  0.9496750E-04  0.6000001E+03  0.7818609E-02  0.9905406E-01
       -4   -1    0    0    0  501  0.00000000000E+00  0.00000000000E+00  0.11611878147E+03  0.11612572630E+03  0.12699999809E+01 0.  1.
        4   -1    0    0  501    0  0.00000000000E+00  0.00000000000E+00 -0.77503804579E+03  0.77503908632E+03  0.12699999809E+01 0. -1.
    10030    2    1    2    0    0  0.00000000000E+00  0.00000000000E+00 -0.65891926432E+03  0.89116481262E+03  0.60000010530E+03 0.  0.
        2    1    3    3  502    0 -0.19743700620E+03  0.21872350049E+03 -0.24572004306E+03  0.38366610568E+03  0.25500000920E-02 0. -1.
       -2    1    3    3    0  502  0.19743700620E+03 -0.21872350049E+03 -0.41319922126E+03  0.50749870694E+03  0.25500000920E-02 0.  1.
</event>
<event>
 5   0  0.2421210E-03  0.5999595E+03  0.7818609E-02  0.9905490E-01
        2   -1    0    0  501    0  0.00000000000E+00  0.00000000000E+00  0.53435223229E+03  0.53435223230E+03  0.25500000920E-02 0.  1.
       -2   -1    0    0    0  501  0.00000000000E+00  0.00000000000E+00 -0.16840547681E+03  0.16840547683E+03  0.25500000920E-02 0. -1.
    10030    2    1    2    0    0  0.00000000000E+00  0.00000000000E+00  0.36594675547E+03  0.70275770913E+03  0.59995947355E+03 0.  0.
        1    1    3    3  502    0 -0.51622116959E+02 -0.23258911729E+03 -0.30536598247E+02  0.24019788571E+03  0.50400001928E-02 0. -1.
       -1    1    3    3    0  502  0.51622116959E+02  0.23258911729E+03  0.39648335372E+03  0.46255982342E+03  0.50400001928E-02 0.  1.
</event>
<event>
 5   0  0.2406307E-03  0.6000481E+03  0.7818609E-02  0.9905306E-01
        2   -1    0    0  501    0  0.00000000000E+00  0.00000000000E+00  0.12492001976E+04  0.12492001976E+04  0.25500000920E-02 0. -1.
       -2   -1    0    0    0  501  0.00000000000E+00  0.00000000000E+00 -0.72057658480E+02  0.72057658525E+02  0.25500000920E-02 0.  1.
    10030    2    1    2    0    0  0.00000000000E+00  0.00000000000E+00  0.11771425391E+04  0.13212578561E+04  0.60004813554E+03 0.  0.
        5    1    3    3  502    0  0.90451705426E+02  0.24263182687E+03  0.92207771118E+03  0.95775837761E+03  0.46999998093E+01 0. -1.
       -5    1    3    3    0  502 -0.90451705426E+02 -0.24263182687E+03  0.25506482791E+03  0.36349947849E+03  0.46999998093E+01 0.  1.
</event>
<event>
 5   0  0.2324616E-03  0.5998520E+03  0.7818609E-02  0.9905713E-01
       -2   -1    0    0    0  501  0.00000000000E+00  0.00000000000E+00  0.97375262608E+02  0.97375262641E+02  0.25500000920E-02 0. -1.
        2   -1    0    0  501    0  0.00000000000E+00  0.00000000000E+00 -0.92380360188E+03  0.92380360188E+03  0.25500000920E-02 0.  1.
    10030    2    1    2    0    0  0.00000000000E+00  0.00000000000E+00 -0.82642833927E+03  0.10211788645E+04  0.59985204292E+03 0.  0.
        4    1    3    3  502    0  0.14878894263E+03  0.17191572591E+03 -0.80221310072E+02  0.24110213138E+03  0.12699999809E+01 0. -1.
       -4    1    3    3    0  502 -0.14878894263E+03 -0.17191572591E+03 -0.74620702920E+03  0.78007673314E+03  0.12699999809E+01 0.  1.
</event>
<event>
 5   0  0.1423430E-03  0.5999407E+03  0.7818609E-02  0.9905529E-01
       -1   -1    0    0    0  501  0.00000000000E+00  0.00000000000E+00  0.16268743237E+03  0.16268743245E+03  0.50400001928E-02 0.  1.
        1   -1    0    0  501    0  0.00000000000E+00  0.00000000000E+00 -0.55309880644E+03  0.55309880647E+03  0.50400001928E-02 0. -1.
    10030    2    1    2    0    0  0.00000000000E+00  0.00000000000E+00 -0.39041137407E+03  0.71578623891E+03  0.59994074608E+03 0.  0.
        1    1    3    3  502    0 -0.18318841268E+03 -0.22930843217E+03 -0.12125427137E+03  0.31755778994E+03  0.50400001928E-02 0.  1.
       -1    1    3    3    0  502  0.18318841268E+03  0.22930843217E+03 -0.26915710271E+03  0.39822844897E+03  0.50400001928E-02 0. -1.
</event>
<event>
 5   0  0.2346281E-03  0.6000075E+03  0.7818609E-02  0.9905391E-01
        2   -1    0    0  501    0  0.00000000000E+00  0.00000000000E+00  0.12388969799E+04  0.12388969799E+04  0.25500000920E-02 0.  1.
       -2   -1    0    0    0  501  0.00000000000E+00  0.00000000000E+00 -0.72647072504E+02  0.72647072549E+02  0.25500000920E-02 0. -1.
    10030    2    1    2    0    0  0.00000000000E+00  0.00000000000E+00  0.11662499073E+04  0.13115440524E+04  0.60000746246E+03 0.  0.
        3    1    3    3  502    0  0.15712446870E+03  0.16946152906E+03  0.10012907424E+04  0.10276129960E+04  0.10100000352E+00 0.  1.
       -3    1    3    3    0  502 -0.15712446870E+03 -0.16946152906E+03  0.16495916493E+03  0.28393105641E+03  0.10100000352E+00 0. -1.
</event>
<event>
 5   0  0.2421210E-03  0.6002728E+03  0.7818609E-02  0.9904840E-01
        2   -1    0    0  501    0  0.00000000000E+00  0.00000000000E+00  0.47611200336E+03  0.47611200337E+03  0.25500000920E-02 0.  1.
       -2   -1    0    0    0  501  0.00000000000E+00  0.00000000000E+00 -0.18920309706E+03  0.18920309707E+03  0.25500000920E-02 0. -1.
    10030    2    1    2    0    0  0.00000000000E+00  0.00000000000E+00  0.28690890631E+03  0.66531510044E+03  0.60027282327E+03 0.  0.
        1    1    3    3  502    0 -0.19832920259E+03 -0.13115041060E+03  0.34645878363E+03  0.42020065633E+03  0.50400001928E-02 0.  1.
       -1    1    3    3    0  502  0.19832920259E+03  0.13115041060E+03 -0.59549877320E+02  0.24511444412E+03  0.50400001928E-02 0. -1.
</event>
<event>
 5   0  0.1392854E-03  0.5998661E+03  0.7818609E-02  0.9905684E-01
        1   -1    0    0  501    0  0.00000000000E+00  0.00000000000E+00  0.12598837665E+03  0.12598837675E+03  0.50400001928E-02 0. -1.
       -1   -1    0    0    0  501  0.00000000000E+00  0.00000000000E+00 -0.71403291997E+03  0.71403291998E+03  0.50400001928E-02 0.  1.
    10030    2    1    2    0    0  0.00000000000E+00  0.00000000000E+00 -0.58804454332E+03  0.84002129673E+03  0.59986614676E+03 0.  0.
        4    1    3    3  502    0 -0.23877219826E+03  0.16692996133E+03 -0.19420918123E+03  0.35013796370E+03  0.12699999809E+01 0.  1.
       -4    1    3    3    0  502  0.23877219826E+03 -0.16692996133E+03 -0.39383536209E+03  0.48988333303E+03  0.12699999809E+01 0. -1.
</event>
<event>
 5   0  0.2346281E-03  0.6003895E+03  0.7818609E-02  0.9904598E-01
        2   -1    0    0  501    0  0.00000000000E+00  0.00000000000E+00  0.30070695032E+03  0.30070695033E+03  0.25500000920E-02 0. -1.
       -2   -1    0    0    0  501  0.00000000000E+00  0.00000000000E+00 -0.29968344799E+03  0.29968344800E+03  0.25500000920E-02 0.  1.
    10030    2    1    2    0    0  0.00000000000E+00  0.00000000000E+00  0.10235023332E+01  0.60039039833E+03  0.60038952594E+03 0.  0.
        3    1    3    3  502    0 -0.22106270981E+03 -0.24505606882E+02  0.20212464064E+03  0.30053889431E+03  0.10100000352E+00 0. -1.
       -3    1    3    3    0  502  0.22106270981E+03  0.24505606882E+02 -0.20110113831E+03  0.29985150403E+03  0.10100000352E+00 0.  1.
</event>
<event>
 5   0  0.2421210E-03  0.6001182E+03  0.7818609E-02  0.9905161E-01
       -2   -1    0    0    0  501  0.00000000000E+00  0.00000000000E+00  0.14186350336E+03  0.14186350338E+03  0.25500000920E-02 0. -1.
        2   -1    0    0  501    0  0.00000000000E+00  0.00000000000E+00 -0.63466254949E+03  0.63466254949E+03  0.25500000920E-02 0.  1.
    10030    2    1    2    0    0  0.00000000000E+00  0.00000000000E+00 -0.49279904613E+03  0.77652605288E+03  0.60011816414E+03 0.  0.
        1    1    3    3  502    0  0.15520277365E+03 -0.23661663502E+03 -0.37553677490E+03  0.47021612291E+03  0.50400001928E-02 0.  1.
       -1    1    3    3    0  502 -0.15520277365E+03  0.23661663502E+03 -0.11726227123E+03  0.30630992996E+03  0.50400001928E-02 0. -1.
</event>
<event>
 5   0  0.1416315E-03  0.6001084E+03  0.7818609E-02  0.9905181E-01
       -1   -1    0    0    0  501  0.00000000000E+00  0.00000000000E+00  0.18197267769E+03  0.18197267776E+03  0.50400001928E-02 0.  1.
        1   -1    0    0  501    0  0.00000000000E+00  0.00000000000E+00 -0.49475848329E+03  0.49475848331E+03  0.50400001928E-02 0. -1.
    10030    2    1    2    0    0  0.00000000000E+00  0.00000000000E+00 -0.31278580559E+03  0.67673116108E+03  0.60010841036E+03 0.  0.
        2    1    3    3  502    0 -0.19893549916E+03  0.16942692127E+01 -0.40969317207E+03  0.45544121314E+03  0.25500000920E-02 0. -1.
       -2    1    3    3    0  502  0.19893549916E+03 -0.16942692127E+01  0.96907366478E+02  0.22128994794E+03  0.25500000920E-02 0.  1.
</event>
<event>
 5   0  0.2406307E-03  0.5996417E+03  0.7818609E-02  0.9906150E-01
       -2   -1    0    0    0  501  0.00000000000E+00  0.00000000000E+00  0.30469267241E+03  0.30469267242E+03  0.25500000920E-02 0.  1.
        2   -1    0    0  501    0  0.00000000000E+00  0.00000000000E+00 -0.29502692533E+03  0.29502692534E+03  0.25500000920E-02 0. -1.
    10030    2    1    2    0    0  0.00000000000E+00  0.00000000000E+00  0.96657470756E+01  0.59971959776E+03  0.59964170074E+03 0.  0.
        5    1    3    3  502    0 -0.17044025932E+03 -0.22003096783E+03 -0.10656805643E+03  0.29806433777E+03  0.46999998093E+01 0. -1.
       -5    1    3    3    0  502  0.17044025932E+03  0.22003096783E+03  0.11623380351E+03  0.30165525999E+03  0.46999998093E+01 0.  1.
</event>
<event>
 5   0  0.1423430E-03  0.6001838E+03  0.7818609E-02  0.9905025E-01
       -1   -1    0    0    0  501  0.00000000000E+00  0.00000000000E+00  0.53357591553E+02  0.53357591791E+02  0.50400001928E-02 0.  1.
        1   -1    0    0  501    0  0.00000000000E+00  0.00000000000E+00 -0.16877661845E+04  0.16877661846E+04  0.50400001928E-02 0. -1.
    10030    2    1    2    0    0  0.00000000000E+00  0.00000000000E+00 -0.16344085930E+04  0.17411237763E+04  0.60018376827E+03 0.  0.
        1    1    3    3  502    0  0.30983011124E+02 -0.15721665186E+03 -0.81142067005E+02  0.17961363440E+03  0.50400001928E-02 0.  1.
       -1    1    3    3    0  502 -0.30983011124E+02  0.15721665186E+03 -0.15532665260E+04  0.15615101419E+04  0.50400001928E-02 0. -1.
</event>
<event>
 5   0  0.2421210E-03  0.5998908E+03  0.7818609E-02  0.9905633E-01
        2   -1    0    0  501    0  0.00000000000E+00  0.00000000000E+00  0.87287245851E+03  0.87287245852E+03  0.25500000920E-02 0.  1.
       -2   -1    0    0    0  501  0.00000000000E+00  0.00000000000E+00 -0.10307032319E+03  0.10307032322E+03  0.25500000920E-02 0. -1.
    10030    2    1    2    0    0  0.00000000000E+00  0.00000000000E+00  0.76980213533E+03  0.97594278173E+03  0.59989081145E+03 0.  0.
        1    1    3    3  502    0  0.21236476625E+03  0.20192605525E+03  0.48899923235E+03  0.57008172659E+03  0.50400001928E-02 0.  1.
       -1    1    3    3    0  502 -0.21236476625E+03 -0.20192605525E+03  0.28080290298E+03  0.40586105514E+03  0.50400001928E-02 0. -1.
</event>
<event>
 5   0  0.2313168E-03  0.5999686E+03  0.7818609E-02  0.9905471E-01
        2   -1    0    0  501    0  0.00000000000E+00  0.00000000000E+00  0.35226302735E+03  0.35226302736E+03  0.25500000920E-02 0. -1.
       -2   -1    0    0    0  501  0.00000000000E+00  0.00000000000E+00 -0.25546414295E+03  0.25546414296E+03  0.25500000920E-02 0.  1.
    10030    2    1    2    0    0  0.00000000000E+00  0.00000000000E+00  0.96798884405E+02  0.60772717032E+03  0.59996857378E+03 0.  0.
        2    1    3    3  502    0  0.47770372766E+02  0.27617944288E+03  0.15670964110E+03  0.32111525159E+03  0.25500000920E-02 0. -1.
       -2    1    3    3    0  502 -0.47770372766E+02 -0.27617944288E+03 -0.59910756691E+02  0.28661191873E+03  0.25500000920E-02 0.  1.
</event>
<event>
 5   0  0.1418763E-03  0.6000399E+03  0.7818609E-02  0.9905323E-01
        1   -1    0    0  501    0  0.00000000000E+00  0.00000000000E+00  0.13956666371E+04  0.13956666371E+04  0.50400001928E-02 0.  1.
       -1   -1    0    0    0  501  0.00000000000E+00  0.00000000000E+00 -0.64493890825E+02  0.64493891022E+02  0.50400001928E-02 0. -1.
    10030    2    1    2    0    0  0.00000000000E+00  0.00000000000E+00  0.13311727463E+04  0.14601605281E+04  0.60003990491E+03 0.  0.
        5    1    3    3  502    0 -0.16981924813E+03 -0.18175430950E+03  0.10736261086E+04  0.11020745516E+04  0.46999998093E+01 0.  1.
       -5    1    3    3    0  502  0.16981924813E+03  0.18175430950E+03  0.25754663762E+03  0.35808597656E+03  0.46999998093E+01 0. -1.
</event>
<event>
 5   0  0.1479385E-03  0.5999462E+03  0.7818609E-02  0.9905518E-01
       -1   -1    0    0    0  501  0.00000000000E+00  0.00000000000E+00  0.97394165735E+02  0.97394165866E+02  0.50400001928E-02 0.  1.
        1   -1    0    0  501    0  0.00000000000E+00  0.00000000000E+00 -0.92391443098E+03  0.92391443100E+03  0.50400001928E-02 0. -1.
    10030    2    1    2    0    0  0.00000000000E+00  0.00000000000E+00 -0.82652026525E+03  0.10213085969E+04  0.59994624856E+03 0.  0.
        3    1    3    3  502    0 -0.82573887453E+00 -0.11032957972E+03  0.61598060643E+02  0.12636308512E+03  0.10100000352E+00 0.  1.
       -3    1    3    3    0  502  0.82573887453E+00  0.11032957972E+03 -0.88811832589E+03  0.89494551174E+03  0.10100000352E+00 0. -1.
</event>
<event>
 5   0  0.2346281E-03  0.6002012E+03  0.7818609E-02  0.9904989E-01
        2   -1    0    0  501    0  0.00000000000E+00  0.00000000000E+00  0.60729512048E+03  0.60729512049E+03  0.25500000920E-02 0. -1.
       -2   -1    0    0    0  501  0.00000000000E+00  0.00000000000E+00 -0.14829751789E+03  0.14829751792E+03  0.25500000920E-02 0.  1.
    10030    2    1    2    0    0  0.00000000000E+00  0.00000000000E+00  0.45899760259E+03  0.75559263840E+03  0.60020116297E+03 0.  0.
        3    1    3    3  502    0  0.63989376986E+02  0.21403243756E+03  0.48176853983E+03  0.53104186357E+03  0.10100000352E+00 0.  1.
       -3    1    3    3    0  502 -0.63989376986E+02 -0.21403243756E+03 -0.22770937242E+02  0.22455077483E+03  0.10100000352E+00 0. -1.
</event>
<event>
 5   0  0.2406307E-03  0.5995872E+03  0.7818609E-02  0.9906263E-01
       -2   -1    0    0    0  501  0.00000000000E+00  0.00000000000E+00  0.74134653838E+02  0.74134653882E+02  0.25500000920E-02 0.  1.
        2   -1    0    0  501    0  0.00000000000E+00  0.00000000000E+00 -0.12123371536E+04  0.12123371536E+04  0.25500000920E-02 0. -1.
    10030    2    1    2    0    0  0.00000000000E+00  0.00000000000E+00 -0.11382024997E+04  0.12864718075E+04  0.59958717546E+03 0.  0.
        5    1    3    3  502    0 -0.15277018950E+03  0.11581301208E+03 -0.74669530567E+02  0.20578875907E+03  0.46999998093E+01 0.  1.
       -5    1    3    3    0  502  0.15277018950E+03 -0.11581301208E+03 -0.10635329692E+04  0.10806830484E+04  0.46999998093E+01 0. -1.
</event>
<event>
 5   0  0.1418763E-03  0.6000156E+03  0.7818609E-02  0.9905374E-01
       -1   -1    0    0    0  501  0.00000000000E+00  0.00000000000E+00  0.10494581147E+03  0.10494581159E+03  0.50400001928E-02 0.  1.
        1   -1    0    0  501    0  0.00000000000E+00  0.00000000000E+00 -0.85762994715E+03  0.85762994717E+03  0.50400001928E-02 0. -1.
    10030    2    1    2    0    0  0.00000000000E+00  0.00000000000E+00 -0.75268413569E+03  0.96257575876E+03  0.60001556916E+03 0.  0.
        5    1    3    3  502    0 -0.26464032423E+03  0.11565121493E+03 -0.24628015909E+03  0.37958623721E+03  0.46999998093E+01 0.  1.
       -5    1    3    3    0  502  0.26464032423E+03 -0.11565121493E+03 -0.50640397660E+03  0.58298952154E+03  0.46999998093E+01 0. -1.
</event>
<event>
 5   0  0.2421210E-03  0.6000987E+03  0.7818609E-02  0.9905201E-01
       -2   -1    0    0    0  501  0.00000000000E+00  0.00000000000E+00  0.87028185875E+02  0.87028185912E+02  0.25500000920E-02 0.  1.
        2   -1    0    0  501    0  0.00000000000E+00  0.00000000000E+00 -0.10344880146E+04  0.10344880146E+04  0.25500000920E-02 0. -1.
    10030    2    1    2    0    0  0.00000000000E+00  0.00000000000E+00 -0.94745982870E+03  0.11215162005E+04  0.60009870935E+03 0.  0.
        1    1    3    3  502    0  0.31463330706E+02  0.45217678226E+02  0.77496593112E+02  0.95080500486E+02  0.50400001928E-02 0.  1.
       -1    1    3    3    0  502 -0.31463330706E+02 -0.45217678226E+02 -0.10249564218E+04  0.10264357000E+04  0.50400001928E-02 0. -1.
</event>
<event>
 5   0  0.1392854E-03  0.5981004E+03  0.7818609E-02  0.9909355E-01
       -1   -1    0    0    0  501  0.00000000000E+00  0.00000000000E+00  0.19373708843E+03  0.19373708849E+03  0.50400001928E-02 0. -1.
        1   -1    0    0  501    0  0.00000000000E+00  0.00000000000E+00 -0.46161019130E+03  0.46161019133E+03  0.50400001928E-02 0.  1.
    10030    2    1    2    0    0  0.00000000000E+00  0.00000000000E+00 -0.26787310288E+03  0.65534727982E+03  0.59810037446E+03 0.  0.
        4    1    3    3  502    0 -0.27622568888E+03  0.99676361356E+02 -0.19585550906E+03  0.35298300460E+03  0.12699999809E+01 0.  1.
       -4    1    3    3    0  502  0.27622568888E+03 -0.99676361356E+02 -0.72017593822E+02  0.30236427522E+03  0.12699999809E+01 0. -1.
</event>
<event>
 5   0  0.2346281E-03  0.6000789E+03  0.7818609E-02  0.9905242E-01
        2   -1    0    0  501    0  0.00000000000E+00  0.00000000000E+00  0.16251175392E+04  0.16251175392E+04  0.25500000920E-02 0. -1.
       -2   -1    0    0    0  501  0.00000000000E+00  0.00000000000E+00 -0.55395180137E+02  0.55395180196E+02  0.25500000920E-02 0.  1.
    10030    2    1    2    0    0  0.00000000000E+00  0.00000000000E+00  0.15697223591E+04  0.16805127194E+04  0.60007892440E+03 0.  0.
        3    1    3    3  502    0 -0.29368234615E+02 -0.28598097984E+03  0.54434433770E+03  0.61559595695E+03  0.10100000352E+00 0. -1.
       -3    1    3    3    0  502  0.29368234615E+02  0.28598097984E+03  0.10253780214E+04  0.10649167624E+04  0.10100000352E+00 0.  1.
</event>
<event>
 5   0  0.9496750E-04  0.5998251E+03  0.7818609E-02  0.9905769E-01
        3   -1    0    0  501    0  0.00000000000E+00  0.00000000000E+00  0.43482592335E+03  0.43482593508E+03  0.10100000352E+00 0.  1.
       -3   -1    0    0    0  501  0.00000000000E+00  0.00000000000E+00 -0.20685868845E+03  0.20685871310E+03  0.10100000352E+00 0. -1.
    10030    2    1    2    0    0  0.00000000000E+00  0.00000000000E+00  0.22796723491E+03  0.64168464819E+03  0.59982508078E+03 0.  0.
        3    1    3    3  502    0  0.20763621770E+03  0.12728541305E+03  0.30122111642E+03  0.38736100275E+03  0.10100000352E+00 0.  1.
       -3    1    3    3    0  502 -0.20763621770E+03 -0.12728541305E+03 -0.73253881508E+02  0.25432364544E+03  0.10100000352E+00 0. -1.
</event>
<event>
 5   0  0.2324616E-03  0.6004209E+03  0.7818609E-02  0.9904533E-01
       -2   -1    0    0    0  501  0.00000000000E+00  0.00000000000E+00  0.10890421474E+03  0.10890421477E+03  0.25500000920E-02 0.  1.
        2   -1    0    0  501    0  0.00000000000E+00  0.00000000000E+00 -0.82757421341E+03  0.82757421341E+03  0.25500000920E-02 0. -1.
    10030    2    1    2    0    0  0.00000000000E+00  0.00000000000E+00 -0.71866999866E+03  0.93647842819E+03  0.60042091859E+03 0.  0.
        4    1    3    3  502    0  0.11596318029E+03 -0.60689218877E+02  0.62056473091E+02  0.14485599478E+03  0.12699999809E+01 0.  1.
       -4    1    3    3    0  502 -0.11596318029E+03  0.60689218877E+02 -0.78072647176E+03  0.79162243341E+03  0.12699999809E+01 0. -1.
</event>
<event>
 5   0  0.2313168E-03  0.6000832E+03  0.7818609E-02  0.9905234E-01
        2   -1    0    0  501    0  0.00000000000E+00  0.00000000000E+00  0.43503967572E+03  0.43503967572E+03  0.25500000920E-02 0.  1.
       -2   -1    0    0    0  501  0.00000000000E+00  0.00000000000E+00 -0.20693503952E+03  0.20693503954E+03  0.25500000920E-02 0. -1.
    10030    2    1    2    0    0  0.00000000000E+00  0.00000000000E+00  0.22810463619E+03  0.64197471526E+03  0.60008316922E+03 0.  0.
        2    1    3    3  502    0 -0.14838388026E+02 -0.34269803429E+02 -0.20443909108E+03  0.20782189287E+03  0.25500000920E-02 0. -1.
       -2    1    3    3    0  502  0.14838388026E+02  0.34269803429E+02  0.43254372727E+03  0.43415282240E+03  0.25500000920E-02 0.  1.
</event>
<event>
 5   0  0.2313168E-03  0.6000308E+03  0.7818609E-02  0.9905342E-01
       -2   -1    0    0    0  501  0.00000000000E+00  0.00000000000E+00  0.10358367207E+03  0.10358367211E+03  0.25500000920E-02 0. -1.
        2   -1    0    0  501    0  0.00000000000E+00  0.00000000000E+00 -0.86895187260E+03  0.86895187260E+03  0.25500000920E-02 0.  1.
    10030    2    1    2    0    0  0.00000000000E+00  0.00000000000E+00 -0.76536820052E+03  0.97253554471E+03  0.60003075200E+03 0.  0.
        2    1    3    3  502    0 -0.22418479870E+03 -0.12279664759E+03 -0.63726671419E+03  0.68661976789E+03  0.25500000920E-02 0.  1.
       -2    1    3    3    0  502  0.22418479870E+03  0.12279664759E+03 -0.12810148633E+03  0.28591577682E+03  0.25500000920E-02 0. -1.
</event>
<event>
 5   0  0.2421210E-03  0.5998958E+03  0.7818609E-02  0.9905622E-01
       -2   -1    0    0    0  501  0.00000000000E+00  0.00000000000E+00  0.37404784948E+02  0.37404785035E+02  0.25500000920E-02 0. -1.
        2   -1    0    0  501    0  0.00000000000E+00  0.00000000000E+00 -0.24052739073E+04  0.24052739073E+04  0.25500000920E-02 0.  1.
    10030    2    1    2    0    0  0.00000000000E+00  0.00000000000E+00 -0.23678691223E+04  0.24426786923E+04  0.59989583546E+03 0.  0.
        1    1    3    3  502    0  0.79156002649E+02 -0.15420355027E+03 -0.18717101334E+03  0.25510271643E+03  0.50400001928E-02 0. -1.
       -1    1    3    3    0  502 -0.79156002649E+02  0.15420355027E+03 -0.21806981090E+04  0.21875759759E+04  0.50400001928E-02 0.  1.
</event>
<event>
 5   0  0.1418763E-03  0.6001049E+03  0.7818609E-02  0.9905188E-01
        1   -1    0    0  501    0  0.00000000000E+00  0.00000000000E+00  0.29982851108E+03  0.29982851112E+03  0.50400001928E-02 0. -1.
       -1   -1    0    0    0  501  0.00000000000E+00  0.00000000000E+00 -0.30027654061E+03  0.30027654065E+03  0.50400001928E-02 0.  1.
    10030    2    1    2    0    0  0.00000000000E+00  0.00000000000E+00 -0.44802952768E+00  0.60010505177E+03  0.60010488452E+03 0.  0.
        5    1    3    3  502    0  0.71971045034E+02  0.28729163932E+02  0.28961081535E+03  0.29983613950E+03  0.46999998093E+01 0. -1.
       -5    1    3    3    0  502 -0.71971045034E+02 -0.28729163932E+02 -0.29005884488E+03  0.30026891227E+03  0.46999998093E+01 0.  1.
</event>
<event>
 5   0  0.1423430E-03  0.6001260E+03  0.7818609E-02  0.9905145E-01
        1   -1    0    0  501    0  0.00000000000E+00  0.00000000000E+00  0.15998017606E+03  0.15998017614E+03  0.50400001928E-02 0.  1.
       -1   -1    0    0    0  501  0.00000000000E+00  0.00000000000E+00 -0.56280604937E+03  0.56280604939E+03  0.50400001928E-02 0. -1.
    10030    2    1    2    0    0  0.00000000000E+00  0.00000000000E+00 -0.40282587330E+03  0.72278622553E+03  0.60012602312E+03 0.  0.
        1    1    3    3  502    0 -0.12951605807E+03 -0.19596120621E+03  0.23465254687E+02  0.23606317341E+03  0.50400001928E-02 0.  1.
       -1    1    3    3    0  502  0.12951605807E+03  0.19596120621E+03 -0.42629112799E+03  0.48672305212E+03  0.50400001928E-02 0. -1.
</event>
<event>
 5   0  0.2421210E-03  0.5999252E+03  0.7818609E-02  0.9905561E-01
        2   -1    0    0  501    0  0.00000000000E+00  0.00000000000E+00  0.51971067846E+03  0.51971067846E+03  0.25500000920E-02 0. -1.
       -2   -1    0    0    0  501  0.00000000000E+00  0.00000000000E+00 -0.17313007698E+03  0.17313007700E+03  0.25500000920E-02 0.  1.
    10030    2    1    2    0    0  0.00000000000E+00  0.00000000000E+00  0.34658060148E+03  0.69284075546E+03  0.59992516126E+03 0.  0.
        1    1    3    3  502    0 -0.22836767562E+03  0.12489382520E+03  0.34546906137E+03  0.43254957546E+03  0.50400001928E-02 0. -1.
       -1    1    3    3    0  502  0.22836767562E+03 -0.12489382520E+03  0.11115401093E+01  0.26029118001E+03  0.50400001928E-02 0.  1.
</event>
<event>
 5   0  0.1416315E-03  0.5998341E+03  0.7818609E-02  0.9905750E-01
        1   -1    0    0  501    0  0.00000000000E+00  0.00000000000E+00  0.33652996122E+03  0.33652996125E+03  0.50400001928E-02 0. -1.
       -1   -1    0    0    0  501  0.00000000000E+00  0.00000000000E+00 -0.26728749239E+03  0.26728749244E+03  0.50400001928E-02 0.  1.
    10030    2    1    2    0    0  0.00000000000E+00  0.00000000000E+00  0.69242468826E+02  0.60381745369E+03  0.59983414199E+03 0.  0.
        2    1    3    3  502    0  0.61711818793E+02 -0.19656939988E+02 -0.26016383731E+03  0.26810439407E+03  0.25500000920E-02 0.  1.
       -2    1    3    3    0  502 -0.61711818793E+02  0.19656939988E+02  0.32940630614E+03  0.33571305962E+03  0.25500000920E-02 0. -1.
</event>
<event>
 5   0  0.1479385E-03  0.6005740E+03  0.7818609E-02  0.9904216E-01
        1   -1    0    0  501    0  0.00000000000E+00  0.00000000000E+00  0.68052742965E+03  0.68052742966E+03  0.50400001928E-02 0.  1.
       -1   -1    0    0    0  501  0.00000000000E+00  0.00000000000E+00 -0.13250352594E+03  0.13250352604E+03  0.50400001928E-02 0. -1.
    10030    2    1    2    0    0  0.00000000000E+00  0.00000000000E+00  0.54802390370E+03  0.81303095570E+03  0.60057400535E+03 0.  0.
        3    1    3    3  502    0 -0.19352604851E+03  0.22558428494E+03  0.33195008378E+03  0.44556870333E+03  0.10100000352E+00 0. -1.
       -3    1    3    3    0  502  0.19352604851E+03 -0.22558428494E+03  0.21607381992E+03  0.36746225237E+03  0.10100000352E+00 0.  1.
</event>
<event>
 5   0  0.1392854E-03  0.5998741E+03  0.7818609E-02  0.9905667E-01
       -1   -1    0    0    0  501  0.00000000000E+00  0.00000000000E+00  0.16695172556E+03  0.16695172563E+03  0.50400001928E-02 0. -1.
        1   -1    0    0  501    0  0.00000000000E+00  0.00000000000E+00 -0.53885180521E+03  0.53885180523E+03  0.50400001928E-02 0.  1.
    10030    2    1    2    0    0  0.00000000000E+00  0.00000000000E+00 -0.37190007965E+03  0.70580353087E+03  0.59987411591E+03 0.  0.
        4    1    3    3  502    0  0.23154901662E+03 -0.18562528865E+03 -0.23708662761E+03  0.37984651739E+03  0.12699999809E+01 0.  1.
       -4    1    3    3    0  502 -0.23154901662E+03  0.18562528865E+03 -0.13481345204E+03  0.32595701347E+03  0.12699999809E+01 0. -1.
</event>
<event>
 5   0  0.2421210E-03  0.5994544E+03  0.7818609E-02  0.9906539E-01
        2   -1    0    0  501    0  0.00000000000E+00  0.00000000000E+00  0.56232079411E+03  0.56232079411E+03  0.25500000920E-02 0.  1.
       -2   -1    0    0    0  501  0.00000000000E+00  0.00000000000E+00 -0.15976004412E+03  0.15976004414E+03  0.25500000920E-02 0. -1.
    10030    2    1    2    0    0  0.00000000000E+00  0.00000000000E+00  0.40256074999E+03  0.72208083825E+03  0.59945440155E+03 0.  0.
        1    1    3    3  502    0 -0.97028817537E+02 -0.24563378687E+03  0.30564175788E+02  0.26586597667E+03  0.50400001928E-02 0. -1.
       -1    1    3    3    0  502  0.97028817537E+02  0.24563378687E+03  0.37199657420E+03  0.45621486158E+03  0.50400001928E-02 0.  1.
</event>
<event>
 5   0  0.1416315E-03  0.6007089E+03  0.7818609E-02  0.9903937E-01
       -1   -1    0    0    0  501  0.00000000000E+00  0.00000000000E+00  0.68554222054E+03  0.68554222056E+03  0.50400001928E-02 0.  1.
        1   -1    0    0  501    0  0.00000000000E+00  0.00000000000E+00 -0.13159332730E+03  0.13159332740E+03  0.50400001928E-02 0. -1.
    10030    2    1    2    0    0  0.00000000000E+00  0.00000000000E+00  0.55394889324E+03  0.81713554796E+03  0.60070885411E+03 0.  0.
        2    1    3    3  502    0  0.60140031663E+01 -0.34463253030E+02  0.68276131119E+03  0.68365699887E+03  0.25500000920E-02 0.  1.
       -2    1    3    3    0  502 -0.60140031663E+01  0.34463253030E+02 -0.12881241794E+03  0.13347854909E+03  0.25500000920E-02 0. -1.
</event>
<event>
 5   0  0.1479385E-03  0.5964634E+03  0.7818609E-02  0.9912771E-01
        1   -1    0    0  501    0  0.00000000000E+00  0.00000000000E+00  0.28361310238E+03  0.28361310242E+03  0.50400001928E-02 0.  1.
       -1   -1    0    0    0  501  0.00000000000E+00  0.00000000000E+00 -0.31360375751E+03  0.31360375755E+03  0.50400001928E-02 0. -1.
    10030    2    1    2    0    0  0.00000000000E+00  0.00000000000E+00 -0.29990655134E+02  0.59721685998E+03  0.59646335885E+03 0.  0.
        3    1    3    3  502    0  0.39627534946E+02  0.19573434926E+03 -0.23676971404E+03  0.30974535459E+03  0.10100000352E+00 0. -1.
       -3    1    3    3    0  502 -0.39627534946E+02 -0.19573434926E+03  0.20677905890E+03  0.28747150539E+03  0.10100000352E+00 0.  1.
</event>
<event>
 5   0  0.1418763E-03  0.6000513E+03  0.7818609E-02  0.9905300E-01
        1   -1    0    0  501    0  0.00000000000E+00  0.00000000000E+00  0.63779870494E+03  0.63779870496E+03  0.50400001928E-02 0. -1.
       -1   -1    0    0    0  501  0.00000000000E+00  0.00000000000E+00 -0.14113450637E+03  0.14113450646E+03  0.50400001928E-02 0.  1.
    10030    2    1    2    0    0  0.00000000000E+00  0.00000000000E+00  0.49666419857E+03  0.77893321142E+03  0.60005134923E+03 0.  0.
        5    1    3    3  502    0 -0.23675467417E+03 -0.13794414730E+03  0.89813928579E+02  0.28839208602E+03  0.46999998093E+01 0.  1.
       -5    1    3    3    0  502  0.23675467417E+03  0.13794414730E+03  0.40685026999E+03  0.49054112540E+03  0.46999998093E+01 0. -1.
</event>
<event>
 5   0  0.2421210E-03  0.6017111E+03  0.7818609E-02  0.9901862E-01
       -2   -1    0    0    0  501  0.00000000000E+00  0.00000000000E+00  0.76741269723E+02  0.76741269766E+02  0.25500000920E-02 0. -1.
        2   -1    0    0  501    0  0.00000000000E+00  0.00000000000E+00 -0.11794704448E+04  0.11794704448E+04  0.25500000920E-02 0.  1.
    10030    2    1    2    0    0  0.00000000000E+00  0.00000000000E+00 -0.11027291751E+04  0.12562117146E+04  0.60171109202E+03 0.  0.
        1    1    3    3  502    0 -0.98353582074E+02 -0.28347839928E+03 -0.50559467674E+03  0.58792806290E+03  0.50400001928E-02 0.  1.
       -1    1    3    3    0  502  0.98353582074E+02  0.28347839928E+03 -0.59713449835E+03  0.66828365169E+03  0.50400001928E-02 0. -1.
</event>
<event>
 5   0  0.1418763E-03  0.6000845E+03  0.7818609E-02  0.9905231E-01
       -1   -1    0    0    0  501  0.00000000000E+00  0.00000000000E+00  0.50486185604E+03  0.50486185607E+03  0.50400001928E-02 0.  1.
        1   -1    0    0  501    0  0.00000000000E+00  0.00000000000E+00 -0.17831682718E+03  0.17831682726E+03  0.50400001928E-02 0. -1.
    10030    2    1    2    0    0  0.00000000000E+00  0.00000000000E+00  0.32654502886E+03  0.68317868332E+03  0.60008454194E+03 0.  0.
        5    1    3    3  502    0  0.11338098050E+03 -0.26979992627E+03  0.23841181872E+03  0.37750434734E+03  0.46999998093E+01 0. -1.
       -5    1    3    3    0  502 -0.11338098050E+03  0.26979992627E+03  0.88133210136E+02  0.30567433599E+03  0.46999998093E+01 0.  1.
</event>
<event>
 5   0  0.1479385E-03  0.6039351E+03  0.7818609E-02  0.9897275E-01
        1   -1    0    0  501    0  0.00000000000E+00  0.00000000000E+00  0.88264109675E+03  0.88264109676E+03  0.50400001928E-02 0.  1.
       -1   -1    0    0    0  501  0.00000000000E+00  0.00000000000E+00 -0.10330858143E+03  0.10330858155E+03  0.50400001928E-02 0. -1.
    10030    2    1    2    0    0  0.00000000000E+00  0.00000000000E+00  0.77933251532E+03  0.98594967831E+03  0.60393509479E+03 0.  0.
        3    1    3    3  502    0  0.95104805279E+01  0.24514633213E+03  0.67709210991E+03  0.72016727842E+03  0.10100000352E+00 0.  1.
       -3    1    3    3    0  502 -0.95104805279E+01 -0.24514633213E+03  0.10224040541E+03  0.26578239990E+03  0.10100000352E+00 0. -1.
</event>
<event>
 5   0  0.9496750E-04  0.6000217E+03  0.7818609E-02  0.9905361E-01
        3   -1    0    0  501    0  0.00000000000E+00  0.00000000000E+00  0.71550209934E+03  0.71550210647E+03  0.10100000352E+00 0.  1.
       -3   -1    0    0    0  501  0.00000000000E+00  0.00000000000E+00 -0.12579486370E+03  0.12579490424E+03  0.10100000352E+00 0. -1.
    10030    2    1    2    0    0  0.00000000000E+00  0.00000000000E+00  0.58970723565E+03  0.84129701071E+03  0.60002169666E+03 0.  0.
        1    1    3    3  502    0  0.67545275635E+02 -0.20720305673E+03  0.58394373581E+03  0.62328625655E+03  0.50400001928E-02 0.  1.
       -1    1    3    3    0  502 -0.67545275635E+02  0.20720305673E+03  0.57634998356E+01  0.21801075417E+03  0.50400001928E-02 0. -1.
</event>
<event>
 5   0  0.2313168E-03  0.5998759E+03  0.7818609E-02  0.9905663E-01
       -2   -1    0    0    0  501  0.00000000000E+00  0.00000000000E+00  0.18313939755E+03  0.18313939757E+03  0.25500000920E-02 0.  1.
        2   -1    0    0  501    0  0.00000000000E+00  0.00000000000E+00 -0.49122574504E+03  0.49122574505E+03  0.25500000920E-02 0. -1.
    10030    2    1    2    0    0  0.00000000000E+00  0.00000000000E+00 -0.30808634749E+03  0.67436514262E+03  0.59987594390E+03 0.  0.
        2    1    3    3  502    0  0.23085695352E+03 -0.85672449814E+02  0.38476680157E+02  0.24922912464E+03  0.25500000920E-02 0.  1.
       -2    1    3    3    0  502 -0.23085695352E+03  0.85672449814E+02 -0.34656302765E+03  0.42513601798E+03  0.25500000920E-02 0. -1.
</event>
<event>
 5   0  0.1416315E-03  0.5992176E+03  0.7818609E-02  0.9907031E-01
        1   -1    0    0  501    0  0.00000000000E+00  0.00000000000E+00  0.35043363419E+03  0.35043363423E+03  0.50400001928E-02 0. -1.
       -1   -1    0    0    0  501  0.00000000000E+00  0.00000000000E+00 -0.25615528060E+03  0.25615528065E+03  0.50400001928E-02 0.  1.
    10030    2    1    2    0    0  0.00000000000E+00  0.00000000000E+00  0.94278353589E+02  0.60658891488E+03  0.59921757627E+03 0.  0.
        2    1    3    3  502    0 -0.28302953355E+03 -0.25683628251E+01  0.14659806754E+03  0.31875273609E+03  0.25500000920E-02 0.  1.
       -2    1    3    3    0  502  0.28302953355E+03  0.25683628251E+01 -0.52319713950E+02  0.28783617880E+03  0.25500000920E-02 0. -1.
</event>
<event>
 5   0  0.2406307E-03  0.5996786E+03  0.7818609E-02  0.9906073E-01
       -2   -1    0    0    0  501  0.00000000000E+00  0.00000000000E+00  0.86314210393E+02  0.86314210430E+02  0.25500000920E-02 0.  1.
        2   -1    0    0  501    0  0.00000000000E+00  0.00000000000E+00 -0.10415851211E+04  0.10415851211E+04  0.25500000920E-02 0. -1.
    10030    2    1    2    0    0  0.00000000000E+00  0.00000000000E+00 -0.95527091068E+03  0.11278993315E+04  0.59967857159E+03 0.  0.
        5    1    3    3  502    0 -0.16842744973E+02 -0.94547694256E+02 -0.10118024479E+04  0.10163607765E+04  0.46999998093E+01 0. -1.
       -5    1    3    3    0  502  0.16842744973E+02  0.94547694256E+02  0.56531537203E+02  0.11153855497E+03  0.46999998093E+01 0.  1.
</event>
<event>
 5   0  0.2324616E-03  0.6005375E+03  0.7818609E-02  0.9904292E-01
       -2   -1    0    0    0  501  0.00000000000E+00  0.00000000000E+00  0.65317418308E+02  0.65317418358E+02  0.25500000920E-02 0.  1.
        2   -1    0    0  501    0  0.00000000000E+00  0.00000000000E+00 -0.13803563821E+04  0.13803563822E+04  0.25500000920E-02 0. -1.
    10030    2    1    2    0    0  0.00000000000E+00  0.00000000000E+00 -0.13150389638E+04  0.14456738005E+04  0.60053747681E+03 0.  0.
        4    1    3    3  502    0  0.29772869475E+03  0.54904370294E+01 -0.56468437859E+03  0.63839061780E+03  0.12699999809E+01 0.  1.
       -4    1    3    3    0  502 -0.29772869475E+03 -0.54904370294E+01 -0.75035458525E+03  0.80728318271E+03  0.12699999809E+01 0. -1.
</event>
<event>
 5   0  0.2324616E-03  0.5999671E+03  0.7818609E-02  0.9905474E-01
       -2   -1    0    0    0  501  0.00000000000E+00  0.00000000000E+00  0.30306789898E+03  0.30306789899E+03  0.25500000920E-02 0.  1.
        2   -1    0    0  501    0  0.00000000000E+00  0.00000000000E+00 -0.29693063658E+03  0.29693063659E+03  0.25500000920E-02 0. -1.
    10030    2    1    2    0    0  0.00000000000E+00  0.00000000000E+00  0.61372623937E+01  0.59999853558E+03  0.59996714636E+03 0.  0.
        4    1    3    3  502    0 -0.24033329422E+02  0.29379522389E+03 -0.52569670925E+02  0.29943015497E+03  0.12699999809E+01 0. -1.
       -4    1    3    3    0  502  0.24033329422E+02 -0.29379522389E+03  0.58706933318E+02  0.30056838061E+03  0.12699999809E+01 0.  1.
</event>
<event>
 5   0  0.1418763E-03  0.6003018E+03  0.7818609E-02  0.9904780E-01
       -1   -1    0    0    0  501  0.00000000000E+00  0.00000000000E+00  0.16452616072E+03  0.16452616080E+03  0.50400001928E-02 0.  1.
        1   -1    0    0  501    0  0.00000000000E+00  0.00000000000E+00 -0.54757593082E+03  0.54757593085E+03  0.50400001928E-02 0. -1.
    10030    2    1    2    0    0  0.00000000000E+00  0.00000000000E+00 -0.38304977010E+03  0.71210209164E+03  0.60030180955E+03 0.  0.
        5    1    3    3  502    0 -0.14816551010E+03 -0.25664170115E+03 -0.24779937734E+03  0.38632188983E+03  0.46999998093E+01 0. -1.
       -5    1    3    3    0  502  0.14816551010E+03  0.25664170115E+03 -0.13525039277E+03  0.32578020182E+03  0.46999998093E+01 0.  1.
</event>
<event>
 5   0  0.1418763E-03  0.6004281E+03  0.7818609E-02  0.9904518E-01
        1   -1    0    0  501    0  0.00000000000E+00  0.00000000000E+00  0.32408298532E+03  0.32408298536E+03  0.50400001928E-02 0.  1.
       -1   -1    0    0    0  501  0.00000000000E+00  0.00000000000E+00 -0.27810306137E+03  0.27810306142E+03  0.50400001928E-02 0. -1.
    10030    2    1    2    0    0  0.00000000000E+00  0.00000000000E+00  0.45979923946E+02  0.60218604678E+03  0.60042808189E+03 0.  0.
        5    1    3    3  502    0 -0.14945078986E+03  0.61100553982E+02 -0.23080739447E+03  0.28171432272E+03  0.46999998093E+01 0. -1.
       -5    1    3    3    0  502  0.14945078986E+03 -0.61100553982E+02  0.27678731841E+03  0.32047172406E+03  0.46999998093E+01 0.  1.
</event>
<event>
 5   0  0.1418763E-03  0.6009484E+03  0.7818609E-02  0.9903440E-01
       -1   -1    0    0    0  501  0.00000000000E+00  0.00000000000E+00  0.34303551924E+03  0.34303551928E+03  0.50400001928E-02 0.  1.
        1   -1    0    0  501    0  0.00000000000E+00  0.00000000000E+00 -0.26319361011E+03  0.26319361016E+03  0.50400001928E-02 0. -1.
    10030    2    1    2    0    0  0.00000000000E+00  0.00000000000E+00  0.79841909134E+02  0.60622912943E+03  0.60094843949E+03 0.  0.
        5    1    3    3  502    0 -0.95592355552E+02 -0.65983072515E+02  0.31943149790E+03  0.33992680999E+03  0.46999998093E+01 0.  1.
       -5    1    3    3    0  502  0.95592355552E+02  0.65983072515E+02 -0.23958958877E+03  0.26630231945E+03  0.46999998093E+01 0. -1.
</event>
<event>
 5   0  0.2324616E-03  0.6000554E+03  0.7818609E-02  0.9905291E-01
       -2   -1    0    0    0  501  0.00000000000E+00  0.00000000000E+00  0.10503766159E+03  0.10503766162E+03  0.25500000920E-02 0.  1.
        2   -1    0    0  501    0  0.00000000000E+00  0.00000000000E+00 -0.85699364637E+03  0.85699364637E+03  0.25500000920E-02 0. -1.
    10030    2    1    2    0    0  0.00000000000E+00  0.00000000000E+00 -0.75195598478E+03  0.96203130799E+03  0.60005535955E+03 0.  0.
        4    1    3    3  502    0 -0.28389491396E+03  0.16684109785E+02 -0.52925550546E+03  0.60082250678E+03  0.12699999809E+01 0.  1.
       -4    1    3    3    0  502  0.28389491396E+03 -0.16684109785E+02 -0.22270047931E+03  0.36120880121E+03  0.12699999809E+01 0. -1.
</event>
<event>
 5   0  0.2406307E-03  0.6003466E+03  0.7818609E-02  0.9904687E-01
       -2   -1    0    0    0  501  0.00000000000E+00  0.00000000000E+00  0.79166588366E+02  0.79166588407E+02  0.25500000920E-02 0. -1.
        2   -1    0    0  501    0  0.00000000000E+00  0.00000000000E+00 -0.11381568709E+04  0.11381568709E+04  0.25500000920E-02 0.  1.
    10030    2    1    2    0    0  0.00000000000E+00  0.00000000000E+00 -0.10589902825E+04  0.12173234593E+04  0.60034655498E+03 0.  0.
        5    1    3    3  502    0 -0.66255464502E+02  0.16305158447E+03 -0.10224655584E+04  0.10375131391E+04  0.46999998093E+01 0.  1.
       -5    1    3    3    0  502  0.66255464502E+02 -0.16305158447E+03 -0.36524724159E+02  0.17981032019E+03  0.46999998093E+01 0. -1.
</event>
<event>
 5   0  0.1479385E-03  0.6000634E+03  0.7818609E-02  0.9905275E-01
        1   -1    0    0  501    0  0.00000000000E+00  0.00000000000E+00  0.17837290045E+04  0.17837290045E+04  0.50400001928E-02 0.  1.
       -1   -1    0    0    0  501  0.00000000000E+00  0.00000000000E+00 -0.50466760107E+02  0.50466760359E+02  0.50400001928E-02 0. -1.
    10030    2    1    2    0    0  0.00000000000E+00  0.00000000000E+00  0.17332622444E+04  0.18341957648E+04  0.60006340999E+03 0.  0.
        3    1    3    3  502    0  0.20553639030E+03  0.18958724072E+03  0.11990990840E+04  0.12312705442E+04  0.10100000352E+00 0.  1.
       -3    1    3    3    0  502 -0.20553639030E+03 -0.18958724072E+03  0.53416316039E+03  0.60292522066E+03  0.10100000352E+00 0. -1.
</event>
<event>
 5   0  0.2324616E-03  0.5993373E+03  0.7818609E-02  0.9906782E-01
       -2   -1    0    0    0  501  0.00000000000E+00  0.00000000000E+00  0.23045970423E+03  0.23045970425E+03  0.25500000920E-02 0. -1.
        2   -1    0    0  501    0  0.00000000000E+00  0.00000000000E+00 -0.38966160521E+03  0.38966160522E+03  0.25500000920E-02 0.  1.
    10030    2    1    2    0    0  0.00000000000E+00  0.00000000000E+00 -0.15920190098E+03  0.62012130947E+03  0.59933729500E+03 0.  0.
        4    1    3    3  502    0 -0.62670051673E+02  0.99658569444E+02 -0.36473006292E+03  0.38326100445E+03  0.12699999809E+01 0.  1.
       -4    1    3    3    0  502  0.62670051673E+02 -0.99658569444E+02  0.20552816194E+03  0.23686030501E+03  0.12699999809E+01 0. -1.
</event>
<event>
 5   0  0.2421210E-03  0.5994768E+03  0.7818609E-02  0.9906492E-01
       -2   -1    0    0    0  501  0.00000000000E+00  0.00000000000E+00  0.40305339050E+03  0.40305339051E+03  0.25500000920E-02 0. -1.
        2   -1    0    0  501    0  0.00000000000E+00  0.00000000000E+00 -0.22290620751E+03  0.22290620753E+03  0.25500000920E-02 0.  1.
    10030    2    1    2    0    0  0.00000000000E+00  0.00000000000E+00  0.18014718299E+03  0.62595959804E+03  0.59947678090E+03 0.  0.
        1    1    3    3  502    0 -0.24752012299E+02  0.88351519281E+02  0.38802905426E+03  0.39872948229E+03  0.50400001928E-02 0. -1.
       -1    1    3    3    0  502  0.24752012299E+02 -0.88351519281E+02 -0.20788187127E+03  0.22723011574E+03  0.50400001928E-02 0.  1.
</event>
<event>
 5   0  0.9496750E-04  0.6001235E+03  0.7818609E-02  0.9905150E-01
        3   -1    0    0  501    0  0.00000000000E+00  0.00000000000E+00  0.25170816774E+03  0.25170818800E+03  0.10100000352E+00 0. -1.
       -3   -1    0    0    0  501  0.00000000000E+00  0.00000000000E+00 -0.35770415360E+03  0.35770416786E+03  0.10100000352E+00 0.  1.
    10030    2    1    2    0    0  0.00000000000E+00  0.00000000000E+00 -0.10599598587E+03  0.60941235587E+03  0.60012354600E+03 0.  0.
        1    1    3    3  502    0  0.48179923135E+01 -0.12491587045E+03  0.22400591126E+03  0.25652648215E+03  0.50400001928E-02 0. -1.
       -1    1    3    3    0  502 -0.48179923135E+01  0.12491587045E+03 -0.33000189712E+03  0.35288587372E+03  0.50400001928E-02 0.  1.
</event>
<event>
 5   0  0.1423430E-03  0.5997597E+03  0.7818609E-02  0.9905905E-01
       -1   -1    0    0    0  501  0.00000000000E+00  0.00000000000E+00  0.38881542011E+03  0.38881542015E+03  0.50400001928E-02 0. -1.
        1   -1    0    0  501    0  0.00000000000E+00  0.00000000000E+00 -0.23128694370E+03  0.23128694376E+03  0.50400001928E-02 0.  1.
    10030    2    1    2    0    0  0.00000000000E+00  0.00000000000E+00  0.15752847641E+03  0.62010236390E+03  0.59975971925E+03 0.  0.
        1    1    3    3  502    0 -0.81863919792E+02 -0.92910510177E+02  0.36114665456E+03  0.38178655083E+03  0.50400001928E-02 0. -1.
       -1    1    3    3    0  502  0.81863919792E+02  0.92910510177E+02 -0.20361817815E+03  0.23831581308E+03  0.50400001928E-02 0.  1.
</event>
<event>
 5   0  0.2346281E-03  0.5997148E+03  0.7818609E-02  0.9905998E-01
       -2   -1    0    0    0  501  0.00000000000E+00  0.00000000000E+00  0.10640235449E+03  0.10640235452E+03  0.25500000920E-02 0.  1.
        2   -1    0    0  501    0  0.00000000000E+00  0.00000000000E+00 -0.84504199727E+03  0.84504199727E+03  0.25500000920E-02 0. -1.
    10030    2    1    2    0    0  0.00000000000E+00  0.00000000000E+00 -0.73863964278E+03  0.95144435179E+03  0.59971479278E+03 0.  0.
        3    1    3    3  502    0  0.87353296992E+02 -0.28166436307E+03 -0.28316518149E+03  0.40883730521E+03  0.10100000352E+00 0.  1.
       -3    1    3    3    0  502 -0.87353296992E+02  0.28166436307E+03 -0.45547446129E+03  0.54260704659E+03  0.10100000352E+00 0. -1.
</event>
<event>
 5   0  0.1479385E-03  0.5997396E+03  0.7818609E-02  0.9905947E-01
        1   -1    0    0  501    0  0.00000000000E+00  0.00000000000E+00  0.82629670278E+03  0.82629670280E+03  0.50400001928E-02 0.  1.
       -1   -1    0    0    0  501  0.00000000000E+00  0.00000000000E+00 -0.10882518032E+03  0.10882518044E+03  0.50400001928E-02 0. -1.
    10030    2    1    2    0    0  0.00000000000E+00  0.00000000000E+00  0.71747152246E+03  0.93512188324E+03  0.59973956929E+03 0.  0.
        3    1    3    3  502    0 -0.20752482581E+03  0.18193250545E+03  0.17586266108E+03  0.32725170072E+03  0.10100000352E+00 0. -1.
       -3    1    3    3    0  502  0.20752482581E+03 -0.18193250545E+03  0.54160886138E+03  0.60787018251E+03  0.10100000352E+00 0.  1.
</event>
<event>
 5   0  0.1418763E-03  0.6002020E+03  0.7818609E-02  0.9904987E-01
       -1   -1    0    0    0  501  0.00000000000E+00  0.00000000000E+00  0.23188165298E+03  0.23188165304E+03  0.50400001928E-02 0.  1.
        1   -1    0    0  501    0  0.00000000000E+00  0.00000000000E+00 -0.38839047282E+03  0.38839047285E+03  0.50400001928E-02 0. -1.
    10030    2    1    2    0    0  0.00000000000E+00  0.00000000000E+00 -0.15650881984E+03  0.62027212589E+03  0.60020204887E+03 0.  0.
        5    1    3    3  502    0  0.92213685401E+02  0.10141587169E+02  0.21665130828E+03  0.23572461676E+03  0.46999998093E+01 0.  1.
       -5    1    3    3    0  502 -0.92213685401E+02 -0.10141587169E+02 -0.37316012812E+03  0.38454750914E+03  0.46999998093E+01 0. -1.
</event>
<event>
 5   0  0.9496750E-04  0.6001592E+03  0.7818609E-02  0.9905076E-01
        3   -1    0    0  501    0  0.00000000000E+00  0.00000000000E+00  0.99664305442E+03  0.99664305953E+03  0.10100000352E+00 0.  1.
       -3   -1    0    0    0  501  0.00000000000E+00  0.00000000000E+00 -0.90351021530E+02  0.90351077982E+02  0.10100000352E+00 0. -1.
    10030    2    1    2    0    0  0.00000000000E+00  0.00000000000E+00  0.90629203289E+03  0.10869941375E+04  0.60015915066E+03 0.  0.
        4    1    3    3  502    0  0.15227807913E+03 -0.25465578544E+03  0.37198679246E+03  0.47582976905E+03  0.12699999809E+01 0.  1.
       -4    1    3    3    0  502 -0.15227807913E+03  0.25465578544E+03  0.53430524042E+03  0.61116436847E+03  0.12699999809E+01 0. -1.
</event>
<event>
 5   0  0.1423430E-03  0.6000589E+03  0.7818609E-02  0.9905284E-01
        1   -1    0    0  501    0  0.00000000000E+00  0.00000000000E+00  0.12414469243E+04  0.12414469244E+04  0.50400001928E-02 0.  1.
       -1   -1    0    0    0  501  0.00000000000E+00  0.00000000000E+00 -0.72510285261E+02  0.72510285437E+02  0.50400001928E-02 0. -1.
    10030    2    1    2    0    0  0.00000000000E+00  0.00000000000E+00  0.11689366391E+04  0.13139572098E+04  0.60005889959E+03 0.  0.
        1    1    3    3  502    0 -0.12043423499E+03  0.24435760536E+03  0.30920269584E+03  0.41209386236E+03  0.50400001928E-02 0. -1.
       -1    1    3    3    0  502  0.12043423499E+03 -0.24435760536E+03  0.85973394325E+03  0.90186334744E+03  0.50400001928E-02 0.  1.
</event>
<event>
 5   0  0.1423430E-03  0.6000026E+03  0.7818609E-02  0.9905401E-01
       -1   -1    0    0    0  501  0.00000000000E+00  0.00000000000E+00  0.99788848117E+02  0.99788848244E+02  0.50400001928E-02 0. -1.
        1   -1    0    0  501    0  0.00000000000E+00  0.00000000000E+00 -0.90191225153E+03  0.90191225154E+03  0.50400001928E-02 0.  1.
    10030    2    1    2    0    0  0.00000000000E+00  0.00000000000E+00 -0.80212340341E+03  0.10017010998E+04  0.60000261584E+03 0.  0.
        1    1    3    3  502    0 -0.27105647339E+03 -0.85230448792E+02 -0.24036520986E+03  0.37217102964E+03  0.50400001928E-02 0. -1.
       -1    1    3    3    0  502  0.27105647339E+03  0.85230448792E+02 -0.56175819355E+03  0.62953007014E+03  0.50400001928E-02 0.  1.
</event>
<event>
 5   0  0.9496750E-04  0.6000442E+03  0.7818609E-02  0.9905314E-01
        3   -1    0    0  501    0  0.00000000000E+00  0.00000000000E+00  0.33536585848E+03  0.33536587369E+03  0.10100000352E+00 0.  1.
       -3   -1    0    0    0  501  0.00000000000E+00  0.00000000000E+00 -0.26840310264E+03  0.26840312164E+03  0.10100000352E+00 0. -1.
    10030    2    1    2    0    0  0.00000000000E+00  0.00000000000E+00  0.66962755841E+02  0.60376899532E+03  0.60004415591E+03 0.  0.
        4    1    3    3  502    0  0.26380844311E+03  0.13641286250E+03  0.76269114517E+02  0.30662999599E+03  0.12699999809E+01 0.  1.
       -4    1    3    3    0  502 -0.26380844311E+03 -0.13641286250E+03 -0.93063586754E+01  0.29713899933E+03  0.12699999809E+01 0. -1.
</event>
<event>
 5   0  0.2346281E-03  0.6000122E+03  0.7818609E-02  0.9905381E-01
       -2   -1    0    0    0  501  0.00000000000E+00  0.00000000000E+00  0.67851509511E+03  0.67851509511E+03  0.25500000920E-02 0. -1.
        2   -1    0    0  501    0  0.00000000000E+00  0.00000000000E+00 -0.13264798966E+03  0.13264798968E+03  0.25500000920E-02 0.  1.
    10030    2    1    2    0    0  0.00000000000E+00  0.00000000000E+00  0.54586710545E+03  0.81116308480E+03  0.60001221098E+03 0.  0.
        3    1    3    3  502    0  0.93161242907E+02 -0.21491855185E+03  0.52633898318E+03  0.57610913595E+03  0.10100000352E+00 0. -1.
       -3    1    3    3    0  502 -0.93161242907E+02  0.21491855185E+03  0.19528122272E+02  0.23505394885E+03  0.10100000352E+00 0.  1.
</event>
<event>
 5   0  0.9496750E-04  0.5999853E+03  0.7818609E-02  0.9905437E-01
       -3   -1    0    0    0  501  0.00000000000E+00  0.00000000000E+00  0.69752416146E+02  0.69752489268E+02  0.10100000352E+00 0.  1.
        3   -1    0    0  501    0  0.00000000000E+00  0.00000000000E+00 -0.12902137957E+04  0.12902137996E+04  0.10100000352E+00 0. -1.
    10030    2    1    2    0    0  0.00000000000E+00  0.00000000000E+00 -0.12204613795E+04  0.13599662889E+04  0.59998527316E+03 0.  0.
        1    1    3    3  502    0  0.16600633860E+03  0.14148817362E+03 -0.14339334948E+03  0.26103383005E+03  0.50400001928E-02 0.  1.
       -1    1    3    3    0  502 -0.16600633860E+03 -0.14148817362E+03 -0.10770680300E+04  0.10989324588E+04  0.50400001928E-02 0. -1.
</event>
<event>
 5   0  0.1423430E-03  0.5997888E+03  0.7818609E-02  0.9905844E-01
       -1   -1    0    0    0  501  0.00000000000E+00  0.00000000000E+00  0.57779111455E+02  0.57779111675E+02  0.50400001928E-02 0. -1.
        1   -1    0    0  501    0  0.00000000000E+00  0.00000000000E+00 -0.15565599717E+04  0.15565599717E+04  0.50400001928E-02 0.  1.
    10030    2    1    2    0    0  0.00000000000E+00  0.00000000000E+00 -0.14987808603E+04  0.16143390834E+04  0.59978880375E+03 0.  0.
        1    1    3    3  502    0 -0.42745442117E+02  0.60312067790E+02  0.32872274569E+02  0.80903058061E+02  0.50400001928E-02 0. -1.
       -1    1    3    3    0  502  0.42745442117E+02 -0.60312067790E+02 -0.15316531348E+04  0.15334360253E+04  0.50400001928E-02 0.  1.
</event>
<event>
 5   0  0.1416315E-03  0.6023216E+03  0.7818609E-02  0.9900601E-01
        1   -1    0    0  501    0  0.00000000000E+00  0.00000000000E+00  0.16561815083E+03  0.16561815091E+03  0.50400001928E-02 0.  1.
       -1   -1    0    0    0  501  0.00000000000E+00  0.00000000000E+00 -0.54763216426E+03  0.54763216428E+03  0.50400001928E-02 0. -1.
    10030    2    1    2    0    0  0.00000000000E+00  0.00000000000E+00 -0.38201401343E+03  0.71325031519E+03  0.60232159654E+03 0.  0.
        2    1    3    3  502    0 -0.82468840442E+02  0.27257451564E+03 -0.74983559493E+02  0.29448346374E+03  0.25500000920E-02 0.  1.
       -2    1    3    3    0  502  0.82468840442E+02 -0.27257451564E+03 -0.30703045393E+03  0.41876685144E+03  0.25500000920E-02 0. -1.
</event>
<event>
 5   0  0.1479385E-03  0.5998029E+03  0.7818609E-02  0.9905815E-01
       -1   -1    0    0    0  501  0.00000000000E+00  0.00000000000E+00  0.80286869723E+02  0.80286869882E+02  0.50400001928E-02 0. -1.
        1   -1    0    0  501    0  0.00000000000E+00  0.00000000000E+00 -0.11202440928E+04  0.11202440928E+04  0.50400001928E-02 0.  1.
    10030    2    1    2    0    0  0.00000000000E+00  0.00000000000E+00 -0.10399572231E+04  0.12005309627E+04  0.59980293976E+03 0.  0.
        3    1    3    3  502    0 -0.11572617991E+03  0.14144335398E+03 -0.99591705091E+03  0.10125460748E+04  0.10100000352E+00 0.  1.
       -3    1    3    3    0  502  0.11572617991E+03 -0.14144335398E+03 -0.44040172145E+02  0.18798488787E+03  0.10100000352E+00 0. -1.
</event>
<event>
 5   0  0.2324616E-03  0.5999260E+03  0.7818609E-02  0.9905560E-01
       -2   -1    0    0    0  501  0.00000000000E+00  0.00000000000E+00  0.62204993803E+02  0.62204993855E+02  0.25500000920E-02 0.  1.
        2   -1    0    0  501    0  0.00000000000E+00  0.00000000000E+00 -0.14464723443E+04  0.14464723443E+04  0.25500000920E-02 0. -1.
    10030    2    1    2    0    0  0.00000000000E+00  0.00000000000E+00 -0.13842673505E+04  0.15086773382E+04  0.59992600629E+03 0.  0.
        4    1    3    3  502    0  0.24587738308E+02  0.26333898077E+03 -0.33627592843E+03  0.42782600273E+03  0.12699999809E+01 0.  1.
       -4    1    3    3    0  502 -0.24587738308E+02 -0.26333898077E+03 -0.10479914221E+04  0.10808513355E+04  0.12699999809E+01 0. -1.
</event>
<event>
 5   0  0.2346281E-03  0.6001371E+03  0.7818609E-02  0.9905122E-01
        2   -1    0    0  501    0  0.00000000000E+00  0.00000000000E+00  0.91907908218E+03  0.91907908219E+03  0.25500000920E-02 0. -1.
       -2   -1    0    0    0  501  0.00000000000E+00  0.00000000000E+00 -0.97968864342E+02  0.97968864375E+02  0.25500000920E-02 0.  1.
    10030    2    1    2    0    0  0.00000000000E+00  0.00000000000E+00  0.82111021784E+03  0.10170479466E+04  0.60013709747E+03 0.  0.
        3    1    3    3  502    0 -0.24134814590E+03 -0.17149928397E+03  0.32787578208E+03  0.44177309856E+03  0.10100000352E+00 0.  1.
       -3    1    3    3    0  502  0.24134814590E+03  0.17149928397E+03  0.49323443576E+03  0.57527484801E+03  0.10100000352E+00 0. -1.
</event>
<event>
 5   0  0.9496750E-04  0.6000010E+03  0.7818609E-02  0.9905404E-01
       -3   -1    0    0    0  501  0.00000000000E+00  0.00000000000E+00  0.13257175279E+04  0.13257175318E+04  0.10100000352E+00 0. -1.
        3   -1    0    0  501    0  0.00000000000E+00  0.00000000000E+00 -0.67887960665E+02  0.67888035796E+02  0.10100000352E+00 0.  1.
    10030    2    1    2    0    0  0.00000000000E+00  0.00000000000E+00  0.12578295672E+04  0.13936055675E+04  0.60000104807E+03 0.  0.
        5    1    3    3  502    0 -0.77958640033E+01  0.29867386521E+03  0.56696554214E+03  0.64088912397E+03  0.46999998093E+01 0.  1.
       -5    1    3    3    0  502  0.77958640033E+01 -0.29867386521E+03  0.69086402510E+03  0.75271644358E+03  0.46999998093E+01 0. -1.
</event>
<event>
 5   0  0.1392854E-03  0.5988893E+03  0.7818609E-02  0.9907713E-01
       -1   -1    0    0    0  501  0.00000000000E+00  0.00000000000E+00  0.13456417424E+03  0.13456417433E+03  0.50400001928E-02 0.  1.
        1   -1    0    0  501    0  0.00000000000E+00  0.00000000000E+00 -0.66635193686E+03  0.66635193688E+03  0.50400001928E-02 0. -1.
    10030    2    1    2    0    0  0.00000000000E+00  0.00000000000E+00 -0.53178776262E+03  0.80091611121E+03  0.59888929923E+03 0.  0.
        4    1    3    3  502    0 -0.67384117322E+02 -0.31390241459E+02 -0.65381237842E+03  0.65802599159E+03  0.12699999809E+01 0. -1.
       -4    1    3    3    0  502  0.67384117322E+02  0.31390241459E+02  0.12202461580E+03  0.14289011963E+03  0.12699999809E+01 0.  1.
</event>
<event>
 5   0  0.1416315E-03  0.5995121E+03  0.7818609E-02  0.9906419E-01
       -1   -1    0    0    0  501  0.00000000000E+00  0.00000000000E+00  0.69716066285E+02  0.69716066467E+02  0.50400001928E-02 0.  1.
        1   -1    0    0  501    0  0.00000000000E+00  0.00000000000E+00 -0.12888521136E+04  0.12888521136E+04  0.50400001928E-02 0. -1.
    10030    2    1    2    0    0  0.00000000000E+00  0.00000000000E+00 -0.12191360473E+04  0.13585681801E+04  0.59951213337E+03 0.  0.
        2    1    3    3  502    0 -0.20208395737E+01  0.61237278975E+02  0.55374422888E+02  0.82585802929E+02  0.25500000920E-02 0.  1.
       -2    1    3    3    0  502  0.20208395737E+01 -0.61237278975E+02 -0.12745104702E+04  0.12759823771E+04  0.25500000920E-02 0. -1.
</event>
<event>
 5   0  0.1416315E-03  0.5998243E+03  0.7818609E-02  0.9905771E-01
        1   -1    0    0  501    0  0.00000000000E+00  0.00000000000E+00  0.72101339157E+03  0.72101339159E+03  0.50400001928E-02 0. -1.
       -1   -1    0    0    0  501  0.00000000000E+00  0.00000000000E+00 -0.12475120470E+03  0.12475120480E+03  0.50400001928E-02 0.  1.
    10030    2    1    2    0    0  0.00000000000E+00  0.00000000000E+00  0.59626218687E+03  0.84576459639E+03  0.59982427178E+03 0.  0.
        2    1    3    3  502    0 -0.50816355076E+02 -0.23731723633E+03  0.54657303354E+03  0.59803332148E+03  0.25500000920E-02 0. -1.
       -2    1    3    3    0  502  0.50816355076E+02  0.23731723633E+03  0.49689153333E+02  0.24773127491E+03  0.25500000920E-02 0.  1.
</event>
<event>
 5   0  0.1423430E-03  0.6002919E+03  0.7818609E-02  0.9904801E-01
        1   -1    0    0  501    0  0.00000000000E+00  0.00000000000E+00  0.27954624757E+03  0.27954624762E+03  0.50400001928E-02 0.  1.
       -1   -1    0    0    0  501  0.00000000000E+00  0.00000000000E+00 -0.32226362138E+03  0.32226362142E+03  0.50400001928E-02 0. -1.
    10030    2    1    2    0    0  0.00000000000E+00  0.00000000000E+00 -0.42717373804E+02  0.60180986904E+03  0.60029188271E+03 0.  0.
        1    1    3    3  502    0 -0.13565984321E+03 -0.96696854041E+02  0.22893985968E+03  0.28313836550E+03  0.50400001928E-02 0.  1.
       -1    1    3    3    0  502  0.13565984321E+03  0.96696854041E+02 -0.27165723348E+03  0.31867150354E+03  0.50400001928E-02 0. -1.
</event>
<event>
 5   0  0.1418763E-03  0.6000112E+03  0.7818609E-02  0.9905383E-01
        1   -1    0    0  501    0  0.00000000000E+00  0.00000000000E+00  0.88192083044E+03  0.88192083045E+03  0.50400001928E-02 0. -1.
       -1   -1    0    0    0  501  0.00000000000E+00  0.00000000000E+00 -0.10205379634E+03  0.10205379646E+03  0.50400001928E-02 0.  1.
    10030    2    1    2    0    0  0.00000000000E+00  0.00000000000E+00  0.77986703410E+03  0.98397462691E+03  0.60001122951E+03 0.  0.
        5    1    3    3  502    0 -0.38177291368E+02  0.77059084164E+02  0.86121119696E+03  0.86550703278E+03  0.46999998093E+01 0. -1.
       -5    1    3    3    0  502  0.38177291368E+02 -0.77059084164E+02 -0.81344162866E+02  0.11846759413E+03  0.46999998093E+01 0.  1.
</event>
<event>
 5   0  0.1392854E-03  0.5999483E+03  0.7818609E-02  0.9905513E-01
        1   -1    0    0  501    0  0.00000000000E+00  0.00000000000E+00  0.77037745380E+02  0.77037745545E+02  0.50400001928E-02 0.  1.
       -1   -1    0    0    0  501  0.00000000000E+00  0.00000000000E+00 -0.11680572478E+04  0.11680572478E+04  0.50400001928E-02 0. -1.
    10030    2    1    2    0    0  0.00000000000E+00  0.00000000000E+00 -0.10910195024E+04  0.12450949933E+04  0.59994832095E+03 0.  0.
        4    1    3    3  502    0  0.77641445896E+02  0.13749392669E+03 -0.16196626976E+02  0.15873473981E+03  0.12699999809E+01 0.  1.
       -4    1    3    3    0  502 -0.77641445896E+02 -0.13749392669E+03 -0.10748228754E+04  0.10863602535E+04  0.12699999809E+01 0. -1.
</event>
<event>
 5   0  0.2324616E-03  0.5999370E+03  0.7818609E-02  0.9905537E-01
        2   -1    0    0  501    0  0.00000000000E+00  0.00000000000E+00  0.16660913908E+04  0.16660913908E+04  0.25500000920E-02 0. -1.
       -2   -1    0    0    0  501  0.00000000000E+00  0.00000000000E+00 -0.54007308440E+02  0.54007308501E+02  0.25500000920E-02 0.  1.
    10030    2    1    2    0    0  0.00000000000E+00  0.00000000000E+00  0.16120840823E+04  0.17200986993E+04  0.59993703565E+03 0.  0.
        4    1    3    3  502    0  0.19654438362E+03 -0.15215485602E+02  0.15780198093E+03  0.25251590805E+03  0.12699999809E+01 0.  1.
       -4    1    3    3    0  502 -0.19654438362E+03  0.15215485602E+02  0.14542821014E+04  0.14675827912E+04  0.12699999809E+01 0. -1.
</event>
<event>
 5   0  0.9496750E-04  0.5995841E+03  0.7818609E-02  0.9906269E-01
        3   -1    0    0  501    0  0.00000000000E+00  0.00000000000E+00  0.49786946288E+03  0.49786947313E+03  0.10100000352E+00 0.  1.
       -3   -1    0    0    0  501  0.00000000000E+00  0.00000000000E+00 -0.18051973257E+03  0.18051976083E+03  0.10100000352E+00 0. -1.
    10030    2    1    2    0    0  0.00000000000E+00  0.00000000000E+00  0.31734973031E+03  0.67838923395E+03  0.59958410704E+03 0.  0.
        2    1    3    3  502    0 -0.10436890367E+03 -0.23257649753E+03 -0.19828473550E+02  0.25569095335E+03  0.25500000920E-02 0. -1.
       -2    1    3    3    0  502  0.10436890367E+03  0.23257649753E+03  0.33717820386E+03  0.42269828060E+03  0.25500000920E-02 0.  1.
</event>
<event>
 5   0  0.2324616E-03  0.5999329E+03  0.7818609E-02  0.9905545E-01
       -2   -1    0    0    0  501  0.00000000000E+00  0.00000000000E+00  0.20753563031E+03  0.20753563032E+03  0.25500000920E-02 0. -1.
        2   -1    0    0  501    0  0.00000000000E+00  0.00000000000E+00 -0.43356344431E+03  0.43356344432E+03  0.25500000920E-02 0.  1.
    10030    2    1    2    0    0  0.00000000000E+00  0.00000000000E+00 -0.22602781400E+03  0.64109907464E+03  0.59993287191E+03 0.  0.
        4    1    3    3  502    0  0.10389901036E+03  0.31402948398E+02 -0.41183951766E+03  0.42590439153E+03  0.12699999809E+01 0.  1.
       -4    1    3    3    0  502 -0.10389901036E+03 -0.31402948398E+02  0.18581170365E+03  0.21519468311E+03  0.12699999809E+01 0. -1.
</event>
<event>
 5   0  0.1423430E-03  0.6021228E+03  0.7818609E-02  0.9901012E-01
        1   -1    0    0  501    0  0.00000000000E+00  0.00000000000E+00  0.70769101709E+03  0.70769101711E+03  0.50400001928E-02 0.  1.
       -1   -1    0    0    0  501  0.00000000000E+00  0.00000000000E+00 -0.12807562668E+03  0.12807562678E+03  0.50400001928E-02 0. -1.
    10030    2    1    2    0    0  0.00000000000E+00  0.00000000000E+00  0.57961539041E+03  0.83576664389E+03  0.60212281325E+03 0.  0.
        1    1    3    3  502    0 -0.63415949570E+02 -0.72341983019E+02  0.68578187442E+03  0.69249673246E+03  0.50400001928E-02 0.  1.
       -1    1    3    3    0  502  0.63415949570E+02  0.72341983019E+02 -0.10616648401E+03  0.14326991142E+03  0.50400001928E-02 0. -1.
</event>
<event>
 5   0  0.1392854E-03  0.6000244E+03  0.7818609E-02  0.9905356E-01
       -1   -1    0    0    0  501  0.00000000000E+00  0.00000000000E+00  0.11141470831E+03  0.11141470842E+03  0.50400001928E-02 0.  1.
        1   -1    0    0  501    0  0.00000000000E+00  0.00000000000E+00 -0.80785839995E+03  0.80785839997E+03  0.50400001928E-02 0. -1.
    10030    2    1    2    0    0  0.00000000000E+00  0.00000000000E+00 -0.69644369164E+03  0.91927310839E+03  0.60002435966E+03 0.  0.
        4    1    3    3  502    0 -0.17868416682E+03 -0.94691040343E+02 -0.87011450313E+01  0.20241479051E+03  0.12699999809E+01 0.  1.
       -4    1    3    3    0  502  0.17868416682E+03  0.94691040343E+02 -0.68774254661E+03  0.71685831788E+03  0.12699999809E+01 0. -1.
</event>
<event>
 5   0  0.2324616E-03  0.6016587E+03  0.7818609E-02  0.9901971E-01
        2   -1    0    0  501    0  0.00000000000E+00  0.00000000000E+00  0.19319725707E+04  0.19319725707E+04  0.25500000920E-02 0.  1.
       -2   -1    0    0    0  501  0.00000000000E+00  0.00000000000E+00 -0.46842432138E+02  0.46842432208E+02  0.25500000920E-02 0. -1.
    10030    2    1    2    0    0  0.00000000000E+00  0.00000000000E+00  0.18851301386E+04  0.19788150029E+04  0.60165868765E+03 0.  0.
        4    1    3    3  502    0 -0.60665767779E+02  0.27906546435E+03  0.63161195223E+03  0.69317612471E+03  0.12699999809E+01 0. -1.
       -4    1    3    3    0  502  0.60665767779E+02 -0.27906546435E+03  0.12535181864E+04  0.12856388782E+04  0.12699999809E+01 0.  1.
</event>
<event>
 5   0  0.2324616E-03  0.6002389E+03  0.7818609E-02  0.9904911E-01
       -2   -1    0    0    0  501  0.00000000000E+00  0.00000000000E+00  0.80806372989E+02  0.80806373030E+02  0.25500000920E-02 0.  1.
        2   -1    0    0  501    0  0.00000000000E+00  0.00000000000E+00 -0.11146606069E+04  0.11146606069E+04  0.25500000920E-02 0. -1.
    10030    2    1    2    0    0  0.00000000000E+00  0.00000000000E+00 -0.10338542339E+04  0.11954669799E+04  0.60023888839E+03 0.  0.
        4    1    3    3  502    0 -0.50344786350E+02  0.15959794901E+03 -0.10131002161E+04  0.10268299585E+04  0.12699999809E+01 0. -1.
       -4    1    3    3    0  502  0.50344786350E+02 -0.15959794901E+03 -0.20754017768E+02  0.16863702142E+03  0.12699999809E+01 0.  1.
</event>
<event>
 5   0  0.2406307E-03  0.5999636E+03  0.7818609E-02  0.9905482E-01
       -2   -1    0    0    0  501  0.00000000000E+00  0.00000000000E+00  0.21807335628E+03  0.21807335629E+03  0.25500000920E-02 0. -1.
        2   -1    0    0  501    0  0.00000000000E+00  0.00000000000E+00 -0.41265506921E+03  0.41265506922E+03  0.25500000920E-02 0.  1.
    10030    2    1    2    0    0  0.00000000000E+00  0.00000000000E+00 -0.19458171293E+03  0.63072842552E+03  0.59996358535E+03 0.  0.
        5    1    3    3  502    0  0.11139314156E+03 -0.20546118997E+03  0.10035008693E+03  0.25439135700E+03  0.46999998093E+01 0. -1.
       -5    1    3    3    0  502 -0.11139314156E+03  0.20546118997E+03 -0.29493179987E+03  0.37633706852E+03  0.46999998093E+01 0.  1.
</event>
<event>
 5   0  0.2421210E-03  0.5998844E+03  0.7818609E-02  0.9905646E-01
        2   -1    0    0  501    0  0.00000000000E+00  0.00000000000E+00  0.71095839561E+03  0.71095839561E+03  0.25500000920E-02 0. -1.
       -2   -1    0    0    0  501  0.00000000000E+00  0.00000000000E+00 -0.12654091816E+03  0.12654091819E+03  0.25500000920E-02 0.  1.
    10030    2    1    2    0    0  0.00000000000E+00  0.00000000000E+00  0.58441747745E+03  0.83749931380E+03  0.59988441610E+03 0.  0.
        1    1    3    3  502    0  0.19929954880E+02  0.19765267934E+03  0.60594824257E+03  0.63768099976E+03  0.50400001928E-02 0. -1.
       -1    1    3    3    0  502 -0.19929954880E+02 -0.19765267934E+03 -0.21530765128E+02  0.19981831404E+03  0.50400001928E-02 0.  1.
</event>
<event>
 5   0  0.1418763E-03  0.5998892E+03  0.7818609E-02  0.9905636E-01
       -1   -1    0    0    0  501  0.00000000000E+00  0.00000000000E+00  0.31081189035E+03  0.31081189039E+03  0.50400001928E-02 0. -1.
        1   -1    0    0  501    0  0.00000000000E+00  0.00000000000E+00 -0.28945727662E+03  0.28945727666E+03  0.50400001928E-02 0.  1.
    10030    2    1    2    0    0  0.00000000000E+00  0.00000000000E+00  0.21354613735E+02  0.60026916706E+03  0.59988920093E+03 0.  0.
        5    1    3    3  502    0  0.20400490891E+02 -0.26480934944E+03  0.15006558090E+03  0.30509333023E+03  0.46999998093E+01 0. -1.
       -5    1    3    3    0  502 -0.20400490891E+02  0.26480934944E+03 -0.12871096717E+03  0.29517583683E+03  0.46999998093E+01 0.  1.
</event>
<event>
 5   0  0.2406307E-03  0.5998878E+03  0.7818609E-02  0.9905639E-01
        2   -1    0    0  501    0  0.00000000000E+00  0.00000000000E+00  0.36554264053E+03  0.36554264054E+03  0.25500000920E-02 0. -1.
       -2   -1    0    0    0  501  0.00000000000E+00  0.00000000000E+00 -0.24611722226E+03  0.24611722227E+03  0.25500000920E-02 0.  1.
    10030    2    1    2    0    0  0.00000000000E+00  0.00000000000E+00  0.11942541827E+03  0.61165986281E+03  0.59988778721E+03 0.  0.
        5    1    3    3  502    0  0.11481042118E+03 -0.53524050569E+02  0.33688913023E+03  0.35994809746E+03  0.46999998093E+01 0. -1.
       -5    1    3    3    0  502 -0.11481042118E+03  0.53524050569E+02 -0.21746371196E+03  0.25171176535E+03  0.46999998093E+01 0.  1.
</event>
<event>
 5   0  0.9496750E-04  0.5997197E+03  0.7818609E-02  0.9905988E-01
       -4   -1    0    0    0  501  0.00000000000E+00  0.00000000000E+00  0.17609405053E+03  0.17609863013E+03  0.12699999809E+01 0. -1.
        4   -1    0    0  501    0  0.00000000000E+00  0.00000000000E+00 -0.51060111959E+03  0.51060269900E+03  0.12699999809E+01 0.  1.
    10030    2    1    2    0    0  0.00000000000E+00  0.00000000000E+00 -0.33450706906E+03  0.68670132913E+03  0.59971971469E+03 0.  0.
        1    1    3    3  502    0  0.13545783306E+03  0.24930762150E+03 -0.56162394350E+02  0.28923576756E+03  0.50400001928E-02 0.  1.
       -1    1    3    3    0  502 -0.13545783306E+03 -0.24930762150E+03 -0.27834467471E+03  0.39746556157E+03  0.50400001928E-02 0. -1.
</event>
<event>
 5   0  0.2406307E-03  0.6000020E+03  0.7818609E-02  0.9905402E-01
       -2   -1    0    0    0  501  0.00000000000E+00  0.00000000000E+00  0.81211121686E+03  0.81211121686E+03  0.25500000920E-02 0.  1.
        2   -1    0    0  501    0  0.00000000000E+00  0.00000000000E+00 -0.11082301259E+03  0.11082301262E+03  0.25500000920E-02 0. -1.
    10030    2    1    2    0    0  0.00000000000E+00  0.00000000000E+00  0.70128820427E+03  0.92293422949E+03  0.60000203876E+03 0.  0.
        5    1    3    3  502    0 -0.16819838845E+03  0.20131839525E+03  0.57439397629E+03  0.63148263962E+03  0.46999998093E+01 0.  1.
       -5    1    3    3    0  502  0.16819838845E+03 -0.20131839525E+03  0.12689422798E+03  0.29145158987E+03  0.46999998093E+01 0. -1.
</event>
<event>
 5   0  0.1423430E-03  0.5996677E+03  0.7818609E-02  0.9906096E-01
        1   -1    0    0  501    0  0.00000000000E+00  0.00000000000E+00  0.86749321041E+03  0.86749321042E+03  0.50400001928E-02 0. -1.
       -1   -1    0    0    0  501  0.00000000000E+00  0.00000000000E+00 -0.10363232529E+03  0.10363232541E+03  0.50400001928E-02 0.  1.
    10030    2    1    2    0    0  0.00000000000E+00  0.00000000000E+00  0.76386088512E+03  0.97112553583E+03  0.59966770342E+03 0.  0.
        1    1    3    3  502    0  0.73571168533E+02 -0.83557095836E+02 -0.68919387322E+02  0.13093657655E+03  0.50400001928E-02 0.  1.
       -1    1    3    3    0  502 -0.73571168533E+02  0.83557095836E+02  0.83278027244E+03  0.84018895928E+03  0.50400001928E-02 0. -1.
</event>
<event>
 5   0  0.1416315E-03  0.6009445E+03  0.7818609E-02  0.9903448E-01
        1   -1    0    0  501    0  0.00000000000E+00  0.00000000000E+00  0.65760374807E+03  0.65760374809E+03  0.50400001928E-02 0.  1.
       -1   -1    0    0    0  501  0.00000000000E+00  0.00000000000E+00 -0.13729175992E+03  0.13729176001E+03  0.50400001928E-02 0. -1.
    10030    2    1    2    0    0  0.00000000000E+00  0.00000000000E+00  0.52031198815E+03  0.79489550810E+03  0.60094450974E+03 0.  0.
        2    1    3    3  502    0 -0.11213649525E+03 -0.27820747344E+03  0.23688231777E+03  0.38221358470E+03  0.25500000920E-02 0.  1.
       -2    1    3    3    0  502  0.11213649525E+03  0.27820747344E+03  0.28342967038E+03  0.41268192341E+03  0.25500000920E-02 0. -1.
</event>
<event>
 5   0  0.1479385E-03  0.5998929E+03  0.7818609E-02  0.9905628E-01
        1   -1    0    0  501    0  0.00000000000E+00  0.00000000000E+00  0.64475876080E+03  0.64475876082E+03  0.50400001928E-02 0.  1.
       -1   -1    0    0    0  501  0.00000000000E+00  0.00000000000E+00 -0.13953725115E+03  0.13953725124E+03  0.50400001928E-02 0. -1.
    10030    2    1    2    0    0  0.00000000000E+00  0.00000000000E+00  0.50522150965E+03  0.78429601206E+03  0.59989287438E+03 0.  0.
        3    1    3    3  502    0 -0.11036422094E+03  0.24238586443E+03  0.43299640317E+03  0.50834738506E+03  0.10100000352E+00 0.  1.
       -3    1    3    3    0  502  0.11036422094E+03 -0.24238586443E+03  0.72225106480E+02  0.27594862700E+03  0.10100000352E+00 0. -1.
</event>
<event>
 5   0  0.9496750E-04  0.5999735E+03  0.7818609E-02  0.9905461E-01
       -3   -1    0    0    0  501  0.00000000000E+00  0.00000000000E+00  0.14216524445E+03  0.14216528033E+03  0.10100000352E+00 0.  1.
        3   -1    0    0  501    0  0.00000000000E+00  0.00000000000E+00 -0.63301005272E+03  0.63301006078E+03  0.10100000352E+00 0. -1.
    10030    2    1    2    0    0  0.00000000000E+00  0.00000000000E+00 -0.49084480827E+03  0.77517534110E+03  0.59997348579E+03 0.  0.
        5    1    3    3  502    0  0.23556260633E+03  0.16562409062E+02 -0.64661464998E+01  0.23627940229E+03  0.46999998093E+01 0.  1.
       -5    1    3    3    0  502 -0.23556260633E+03 -0.16562409062E+02 -0.48437866177E+03  0.53889593882E+03  0.46999998093E+01 0. -1.
</event>
<event>
 5   0  0.1479385E-03  0.5998055E+03  0.7818609E-02  0.9905810E-01
       -1   -1    0    0    0  501  0.00000000000E+00  0.00000000000E+00  0.14460168387E+03  0.14460168396E+03  0.50400001928E-02 0.  1.
        1   -1    0    0  501    0  0.00000000000E+00  0.00000000000E+00 -0.62199589852E+03  0.62199589854E+03  0.50400001928E-02 0. -1.
    10030    2    1    2    0    0  0.00000000000E+00  0.00000000000E+00 -0.47739421465E+03  0.76659758250E+03  0.59980548290E+03 0.  0.
        3    1    3    3  502    0  0.32147505107E+02  0.24619121698E+03 -0.45369559108E+03  0.51718785462E+03  0.10100000352E+00 0. -1.
       -3    1    3    3    0  502 -0.32147505107E+02 -0.24619121698E+03 -0.23698623570E+02  0.24940972788E+03  0.10100000352E+00 0.  1.
</event>
<event>
 5   0  0.2313168E-03  0.5996934E+03  0.7818609E-02  0.9906042E-01
        2   -1    0    0  501    0  0.00000000000E+00  0.00000000000E+00  0.75965604166E+03  0.75965604166E+03  0.25500000920E-02 0.  1.
       -2   -1    0    0    0  501  0.00000000000E+00  0.00000000000E+00 -0.11835360430E+03  0.11835360432E+03  0.25500000920E-02 0. -1.
    10030    2    1    2    0    0  0.00000000000E+00  0.00000000000E+00  0.64130243736E+03  0.87800964599E+03  0.59969335687E+03 0.  0.
        2    1    3    3  502    0  0.21759300893E+03 -0.19000574350E+03  0.20298356934E+03  0.35305981013E+03  0.25500000920E-02 0. -1.
       -2    1    3    3    0  502 -0.21759300893E+03  0.19000574350E+03  0.43831886802E+03  0.52494983586E+03  0.25500000920E-02 0.  1.
</event>
<event>
 5   0  0.1479385E-03  0.5998404E+03  0.7818609E-02  0.9905737E-01
        1   -1    0    0  501    0  0.00000000000E+00  0.00000000000E+00  0.12929792628E+03  0.12929792638E+03  0.50400001928E-02 0.  1.
       -1   -1    0    0    0  501  0.00000000000E+00  0.00000000000E+00 -0.69569649492E+03  0.69569649494E+03  0.50400001928E-02 0. -1.
    10030    2    1    2    0    0  0.00000000000E+00  0.00000000000E+00 -0.56639856864E+03  0.82499442132E+03  0.59984035930E+03 0.  0.
        3    1    3    3  502    0  0.97013187991E+02  0.31980806206E+02  0.10463610381E+03  0.14622946020E+03  0.10100000352E+00 0.  1.
       -3    1    3    3    0  502 -0.97013187991E+02 -0.31980806206E+02 -0.67103467245E+03  0.67876496112E+03  0.10100000352E+00 0. -1.
</event>
<event>
 5   0  0.1416315E-03  0.5999404E+03  0.7818609E-02  0.9905530E-01
       -1   -1    0    0    0  501  0.00000000000E+00  0.00000000000E+00  0.10110225794E+03  0.10110225807E+03  0.50400001928E-02 0. -1.
        1   -1    0    0  501    0  0.00000000000E+00  0.00000000000E+00 -0.89001091400E+03  0.89001091401E+03  0.50400001928E-02 0.  1.
    10030    2    1    2    0    0  0.00000000000E+00  0.00000000000E+00 -0.78890865605E+03  0.99111317208E+03  0.59994037393E+03 0.  0.
        2    1    3    3  502    0 -0.14010768695E+03 -0.14140897263E+03 -0.23740824285E+02  0.20047515613E+03  0.25500000920E-02 0. -1.
       -2    1    3    3    0  502  0.14010768695E+03  0.14140897263E+03 -0.76516783177E+03  0.79063801595E+03  0.25500000920E-02 0.  1.
</event>
<event>
 5   0  0.1423430E-03  0.6001083E+03  0.7818609E-02  0.9905181E-01
       -1   -1    0    0    0  501  0.00000000000E+00  0.00000000000E+00  0.11026737227E+03  0.11026737238E+03  0.50400001928E-02 0.  1.
        1   -1    0    0  501    0  0.00000000000E+00  0.00000000000E+00 -0.81649261103E+03  0.81649261105E+03  0.50400001928E-02 0. -1.
    10030    2    1    2    0    0  0.00000000000E+00  0.00000000000E+00 -0.70622523876E+03  0.92675998343E+03  0.60010830607E+03 0.  0.
        1    1    3    3  502    0 -0.27913439028E+03 -0.81035761165E+02 -0.46815876885E+03  0.55104939462E+03  0.50400001928E-02 0. -1.
       -1    1    3    3    0  502  0.27913439028E+03  0.81035761165E+02 -0.23806646991E+03  0.37571058881E+03  0.50400001928E-02 0.  1.
</event>
<event>
 5   0  0.2421210E-03  0.6006551E+03  0.7818609E-02  0.9904048E-01
       -2   -1    0    0    0  501  0.00000000000E+00  0.00000000000E+00  0.16596834064E+03  0.16596834066E+03  0.25500000920E-02 0.  1.
        2   -1    0    0  501    0  0.00000000000E+00  0.00000000000E+00 -0.54345696618E+03  0.54345696619E+03  0.25500000920E-02 0. -1.
    10030    2    1    2    0    0  0.00000000000E+00  0.00000000000E+00 -0.37748862554E+03  0.70942530685E+03  0.60065514531E+03 0.  0.
        1    1    3    3  502    0 -0.13147324827E+03  0.11237708272E+03 -0.47873114702E+03  0.50901604580E+03  0.50400001928E-02 0. -1.
       -1    1    3    3    0  502  0.13147324827E+03 -0.11237708272E+03  0.10124252149E+03  0.20040926105E+03  0.50400001928E-02 0.  1.
</event>
<event>
 5   0  0.2313168E-03  0.6000545E+03  0.7818609E-02  0.9905293E-01
        2   -1    0    0  501    0  0.00000000000E+00  0.00000000000E+00  0.69674727391E+03  0.69674727392E+03  0.25500000920E-02 0.  1.
       -2   -1    0    0    0  501  0.00000000000E+00  0.00000000000E+00 -0.12919513539E+03  0.12919513541E+03  0.25500000920E-02 0. -1.
    10030    2    1    2    0    0  0.00000000000E+00  0.00000000000E+00  0.56755213853E+03  0.82594240933E+03  0.60005452551E+03 0.  0.
        2    1    3    3  502    0 -0.60889693775E+02 -0.24437665430E+03  0.50822051566E+03  0.56719978537E+03  0.25500000920E-02 0.  1.
       -2    1    3    3    0  502  0.60889693775E+02  0.24437665430E+03  0.59331622863E+02  0.25874262396E+03  0.25500000920E-02 0. -1.
</event>
<event>
 5   0  0.9496750E-04  0.6003638E+03  0.7818609E-02  0.9904652E-01
       -3   -1    0    0    0  501  0.00000000000E+00  0.00000000000E+00  0.73183903298E+02  0.73183972992E+02  0.10100000352E+00 0.  1.
        3   -1    0    0  501    0  0.00000000000E+00  0.00000000000E+00 -0.12312697064E+04  0.12312697105E+04  0.10100000352E+00 0. -1.
    10030    2    1    2    0    0  0.00000000000E+00  0.00000000000E+00 -0.11580858031E+04  0.13044536835E+04  0.60036379399E+03 0.  0.
        3    1    3    3  502    0 -0.14755892510E+03 -0.22495345320E+03 -0.86836827586E+03  0.90908809540E+03  0.10100000352E+00 0. -1.
       -3    1    3    3    0  502  0.14755892510E+03  0.22495345320E+03 -0.28971752721E+03  0.39536558810E+03  0.10100000352E+00 0.  1.
</event>
<event>
 5   0  0.1479385E-03  0.6000595E+03  0.7818609E-02  0.9905283E-01
       -1   -1    0    0    0  501  0.00000000000E+00  0.00000000000E+00  0.58136982642E+02  0.58136982861E+02  0.50400001928E-02 0.  1.
        1   -1    0    0  501    0  0.00000000000E+00  0.00000000000E+00 -0.15483751849E+04  0.15483751849E+04  0.50400001928E-02 0. -1.
    10030    2    1    2    0    0  0.00000000000E+00  0.00000000000E+00 -0.14902382022E+04  0.16065121677E+04  0.60005953514E+03 0.  0.
        3    1    3    3  502    0 -0.13744071202E+03  0.90841221959E+02 -0.73796372368E+02  0.18052144389E+03  0.10100000352E+00 0.  1.
       -3    1    3    3    0  502  0.13744071202E+03 -0.90841221959E+02 -0.14164418299E+04  0.14259907238E+04  0.10100000352E+00 0. -1.
</event>
<event>
 5   0  0.2421210E-03  0.5997703E+03  0.7818609E-02  0.9905883E-01
       -2   -1    0    0    0  501  0.00000000000E+00  0.00000000000E+00  0.17519285847E+03  0.17519285849E+03  0.25500000920E-02 0. -1.
        2   -1    0    0  501    0  0.00000000000E+00  0.00000000000E+00 -0.51332626870E+03  0.51332626871E+03  0.25500000920E-02 0.  1.
    10030    2    1    2    0    0  0.00000000000E+00  0.00000000000E+00 -0.33813341023E+03  0.68851912720E+03  0.59977027720E+03 0.  0.
        1    1    3    3  502    0 -0.29825974892E+03 -0.11215829588E+02 -0.13566835842E+03  0.32785755468E+03  0.50400001928E-02 0. -1.
       -1    1    3    3    0  502  0.29825974892E+03  0.11215829588E+02 -0.20246505181E+03  0.36066157252E+03  0.50400001928E-02 0.  1.
</event>
<event>
 5   0  0.1423430E-03  0.5996969E+03  0.7818609E-02  0.9906035E-01
        1   -1    0    0  501    0  0.00000000000E+00  0.00000000000E+00  0.12610542172E+04  0.12610542172E+04  0.50400001928E-02 0.  1.
       -1   -1    0    0    0  501  0.00000000000E+00  0.00000000000E+00 -0.71296760178E+02  0.71296760356E+02  0.50400001928E-02 0. -1.
    10030    2    1    2    0    0  0.00000000000E+00  0.00000000000E+00  0.11897574570E+04  0.13323509775E+04  0.59969685748E+03 0.  0.
        1    1    3    3  502    0  0.16553573469E+03  0.92562415138E+01  0.39801571224E+02  0.17050490481E+03  0.50400001928E-02 0. -1.
       -1    1    3    3    0  502 -0.16553573469E+03 -0.92562415138E+01  0.11499558858E+04  0.11618460727E+04  0.50400001928E-02 0.  1.
</event>
<event>
 5   0  0.1479385E-03  0.6000408E+03  0.7818609E-02  0.9905321E-01
       -1   -1    0    0    0  501  0.00000000000E+00  0.00000000000E+00  0.10339688320E+03  0.10339688332E+03  0.50400001928E-02 0. -1.
        1   -1    0    0  501    0  0.00000000000E+00  0.00000000000E+00 -0.87055082325E+03  0.87055082327E+03  0.50400001928E-02 0.  1.
    10030    2    1    2    0    0  0.00000000000E+00  0.00000000000E+00 -0.76715394006E+03  0.97394770659E+03  0.60004080480E+03 0.  0.
        3    1    3    3  502    0  0.22605934011E+02 -0.27414684704E+03 -0.57797897317E+03  0.64009938730E+03  0.10100000352E+00 0.  1.
       -3    1    3    3    0  502 -0.22605934011E+02  0.27414684704E+03 -0.18917496689E+03  0.33384831929E+03  0.10100000352E+00 0. -1.
</event>
<event>
 5   0  0.2324616E-03  0.6002668E+03  0.7818609E-02  0.9904853E-01
       -2   -1    0    0    0  501  0.00000000000E+00  0.00000000000E+00  0.20677351820E+03  0.20677351822E+03  0.25500000920E-02 0.  1.
        2   -1    0    0  501    0  0.00000000000E+00  0.00000000000E+00 -0.43564605082E+03  0.43564605082E+03  0.25500000920E-02 0. -1.
    10030    2    1    2    0    0  0.00000000000E+00  0.00000000000E+00 -0.22887253261E+03  0.64241956904E+03  0.60026682942E+03 0.  0.
        4    1    3    3  502    0  0.13251808037E+02 -0.16126799883E+03  0.15609002027E+03  0.22483034757E+03  0.12699999809E+01 0.  1.
       -4    1    3    3    0  502 -0.13251808037E+02  0.16126799883E+03 -0.38496255289E+03  0.41758922147E+03  0.12699999809E+01 0. -1.
</event>
<event>
 5   0  0.9496750E-04  0.5999915E+03  0.7818609E-02  0.9905424E-01
        4   -1    0    0  501    0  0.00000000000E+00  0.00000000000E+00  0.21975470978E+03  0.21975837952E+03  0.12699999809E+01 0. -1.
       -4   -1    0    0    0  501  0.00000000000E+00  0.00000000000E+00 -0.40952789434E+03  0.40952986356E+03  0.12699999809E+01 0.  1.
    10030    2    1    2    0    0  0.00000000000E+00  0.00000000000E+00 -0.18977318456E+03  0.62928824308E+03  0.59999152602E+03 0.  0.
        2    1    3    3  502    0  0.23550444792E+02 -0.64995782957E+02  0.21128940762E+03  0.22231124360E+03  0.25500000920E-02 0. -1.
       -2    1    3    3    0  502 -0.23550444792E+02  0.64995782957E+02 -0.40106259218E+03  0.40697699948E+03  0.25500000920E-02 0.  1.
</event>
<event>
 5   0  0.1418763E-03  0.5998005E+03  0.7818609E-02  0.9905820E-01
        1   -1    0    0  501    0  0.00000000000E+00  0.00000000000E+00  0.55109342187E+03  0.55109342190E+03  0.50400001928E-02 0. -1.
       -1   -1    0    0    0  501  0.00000000000E+00  0.00000000000E+00 -0.16320311146E+03  0.16320311154E+03  0.50400001928E-02 0.  1.
    10030    2    1    2    0    0  0.00000000000E+00  0.00000000000E+00  0.38789031041E+03  0.71429653343E+03  0.59980050414E+03 0.  0.
        5    1    3    3  502    0 -0.29976947374E+02  0.15361634884E+03  0.49854653698E+03  0.52255845562E+03  0.46999998093E+01 0. -1.
       -5    1    3    3    0  502  0.29976947374E+02 -0.15361634884E+03 -0.11065622657E+03  0.19173807781E+03  0.46999998093E+01 0.  1.
</event>
<event>
 5   0  0.2421210E-03  0.5997027E+03  0.7818609E-02  0.9906023E-01
       -2   -1    0    0    0  501  0.00000000000E+00  0.00000000000E+00  0.76681898287E+02  0.76681898330E+02  0.25500000920E-02 0. -1.
        2   -1    0    0  501    0  0.00000000000E+00  0.00000000000E+00 -0.11725170028E+04  0.11725170029E+04  0.25500000920E-02 0.  1.
    10030    2    1    2    0    0  0.00000000000E+00  0.00000000000E+00 -0.10958351046E+04  0.12491989012E+04  0.59970269161E+03 0.  0.
        1    1    3    3  502    0 -0.23664590087E+03 -0.86222921990E+02 -0.88685132841E+03  0.92192242266E+03  0.50400001928E-02 0.  1.
       -1    1    3    3    0  502  0.23664590087E+03  0.86222921990E+02 -0.20898377615E+03  0.32727647852E+03  0.50400001928E-02 0. -1.
</event>
<event>
 5   0  0.2406307E-03  0.5993753E+03  0.7818609E-02  0.9906703E-01
        2   -1    0    0  501    0  0.00000000000E+00  0.00000000000E+00  0.27416615101E+03  0.27416615102E+03  0.25500000920E-02 0. -1.
       -2   -1    0    0    0  501  0.00000000000E+00  0.00000000000E+00 -0.32758492396E+03  0.32758492397E+03  0.25500000920E-02 0.  1.
    10030    2    1    2    0    0  0.00000000000E+00  0.00000000000E+00 -0.53418772950E+02  0.60175107499E+03  0.59937533395E+03 0.  0.
        5    1    3    3  502    0  0.10356702137E+02 -0.17903477245E+02  0.27341163878E+03  0.27423313074E+03  0.46999998093E+01 0. -1.
       -5    1    3    3    0  502 -0.10356702137E+02  0.17903477245E+02 -0.32683041173E+03  0.32751794425E+03  0.46999998093E+01 0.  1.
</event>
<event>
 5   0  0.2324616E-03  0.5998990E+03  0.7818609E-02  0.9905616E-01
       -2   -1    0    0    0  501  0.00000000000E+00  0.00000000000E+00  0.10502598438E+03  0.10502598441E+03  0.25500000920E-02 0.  1.
        2   -1    0    0  501    0  0.00000000000E+00  0.00000000000E+00 -0.85664235174E+03  0.85664235174E+03  0.25500000920E-02 0. -1.
    10030    2    1    2    0    0  0.00000000000E+00  0.00000000000E+00 -0.75161636735E+03  0.96166833615E+03  0.59989901240E+03 0.  0.
        4    1    3    3  502    0  0.28717072897E+03 -0.68779984080E+02 -0.46018377099E+03  0.54678005612E+03  0.12699999809E+01 0. -1.
       -4    1    3    3    0  502 -0.28717072897E+03  0.68779984080E+02 -0.29143259637E+03  0.41488828004E+03  0.12699999809E+01 0.  1.
</event>
<event>
 5   0  0.1479385E-03  0.5998474E+03  0.7818609E-02  0.9905723E-01
        1   -1    0    0  501    0  0.00000000000E+00  0.00000000000E+00  0.10176859125E+04  0.10176859126E+04  0.50400001928E-02 0. -1.
       -1   -1    0    0    0  501  0.00000000000E+00  0.00000000000E+00 -0.88390944867E+02  0.88390945011E+02  0.50400001928E-02 0.  1.
    10030    2    1    2    0    0  0.00000000000E+00  0.00000000000E+00  0.92929496767E+03  0.11060768576E+04  0.59984737884E+03 0.  0.
        3    1    3    3  502    0  0.63376431218E+02  0.85547379974E+02 -0.52374583256E+02  0.11865088886E+03  0.10100000352E+00 0.  1.
       -3    1    3    3    0  502 -0.63376431218E+02 -0.85547379974E+02  0.98166955093E+03  0.98742596870E+03  0.10100000352E+00 0. -1.
</event>
<event>
 5   0  0.1479385E-03  0.6000572E+03  0.7818609E-02  0.9905287E-01
       -1   -1    0    0    0  501  0.00000000000E+00  0.00000000000E+00  0.53593880792E+03  0.53593880795E+03  0.50400001928E-02 0.  1.
        1   -1    0    0  501    0  0.00000000000E+00  0.00000000000E+00 -0.16796164260E+03  0.16796164268E+03  0.50400001928E-02 0. -1.
    10030    2    1    2    0    0  0.00000000000E+00  0.00000000000E+00  0.36797716532E+03  0.70390045062E+03  0.60005720576E+03 0.  0.
        3    1    3    3  502    0  0.16658151749E+03 -0.31610643478E+02 -0.10637174259E+03  0.20015891830E+03  0.10100000352E+00 0. -1.
       -3    1    3    3    0  502 -0.16658151749E+03  0.31610643478E+02  0.47434890791E+03  0.50374153233E+03  0.10100000352E+00 0.  1.
</event>
<event>
 5   0  0.2346281E-03  0.6001115E+03  0.7818609E-02  0.9905175E-01
       -2   -1    0    0    0  501  0.00000000000E+00  0.00000000000E+00  0.52876326054E+02  0.52876326115E+02  0.25500000920E-02 0.  1.
        2   -1    0    0  501    0  0.00000000000E+00  0.00000000000E+00 -0.17027176762E+04  0.17027176762E+04  0.25500000920E-02 0. -1.
    10030    2    1    2    0    0  0.00000000000E+00  0.00000000000E+00 -0.16498413501E+04  0.17555940023E+04  0.60011150657E+03 0.  0.
        3    1    3    3  502    0 -0.17106685794E+03  0.86500139363E+02 -0.14960940768E+03  0.24316481872E+03  0.10100000352E+00 0.  1.
       -3    1    3    3    0  502  0.17106685794E+03 -0.86500139363E+02 -0.15002319425E+04  0.15124291836E+04  0.10100000352E+00 0. -1.
</event>
<event>
 5   0  0.2324616E-03  0.6001533E+03  0.7818609E-02  0.9905088E-01
       -2   -1    0    0    0  501  0.00000000000E+00  0.00000000000E+00  0.92252651043E+02  0.92252651078E+02  0.25500000920E-02 0. -1.
        2   -1    0    0  501    0  0.00000000000E+00  0.00000000000E+00 -0.97608026999E+03  0.97608026999E+03  0.25500000920E-02 0.  1.
    10030    2    1    2    0    0  0.00000000000E+00  0.00000000000E+00 -0.88382761895E+03  0.10683329211E+04  0.60015328895E+03 0.  0.
        4    1    3    3  502    0  0.26458437163E+02  0.45874636024E+02  0.83863539747E+02  0.99192929821E+02  0.12699999809E+01 0. -1.
       -4    1    3    3    0  502 -0.26458437163E+02 -0.45874636024E+02 -0.96769115869E+03  0.96913999125E+03  0.12699999809E+01 0.  1.
</event>
<event>
 5   0  0.1416315E-03  0.6001257E+03  0.7818609E-02  0.9905145E-01
        1   -1    0    0  501    0  0.00000000000E+00  0.00000000000E+00  0.12564599065E+03  0.12564599075E+03  0.50400001928E-02 0.  1.
       -1   -1    0    0    0  501  0.00000000000E+00  0.00000000000E+00 -0.71659828354E+03  0.71659828355E+03  0.50400001928E-02 0. -1.
    10030    2    1    2    0    0  0.00000000000E+00  0.00000000000E+00 -0.59095229288E+03  0.84224427431E+03  0.60012565779E+03 0.  0.
        2    1    3    3  502    0  0.27549138880E+03  0.29766258692E+02 -0.13388973494E+03  0.30774664350E+03  0.25500000920E-02 0.  1.
       -2    1    3    3    0  502 -0.27549138880E+03 -0.29766258692E+02 -0.45706255794E+03  0.53449763081E+03  0.25500000920E-02 0. -1.
</event>
<event>
 5   0  0.1423430E-03  0.6003007E+03  0.7818609E-02  0.9904782E-01
       -1   -1    0    0    0  501  0.00000000000E+00  0.00000000000E+00  0.29446160193E+03  0.29446160198E+03  0.50400001928E-02 0.  1.
        1   -1    0    0  501    0  0.00000000000E+00  0.00000000000E+00 -0.30594900074E+03  0.30594900078E+03  0.50400001928E-02 0. -1.
    10030    2    1    2    0    0  0.00000000000E+00  0.00000000000E+00 -0.11487398810E+02  0.60041060276E+03  0.60030070096E+03 0.  0.
        1    1    3    3  502    0 -0.21085943610E+03 -0.19244056678E+03 -0.98470754725E+02  0.30197940840E+03  0.50400001928E-02 0.  1.
       -1    1    3    3    0  502  0.21085943610E+03  0.19244056678E+03  0.86983355915E+02  0.29843119436E+03  0.50400001928E-02 0. -1.
</event>
<event>
 5   0  0.1416315E-03  0.5999314E+03  0.7818609E-02  0.9905548E-01
        1   -1    0    0  501    0  0.00000000000E+00  0.00000000000E+00  0.88075938566E+03  0.88075938568E+03  0.50400001928E-02 0. -1.
       -1   -1    0    0    0  501  0.00000000000E+00  0.00000000000E+00 -0.10216119580E+03  0.10216119593E+03  0.50400001928E-02 0.  1.
    10030    2    1    2    0    0  0.00000000000E+00  0.00000000000E+00  0.77859818986E+03  0.98292058160E+03  0.59993143649E+03 0.  0.
        2    1    3    3  502    0 -0.34181402620E+01  0.68241834125E+02 -0.89241536063E+02  0.11239521063E+03  0.25500000920E-02 0.  1.
       -2    1    3    3    0  502  0.34181402620E+01 -0.68241834125E+02  0.86783972592E+03  0.87052537097E+03  0.25500000920E-02 0. -1.
</event>
<event>
 5   0  0.9496750E-04  0.6005585E+03  0.7818609E-02  0.9904248E-01
       -3   -1    0    0    0  501  0.00000000000E+00  0.00000000000E+00  0.14378677056E+03  0.14378680604E+03  0.10100000352E+00 0.  1.
        3   -1    0    0  501    0  0.00000000000E+00  0.00000000000E+00 -0.62709259461E+03  0.62709260274E+03  0.10100000352E+00 0. -1.
    10030    2    1    2    0    0  0.00000000000E+00  0.00000000000E+00 -0.48330582405E+03  0.77087940878E+03  0.60055852614E+03 0.  0.
        2    1    3    3  502    0  0.13063779898E+03  0.86028197256E+02  0.87362023237E+02  0.17916251940E+03  0.25500000920E-02 0.  1.
       -2    1    3    3    0  502 -0.13063779898E+03 -0.86028197256E+02 -0.57066784729E+03  0.59171688938E+03  0.25500000920E-02 0. -1.
</event>
<event>
 5   0  0.2324616E-03  0.6001811E+03  0.7818609E-02  0.9905030E-01
        2   -1    0    0  501    0  0.00000000000E+00  0.00000000000E+00  0.51396765837E+03  0.51396765838E+03  0.25500000920E-02 0.  1.
       -2   -1    0    0    0  501  0.00000000000E+00  0.00000000000E+00 -0.17521404454E+03  0.17521404456E+03  0.25500000920E-02 0. -1.
    10030    2    1    2    0    0  0.00000000000E+00  0.00000000000E+00  0.33875361383E+03  0.68918170294E+03  0.60018114664E+03 0.  0.
        4    1    3    3  502    0 -0.35209746192E+02  0.25269987684E+03 -0.12023079345E+02  0.25542733080E+03  0.12699999809E+01 0. -1.
       -4    1    3    3    0  502  0.35209746192E+02 -0.25269987684E+03  0.35077669317E+03  0.43375437214E+03  0.12699999809E+01 0.  1.
</event>
<event>
 5   0  0.2324616E-03  0.5997482E+03  0.7818609E-02  0.9905929E-01
       -2   -1    0    0    0  501  0.00000000000E+00  0.00000000000E+00  0.15631292924E+03  0.15631292926E+03  0.25500000920E-02 0. -1.
        2   -1    0    0  501    0  0.00000000000E+00  0.00000000000E+00 -0.57528490221E+03  0.57528490221E+03  0.25500000920E-02 0.  1.
    10030    2    1    2    0    0  0.00000000000E+00  0.00000000000E+00 -0.41897197297E+03  0.73159783148E+03  0.59974817456E+03 0.  0.
        4    1    3    3  502    0 -0.20963445326E+03 -0.13433765269E+03 -0.41334794557E+03  0.48254672927E+03  0.12699999809E+01 0.  1.
       -4    1    3    3    0  502  0.20963445326E+03  0.13433765269E+03 -0.56240273958E+01  0.24905110220E+03  0.12699999809E+01 0. -1.
</event>
<event>
 5   0  0.2406307E-03  0.5998276E+03  0.7818609E-02  0.9905764E-01
       -2   -1    0    0    0  501  0.00000000000E+00  0.00000000000E+00  0.84593859478E+02  0.84593859517E+02  0.25500000920E-02 0.  1.
        2   -1    0    0  501    0  0.00000000000E+00  0.00000000000E+00 -0.10632957040E+04  0.10632957041E+04  0.25500000920E-02 0. -1.
    10030    2    1    2    0    0  0.00000000000E+00  0.00000000000E+00 -0.97870184457E+03  0.11478895636E+04  0.59982759989E+03 0.  0.
        5    1    3    3  502    0 -0.59168009702E+02  0.10803022254E+03 -0.10125816586E+04  0.10200564139E+04  0.46999998093E+01 0. -1.
       -5    1    3    3    0  502  0.59168009702E+02 -0.10803022254E+03  0.33879813983E+02  0.12783314964E+03  0.46999998093E+01 0.  1.
</event>
<event>
 5   0  0.9496750E-04  0.5999743E+03  0.7818609E-02  0.9905459E-01
        3   -1    0    0  501    0  0.00000000000E+00  0.00000000000E+00  0.10729951685E+03  0.10729956438E+03  0.10100000352E+00 0. -1.
       -3   -1    0    0    0  501  0.00000000000E+00  0.00000000000E+00 -0.83870161409E+03  0.83870162017E+03  0.10100000352E+00 0.  1.
    10030    2    1    2    0    0  0.00000000000E+00  0.00000000000E+00 -0.73140209724E+03  0.94600118455E+03  0.59997434389E+03 0.  0.
        4    1    3    3  502    0 -0.10823778642E+03 -0.12716779728E+03 -0.75863311341E+03  0.77679655041E+03  0.12699999809E+01 0.  1.
       -4    1    3    3    0  502  0.10823778642E+03  0.12716779728E+03  0.27231016169E+02  0.16920463414E+03  0.12699999809E+01 0. -1.
</event>
<event>
 5   0  0.1479385E-03  0.6000664E+03  0.7818609E-02  0.9905268E-01
        1   -1    0    0  501    0  0.00000000000E+00  0.00000000000E+00  0.81693620324E+03  0.81693620326E+03  0.50400001928E-02 0. -1.
       -1   -1    0    0    0  501  0.00000000000E+00  0.00000000000E+00 -0.11019212158E+03  0.11019212169E+03  0.50400001928E-02 0.  1.
    10030    2    1    2    0    0  0.00000000000E+00  0.00000000000E+00  0.70674408166E+03  0.92712832495E+03  0.60006644129E+03 0.  0.
        3    1    3    3  502    0 -0.24046018194E+03 -0.11361979823E+02  0.76685420162E+02  0.25264769453E+03  0.10100000352E+00 0.  1.
       -3    1    3    3    0  502  0.24046018194E+03  0.11361979823E+02  0.63005866150E+03  0.67448063042E+03  0.10100000352E+00 0. -1.
</event>
<event>
 5   0  0.1416315E-03  0.5999894E+03  0.7818609E-02  0.9905428E-01
       -1   -1    0    0    0  501  0.00000000000E+00  0.00000000000E+00  0.60480394868E+03  0.60480394870E+03  0.50400001928E-02 0.  1.
        1   -1    0    0  501    0  0.00000000000E+00  0.00000000000E+00 -0.14880327558E+03  0.14880327566E+03  0.50400001928E-02 0. -1.
    10030    2    1    2    0    0  0.00000000000E+00  0.00000000000E+00  0.45600067310E+03  0.75360722437E+03  0.59998936219E+03 0.  0.
        2    1    3    3  502    0  0.20764542154E+03 -0.16841485131E+03  0.57084453313E+02  0.27338401205E+03  0.25500000920E-02 0. -1.
       -2    1    3    3    0  502 -0.20764542154E+03  0.16841485131E+03  0.39891621979E+03  0.48022321232E+03  0.25500000920E-02 0.  1.
</event>
<event>
 5   0  0.2421210E-03  0.6003903E+03  0.7818609E-02  0.9904597E-01
       -2   -1    0    0    0  501  0.00000000000E+00  0.00000000000E+00  0.10870703370E+03  0.10870703373E+03  0.25500000920E-02 0.  1.
        2   -1    0    0  501    0  0.00000000000E+00  0.00000000000E+00 -0.82899066338E+03  0.82899066338E+03  0.25500000920E-02 0. -1.
    10030    2    1    2    0    0  0.00000000000E+00  0.00000000000E+00 -0.72028362967E+03  0.93769769712E+03  0.60039025975E+03 0.  0.
        1    1    3    3  502    0  0.15860062926E+03  0.33959956088E+02  0.34381330742E+02  0.16579962047E+03  0.50400001928E-02 0.  1.
       -1    1    3    3    0  502 -0.15860062926E+03 -0.33959956088E+02 -0.75466496042E+03  0.77189807664E+03  0.50400001928E-02 0. -1.
</event>
<event>
 5   0  0.1416315E-03  0.6000349E+03  0.7818609E-02  0.9905334E-01
       -1   -1    0    0    0  501  0.00000000000E+00  0.00000000000E+00  0.65287250332E+02  0.65287250527E+02  0.50400001928E-02 0. -1.
        1   -1    0    0  501    0  0.00000000000E+00  0.00000000000E+00 -0.13786836009E+04  0.13786836009E+04  0.50400001928E-02 0.  1.
    10030    2    1    2    0    0  0.00000000000E+00  0.00000000000E+00 -0.13133963505E+04  0.14439708514E+04  0.60003487074E+03 0.  0.
        2    1    3    3  502    0  0.98872922999E+02 -0.60620337305E+02  0.91608315989E+01  0.11633830427E+03  0.25500000920E-02 0. -1.
       -2    1    3    3    0  502 -0.98872922999E+02  0.60620337305E+02 -0.13225571821E+04  0.13276325471E+04  0.25500000920E-02 0.  1.
</event>
<event>
 5   0  0.2324616E-03  0.6009271E+03  0.7818609E-02  0.9903485E-01
       -2   -1    0    0    0  501  0.00000000000E+00  0.00000000000E+00  0.15004290402E+03  0.15004290405E+03  0.25500000920E-02 0.  1.
        2   -1    0    0  501    0  0.00000000000E+00  0.00000000000E+00 -0.60168351681E+03  0.60168351682E+03  0.25500000920E-02 0. -1.
    10030    2    1    2    0    0  0.00000000000E+00  0.00000000000E+00 -0.45164061279E+03  0.75172642086E+03  0.60092709101E+03 0.  0.
        4    1    3    3  502    0  0.22455977235E+03  0.10502689846E+03 -0.43818259561E+03  0.50345142840E+03  0.12699999809E+01 0. -1.
       -4    1    3    3    0  502 -0.22455977235E+03 -0.10502689846E+03 -0.13458017182E+02  0.24827499247E+03  0.12699999809E+01 0.  1.
</event>
<event>
 5   0  0.1418763E-03  0.6002434E+03  0.7818609E-02  0.9904901E-01
       -1   -1    0    0    0  501  0.00000000000E+00  0.00000000000E+00  0.47012719127E+03  0.47012719130E+03  0.50400001928E-02 0. -1.
        1   -1    0    0  501    0  0.00000000000E+00  0.00000000000E+00 -0.19159291875E+03  0.19159291882E+03  0.50400001928E-02 0.  1.
    10030    2    1    2    0    0  0.00000000000E+00  0.00000000000E+00  0.27853427252E+03  0.66172011012E+03  0.60024341993E+03 0.  0.
        5    1    3    3  502    0  0.23721136172E+02 -0.29645500810E+03  0.18340092760E+03  0.34943705352E+03  0.46999998093E+01 0. -1.
       -5    1    3    3    0  502 -0.23721136172E+02  0.29645500810E+03  0.95133344919E+02  0.31228305660E+03  0.46999998093E+01 0.  1.
</event>
<event>
 5   0  0.2313168E-03  0.6000840E+03  0.7818609E-02  0.9905232E-01
        2   -1    0    0  501    0  0.00000000000E+00  0.00000000000E+00  0.50295797801E+03  0.50295797801E+03  0.25500000920E-02 0. -1.
       -2   -1    0    0    0  501  0.00000000000E+00  0.00000000000E+00 -0.17899150297E+03  0.17899150299E+03  0.25500000920E-02 0.  1.
    10030    2    1    2    0    0  0.00000000000E+00  0.00000000000E+00  0.32396647503E+03  0.68194948100E+03  0.60008400886E+03 0.  0.
        2    1    3    3  502    0  0.24910157544E+03  0.51131955534E+02 -0.18987079493E+02  0.25500309990E+03  0.25500000920E-02 0.  1.
       -2    1    3    3    0  502 -0.24910157544E+03 -0.51131955534E+02  0.34295355453E+03  0.42694638110E+03  0.25500000920E-02 0. -1.
</event>
<event>
 5   0  0.1392854E-03  0.6001326E+03  0.7818609E-02  0.9905131E-01
       -1   -1    0    0    0  501  0.00000000000E+00  0.00000000000E+00  0.30089162795E+03  0.30089162800E+03  0.50400001928E-02 0. -1.
        1   -1    0    0  501    0  0.00000000000E+00  0.00000000000E+00 -0.29924326046E+03  0.29924326050E+03  0.50400001928E-02 0.  1.
    10030    2    1    2    0    0  0.00000000000E+00  0.00000000000E+00  0.16483674948E+01  0.60013488850E+03  0.60013262474E+03 0.  0.
        4    1    3    3  502    0  0.13816846142E+03 -0.41648396800E+02 -0.26226057140E+03  0.29934483944E+03  0.12699999809E+01 0.  1.
       -4    1    3    3    0  502 -0.13816846142E+03  0.41648396800E+02  0.26390893889E+03  0.30079004906E+03  0.12699999809E+01 0. -1.
</event>
<event>
 5   0  0.2324616E-03  0.5998178E+03  0.7818609E-02  0.9905784E-01
       -2   -1    0    0    0  501  0.00000000000E+00  0.00000000000E+00  0.89604197686E+02  0.89604197722E+02  0.25500000920E-02 0.  1.
        2   -1    0    0  501    0  0.00000000000E+00  0.00000000000E+00 -0.10038074006E+04  0.10038074006E+04  0.25500000920E-02 0. -1.
    10030    2    1    2    0    0  0.00000000000E+00  0.00000000000E+00 -0.91420320287E+03  0.10934115983E+04  0.59981782828E+03 0.  0.
        4    1    3    3  502    0 -0.23326783299E+03  0.18211019281E+03 -0.54576569541E+03  0.62083799128E+03  0.12699999809E+01 0. -1.
       -4    1    3    3    0  502  0.23326783299E+03 -0.18211019281E+03 -0.36843750746E+03  0.47257360700E+03  0.12699999809E+01 0.  1.
</event>
<event>
 5   0  0.1479385E-03  0.6001649E+03  0.7818609E-02  0.9905064E-01
       -1   -1    0    0    0  501  0.00000000000E+00  0.00000000000E+00  0.54050433693E+03  0.54050433696E+03  0.50400001928E-02 0.  1.
        1   -1    0    0  501    0  0.00000000000E+00  0.00000000000E+00 -0.16660266880E+03  0.16660266888E+03  0.50400001928E-02 0. -1.
    10030    2    1    2    0    0  0.00000000000E+00  0.00000000000E+00  0.37390166813E+03  0.70710700583E+03  0.60016486090E+03 0.  0.
        3    1    3    3  502    0  0.76033706861E+01 -0.13733688789E+03  0.50117650376E+03  0.51970869739E+03  0.10100000352E+00 0.  1.
       -3    1    3    3    0  502 -0.76033706861E+01  0.13733688789E+03 -0.12727483563E+03  0.18739830844E+03  0.10100000352E+00 0. -1.
</event>
<event>
 5   0  0.2406307E-03  0.5999572E+03  0.7818609E-02  0.9905495E-01
        2   -1    0    0  501    0  0.00000000000E+00  0.00000000000E+00  0.49233669245E+03  0.49233669246E+03  0.25500000920E-02 0. -1.
       -2   -1    0    0    0  501  0.00000000000E+00  0.00000000000E+00 -0.18277566714E+03  0.18277566716E+03  0.25500000920E-02 0.  1.
    10030    2    1    2    0    0  0.00000000000E+00  0.00000000000E+00  0.30956102531E+03  0.67511235962E+03  0.59995722324E+03 0.  0.
        5    1    3    3  502    0 -0.12011022325E+03 -0.21669468652E+03  0.34502070060E+03  0.42478750774E+03  0.46999998093E+01 0. -1.
       -5    1    3    3    0  502  0.12011022325E+03  0.21669468652E+03 -0.35459675287E+02  0.25032485187E+03  0.46999998093E+01 0.  1.
</event>
<event>
 5   0  0.2406307E-03  0.6001665E+03  0.7818609E-02  0.9905061E-01
       -2   -1    0    0    0  501  0.00000000000E+00  0.00000000000E+00  0.86136239217E+02  0.86136239255E+02  0.25500000920E-02 0.  1.
        2   -1    0    0  501    0  0.00000000000E+00  0.00000000000E+00 -0.10454363328E+04  0.10454363328E+04  0.25500000920E-02 0. -1.
    10030    2    1    2    0    0  0.00000000000E+00  0.00000000000E+00 -0.95930009355E+03  0.11315725720E+04  0.60016649046E+03 0.  0.
        5    1    3    3  502    0 -0.13979540830E+03 -0.11597110590E+03 -0.92993193365E+03  0.94751651426E+03  0.46999998093E+01 0. -1.
       -5    1    3    3    0  502  0.13979540830E+03  0.11597110590E+03 -0.29368159901E+02  0.18405605776E+03  0.46999998093E+01 0.  1.
</event>
<event>
 5   0  0.2421210E-03  0.6000674E+03  0.7818609E-02  0.9905266E-01
        2   -1    0    0  501    0  0.00000000000E+00  0.00000000000E+00  0.11137256053E+03  0.11137256056E+03  0.25500000920E-02 0.  1.
       -2   -1    0    0    0  501  0.00000000000E+00  0.00000000000E+00 -0.80828006293E+03  0.80828006293E+03  0.25500000920E-02 0. -1.
    10030    2    1    2    0    0  0.00000000000E+00  0.00000000000E+00 -0.69690750240E+03  0.91965262349E+03  0.60006739704E+03 0.  0.
        1    1    3    3  502    0 -0.13490645555E+03 -0.22238759662E+03 -0.11926108718E+03  0.28614542075E+03  0.50400001928E-02 0.  1.
       -1    1    3    3    0  502  0.13490645555E+03  0.22238759662E+03 -0.57764641522E+03  0.63350720273E+03  0.50400001928E-02 0. -1.
</event>
<event>
 5   0  0.1416315E-03  0.6000395E+03  0.7818609E-02  0.9905324E-01
       -1   -1    0    0    0  501  0.00000000000E+00  0.00000000000E+00  0.61983115946E+03  0.61983115948E+03  0.50400001928E-02 0.  1.
        1   -1    0    0  501    0  0.00000000000E+00  0.00000000000E+00 -0.14521997081E+03  0.14521997089E+03  0.50400001928E-02 0. -1.
    10030    2    1    2    0    0  0.00000000000E+00  0.00000000000E+00  0.47461118865E+03  0.76505113037E+03  0.60003954177E+03 0.  0.
        2    1    3    3  502    0 -0.25623886763E+03 -0.15487547157E+03  0.21287695951E+03  0.36737088735E+03  0.25500000920E-02 0. -1.
       -2    1    3    3    0  502  0.25623886763E+03  0.15487547157E+03  0.26173422914E+03  0.39768024302E+03  0.25500000920E-02 0.  1.
</event>
<event>
 5   0  0.1479385E-03  0.5999673E+03  0.7818609E-02  0.9905474E-01
       -1   -1    0    0    0  501  0.00000000000E+00  0.00000000000E+00  0.94272387042E+03  0.94272387043E+03  0.50400001928E-02 0. -1.
        1   -1    0    0  501    0  0.00000000000E+00  0.00000000000E+00 -0.95457619488E+02  0.95457619621E+02  0.50400001928E-02 0.  1.
    10030    2    1    2    0    0  0.00000000000E+00  0.00000000000E+00  0.84726625093E+03  0.10381814901E+04  0.59996725437E+03 0.  0.
        3    1    3    3  502    0 -0.91440605891E+02  0.13639463572E+03  0.85804645637E+03  0.87361811597E+03  0.10100000352E+00 0. -1.
       -3    1    3    3    0  502  0.91440605891E+02 -0.13639463572E+03 -0.10780205440E+02  0.16456337408E+03  0.10100000352E+00 0.  1.
</event>
<event>
 5   0  0.1423430E-03  0.5999261E+03  0.7818609E-02  0.9905559E-01
       -1   -1    0    0    0  501  0.00000000000E+00  0.00000000000E+00  0.12190281028E+03  0.12190281038E+03  0.50400001928E-02 0. -1.
        1   -1    0    0  501    0  0.00000000000E+00  0.00000000000E+00 -0.73811117504E+03  0.73811117506E+03  0.50400001928E-02 0.  1.
    10030    2    1    2    0    0  0.00000000000E+00  0.00000000000E+00 -0.61620836476E+03  0.86001398544E+03  0.59992608407E+03 0.  0.
        1    1    3    3  502    0  0.12850218717E+03  0.29391858647E+02 -0.69436394408E+03  0.70676585962E+03  0.50400001928E-02 0.  1.
       -1    1    3    3    0  502 -0.12850218717E+03 -0.29391858647E+02  0.78155579319E+02  0.15324812582E+03  0.50400001928E-02 0. -1.
</event>
<event>
 5   0  0.2324616E-03  0.5993301E+03  0.7818609E-02  0.9906797E-01
       -2   -1    0    0    0  501  0.00000000000E+00  0.00000000000E+00  0.40415250603E+03  0.40415250603E+03  0.25500000920E-02 0.  1.
        2   -1    0    0  501    0  0.00000000000E+00  0.00000000000E+00 -0.22219122109E+03  0.22219122111E+03  0.25500000920E-02 0. -1.
    10030    2    1    2    0    0  0.00000000000E+00  0.00000000000E+00  0.18196128493E+03  0.62634372714E+03  0.59933008878E+03 0.  0.
        4    1    3    3  502    0  0.23786614477E+03 -0.16702596575E+03  0.16720330113E+03  0.33531557207E+03  0.12699999809E+01 0.  1.
       -4    1    3    3    0  502 -0.23786614477E+03  0.16702596575E+03  0.14757983803E+02  0.29102815508E+03  0.12699999809E+01 0. -1.
</event>
<event>
 5   0  0.1418763E-03  0.6002081E+03  0.7818609E-02  0.9904974E-01
       -1   -1    0    0    0  501  0.00000000000E+00  0.00000000000E+00  0.51115390874E+02  0.51115391123E+02  0.50400001928E-02 0. -1.
        1   -1    0    0  501    0  0.00000000000E+00  0.00000000000E+00 -0.17619434790E+04  0.17619434790E+04  0.50400001928E-02 0.  1.
    10030    2    1    2    0    0  0.00000000000E+00  0.00000000000E+00 -0.17108280881E+04  0.18130588701E+04  0.60020806346E+03 0.  0.
        5    1    3    3  502    0 -0.21909679431E+03 -0.12503555294E+03 -0.36457727477E+03  0.44336889162E+03  0.46999998093E+01 0. -1.
       -5    1    3    3    0  502  0.21909679431E+03  0.12503555294E+03 -0.13462508134E+04  0.13696899785E+04  0.46999998093E+01 0.  1.
</event>
<event>
 5   0  0.1392854E-03  0.6000342E+03  0.7818609E-02  0.9905335E-01
       -1   -1    0    0    0  501  0.00000000000E+00  0.00000000000E+00  0.17413930458E+03  0.17413930465E+03  0.50400001928E-02 0.  1.
        1   -1    0    0  501    0  0.00000000000E+00  0.00000000000E+00 -0.51688644377E+03  0.51688644380E+03  0.50400001928E-02 0. -1.
    10030    2    1    2    0    0  0.00000000000E+00  0.00000000000E+00 -0.34274713920E+03  0.69102574845E+03  0.60003415202E+03 0.  0.
        4    1    3    3  502    0  0.24773787073E+03 -0.50931540765E+02  0.14468232433E+02  0.25333577933E+03  0.12699999809E+01 0. -1.
       -4    1    3    3    0  502 -0.24773787073E+03  0.50931540765E+02 -0.35721537163E+03  0.43768996912E+03  0.12699999809E+01 0.  1.
</event>
<event>
 5   0  0.1416315E-03  0.6001347E+03  0.7818609E-02  0.9905127E-01
        1   -1    0    0  501    0  0.00000000000E+00  0.00000000000E+00  0.90702430892E+03  0.90702430893E+03  0.50400001928E-02 0.  1.
       -1   -1    0    0    0  501  0.00000000000E+00  0.00000000000E+00 -0.99270119755E+02  0.99270119883E+02  0.50400001928E-02 0. -1.
    10030    2    1    2    0    0  0.00000000000E+00  0.00000000000E+00  0.80775418916E+03  0.10062944288E+04  0.60013469101E+03 0.  0.
        2    1    3    3  502    0  0.76207570414E+02  0.26121233920E+03  0.19177303803E+03  0.33289094019E+03  0.25500000920E-02 0. -1.
       -2    1    3    3    0  502 -0.76207570414E+02 -0.26121233920E+03  0.61598115113E+03  0.67340348862E+03  0.25500000920E-02 0.  1.
</event>
<event>
 5   0  0.2346281E-03  0.5998211E+03  0.7818609E-02  0.9905777E-01
       -2   -1    0    0    0  501  0.00000000000E+00  0.00000000000E+00  0.53742766811E+02  0.53742766871E+02  0.25500000920E-02 0.  1.
        2   -1    0    0  501    0  0.00000000000E+00  0.00000000000E+00 -0.16736454571E+04  0.16736454571E+04  0.25500000920E-02 0. -1.
    10030    2    1    2    0    0  0.00000000000E+00  0.00000000000E+00 -0.16199026903E+04  0.17273882239E+04  0.59982109859E+03 0.  0.
        3    1    3    3  502    0  0.28832558519E+03 -0.15761195831E+02 -0.10433119556E+04  0.10825340204E+04  0.10100000352E+00 0. -1.
       -3    1    3    3    0  502 -0.28832558519E+03  0.15761195831E+02 -0.57659073468E+03  0.64485420359E+03  0.10100000352E+00 0.  1.
</event>
<event>
 5   0  0.2324616E-03  0.5998385E+03  0.7818609E-02  0.9905741E-01
       -2   -1    0    0    0  501  0.00000000000E+00  0.00000000000E+00  0.11953557166E+03  0.11953557169E+03  0.25500000920E-02 0.  1.
        2   -1    0    0  501    0  0.00000000000E+00  0.00000000000E+00 -0.75250877369E+03  0.75250877370E+03  0.25500000920E-02 0. -1.
    10030    2    1    2    0    0  0.00000000000E+00  0.00000000000E+00 -0.63297320204E+03  0.87204434538E+03  0.59983853313E+03 0.  0.
        4    1    3    3  502    0  0.15000639440E+03  0.17170708765E+03 -0.33220725010E+02  0.23041369703E+03  0.12699999809E+01 0.  1.
       -4    1    3    3    0  502 -0.15000639440E+03 -0.17170708765E+03 -0.59975247702E+03  0.64163064835E+03  0.12699999809E+01 0. -1.
</event>
<event>
 5   0  0.2421210E-03  0.6000619E+03  0.7818609E-02  0.9905278E-01
        2   -1    0    0  501    0  0.00000000000E+00  0.00000000000E+00  0.27841489885E+03  0.27841489886E+03  0.25500000920E-02 0.  1.
       -2   -1    0    0    0  501  0.00000000000E+00  0.00000000000E+00 -0.32332523815E+03  0.32332523816E+03  0.25500000920E-02 0. -1.
    10030    2    1    2    0    0  0.00000000000E+00  0.00000000000E+00 -0.44910339298E+02  0.60174013702E+03  0.60006187508E+03 0.  0.
        1    1    3    3  502    0 -0.22747541496E+03 -0.12285107797E+03  0.13022410060E+03  0.28947498713E+03  0.50400001928E-02 0.  1.
       -1    1    3    3    0  502  0.22747541496E+03  0.12285107797E+03 -0.17513443990E+03  0.31226514989E+03  0.50400001928E-02 0. -1.
</event>
<event>
 5   0  0.2346281E-03  0.6001943E+03  0.7818609E-02  0.9905003E-01
        2   -1    0    0  501    0  0.00000000000E+00  0.00000000000E+00  0.83941504025E+02  0.83941504064E+02  0.25500000920E-02 0.  1.
       -2   -1    0    0    0  501  0.00000000000E+00  0.00000000000E+00 -0.10728696586E+04  0.10728696586E+04  0.25500000920E-02 0. -1.
    10030    2    1    2    0    0  0.00000000000E+00  0.00000000000E+00 -0.98892815458E+03  0.11568111627E+04  0.60019427785E+03 0.  0.
        3    1    3    3  502    0 -0.82335314178E+02 -0.13545359828E+03 -0.33319521335E+01  0.15854934044E+03  0.10100000352E+00 0.  1.
       -3    1    3    3    0  502  0.82335314178E+02  0.13545359828E+03 -0.98559620245E+03  0.99826182223E+03  0.10100000352E+00 0. -1.
</event>
<event>
 5   0  0.1418763E-03  0.6044463E+03  0.7818609E-02  0.9896224E-01
        1   -1    0    0  501    0  0.00000000000E+00  0.00000000000E+00  0.32564654370E+03  0.32564654374E+03  0.50400001928E-02 0. -1.
       -1   -1    0    0    0  501  0.00000000000E+00  0.00000000000E+00 -0.28048453580E+03  0.28048453585E+03  0.50400001928E-02 0.  1.
    10030    2    1    2    0    0  0.00000000000E+00  0.00000000000E+00  0.45162007901E+02  0.60613107959E+03  0.60444625790E+03 0.  0.
        5    1    3    3  502    0  0.41688502935E+01  0.17207848537E+03  0.27164469519E+03  0.32162293896E+03  0.46999998093E+01 0. -1.
       -5    1    3    3    0  502 -0.41688502935E+01 -0.17207848537E+03 -0.22648268729E+03  0.28450814063E+03  0.46999998093E+01 0.  1.
</event>
<event>
 5   0  0.1392854E-03  0.5989589E+03  0.7818609E-02  0.9907568E-01
        1   -1    0    0  501    0  0.00000000000E+00  0.00000000000E+00  0.61369005168E+03  0.61369005170E+03  0.50400001928E-02 0.  1.
       -1   -1    0    0    0  501  0.00000000000E+00  0.00000000000E+00 -0.14614532886E+03  0.14614532895E+03  0.50400001928E-02 0. -1.
    10030    2    1    2    0    0  0.00000000000E+00  0.00000000000E+00  0.46754472282E+03  0.75983538065E+03  0.59895887827E+03 0.  0.
        4    1    3    3  502    0 -0.26558765376E+03 -0.13491817466E+03  0.27280313000E+03  0.40393424753E+03  0.12699999809E+01 0.  1.
       -4    1    3    3    0  502  0.26558765376E+03  0.13491817466E+03  0.19474159282E+03  0.35590113313E+03  0.12699999809E+01 0. -1.
</event>
<event>
 5   0  0.1479385E-03  0.5996996E+03  0.7818609E-02  0.9906030E-01
        1   -1    0    0  501    0  0.00000000000E+00  0.00000000000E+00  0.87000347994E+03  0.87000347996E+03  0.50400001928E-02 0. -1.
       -1   -1    0    0    0  501  0.00000000000E+00  0.00000000000E+00 -0.10334429474E+03  0.10334429486E+03  0.50400001928E-02 0.  1.
    10030    2    1    2    0    0  0.00000000000E+00  0.00000000000E+00  0.76665918520E+03  0.97334777482E+03  0.59969957853E+03 0.  0.
        3    1    3    3  502    0 -0.66862515406E+02  0.28560721318E+03  0.48427041711E+03  0.56618011558E+03  0.10100000352E+00 0.  1.
       -3    1    3    3    0  502  0.66862515406E+02 -0.28560721318E+03  0.28238876809E+03  0.40716765924E+03  0.10100000352E+00 0. -1.
</event>
<event>
 5   0  0.1423430E-03  0.6000754E+03  0.7818609E-02  0.9905250E-01
       -1   -1    0    0    0  501  0.00000000000E+00  0.00000000000E+00  0.33927042984E+03  0.33927042988E+03  0.50400001928E-02 0. -1.
        1   -1    0    0  501    0  0.00000000000E+00  0.00000000000E+00 -0.26534181039E+03  0.26534181044E+03  0.50400001928E-02 0.  1.
    10030    2    1    2    0    0  0.00000000000E+00  0.00000000000E+00  0.73928619450E+02  0.60461224031E+03  0.60007542889E+03 0.  0.
        1    1    3    3  502    0  0.19902736264E+03  0.11129061043E+03  0.23343894725E+03  0.32632994525E+03  0.50400001928E-02 0. -1.
       -1    1    3    3    0  502 -0.19902736264E+03 -0.11129061043E+03 -0.15951032780E+03  0.27828229507E+03  0.50400001928E-02 0.  1.
</event>
<event>
 5   0  0.2324616E-03  0.6000847E+03  0.7818609E-02  0.9905230E-01
       -2   -1    0    0    0  501  0.00000000000E+00  0.00000000000E+00  0.12004167634E+03  0.12004167637E+03  0.25500000920E-02 0. -1.
        2   -1    0    0  501    0  0.00000000000E+00  0.00000000000E+00 -0.74995138419E+03  0.74995138420E+03  0.25500000920E-02 0.  1.
    10030    2    1    2    0    0  0.00000000000E+00  0.00000000000E+00 -0.62990970785E+03  0.86999306057E+03  0.60008473185E+03 0.  0.
        4    1    3    3  502    0  0.99082070292E+02  0.22450886643E+03 -0.56523606819E+03  0.61621012118E+03  0.12699999809E+01 0.  1.
       -4    1    3    3    0  502 -0.99082070292E+02 -0.22450886643E+03 -0.64673639659E+02  0.25378293939E+03  0.12699999809E+01 0. -1.
</event>
<event>
 5   0  0.2421210E-03  0.6001732E+03  0.7818609E-02  0.9905047E-01
        2   -1    0    0  501    0  0.00000000000E+00  0.00000000000E+00  0.14035576966E+04  0.14035576966E+04  0.25500000920E-02 0.  1.
       -2   -1    0    0    0  501  0.00000000000E+00  0.00000000000E+00 -0.64159796385E+02  0.64159796436E+02  0.25500000920E-02 0. -1.
    10030    2    1    2    0    0  0.00000000000E+00  0.00000000000E+00  0.13393979002E+04  0.14677174931E+04  0.60017322856E+03 0.  0.
        1    1    3    3  502    0 -0.69594552535E+02  0.29180238322E+03  0.68863270351E+03  0.75113715988E+03  0.50400001928E-02 0. -1.
       -1    1    3    3    0  502  0.69594552535E+02 -0.29180238322E+03  0.65076519673E+03  0.71658033317E+03  0.50400001928E-02 0.  1.
</event>
<event>
 5   0  0.2313168E-03  0.5997013E+03  0.7818609E-02  0.9906026E-01
        2   -1    0    0  501    0  0.00000000000E+00  0.00000000000E+00  0.73481049253E+03  0.73481049254E+03  0.25500000920E-02 0.  1.
       -2   -1    0    0    0  501  0.00000000000E+00  0.00000000000E+00 -0.12235862303E+03  0.12235862306E+03  0.25500000920E-02 0. -1.
    10030    2    1    2    0    0  0.00000000000E+00  0.00000000000E+00  0.61245186951E+03  0.85716911560E+03  0.59970125919E+03 0.  0.
        2    1    3    3  502    0  0.42051045593E+02  0.12833794263E+03  0.68887860359E+03  0.70199191481E+03  0.25500000920E-02 0.  1.
       -2    1    3    3    0  502 -0.42051045593E+02 -0.12833794263E+03 -0.76426734089E+02  0.15517720079E+03  0.25500000920E-02 0. -1.
</event>
<event>
 5   0  0.1423430E-03  0.6002642E+03  0.7818609E-02  0.9904858E-01
       -1   -1    0    0    0  501  0.00000000000E+00  0.00000000000E+00  0.24187022447E+03  0.24187022453E+03  0.50400001928E-02 0.  1.
        1   -1    0    0  501    0  0.00000000000E+00  0.00000000000E+00 -0.37242819038E+03  0.37242819041E+03  0.50400001928E-02 0. -1.
    10030    2    1    2    0    0  0.00000000000E+00  0.00000000000E+00 -0.13055796590E+03  0.61429841494E+03  0.60026424192E+03 0.  0.
        1    1    3    3  502    0  0.10602707745E+03 -0.26127846713E+03  0.39940762767E+02  0.28478666243E+03  0.50400001928E-02 0.  1.
       -1    1    3    3    0  502 -0.10602707745E+03  0.26127846713E+03 -0.17049872867E+03  0.32951175251E+03  0.50400001928E-02 0. -1.
</event>
<event>
 5   0  0.2346281E-03  0.5978330E+03  0.7818609E-02  0.9909912E-01
       -2   -1    0    0    0  501  0.00000000000E+00  0.00000000000E+00  0.10929544537E+03  0.10929544540E+03  0.25500000920E-02 0.  1.
        2   -1    0    0  501    0  0.00000000000E+00  0.00000000000E+00 -0.81751863972E+03  0.81751863972E+03  0.25500000920E-02 0. -1.
    10030    2    1    2    0    0  0.00000000000E+00  0.00000000000E+00 -0.70822319434E+03  0.92681408512E+03  0.59783296611E+03 0.  0.
        3    1    3    3  502    0 -0.13838715672E+03  0.15597166830E+03 -0.68615190151E+03  0.71713500026E+03  0.10100000352E+00 0. -1.
       -3    1    3    3    0  502  0.13838715672E+03 -0.15597166830E+03 -0.22071292837E+02  0.20967908486E+03  0.10100000352E+00 0.  1.
</event>
<event>
 5   0  0.2406307E-03  0.6002507E+03  0.7818609E-02  0.9904886E-01
       -2   -1    0    0    0  501  0.00000000000E+00  0.00000000000E+00  0.60725772831E+02  0.60725772885E+02  0.25500000920E-02 0. -1.
        2   -1    0    0  501    0  0.00000000000E+00  0.00000000000E+00 -0.14833112258E+04  0.14833112258E+04  0.25500000920E-02 0.  1.
    10030    2    1    2    0    0  0.00000000000E+00  0.00000000000E+00 -0.14225854530E+04  0.15440369987E+04  0.60025068289E+03 0.  0.
        5    1    3    3  502    0 -0.15907143147E+03  0.22327359372E+03 -0.39731880195E+03  0.48274127474E+03  0.46999998093E+01 0. -1.
       -5    1    3    3    0  502  0.15907143147E+03 -0.22327359372E+03 -0.10252666510E+04  0.10612957239E+04  0.46999998093E+01 0.  1.
</event>
<event>
 5   0  0.2421210E-03  0.6005104E+03  0.7818609E-02  0.9904348E-01
        2   -1    0    0  501    0  0.00000000000E+00  0.00000000000E+00  0.60907771031E+03  0.60907771032E+03  0.25500000920E-02 0.  1.
       -2   -1    0    0    0  501  0.00000000000E+00  0.00000000000E+00 -0.14801588268E+03  0.14801588270E+03  0.25500000920E-02 0. -1.
    10030    2    1    2    0    0  0.00000000000E+00  0.00000000000E+00  0.46106182764E+03  0.75709359302E+03  0.60051036601E+03 0.  0.
        1    1    3    3  502    0  0.84918121860E+02  0.91818442502E+02  0.57467523070E+03  0.58812697150E+03  0.50400001928E-02 0.  1.
       -1    1    3    3    0  502 -0.84918121860E+02 -0.91818442502E+02 -0.11361340307E+03  0.16896662151E+03  0.50400001928E-02 0. -1.
</event>
<event>
 5   0  0.1423430E-03  0.5999308E+03  0.7818609E-02  0.9905550E-01
        1   -1    0    0  501    0  0.00000000000E+00  0.00000000000E+00  0.12402596968E+04  0.12402596968E+04  0.50400001928E-02 0.  1.
       -1   -1    0    0    0  501  0.00000000000E+00  0.00000000000E+00 -0.72548700038E+02  0.72548700213E+02  0.50400001928E-02 0. -1.
    10030    2    1    2    0    0  0.00000000000E+00  0.00000000000E+00  0.11677109968E+04  0.13128083971E+04  0.59993075879E+03 0.  0.
        1    1    3    3  502    0  0.33897449320E+02 -0.17683872972E+03  0.58861875714E+02  0.18943519694E+03  0.50400001928E-02 0. -1.
       -1    1    3    3    0  502 -0.33897449320E+02  0.17683872972E+03  0.11088491211E+04  0.11233732001E+04  0.50400001928E-02 0.  1.
</event>
<event>
 5   0  0.1392854E-03  0.6001779E+03  0.7818609E-02  0.9905037E-01
        1   -1    0    0  501    0  0.00000000000E+00  0.00000000000E+00  0.30125885074E+03  0.30125885079E+03  0.50400001928E-02 0.  1.
       -1   -1    0    0    0  501  0.00000000000E+00  0.00000000000E+00 -0.29892363256E+03  0.29892363261E+03  0.50400001928E-02 0. -1.
    10030    2    1    2    0    0  0.00000000000E+00  0.00000000000E+00  0.23352181808E+01  0.60018248339E+03  0.60017794039E+03 0.  0.
        4    1    3    3  502    0  0.14478066703E+03  0.22896120060E+03  0.13026972576E+03  0.30059355827E+03  0.12699999809E+01 0.  1.
       -4    1    3    3    0  502 -0.14478066703E+03 -0.22896120060E+03 -0.12793450758E+03  0.29958892512E+03  0.12699999809E+01 0. -1.
</event>
<event>
 5   0  0.1479385E-03  0.5999538E+03  0.7818609E-02  0.9905502E-01
       -1   -1    0    0    0  501  0.00000000000E+00  0.00000000000E+00  0.55016455317E+03  0.55016455319E+03  0.50400001928E-02 0. -1.
        1   -1    0    0  501    0  0.00000000000E+00  0.00000000000E+00 -0.16356221626E+03  0.16356221634E+03  0.50400001928E-02 0.  1.
    10030    2    1    2    0    0  0.00000000000E+00  0.00000000000E+00  0.38660233691E+03  0.71372676953E+03  0.59995377708E+03 0.  0.
        3    1    3    3  502    0  0.25059521471E+03 -0.14999485552E+03  0.11183318566E+03  0.31273485564E+03  0.10100000352E+00 0. -1.
       -3    1    3    3    0  502 -0.25059521471E+03  0.14999485552E+03  0.27476915126E+03  0.40099191389E+03  0.10100000352E+00 0.  1.
</event>
<event>
 5   0  0.2324616E-03  0.5998195E+03  0.7818609E-02  0.9905781E-01
       -2   -1    0    0    0  501  0.00000000000E+00  0.00000000000E+00  0.16640395325E+03  0.16640395327E+03  0.25500000920E-02 0. -1.
        2   -1    0    0  501    0  0.00000000000E+00  0.00000000000E+00 -0.54052713614E+03  0.54052713614E+03  0.25500000920E-02 0.  1.
    10030    2    1    2    0    0  0.00000000000E+00  0.00000000000E+00 -0.37412318289E+03  0.70693108941E+03  0.59981948051E+03 0.  0.
        4    1    3    3  502    0 -0.39847417938E+02  0.12792159077E+03  0.12916625494E+03  0.18611094653E+03  0.12699999809E+01 0. -1.
       -4    1    3    3    0  502  0.39847417938E+02 -0.12792159077E+03 -0.50328943783E+03  0.52082014288E+03  0.12699999809E+01 0.  1.
</event>
<event>
 5   0  0.2406307E-03  0.5989083E+03  0.7818609E-02  0.9907673E-01
       -2   -1    0    0    0  501  0.00000000000E+00  0.00000000000E+00  0.12940526962E+03  0.12940526965E+03  0.25500000920E-02 0.  1.
        2   -1    0    0  501    0  0.00000000000E+00  0.00000000000E+00 -0.69296096028E+03  0.69296096028E+03  0.25500000920E-02 0. -1.
    10030    2    1    2    0    0  0.00000000000E+00  0.00000000000E+00 -0.56355569065E+03  0.82236622993E+03  0.59890833995E+03 0.  0.
        5    1    3    3  502    0 -0.22763655792E+03  0.18739067691E+03 -0.35335147683E+03  0.46023149009E+03  0.46999998093E+01 0.  1.
       -5    1    3    3    0  502  0.22763655792E+03 -0.18739067691E+03 -0.21020421383E+03  0.36213473984E+03  0.46999998093E+01 0. -1.
</event>
<event>
 5   0  0.2313168E-03  0.5995566E+03  0.7818609E-02  0.9906326E-01
       -2   -1    0    0    0  501  0.00000000000E+00  0.00000000000E+00  0.77672857839E+02  0.77672857881E+02  0.25500000920E-02 0. -1.
        2   -1    0    0  501    0  0.00000000000E+00  0.00000000000E+00 -0.11569939212E+04  0.11569939212E+04  0.25500000920E-02 0.  1.
    10030    2    1    2    0    0  0.00000000000E+00  0.00000000000E+00 -0.10793210633E+04  0.12346667791E+04  0.59955658411E+03 0.  0.
        2    1    3    3  502    0  0.28711651756E+03 -0.80700094411E+02 -0.47724558620E+03  0.56277148955E+03  0.25500000920E-02 0.  1.
       -2    1    3    3    0  502 -0.28711651756E+03  0.80700094411E+02 -0.60207547713E+03  0.67189528951E+03  0.25500000920E-02 0. -1.
</event>
<event>
 5   0  0.2346281E-03  0.6020209E+03  0.7818609E-02  0.9901222E-01
       -2   -1    0    0    0  501  0.00000000000E+00  0.00000000000E+00  0.25050796754E+03  0.25050796755E+03  0.25500000920E-02 0.  1.
        2   -1    0    0  501    0  0.00000000000E+00  0.00000000000E+00 -0.36169425803E+03  0.36169425804E+03  0.25500000920E-02 0. -1.
    10030    2    1    2    0    0  0.00000000000E+00  0.00000000000E+00 -0.11118629050E+03  0.61220222559E+03  0.60202090813E+03 0.  0.
        3    1    3    3  502    0 -0.22250775108E+03 -0.64477836894E+02 -0.25104189955E+03  0.34159791608E+03  0.10100000352E+00 0. -1.
       -3    1    3    3    0  502  0.22250775108E+03  0.64477836894E+02  0.13985560906E+03  0.27060430951E+03  0.10100000352E+00 0.  1.
</event>
<event>
 5   0  0.2313168E-03  0.5993142E+03  0.7818609E-02  0.9906830E-01
        2   -1    0    0  501    0  0.00000000000E+00  0.00000000000E+00  0.81726613378E+03  0.81726613379E+03  0.25500000920E-02 0.  1.
       -2   -1    0    0    0  501  0.00000000000E+00  0.00000000000E+00 -0.10987165791E+03  0.10987165794E+03  0.25500000920E-02 0. -1.
    10030    2    1    2    0    0  0.00000000000E+00  0.00000000000E+00  0.70739447587E+03  0.92713779173E+03  0.59931422506E+03 0.  0.
        2    1    3    3  502    0  0.20774009304E+03  0.21414918410E+03  0.39686279526E+03  0.49650367328E+03  0.25500000920E-02 0. -1.
       -2    1    3    3    0  502 -0.20774009304E+03 -0.21414918410E+03  0.31053168061E+03  0.43063411845E+03  0.25500000920E-02 0.  1.
</event>
<event>
 5   0  0.2346281E-03  0.5989418E+03  0.7818609E-02  0.9907604E-01
        2   -1    0    0  501    0  0.00000000000E+00  0.00000000000E+00  0.26119865075E+04  0.26119865075E+04  0.25500000920E-02 0.  1.
       -2   -1    0    0    0  501  0.00000000000E+00  0.00000000000E+00 -0.34335099932E+02  0.34335100027E+02  0.25500000920E-02 0. -1.
    10030    2    1    2    0    0  0.00000000000E+00  0.00000000000E+00  0.25776514075E+04  0.26463216075E+04  0.59894179310E+03 0.  0.
        3    1    3    3  502    0 -0.18059936426E+03 -0.23834212601E+03  0.13600291314E+04  0.13925165521E+04  0.10100000352E+00 0.  1.
       -3    1    3    3    0  502  0.18059936426E+03  0.23834212601E+03  0.12176222762E+04  0.12538050554E+04  0.10100000352E+00 0. -1.
</event>
<event>
 5   0  0.2346281E-03  0.5997842E+03  0.7818609E-02  0.9905854E-01
       -2   -1    0    0    0  501  0.00000000000E+00  0.00000000000E+00  0.15041937076E+03  0.15041937078E+03  0.25500000920E-02 0. -1.
        2   -1    0    0  501    0  0.00000000000E+00  0.00000000000E+00 -0.59789681712E+03  0.59789681713E+03  0.25500000920E-02 0.  1.
    10030    2    1    2    0    0  0.00000000000E+00  0.00000000000E+00 -0.44747744636E+03  0.74831618791E+03  0.59978417125E+03 0.  0.
        3    1    3    3  502    0 -0.54585152989E+02 -0.14752909775E+03 -0.54229308723E+03  0.56464694834E+03  0.10100000352E+00 0.  1.
       -3    1    3    3    0  502  0.54585152989E+02  0.14752909775E+03  0.94815640871E+02  0.18366923957E+03  0.10100000352E+00 0. -1.
</event>
<event>
 5   0  0.2324616E-03  0.5997345E+03  0.7818609E-02  0.9905957E-01
        2   -1    0    0  501    0  0.00000000000E+00  0.00000000000E+00  0.15457880041E+04  0.15457880041E+04  0.25500000920E-02 0.  1.
       -2   -1    0    0    0  501  0.00000000000E+00  0.00000000000E+00 -0.58171209609E+02  0.58171209665E+02  0.25500000920E-02 0. -1.
    10030    2    1    2    0    0  0.00000000000E+00  0.00000000000E+00  0.14876167945E+04  0.16039592137E+04  0.59973446805E+03 0.  0.
        4    1    3    3  502    0  0.11652275342E+03  0.48901789281E+02  0.16526400928E+02  0.12745066452E+03  0.12699999809E+01 0. -1.
       -4    1    3    3    0  502 -0.11652275342E+03 -0.48901789281E+02  0.14710903935E+04  0.14765085492E+04  0.12699999809E+01 0.  1.
</event>
<event>
 5   0  0.1479385E-03  0.6003867E+03  0.7818609E-02  0.9904604E-01
       -1   -1    0    0    0  501  0.00000000000E+00  0.00000000000E+00  0.28489252680E+03  0.28489252685E+03  0.50400001928E-02 0. -1.
        1   -1    0    0  501    0  0.00000000000E+00  0.00000000000E+00 -0.31631596837E+03  0.31631596841E+03  0.50400001928E-02 0.  1.
    10030    2    1    2    0    0  0.00000000000E+00  0.00000000000E+00 -0.31423441569E+02  0.60120849526E+03  0.60038672711E+03 0.  0.
        3    1    3    3  502    0 -0.13952727904E+03 -0.16821923838E+03  0.19036225560E+03  0.28983335266E+03  0.10100000352E+00 0. -1.
       -3    1    3    3    0  502  0.13952727904E+03  0.16821923838E+03 -0.22178569717E+03  0.31137514260E+03  0.10100000352E+00 0.  1.
</event>
<event>
 5   0  0.1416315E-03  0.6000357E+03  0.7818609E-02  0.9905332E-01
       -1   -1    0    0    0  501  0.00000000000E+00  0.00000000000E+00  0.11305136158E+03  0.11305136169E+03  0.50400001928E-02 0.  1.
        1   -1    0    0  501    0  0.00000000000E+00  0.00000000000E+00 -0.79619298014E+03  0.79619298015E+03  0.50400001928E-02 0. -1.
    10030    2    1    2    0    0  0.00000000000E+00  0.00000000000E+00 -0.68314161856E+03  0.90924434185E+03  0.60003566741E+03 0.  0.
        2    1    3    3  502    0  0.19920178231E+03  0.32378664452E+02 -0.67796088573E+03  0.70736178195E+03  0.25500000920E-02 0. -1.
       -2    1    3    3    0  502 -0.19920178231E+03 -0.32378664452E+02 -0.51807328339E+01  0.20188255989E+03  0.25500000920E-02 0.  1.
</event>
<event>
 5   0  0.1416315E-03  0.5999167E+03  0.7818609E-02  0.9905579E-01
       -1   -1    0    0    0  501  0.00000000000E+00  0.00000000000E+00  0.35708150465E+03  0.35708150469E+03  0.50400001928E-02 0.  1.
        1   -1    0    0  501    0  0.00000000000E+00  0.00000000000E+00 -0.25197328732E+03  0.25197328737E+03  0.50400001928E-02 0. -1.
    10030    2    1    2    0    0  0.00000000000E+00  0.00000000000E+00  0.10510821733E+03  0.60905479206E+03  0.59991666286E+03 0.  0.
        2    1    3    3  502    0 -0.40644878501E+02 -0.13356229426E+03  0.32208654924E+03  0.35104221655E+03  0.25500000920E-02 0.  1.
       -2    1    3    3    0  502  0.40644878501E+02  0.13356229426E+03 -0.21697833191E+03  0.25801257551E+03  0.25500000920E-02 0. -1.
</event>
<event>
 5   0  0.1479385E-03  0.5997750E+03  0.7818609E-02  0.9905873E-01
        1   -1    0    0  501    0  0.00000000000E+00  0.00000000000E+00  0.22237621028E+03  0.22237621034E+03  0.50400001928E-02 0. -1.
       -1   -1    0    0    0  501  0.00000000000E+00  0.00000000000E+00 -0.40441609935E+03  0.40441609938E+03  0.50400001928E-02 0.  1.
    10030    2    1    2    0    0  0.00000000000E+00  0.00000000000E+00 -0.18203988906E+03  0.62679230972E+03  0.59977502308E+03 0.  0.
        3    1    3    3  502    0  0.19151918182E+03 -0.96843526374E+01  0.14992853936E+03  0.24341725659E+03  0.10100000352E+00 0. -1.
       -3    1    3    3    0  502 -0.19151918182E+03  0.96843526374E+01 -0.33196842842E+03  0.38337505313E+03  0.10100000352E+00 0.  1.
</event>
<event>
 5   0  0.2421210E-03  0.6002084E+03  0.7818609E-02  0.9904974E-01
       -2   -1    0    0    0  501  0.00000000000E+00  0.00000000000E+00  0.64680020420E+02  0.64680020470E+02  0.25500000920E-02 0. -1.
        2   -1    0    0  501    0  0.00000000000E+00  0.00000000000E+00 -0.13924319348E+04  0.13924319348E+04  0.25500000920E-02 0.  1.
    10030    2    1    2    0    0  0.00000000000E+00  0.00000000000E+00 -0.13277519143E+04  0.14571119552E+04  0.60020838386E+03 0.  0.
        1    1    3    3  502    0 -0.87464779585E+02 -0.54886866527E+02  0.20194382222E+02  0.10521629571E+03  0.50400001928E-02 0. -1.
       -1    1    3    3    0  502  0.87464779585E+02  0.54886866527E+02 -0.13479462966E+04  0.13518956595E+04  0.50400001928E-02 0.  1.
</event>
<event>
 5   0  0.1479385E-03  0.6001608E+03  0.7818609E-02  0.9905072E-01
        1   -1    0    0  501    0  0.00000000000E+00  0.00000000000E+00  0.12994936854E+04  0.12994936854E+04  0.50400001928E-02 0.  1.
       -1   -1    0    0    0  501  0.00000000000E+00  0.00000000000E+00 -0.69294874452E+02  0.69294874636E+02  0.50400001928E-02 0. -1.
    10030    2    1    2    0    0  0.00000000000E+00  0.00000000000E+00  0.12301988110E+04  0.13687885601E+04  0.60016081816E+03 0.  0.
        3    1    3    3  502    0  0.25330998258E+03  0.13163186221E+03  0.82605330114E+03  0.87398910803E+03  0.10100000352E+00 0.  1.
       -3    1    3    3    0  502 -0.25330998258E+03 -0.13163186221E+03  0.40414550982E+03  0.49479945203E+03  0.10100000352E+00 0. -1.
</event>
<event>
 5   0  0.2346281E-03  0.6000584E+03  0.7818609E-02  0.9905285E-01
       -2   -1    0    0    0  501  0.00000000000E+00  0.00000000000E+00  0.11186521948E+03  0.11186521951E+03  0.25500000920E-02 0.  1.
        2   -1    0    0  501    0  0.00000000000E+00  0.00000000000E+00 -0.80469613244E+03  0.80469613244E+03  0.25500000920E-02 0. -1.
    10030    2    1    2    0    0  0.00000000000E+00  0.00000000000E+00 -0.69283091296E+03  0.91656135195E+03  0.60005836211E+03 0.  0.
        3    1    3    3  502    0 -0.17918310871E+03 -0.19742758941E+03 -0.55659030608E+03  0.61715234629E+03  0.10100000352E+00 0. -1.
       -3    1    3    3    0  502  0.17918310871E+03  0.19742758941E+03 -0.13624060688E+03  0.29940900566E+03  0.10100000352E+00 0.  1.
</event>
<event>
 5   0  0.1423430E-03  0.5998003E+03  0.7818609E-02  0.9905820E-01
       -1   -1    0    0    0  501  0.00000000000E+00  0.00000000000E+00  0.12304205330E+04  0.12304205330E+04  0.50400001928E-02 0. -1.
        1   -1    0    0  501    0  0.00000000000E+00  0.00000000000E+00 -0.73097045977E+02  0.73097046150E+02  0.50400001928E-02 0.  1.
    10030    2    1    2    0    0  0.00000000000E+00  0.00000000000E+00  0.11573234870E+04  0.13035175791E+04  0.59980032140E+03 0.  0.
        1    1    3    3  502    0 -0.12086541506E+03  0.79024035978E+02  0.11498876875E+04  0.11589197300E+04  0.50400001928E-02 0. -1.
       -1    1    3    3    0  502  0.12086541506E+03 -0.79024035978E+02  0.74357995038E+01  0.14459784909E+03  0.50400001928E-02 0.  1.
</event>
<event>
 5   0  0.2324616E-03  0.5999858E+03  0.7818609E-02  0.9905436E-01
        2   -1    0    0  501    0  0.00000000000E+00  0.00000000000E+00  0.32446252981E+03  0.32446252982E+03  0.25500000920E-02 0. -1.
       -2   -1    0    0    0  501  0.00000000000E+00  0.00000000000E+00 -0.27736866619E+03  0.27736866620E+03  0.25500000920E-02 0.  1.
    10030    2    1    2    0    0  0.00000000000E+00  0.00000000000E+00  0.47093863619E+02  0.60183119603E+03  0.59998579693E+03 0.  0.
        4    1    3    3  502    0 -0.13303119711E+03  0.25432766461E+03 -0.63981217048E+02  0.29406643710E+03  0.12699999809E+01 0.  1.
       -4    1    3    3    0  502  0.13303119711E+03 -0.25432766461E+03  0.11107508067E+03  0.30776475893E+03  0.12699999809E+01 0. -1.
</event>
<event>
 5   0  0.2324616E-03  0.5994580E+03  0.7818609E-02  0.9906531E-01
       -2   -1    0    0    0  501  0.00000000000E+00  0.00000000000E+00  0.31110012753E+03  0.31110012754E+03  0.25500000920E-02 0.  1.
        2   -1    0    0  501    0  0.00000000000E+00  0.00000000000E+00 -0.28877353969E+03  0.28877353970E+03  0.25500000920E-02 0. -1.
    10030    2    1    2    0    0  0.00000000000E+00  0.00000000000E+00  0.22326587834E+02  0.59987366724E+03  0.59945803867E+03 0.  0.
        4    1    3    3  502    0 -0.16254067456E+03  0.12650476559E+03 -0.20673281655E+03  0.29182699831E+03  0.12699999809E+01 0. -1.
       -4    1    3    3    0  502  0.16254067456E+03 -0.12650476559E+03  0.22905940438E+03  0.30804666893E+03  0.12699999809E+01 0.  1.
</event>
<event>
 5   0  0.1418763E-03  0.6000601E+03  0.7818609E-02  0.9905281E-01
        1   -1    0    0  501    0  0.00000000000E+00  0.00000000000E+00  0.37223501252E+03  0.37223501255E+03  0.50400001928E-02 0.  1.
       -1   -1    0    0    0  501  0.00000000000E+00  0.00000000000E+00 -0.24183113664E+03  0.24183113669E+03  0.50400001928E-02 0. -1.
    10030    2    1    2    0    0  0.00000000000E+00  0.00000000000E+00  0.13040387588E+03  0.61406614924E+03  0.60006005100E+03 0.  0.
        5    1    3    3  502    0  0.16240793418E+03 -0.24156372713E+03 -0.90629873814E+01  0.29126207973E+03  0.46999998093E+01 0. -1.
       -5    1    3    3    0  502 -0.16240793418E+03  0.24156372713E+03  0.13946686326E+03  0.32280406952E+03  0.46999998093E+01 0.  1.
</event>
<event>
 5   0  0.1479385E-03  0.6000547E+03  0.7818609E-02  0.9905293E-01
        1   -1    0    0  501    0  0.00000000000E+00  0.00000000000E+00  0.33009633437E+03  0.33009633441E+03  0.50400001928E-02 0.  1.
       -1   -1    0    0    0  501  0.00000000000E+00  0.00000000000E+00 -0.27269741717E+03  0.27269741722E+03  0.50400001928E-02 0. -1.
    10030    2    1    2    0    0  0.00000000000E+00  0.00000000000E+00  0.57398917198E+02  0.60279375162E+03  0.60005472359E+03 0.  0.
        3    1    3    3  502    0  0.20705806175E+03 -0.73111467966E+02  0.23407846534E+03  0.32095337017E+03  0.10100000352E+00 0.  1.
       -3    1    3    3    0  502 -0.20705806175E+03  0.73111467966E+02 -0.17667954814E+03  0.28184038145E+03  0.10100000352E+00 0. -1.
</event>
<event>
 5   0  0.1416315E-03  0.5997020E+03  0.7818609E-02  0.9906025E-01
       -1   -1    0    0    0  501  0.00000000000E+00  0.00000000000E+00  0.13371970257E+04  0.13371970257E+04  0.50400001928E-02 0.  1.
        1   -1    0    0  501    0  0.00000000000E+00  0.00000000000E+00 -0.67238115828E+02  0.67238116017E+02  0.50400001928E-02 0. -1.
    10030    2    1    2    0    0  0.00000000000E+00  0.00000000000E+00  0.12699589099E+04  0.14044351417E+04  0.59970195476E+03 0.  0.
        2    1    3    3  502    0  0.29160921146E+03  0.62014150643E+02  0.55985914810E+03  0.63429011722E+03  0.25500000920E-02 0.  1.
       -2    1    3    3    0  502 -0.29160921146E+03 -0.62014150643E+02  0.71009976175E+03  0.77014502448E+03  0.25500000920E-02 0. -1.
</event>
<event>
 5   0  0.2324616E-03  0.6001849E+03  0.7818609E-02  0.9905022E-01
        2   -1    0    0  501    0  0.00000000000E+00  0.00000000000E+00  0.13559754547E+04  0.13559754547E+04  0.25500000920E-02 0.  1.
       -2   -1    0    0    0  501  0.00000000000E+00  0.00000000000E+00 -0.66413805925E+02  0.66413805974E+02  0.25500000920E-02 0. -1.
    10030    2    1    2    0    0  0.00000000000E+00  0.00000000000E+00  0.12895616488E+04  0.14223892607E+04  0.60018494058E+03 0.  0.
        4    1    3    3  502    0  0.19089465336E+03 -0.11701518927E+03  0.11182935483E+04  0.11404891040E+04  0.12699999809E+01 0.  1.
       -4    1    3    3    0  502 -0.19089465336E+03  0.11701518927E+03  0.17126810041E+03  0.28190015665E+03  0.12699999809E+01 0. -1.
</event>
<event>
 5   0  0.1479385E-03  0.6000652E+03  0.7818609E-02  0.9905271E-01
        1   -1    0    0  501    0  0.00000000000E+00  0.00000000000E+00  0.19267849478E+03  0.19267849484E+03  0.50400001928E-02 0.  1.
       -1   -1    0    0    0  501  0.00000000000E+00  0.00000000000E+00 -0.46720091375E+03  0.46720091378E+03  0.50400001928E-02 0. -1.
    10030    2    1    2    0    0  0.00000000000E+00  0.00000000000E+00 -0.27452241898E+03  0.65987940862E+03  0.60006522596E+03 0.  0.
        3    1    3    3  502    0 -0.10191692268E+03 -0.64765557161E+02  0.16477636596E+03  0.20428631257E+03  0.10100000352E+00 0.  1.
       -3    1    3    3    0  502  0.10191692268E+03  0.64765557161E+02 -0.43929878494E+03  0.45559309605E+03  0.10100000352E+00 0. -1.
</event>
<event>
 5   0  0.2313168E-03  0.5998121E+03  0.7818609E-02  0.9905796E-01
        2   -1    0    0  501    0  0.00000000000E+00  0.00000000000E+00  0.91528736405E+03  0.91528736405E+03  0.25500000920E-02 0.  1.
       -2   -1    0    0    0  501  0.00000000000E+00  0.00000000000E+00 -0.98268193619E+02  0.98268193652E+02  0.25500000920E-02 0. -1.
    10030    2    1    2    0    0  0.00000000000E+00  0.00000000000E+00  0.81701917043E+03  0.10135555577E+04  0.59981209033E+03 0.  0.
        2    1    3    3  502    0 -0.17759206093E+03  0.21384850902E+03  0.21827879279E+03  0.35343423193E+03  0.25500000920E-02 0. -1.
       -2    1    3    3    0  502  0.17759206093E+03 -0.21384850902E+03  0.59874037764E+03  0.66012132577E+03  0.25500000920E-02 0.  1.
</event>
<event>
 5   0  0.2324616E-03  0.6000996E+03  0.7818609E-02  0.9905199E-01
       -2   -1    0    0    0  501  0.00000000000E+00  0.00000000000E+00  0.10150088634E+03  0.10150088638E+03  0.25500000920E-02 0. -1.
        2   -1    0    0  501    0  0.00000000000E+00  0.00000000000E+00 -0.88698625675E+03  0.88698625676E+03  0.25500000920E-02 0.  1.
    10030    2    1    2    0    0  0.00000000000E+00  0.00000000000E+00 -0.78548537041E+03  0.98848714313E+03  0.60009962924E+03 0.  0.
        4    1    3    3  502    0 -0.27709497291E+02  0.29425880851E+03 -0.30759292601E+03  0.42658068833E+03  0.12699999809E+01 0.  1.
       -4    1    3    3    0  502  0.27709497291E+02 -0.29425880851E+03 -0.47789244440E+03  0.56190645480E+03  0.12699999809E+01 0. -1.
</event>
<event>
 5   0  0.1418763E-03  0.5999252E+03  0.7818609E-02  0.9905561E-01
        1   -1    0    0  501    0  0.00000000000E+00  0.00000000000E+00  0.13229021720E+04  0.13229021720E+04  0.50400001928E-02 0. -1.
       -1   -1    0    0    0  501  0.00000000000E+00  0.00000000000E+00 -0.68015280684E+02  0.68015280871E+02  0.50400001928E-02 0.  1.
    10030    2    1    2    0    0  0.00000000000E+00  0.00000000000E+00  0.12548868913E+04  0.13909174529E+04  0.59992520428E+03 0.  0.
        5    1    3    3  502    0 -0.14605802681E+03  0.33639774095E+02  0.25124076028E+02  0.15204568653E+03  0.46999998093E+01 0.  1.
       -5    1    3    3    0  502  0.14605802681E+03 -0.33639774095E+02  0.12297628153E+04  0.12388717664E+04  0.46999998093E+01 0. -1.
</event>
<event>
 5   0  0.9496750E-04  0.6011180E+03  0.7818609E-02  0.9903089E-01
        4   -1    0    0  501    0  0.00000000000E+00  0.00000000000E+00  0.44333763749E+03  0.44333945652E+03  0.12699999809E+01 0. -1.
       -4   -1    0    0    0  501  0.00000000000E+00  0.00000000000E+00 -0.20375855193E+03  0.20376250976E+03  0.12699999809E+01 0.  1.
    10030    2    1    2    0    0  0.00000000000E+00  0.00000000000E+00  0.23957908556E+03  0.64710196628E+03  0.60111797223E+03 0.  0.
        4    1    3    3  502    0 -0.53416994804E+02 -0.29338980197E+03  0.79465551760E+02  0.30862167463E+03  0.12699999809E+01 0. -1.
       -4    1    3    3    0  502  0.53416994804E+02  0.29338980197E+03  0.16011353380E+03  0.33848029166E+03  0.12699999809E+01 0.  1.
</event>
<event>
 5   0  0.2313168E-03  0.5997117E+03  0.7818609E-02  0.9906004E-01
       -2   -1    0    0    0  501  0.00000000000E+00  0.00000000000E+00  0.43353551742E+02  0.43353551817E+02  0.25500000920E-02 0.  1.
        2   -1    0    0  501    0  0.00000000000E+00  0.00000000000E+00 -0.20739598251E+04  0.20739598251E+04  0.25500000920E-02 0. -1.
    10030    2    1    2    0    0  0.00000000000E+00  0.00000000000E+00 -0.20306062733E+04  0.21173133769E+04  0.59971167962E+03 0.  0.
        2    1    3    3  502    0  0.28598564504E+03  0.83818689906E+02 -0.11324069656E+04  0.11709649429E+04  0.25500000920E-02 0. -1.
       -2    1    3    3    0  502 -0.28598564504E+03 -0.83818689906E+02 -0.89819930778E+03  0.94634843395E+03  0.25500000920E-02 0.  1.
</event>
<event>
 5   0  0.2346281E-03  0.6001004E+03  0.7818609E-02  0.9905198E-01
        2   -1    0    0  501    0  0.00000000000E+00  0.00000000000E+00  0.12234703166E+03  0.12234703168E+03  0.25500000920E-02 0.  1.
       -2   -1    0    0    0  501  0.00000000000E+00  0.00000000000E+00 -0.73585877996E+03  0.73585877996E+03  0.25500000920E-02 0. -1.
    10030    2    1    2    0    0  0.00000000000E+00  0.00000000000E+00 -0.61351174830E+03  0.85820581164E+03  0.60010044979E+03 0.  0.
        3    1    3    3  502    0  0.24334714673E+03  0.20589513197E+02 -0.55605523710E+03  0.60732133075E+03  0.10100000352E+00 0. -1.
       -3    1    3    3    0  502 -0.24334714673E+03 -0.20589513197E+02 -0.57456511205E+02  0.25088448090E+03  0.10100000352E+00 0.  1.
</event>
<event>
 5   0  0.2406307E-03  0.6000580E+03  0.7818609E-02  0.9905286E-01
       -2   -1    0    0    0  501  0.00000000000E+00  0.00000000000E+00  0.29067905482E+03  0.29067905483E+03  0.25500000920E-02 0.  1.
        2   -1    0    0  501    0  0.00000000000E+00  0.00000000000E+00 -0.30967966160E+03  0.30967966161E+03  0.25500000920E-02 0. -1.
    10030    2    1    2    0    0  0.00000000000E+00  0.00000000000E+00 -0.19000606784E+02  0.60035871644E+03  0.60005796832E+03 0.  0.
        5    1    3    3  502    0  0.26844347856E+03 -0.84703338186E+02 -0.11327665855E+03  0.30346375081E+03  0.46999998093E+01 0. -1.
       -5    1    3    3    0  502 -0.26844347856E+03  0.84703338186E+02  0.94276051763E+02  0.29689496563E+03  0.46999998093E+01 0.  1.
</event>
<event>
 5   0  0.1416315E-03  0.5997769E+03  0.7818609E-02  0.9905869E-01
        1   -1    0    0  501    0  0.00000000000E+00  0.00000000000E+00  0.89377060595E+03  0.89377060596E+03  0.50400001928E-02 0. -1.
       -1   -1    0    0    0  501  0.00000000000E+00  0.00000000000E+00 -0.10062211079E+03  0.10062211092E+03  0.50400001928E-02 0.  1.
    10030    2    1    2    0    0  0.00000000000E+00  0.00000000000E+00  0.79314849516E+03  0.99439271688E+03  0.59977690853E+03 0.  0.
        2    1    3    3  502    0  0.18485384206E+03 -0.22960055991E+03  0.30507584023E+03  0.42421530893E+03  0.25500000920E-02 0. -1.
       -2    1    3    3    0  502 -0.18485384206E+03  0.22960055991E+03  0.48807265493E+03  0.57017740795E+03  0.25500000920E-02 0.  1.
</event>
<event>
 5   0  0.2313168E-03  0.6003617E+03  0.7818609E-02  0.9904656E-01
        2   -1    0    0  501    0  0.00000000000E+00  0.00000000000E+00  0.94003310256E+03  0.94003310257E+03  0.25500000920E-02 0. -1.
       -2   -1    0    0    0  501  0.00000000000E+00  0.00000000000E+00 -0.95856782755E+02  0.95856782789E+02  0.25500000920E-02 0.  1.
    10030    2    1    2    0    0  0.00000000000E+00  0.00000000000E+00  0.84417631981E+03  0.10358898854E+04  0.60036172068E+03 0.  0.
        2    1    3    3  502    0  0.26313932567E+03 -0.72569533673E+02  0.20658104978E+03  0.34232202977E+03  0.25500000920E-02 0.  1.
       -2    1    3    3    0  502 -0.26313932567E+03  0.72569533673E+02  0.63759527003E+03  0.69356785559E+03  0.25500000920E-02 0. -1.
</event>
<event>
 5   0  0.9496750E-04  0.6001687E+03  0.7818609E-02  0.9905056E-01
        4   -1    0    0  501    0  0.00000000000E+00  0.00000000000E+00  0.97544198079E+03  0.97544280754E+03  0.12699999809E+01 0. -1.
       -4   -1    0    0    0  501  0.00000000000E+00  0.00000000000E+00 -0.92312530839E+02  0.92321266509E+02  0.12699999809E+01 0.  1.
    10030    2    1    2    0    0  0.00000000000E+00  0.00000000000E+00  0.88312944995E+03  0.10677640741E+04  0.60016872000E+03 0.  0.
        3    1    3    3  502    0  0.14664513323E+03  0.14134261710E+03  0.49482254412E+02  0.20959731442E+03  0.10100000352E+00 0.  1.
       -3    1    3    3    0  502 -0.14664513323E+03 -0.14134261710E+03  0.83364719554E+03  0.85816675964E+03  0.10100000352E+00 0. -1.
</event>
<event>
 5   0  0.2406307E-03  0.6004868E+03  0.7818609E-02  0.9904397E-01
        2   -1    0    0  501    0  0.00000000000E+00  0.00000000000E+00  0.40448082903E+03  0.40448082904E+03  0.25500000920E-02 0.  1.
       -2   -1    0    0    0  501  0.00000000000E+00  0.00000000000E+00 -0.22286864457E+03  0.22286864459E+03  0.25500000920E-02 0. -1.
    10030    2    1    2    0    0  0.00000000000E+00  0.00000000000E+00  0.18161218446E+03  0.62734947363E+03  0.60048678297E+03 0.  0.
        5    1    3    3  502    0  0.38966711582E+02 -0.29155991889E+03  0.15347636740E+03  0.33181723323E+03  0.46999998093E+01 0.  1.
       -5    1    3    3    0  502 -0.38966711582E+02  0.29155991889E+03  0.28135817063E+02  0.29553224040E+03  0.46999998093E+01 0. -1.
</event>
<event>
 5   0  0.1392854E-03  0.6001686E+03  0.7818609E-02  0.9905056E-01
        1   -1    0    0  501    0  0.00000000000E+00  0.00000000000E+00  0.53508126790E+03  0.53508126792E+03  0.50400001928E-02 0. -1.
       -1   -1    0    0    0  501  0.00000000000E+00  0.00000000000E+00 -0.16829326985E+03  0.16829326992E+03  0.50400001928E-02 0.  1.
    10030    2    1    2    0    0  0.00000000000E+00  0.00000000000E+00  0.36678799805E+03  0.70337453785E+03  0.60016856380E+03 0.  0.
        4    1    3    3  502    0  0.24886383673E+03  0.70208538971E+02  0.36184999296E+03  0.44474653285E+03  0.12699999809E+01 0. -1.
       -4    1    3    3    0  502 -0.24886383673E+03 -0.70208538971E+02  0.49380050868E+01  0.25862800500E+03  0.12699999809E+01 0.  1.
</event>
<event>
 5   0  0.1416315E-03  0.6004634E+03  0.7818609E-02  0.9904445E-01
        1   -1    0    0  501    0  0.00000000000E+00  0.00000000000E+00  0.41367135613E+03  0.41367135616E+03  0.50400001928E-02 0. -1.
       -1   -1    0    0    0  501  0.00000000000E+00  0.00000000000E+00 -0.21790016972E+03  0.21790016978E+03  0.50400001928E-02 0.  1.
    10030    2    1    2    0    0  0.00000000000E+00  0.00000000000E+00  0.19577118641E+03  0.63157152594E+03  0.60046335021E+03 0.  0.
        2    1    3    3  502    0 -0.25916630672E+03  0.18275117933E+02 -0.60368206464E+02  0.26673109086E+03  0.25500000920E-02 0.  1.
       -2    1    3    3    0  502  0.25916630672E+03 -0.18275117933E+02  0.25613939287E+03  0.36484043507E+03  0.25500000920E-02 0. -1.
</event>
<event>
 5   0  0.1423430E-03  0.6000611E+03  0.7818609E-02  0.9905279E-01
       -1   -1    0    0    0  501  0.00000000000E+00  0.00000000000E+00  0.57707940558E+02  0.57707940778E+02  0.50400001928E-02 0.  1.
        1   -1    0    0  501    0  0.00000000000E+00  0.00000000000E+00 -0.15598950031E+04  0.15598950031E+04  0.50400001928E-02 0. -1.
    10030    2    1    2    0    0  0.00000000000E+00  0.00000000000E+00 -0.15021870626E+04  0.16176029439E+04  0.60006109123E+03 0.  0.
        1    1    3    3  502    0 -0.11683362962E+02  0.18922850117E+03 -0.12423098497E+03  0.22666553395E+03  0.50400001928E-02 0.  1.
       -1    1    3    3    0  502  0.11683362962E+02 -0.18922850117E+03 -0.13779560776E+04  0.13909374100E+04  0.50400001928E-02 0. -1.
</event>
<event>
 5   0  0.2406307E-03  0.5999660E+03  0.7818609E-02  0.9905477E-01
        2   -1    0    0  501    0  0.00000000000E+00  0.00000000000E+00  0.21239196098E+03  0.21239196100E+03  0.25500000920E-02 0. -1.
       -2   -1    0    0    0  501  0.00000000000E+00  0.00000000000E+00 -0.42369677516E+03  0.42369677517E+03  0.25500000920E-02 0.  1.
    10030    2    1    2    0    0  0.00000000000E+00  0.00000000000E+00 -0.21130481418E+03  0.63608873617E+03  0.59996596219E+03 0.  0.
        5    1    3    3  502    0 -0.16335747520E+03 -0.53732087703E+02  0.15489767560E+03  0.23149121335E+03  0.46999998093E+01 0. -1.
       -5    1    3    3    0  502  0.16335747520E+03  0.53732087703E+02 -0.36620248978E+03  0.40459752282E+03  0.46999998093E+01 0.  1.
</event>
<event>
 5   0  0.1418763E-03  0.5997038E+03  0.7818609E-02  0.9906021E-01
        1   -1    0    0  501    0  0.00000000000E+00  0.00000000000E+00  0.14492956095E+04  0.14492956095E+04  0.50400001928E-02 0.  1.
       -1   -1    0    0    0  501  0.00000000000E+00  0.00000000000E+00 -0.62037826547E+02  0.62037826752E+02  0.50400001928E-02 0. -1.
    10030    2    1    2    0    0  0.00000000000E+00  0.00000000000E+00  0.13872577829E+04  0.15113334362E+04  0.59970375953E+03 0.  0.
        5    1    3    3  502    0 -0.99830302685E+02 -0.45037242920E+02 -0.97304227300E+01  0.11005095960E+03  0.46999998093E+01 0. -1.
       -5    1    3    3    0  502  0.99830302685E+02  0.45037242920E+02  0.13969882057E+04  0.14012824766E+04  0.46999998093E+01 0.  1.
</event>
<event>
 5   0  0.1479385E-03  0.6005021E+03  0.7818609E-02  0.9904365E-01
        1   -1    0    0  501    0  0.00000000000E+00  0.00000000000E+00  0.24863114404E+03  0.24863114409E+03  0.50400001928E-02 0.  1.
       -1   -1    0    0    0  501  0.00000000000E+00  0.00000000000E+00 -0.36258812897E+03  0.36258812901E+03  0.50400001928E-02 0. -1.
    10030    2    1    2    0    0  0.00000000000E+00  0.00000000000E+00 -0.11395698493E+03  0.61121927310E+03  0.60050212772E+03 0.  0.
        3    1    3    3  502    0  0.10842370097E+03  0.27599571181E+03 -0.10495094178E+03  0.31455371918E+03  0.10100000352E+00 0. -1.
       -3    1    3    3    0  502 -0.10842370097E+03 -0.27599571181E+03 -0.90060431535E+01  0.29666555392E+03  0.10100000352E+00 0.  1.
</event>
<event>
 5   0  0.2421210E-03  0.6001435E+03  0.7818609E-02  0.9905108E-01
        2   -1    0    0  501    0  0.00000000000E+00  0.00000000000E+00  0.12163669029E+04  0.12163669029E+04  0.25500000920E-02 0. -1.
       -2   -1    0    0    0  501  0.00000000000E+00  0.00000000000E+00 -0.74026237327E+02  0.74026237370E+02  0.25500000920E-02 0.  1.
    10030    2    1    2    0    0  0.00000000000E+00  0.00000000000E+00  0.11423406656E+04  0.12903931403E+04  0.60014353303E+03 0.  0.
        1    1    3    3  502    0  0.68315716824E+02  0.25287902004E+03  0.88591621387E+03  0.92383027336E+03  0.50400001928E-02 0. -1.
       -1    1    3    3    0  502 -0.68315716824E+02 -0.25287902004E+03  0.25642445169E+03  0.36656286690E+03  0.50400001928E-02 0.  1.
</event>
<event>
 5   0  0.1423430E-03  0.5999031E+03  0.7818609E-02  0.9905607E-01
        1   -1    0    0  501    0  0.00000000000E+00  0.00000000000E+00  0.65155226880E+03  0.65155226882E+03  0.50400001928E-02 0. -1.
       -1   -1    0    0    0  501  0.00000000000E+00  0.00000000000E+00 -0.13808706247E+03  0.13808706256E+03  0.50400001928E-02 0.  1.
    10030    2    1    2    0    0  0.00000000000E+00  0.00000000000E+00  0.51346520632E+03  0.78963933138E+03  0.59990312181E+03 0.  0.
        1    1    3    3  502    0  0.18509663811E+03  0.71036805230E+02 -0.39543862372E+02  0.20216505686E+03  0.50400001928E-02 0.  1.
       -1    1    3    3    0  502 -0.18509663811E+03 -0.71036805230E+02  0.55300906870E+03  0.58747427452E+03  0.50400001928E-02 0. -1.
</event>
<event>
 5   0  0.2346281E-03  0.5997898E+03  0.7818609E-02  0.9905842E-01
       -2   -1    0    0    0  501  0.00000000000E+00  0.00000000000E+00  0.21917491234E+03  0.21917491235E+03  0.25500000920E-02 0.  1.
        2   -1    0    0  501    0  0.00000000000E+00  0.00000000000E+00 -0.41034324160E+03  0.41034324161E+03  0.25500000920E-02 0. -1.
    10030    2    1    2    0    0  0.00000000000E+00  0.00000000000E+00 -0.19116832927E+03  0.62951815396E+03  0.59978977655E+03 0.  0.
        3    1    3    3  502    0 -0.75121488325E+02 -0.14745824853E+03  0.16691143427E+03  0.23504597456E+03  0.10100000352E+00 0.  1.
       -3    1    3    3    0  502  0.75121488325E+02  0.14745824853E+03 -0.35807976354E+03  0.39447217940E+03  0.10100000352E+00 0. -1.
</event>
<event>
 5   0  0.1423430E-03  0.6022466E+03  0.7818609E-02  0.9900756E-01
        1   -1    0    0  501    0  0.00000000000E+00  0.00000000000E+00  0.10755544802E+04  0.10755544802E+04  0.50400001928E-02 0. -1.
       -1   -1    0    0    0  501  0.00000000000E+00  0.00000000000E+00 -0.84305563814E+02  0.84305563965E+02  0.50400001928E-02 0.  1.
    10030    2    1    2    0    0  0.00000000000E+00  0.00000000000E+00  0.99124891640E+03  0.11598600442E+04  0.60224655071E+03 0.  0.
        1    1    3    3  502    0 -0.86084245340E+02 -0.28726719072E+03  0.44315358424E+03  0.53508694192E+03  0.50400001928E-02 0.  1.
       -1    1    3    3    0  502  0.86084245340E+02  0.28726719072E+03  0.54809533215E+03  0.62477310227E+03  0.50400001928E-02 0. -1.
</event>
<event>
 5   0  0.1392854E-03  0.5999854E+03  0.7818609E-02  0.9905436E-01
        1   -1    0    0  501    0  0.00000000000E+00  0.00000000000E+00  0.88540836429E+03  0.88540836430E+03  0.50400001928E-02 0.  1.
       -1   -1    0    0    0  501  0.00000000000E+00  0.00000000000E+00 -0.10164306404E+03  0.10164306416E+03  0.50400001928E-02 0. -1.
    10030    2    1    2    0    0  0.00000000000E+00  0.00000000000E+00  0.78376530025E+03  0.98705142847E+03  0.59998539696E+03 0.  0.
        4    1    3    3  502    0  0.19248113944E+03 -0.20998650843E+03  0.23711239238E+03  0.37063084368E+03  0.12699999809E+01 0. -1.
       -4    1    3    3    0  502 -0.19248113944E+03  0.20998650843E+03  0.54665290788E+03  0.61642058479E+03  0.12699999809E+01 0.  1.
</event>
<event>
 5   0  0.2421210E-03  0.5999491E+03  0.7818609E-02  0.9905512E-01
        2   -1    0    0  501    0  0.00000000000E+00  0.00000000000E+00  0.19764777890E+04  0.19764777890E+04  0.25500000920E-02 0. -1.
       -2   -1    0    0    0  501  0.00000000000E+00  0.00000000000E+00 -0.45527821683E+02  0.45527821754E+02  0.25500000920E-02 0.  1.
    10030    2    1    2    0    0  0.00000000000E+00  0.00000000000E+00  0.19309499673E+04  0.20220056107E+04  0.59994909254E+03 0.  0.
        1    1    3    3  502    0  0.18674589553E+03 -0.68663290981E+02  0.17220747633E+04  0.17335311268E+04  0.50400001928E-02 0. -1.
       -1    1    3    3    0  502 -0.18674589553E+03  0.68663290981E+02  0.20887520393E+03  0.28847448391E+03  0.50400001928E-02 0.  1.
</event>
<event>
 5   0  0.1423430E-03  0.6000847E+03  0.7818609E-02  0.9905230E-01
        1   -1    0    0  501    0  0.00000000000E+00  0.00000000000E+00  0.15058963316E+04  0.15058963316E+04  0.50400001928E-02 0. -1.
       -1   -1    0    0    0  501  0.00000000000E+00  0.00000000000E+00 -0.59781941840E+02  0.59781942052E+02  0.50400001928E-02 0.  1.
    10030    2    1    2    0    0  0.00000000000E+00  0.00000000000E+00  0.14461143898E+04  0.15656782737E+04  0.60008468431E+03 0.  0.
        1    1    3    3  502    0  0.69269670818E+02 -0.19183405881E+03  0.14889719948E+03  0.25252518578E+03  0.50400001928E-02 0.  1.
       -1    1    3    3    0  502 -0.69269670818E+02  0.19183405881E+03  0.12972171903E+04  0.13131530879E+04  0.50400001928E-02 0. -1.
</event>
<event>
 5   0  0.1423430E-03  0.5996873E+03  0.7818609E-02  0.9906055E-01
        1   -1    0    0  501    0  0.00000000000E+00  0.00000000000E+00  0.50767060682E+03  0.50767060684E+03  0.50400001928E-02 0. -1.
       -1   -1    0    0    0  501  0.00000000000E+00  0.00000000000E+00 -0.17709555868E+03  0.17709555875E+03  0.50400001928E-02 0.  1.
    10030    2    1    2    0    0  0.00000000000E+00  0.00000000000E+00  0.33057504814E+03  0.68476616559E+03  0.59968728442E+03 0.  0.
        1    1    3    3  502    0  0.39867661956E+02 -0.20140553435E+03 -0.84238541746E+02  0.22192285073E+03  0.50400001928E-02 0.  1.
       -1    1    3    3    0  502 -0.39867661956E+02  0.20140553435E+03  0.41481358988E+03  0.46284331486E+03  0.50400001928E-02 0. -1.
</event>
<event>
 5   0  0.2346281E-03  0.5996248E+03  0.7818609E-02  0.9906185E-01
        2   -1    0    0  501    0  0.00000000000E+00  0.00000000000E+00  0.85819736602E+03  0.85819736602E+03  0.25500000920E-02 0.  1.
       -2   -1    0    0    0  501  0.00000000000E+00  0.00000000000E+00 -0.10473986835E+03  0.10473986838E+03  0.25500000920E-02 0. -1.
    10030    2    1    2    0    0  0.00000000000E+00  0.00000000000E+00  0.75345749766E+03  0.96293723440E+03  0.59962481321E+03 0.  0.
        3    1    3    3  502    0  0.14832490876E+03  0.59065001243E+02  0.78425567971E+03  0.80034113620E+03  0.10100000352E+00 0.  1.
       -3    1    3    3    0  502 -0.14832490876E+03 -0.59065001243E+02 -0.30798182051E+02  0.16259609820E+03  0.10100000352E+00 0. -1.
</event>
<event>
 5   0  0.2406307E-03  0.6001295E+03  0.7818609E-02  0.9905137E-01
        2   -1    0    0  501    0  0.00000000000E+00  0.00000000000E+00  0.10551480719E+04  0.10551480719E+04  0.25500000920E-02 0.  1.
       -2   -1    0    0    0  501  0.00000000000E+00  0.00000000000E+00 -0.85332913477E+02  0.85332913515E+02  0.25500000920E-02 0. -1.
    10030    2    1    2    0    0  0.00000000000E+00  0.00000000000E+00  0.96981515838E+03  0.11404809854E+04  0.60012951650E+03 0.  0.
        5    1    3    3  502    0 -0.16364442329E+03 -0.99128271430E+02  0.92410303446E+03  0.94371310247E+03  0.46999998093E+01 0.  1.
       -5    1    3    3    0  502  0.16364442329E+03  0.99128271430E+02  0.45712123916E+02  0.19676788290E+03  0.46999998093E+01 0. -1.
</event>
<event>
 5   0  0.9496750E-04  0.5999960E+03  0.7818609E-02  0.9905414E-01
        3   -1    0    0  501    0  0.00000000000E+00  0.00000000000E+00  0.78802192745E+03  0.78802193392E+03  0.10100000352E+00 0.  1.
       -3   -1    0    0    0  501  0.00000000000E+00  0.00000000000E+00 -0.11420848613E+03  0.11420853079E+03  0.10100000352E+00 0. -1.
    10030    2    1    2    0    0  0.00000000000E+00  0.00000000000E+00  0.67381344133E+03  0.90223046471E+03  0.59999604810E+03 0.  0.
        3    1    3    3  502    0  0.22296781803E+03 -0.72244593498E+02  0.61848895158E+03  0.66140949690E+03  0.10100000352E+00 0.  1.
       -3    1    3    3    0  502 -0.22296781803E+03  0.72244593498E+02  0.55324489748E+02  0.24082096781E+03  0.10100000352E+00 0. -1.
</event>
<event>
 5   0  0.2313168E-03  0.6000124E+03  0.7818609E-02  0.9905380E-01
        2   -1    0    0  501    0  0.00000000000E+00  0.00000000000E+00  0.11046456134E+04  0.11046456134E+04  0.25500000920E-02 0.  1.
       -2   -1    0    0    0  501  0.00000000000E+00  0.00000000000E+00 -0.81477469948E+02  0.81477469988E+02  0.25500000920E-02 0. -1.
    10030    2    1    2    0    0  0.00000000000E+00  0.00000000000E+00  0.10231681435E+04  0.11861230834E+04  0.60001243253E+03 0.  0.
        2    1    3    3  502    0  0.71604528953E+02 -0.15072288945E+03  0.18725880748E+02  0.16791443234E+03  0.25500000920E-02 0. -1.
       -2    1    3    3    0  502 -0.71604528953E+02  0.15072288945E+03  0.10044422627E+04  0.10182086511E+04  0.25500000920E-02 0.  1.
</event>
<event>
 5   0  0.2313168E-03  0.6001773E+03  0.7818609E-02  0.9905038E-01
       -2   -1    0    0    0  501  0.00000000000E+00  0.00000000000E+00  0.17184055539E+03  0.17184055541E+03  0.25500000920E-02 0. -1.
        2   -1    0    0  501    0  0.00000000000E+00  0.00000000000E+00 -0.52405089350E+03  0.52405089351E+03  0.25500000920E-02 0.  1.
    10030    2    1    2    0    0  0.00000000000E+00  0.00000000000E+00 -0.35221033811E+03  0.69589144891E+03  0.60017729581E+03 0.  0.
        2    1    3    3  502    0  0.16649148127E+02  0.27544792684E+03 -0.31282726921E+03  0.41714464506E+03  0.25500000920E-02 0.  1.
       -2    1    3    3    0  502 -0.16649148127E+02 -0.27544792684E+03 -0.39383068903E+02  0.27874680385E+03  0.25500000920E-02 0. -1.
</event>
<event>
 5   0  0.2346281E-03  0.5998981E+03  0.7818609E-02  0.9905617E-01
       -2   -1    0    0    0  501  0.00000000000E+00  0.00000000000E+00  0.10776948510E+03  0.10776948513E+03  0.25500000920E-02 0.  1.
        2   -1    0    0  501    0  0.00000000000E+00  0.00000000000E+00 -0.83483218862E+03  0.83483218862E+03  0.25500000920E-02 0. -1.
    10030    2    1    2    0    0  0.00000000000E+00  0.00000000000E+00 -0.72706270352E+03  0.94260167375E+03  0.59989810844E+03 0.  0.
        3    1    3    3  502    0  0.15180536902E+03  0.11541148933E+03 -0.72732266375E+03  0.75190621047E+03  0.10100000352E+00 0. -1.
       -3    1    3    3    0  502 -0.15180536902E+03 -0.11541148933E+03  0.25996023635E+00  0.19069546328E+03  0.10100000352E+00 0.  1.
</event>
<event>
 5   0  0.1416315E-03  0.5999959E+03  0.7818609E-02  0.9905415E-01
       -1   -1    0    0    0  501  0.00000000000E+00  0.00000000000E+00  0.80791854682E+02  0.80791854840E+02  0.50400001928E-02 0. -1.
        1   -1    0    0  501    0  0.00000000000E+00  0.00000000000E+00 -0.11139584954E+04  0.11139584954E+04  0.50400001928E-02 0.  1.
    10030    2    1    2    0    0  0.00000000000E+00  0.00000000000E+00 -0.10331666407E+04  0.11947503502E+04  0.59999590993E+03 0.  0.
        2    1    3    3  502    0 -0.67312638849E+02  0.15564525849E+03 -0.10093652201E+04  0.10235109112E+04  0.25500000920E-02 0.  1.
       -2    1    3    3    0  502  0.67312638849E+02 -0.15564525849E+03 -0.23801420584E+02  0.17123943899E+03  0.25500000920E-02 0. -1.
</event>
<event>
 5   0  0.2421210E-03  0.5999846E+03  0.7818609E-02  0.9905438E-01
       -2   -1    0    0    0  501  0.00000000000E+00  0.00000000000E+00  0.21792552164E+03  0.21792552165E+03  0.25500000920E-02 0.  1.
        2   -1    0    0  501    0  0.00000000000E+00  0.00000000000E+00 -0.41296396064E+03  0.41296396065E+03  0.25500000920E-02 0. -1.
    10030    2    1    2    0    0  0.00000000000E+00  0.00000000000E+00 -0.19503843901E+03  0.63088948230E+03  0.59998462163E+03 0.  0.
        1    1    3    3  502    0  0.20802021940E+03  0.11822343417E+03  0.92760974914E+02  0.25661993406E+03  0.50400001928E-02 0.  1.
       -1    1    3    3    0  502 -0.20802021940E+03 -0.11822343417E+03 -0.28779941392E+03  0.37426954824E+03  0.50400001928E-02 0. -1.
</event>
<event>
 5   0  0.1423430E-03  0.6001048E+03  0.7818609E-02  0.9905189E-01
        1   -1    0    0  501    0  0.00000000000E+00  0.00000000000E+00  0.12255087820E+03  0.12255087830E+03  0.50400001928E-02 0. -1.
       -1   -1    0    0    0  501  0.00000000000E+00  0.00000000000E+00 -0.73464539300E+03  0.73464539302E+03  0.50400001928E-02 0.  1.
    10030    2    1    2    0    0  0.00000000000E+00  0.00000000000E+00 -0.61209451480E+03  0.85719627132E+03  0.60010478461E+03 0.  0.
        1    1    3    3  502    0  0.27392553231E+02 -0.75310346834E+02  0.10698201801E+03  0.13366806842E+03  0.50400001928E-02 0. -1.
       -1    1    3    3    0  502 -0.27392553231E+02  0.75310346834E+02 -0.71907653282E+03  0.72352820290E+03  0.50400001928E-02 0.  1.
</event>
<event>
 5   0  0.1479385E-03  0.6006248E+03  0.7818609E-02  0.9904111E-01
        1   -1    0    0  501    0  0.00000000000E+00  0.00000000000E+00  0.13056412318E+03  0.13056412328E+03  0.50400001928E-02 0.  1.
       -1   -1    0    0    0  501  0.00000000000E+00  0.00000000000E+00 -0.69075290456E+03  0.69075290457E+03  0.50400001928E-02 0. -1.
    10030    2    1    2    0    0  0.00000000000E+00  0.00000000000E+00 -0.56018878137E+03  0.82131702785E+03  0.60062483254E+03 0.  0.
        3    1    3    3  502    0 -0.66932427018E+02 -0.28476701068E+03 -0.37299300840E+03  0.47402109096E+03  0.10100000352E+00 0. -1.
       -3    1    3    3    0  502  0.66932427018E+02  0.28476701068E+03 -0.18719577297E+03  0.34729593689E+03  0.10100000352E+00 0.  1.
</event>
<event>
 5   0  0.1392854E-03  0.6000442E+03  0.7818609E-02  0.9905314E-01
       -1   -1    0    0    0  501  0.00000000000E+00  0.00000000000E+00  0.80660094841E+03  0.80660094842E+03  0.50400001928E-02 0.  1.
        1   -1    0    0  501    0  0.00000000000E+00  0.00000000000E+00 -0.11159578502E+03  0.11159578514E+03  0.50400001928E-02 0. -1.
    10030    2    1    2    0    0  0.00000000000E+00  0.00000000000E+00  0.69500516339E+03  0.91819673356E+03  0.60004421869E+03 0.  0.
        4    1    3    3  502    0 -0.23061523359E+03 -0.97048205134E+02  0.94161093651E+02  0.26733810903E+03  0.12699999809E+01 0. -1.
       -4    1    3    3    0  502  0.23061523359E+03  0.97048205134E+02  0.60084406974E+03  0.65085862453E+03  0.12699999809E+01 0.  1.
</event>
<event>
 5   0  0.2324616E-03  0.5997656E+03  0.7818609E-02  0.9905892E-01
       -2   -1    0    0    0  501  0.00000000000E+00  0.00000000000E+00  0.48671864414E+02  0.48671864480E+02  0.25500000920E-02 0.  1.
        2   -1    0    0  501    0  0.00000000000E+00  0.00000000000E+00 -0.18476732412E+04  0.18476732412E+04  0.25500000920E-02 0. -1.
    10030    2    1    2    0    0  0.00000000000E+00  0.00000000000E+00 -0.17990013767E+04  0.18963451056E+04  0.59976562602E+03 0.  0.
        4    1    3    3  502    0  0.21967789043E+03 -0.16422485881E+03 -0.51615275682E+03  0.58450274684E+03  0.12699999809E+01 0.  1.
       -4    1    3    3    0  502 -0.21967789043E+03  0.16422485881E+03 -0.12828486199E+04  0.13118423588E+04  0.12699999809E+01 0. -1.
</event>
<event>
 5   0  0.1479385E-03  0.6000561E+03  0.7818609E-02  0.9905290E-01
       -1   -1    0    0    0  501  0.00000000000E+00  0.00000000000E+00  0.71986057731E+03  0.71986057733E+03  0.50400001928E-02 0. -1.
        1   -1    0    0  501    0  0.00000000000E+00  0.00000000000E+00 -0.12504757813E+03  0.12504757823E+03  0.50400001928E-02 0.  1.
    10030    2    1    2    0    0  0.00000000000E+00  0.00000000000E+00  0.59481299918E+03  0.84490815556E+03  0.60005607016E+03 0.  0.
        3    1    3    3  502    0 -0.26144878571E+03 -0.22590268013E+02  0.50218453234E+03  0.56661724513E+03  0.10100000352E+00 0. -1.
       -3    1    3    3    0  502  0.26144878571E+03  0.22590268013E+02  0.92628466843E+02  0.27829091043E+03  0.10100000352E+00 0.  1.
</event>
<event>
 5   0  0.2406307E-03  0.5998488E+03  0.7818609E-02  0.9905720E-01
       -2   -1    0    0    0  501  0.00000000000E+00  0.00000000000E+00  0.22488435044E+03  0.22488435045E+03  0.25500000920E-02 0.  1.
        2   -1    0    0  501    0  0.00000000000E+00  0.00000000000E+00 -0.40000405996E+03  0.40000405997E+03  0.25500000920E-02 0. -1.
    10030    2    1    2    0    0  0.00000000000E+00  0.00000000000E+00 -0.17511970953E+03  0.62488841042E+03  0.59984882496E+03 0.  0.
        5    1    3    3  502    0 -0.18825877182E+03  0.24329679045E+02 -0.32941318846E+03  0.38022156328E+03  0.46999998093E+01 0. -1.
       -5    1    3    3    0  502  0.18825877182E+03 -0.24329679045E+02  0.15429347893E+03  0.24466684714E+03  0.46999998093E+01 0.  1.
</event>
<event>
 5   0  0.1479385E-03  0.5996007E+03  0.7818609E-02  0.9906235E-01
        1   -1    0    0  501    0  0.00000000000E+00  0.00000000000E+00  0.36551638034E+03  0.36551638038E+03  0.50400001928E-02 0. -1.
       -1   -1    0    0    0  501  0.00000000000E+00  0.00000000000E+00 -0.24589941145E+03  0.24589941150E+03  0.50400001928E-02 0.  1.
    10030    2    1    2    0    0  0.00000000000E+00  0.00000000000E+00  0.11961696890E+03  0.61141579188E+03  0.59960074325E+03 0.  0.
        3    1    3    3  502    0 -0.17713989670E+03  0.17134054758E+03  0.23388893814E+03  0.33976487728E+03  0.10100000352E+00 0. -1.
       -3    1    3    3    0  502  0.17713989670E+03 -0.17134054758E+03 -0.11427196924E+03  0.27165091460E+03  0.10100000352E+00 0.  1.
</event>
<event>
 5   0  0.2421210E-03  0.5997962E+03  0.7818609E-02  0.9905829E-01
       -2   -1    0    0    0  501  0.00000000000E+00  0.00000000000E+00  0.33590482880E+03  0.33590482881E+03  0.25500000920E-02 0.  1.
        2   -1    0    0  501    0  0.00000000000E+00  0.00000000000E+00 -0.26775104899E+03  0.26775104900E+03  0.25500000920E-02 0. -1.
    10030    2    1    2    0    0  0.00000000000E+00  0.00000000000E+00  0.68153779814E+02  0.60365587782E+03  0.59979619966E+03 0.  0.
        1    1    3    3  502    0  0.11875276124E+03  0.24955821430E+02  0.31009314526E+03  0.33299064565E+03  0.50400001928E-02 0.  1.
       -1    1    3    3    0  502 -0.11875276124E+03 -0.24955821430E+02 -0.24193936545E+03  0.27066523217E+03  0.50400001928E-02 0. -1.
</event>
<event>
 5   0  0.1479385E-03  0.5999719E+03  0.7818609E-02  0.9905464E-01
        1   -1    0    0  501    0  0.00000000000E+00  0.00000000000E+00  0.74493147089E+02  0.74493147260E+02  0.50400001928E-02 0.  1.
       -1   -1    0    0    0  501  0.00000000000E+00  0.00000000000E+00 -0.12080517653E+04  0.12080517653E+04  0.50400001928E-02 0. -1.
    10030    2    1    2    0    0  0.00000000000E+00  0.00000000000E+00 -0.11335586182E+04  0.12825449126E+04  0.59997192588E+03 0.  0.
        3    1    3    3  502    0  0.28938611800E+03 -0.78775318528E+02 -0.58058207845E+03  0.65347183269E+03  0.10100000352E+00 0. -1.
       -3    1    3    3    0  502 -0.28938611800E+03  0.78775318528E+02 -0.55297653976E+03  0.62907307988E+03  0.10100000352E+00 0.  1.
</event>
<event>
 5   0  0.2406307E-03  0.6000797E+03  0.7818609E-02  0.9905241E-01
        2   -1    0    0  501    0  0.00000000000E+00  0.00000000000E+00  0.30561179432E+03  0.30561179433E+03  0.25500000920E-02 0.  1.
       -2   -1    0    0    0  501  0.00000000000E+00  0.00000000000E+00 -0.29456948557E+03  0.29456948558E+03  0.25500000920E-02 0. -1.
    10030    2    1    2    0    0  0.00000000000E+00  0.00000000000E+00  0.11042308747E+02  0.60018127991E+03  0.60007969152E+03 0.  0.
        5    1    3    3  502    0 -0.13086612566E+03  0.17203966951E+02 -0.26393102343E+03  0.29513318087E+03  0.46999998093E+01 0. -1.
       -5    1    3    3    0  502  0.13086612566E+03 -0.17203966951E+02  0.27497333217E+03  0.30504809904E+03  0.46999998093E+01 0.  1.
</event>
<event>
 5   0  0.2346281E-03  0.5998551E+03  0.7818609E-02  0.9905707E-01
        2   -1    0    0  501    0  0.00000000000E+00  0.00000000000E+00  0.83636352661E+03  0.83636352662E+03  0.25500000920E-02 0.  1.
       -2   -1    0    0    0  501  0.00000000000E+00  0.00000000000E+00 -0.10755672493E+03  0.10755672496E+03  0.25500000920E-02 0. -1.
    10030    2    1    2    0    0  0.00000000000E+00  0.00000000000E+00  0.72880680169E+03  0.94392025158E+03  0.59985505512E+03 0.  0.
        3    1    3    3  502    0 -0.16428434968E+03 -0.22517609496E+03  0.19014833911E+03  0.33741668951E+03  0.10100000352E+00 0.  1.
       -3    1    3    3    0  502  0.16428434968E+03  0.22517609496E+03  0.53865846257E+03  0.60650356206E+03  0.10100000352E+00 0. -1.
</event>
<event>
 5   0  0.9496750E-04  0.5999089E+03  0.7818609E-02  0.9905595E-01
       -3   -1    0    0    0  501  0.00000000000E+00  0.00000000000E+00  0.40201732687E+02  0.40201859559E+02  0.10100000352E+00 0.  1.
        3   -1    0    0  501    0  0.00000000000E+00  0.00000000000E+00 -0.22380263967E+04  0.22380263990E+04  0.10100000352E+00 0. -1.
    10030    2    1    2    0    0  0.00000000000E+00  0.00000000000E+00 -0.21978246641E+04  0.22782282586E+04  0.59990894664E+03 0.  0.
        4    1    3    3  502    0 -0.12700821790E+03 -0.10882889170E+03 -0.20444843993E+04  0.20513149166E+04  0.12699999809E+01 0. -1.
       -4    1    3    3    0  502  0.12700821790E+03  0.10882889170E+03 -0.15334026473E+03  0.22691334198E+03  0.12699999809E+01 0.  1.
</event>
<event>
 5   0  0.2346281E-03  0.6005195E+03  0.7818609E-02  0.9904329E-01
       -2   -1    0    0    0  501  0.00000000000E+00  0.00000000000E+00  0.39683065858E+03  0.39683065858E+03  0.25500000920E-02 0. -1.
        2   -1    0    0  501    0  0.00000000000E+00  0.00000000000E+00 -0.22718987693E+03  0.22718987694E+03  0.25500000920E-02 0.  1.
    10030    2    1    2    0    0  0.00000000000E+00  0.00000000000E+00  0.16964078165E+03  0.62402053553E+03  0.60051947009E+03 0.  0.
        3    1    3    3  502    0 -0.38721690740E+02  0.27107986818E+03  0.21281643735E+03  0.34680615691E+03  0.10100000352E+00 0. -1.
       -3    1    3    3    0  502  0.38721690740E+02 -0.27107986818E+03 -0.43175655704E+02  0.27721437861E+03  0.10100000352E+00 0.  1.
</event>
<event>
 5   0  0.1392854E-03  0.6000535E+03  0.7818609E-02  0.9905295E-01
        1   -1    0    0  501    0  0.00000000000E+00  0.00000000000E+00  0.96855725197E+03  0.96855725198E+03  0.50400001928E-02 0.  1.
       -1   -1    0    0    0  501  0.00000000000E+00  0.00000000000E+00 -0.92938293544E+02  0.92938293680E+02  0.50400001928E-02 0. -1.
    10030    2    1    2    0    0  0.00000000000E+00  0.00000000000E+00  0.87561895843E+03  0.10614955457E+04  0.60005352520E+03 0.  0.
        4    1    3    3  502    0 -0.19009326667E+03 -0.14251441700E+03  0.11369753656E+03  0.26339049300E+03  0.12699999809E+01 0. -1.
       -4    1    3    3    0  502  0.19009326667E+03  0.14251441700E+03  0.76192142187E+03  0.79810505266E+03  0.12699999809E+01 0.  1.
</event>
<event>
 5   0  0.1392854E-03  0.5998018E+03  0.7818609E-02  0.9905817E-01
        1   -1    0    0  501    0  0.00000000000E+00  0.00000000000E+00  0.14526222295E+03  0.14526222304E+03  0.50400001928E-02 0.  1.
       -1   -1    0    0    0  501  0.00000000000E+00  0.00000000000E+00 -0.61916000069E+03  0.61916000071E+03  0.50400001928E-02 0. -1.
    10030    2    1    2    0    0  0.00000000000E+00  0.00000000000E+00 -0.47389777773E+03  0.76442222375E+03  0.59980182762E+03 0.  0.
        4    1    3    3  502    0  0.61057070954E+02 -0.93594009199E+02 -0.59163111793E+03  0.60209367799E+03  0.12699999809E+01 0. -1.
       -4    1    3    3    0  502 -0.61057070954E+02  0.93594009199E+02  0.11773334020E+03  0.16232854575E+03  0.12699999809E+01 0.  1.
</event>
<event>
 5   0  0.1423430E-03  0.6000246E+03  0.7818609E-02  0.9905355E-01
        1   -1    0    0  501    0  0.00000000000E+00  0.00000000000E+00  0.33050930220E+03  0.33050930224E+03  0.50400001928E-02 0.  1.
       -1   -1    0    0    0  501  0.00000000000E+00  0.00000000000E+00 -0.27232931527E+03  0.27232931531E+03  0.50400001928E-02 0. -1.
    10030    2    1    2    0    0  0.00000000000E+00  0.00000000000E+00  0.58179986932E+02  0.60283861755E+03  0.60002457277E+03 0.  0.
        1    1    3    3  502    0 -0.11497335744E+03  0.20990417352E+03 -0.15266931086E+03  0.28387770868E+03  0.50400001928E-02 0. -1.
       -1    1    3    3    0  502  0.11497335744E+03 -0.20990417352E+03  0.21084929779E+03  0.31896090887E+03  0.50400001928E-02 0.  1.
</event>
<event>
 5   0  0.1418763E-03  0.5999009E+03  0.7818609E-02  0.9905612E-01
       -1   -1    0    0    0  501  0.00000000000E+00  0.00000000000E+00  0.10710640449E+04  0.10710640449E+04  0.50400001928E-02 0.  1.
        1   -1    0    0  501    0  0.00000000000E+00  0.00000000000E+00 -0.84000836060E+02  0.84000836211E+02  0.50400001928E-02 0. -1.
    10030    2    1    2    0    0  0.00000000000E+00  0.00000000000E+00  0.98706320883E+03  0.11550648811E+04  0.59990090961E+03 0.  0.
        5    1    3    3  502    0  0.29900369187E+03 -0.21202306147E+02  0.47472148214E+03  0.56145820962E+03  0.46999998093E+01 0.  1.
       -5    1    3    3    0  502 -0.29900369187E+03  0.21202306147E+02  0.51234172668E+03  0.59360667149E+03  0.46999998093E+01 0. -1.
</event>
<event>
 5   0  0.1479385E-03  0.6000184E+03  0.7818609E-02  0.9905368E-01
        1   -1    0    0  501    0  0.00000000000E+00  0.00000000000E+00  0.10527501826E+04  0.10527501826E+04  0.50400001928E-02 0.  1.
       -1   -1    0    0    0  501  0.00000000000E+00  0.00000000000E+00 -0.85495603482E+02  0.85495603631E+02  0.50400001928E-02 0. -1.
    10030    2    1    2    0    0  0.00000000000E+00  0.00000000000E+00  0.96725457910E+03  0.11382457862E+04  0.60001837394E+03 0.  0.
        3    1    3    3  502    0 -0.25227643482E+03  0.20637612957E+02  0.78913670767E+03  0.82873763293E+03  0.10100000352E+00 0.  1.
       -3    1    3    3    0  502  0.25227643482E+03 -0.20637612957E+02  0.17811787143E+03  0.30950815330E+03  0.10100000352E+00 0. -1.
</event>
<event>
 5   0  0.1416315E-03  0.6003765E+03  0.7818609E-02  0.9904625E-01
       -1   -1    0    0    0  501  0.00000000000E+00  0.00000000000E+00  0.18904283204E+03  0.18904283211E+03  0.50400001928E-02 0.  1.
        1   -1    0    0  501    0  0.00000000000E+00  0.00000000000E+00 -0.47668021757E+03  0.47668021760E+03  0.50400001928E-02 0. -1.
    10030    2    1    2    0    0  0.00000000000E+00  0.00000000000E+00 -0.28763738553E+03  0.66572304970E+03  0.60037647635E+03 0.  0.
        2    1    3    3  502    0 -0.18239002876E+02 -0.80595673156E+02  0.17618310696E+03  0.19459910314E+03  0.25500000920E-02 0.  1.
       -2    1    3    3    0  502  0.18239002876E+02  0.80595673156E+02 -0.46382049250E+03  0.47112394656E+03  0.25500000920E-02 0. -1.
</event>
<event>
 5   0  0.1416315E-03  0.5999470E+03  0.7818609E-02  0.9905516E-01
        1   -1    0    0  501    0  0.00000000000E+00  0.00000000000E+00  0.92001464083E+03  0.92001464084E+03  0.50400001928E-02 0. -1.
       -1   -1    0    0    0  501  0.00000000000E+00  0.00000000000E+00 -0.97807262581E+02  0.97807262711E+02  0.50400001928E-02 0.  1.
    10030    2    1    2    0    0  0.00000000000E+00  0.00000000000E+00  0.82220737824E+03  0.10178219035E+04  0.59994704308E+03 0.  0.
        2    1    3    3  502    0  0.19093820454E+03 -0.18089600638E+03  0.16640845035E+03  0.31124353074E+03  0.25500000920E-02 0.  1.
       -2    1    3    3    0  502 -0.19093820454E+03  0.18089600638E+03  0.65579892790E+03  0.70657837281E+03  0.25500000920E-02 0. -1.
</event>
<event>
 5   0  0.2313168E-03  0.6001185E+03  0.7818609E-02  0.9905160E-01
       -2   -1    0    0    0  501  0.00000000000E+00  0.00000000000E+00  0.46227408190E+02  0.46227408260E+02  0.25500000920E-02 0. -1.
        2   -1    0    0  501    0  0.00000000000E+00  0.00000000000E+00 -0.19476662135E+04  0.19476662135E+04  0.25500000920E-02 0.  1.
    10030    2    1    2    0    0  0.00000000000E+00  0.00000000000E+00 -0.19014388053E+04  0.19938936218E+04  0.60011852543E+03 0.  0.
        2    1    3    3  502    0  0.72917802247E+02 -0.25386571401E+03 -0.14237616264E+04  0.14480545485E+04  0.25500000920E-02 0.  1.
       -2    1    3    3    0  502 -0.72917802247E+02  0.25386571401E+03 -0.47767717893E+03  0.54583907328E+03  0.25500000920E-02 0. -1.
</event>
<event>
 5   0  0.1479385E-03  0.5999376E+03  0.7818609E-02  0.9905536E-01
        1   -1    0    0  501    0  0.00000000000E+00  0.00000000000E+00  0.18711733165E+03  0.18711733171E+03  0.50400001928E-02 0. -1.
       -1   -1    0    0    0  501  0.00000000000E+00  0.00000000000E+00 -0.48088155074E+03  0.48088155077E+03  0.50400001928E-02 0.  1.
    10030    2    1    2    0    0  0.00000000000E+00  0.00000000000E+00 -0.29376421910E+03  0.66799888248E+03  0.59993757223E+03 0.  0.
        3    1    3    3  502    0  0.19203947774E+03  0.30594169874E+01  0.10967688787E+03  0.22117312445E+03  0.10100000352E+00 0. -1.
       -3    1    3    3    0  502 -0.19203947774E+03 -0.30594169874E+01 -0.40344110697E+03  0.44682575803E+03  0.10100000352E+00 0.  1.
</event>
<event>
 5   0  0.1423430E-03  0.6002769E+03  0.7818609E-02  0.9904832E-01
        1   -1    0    0  501    0  0.00000000000E+00  0.00000000000E+00  0.13275974800E+04  0.13275974800E+04  0.50400001928E-02 0.  1.
       -1   -1    0    0    0  501  0.00000000000E+00  0.00000000000E+00 -0.67854224140E+02  0.67854224327E+02  0.50400001928E-02 0. -1.
    10030    2    1    2    0    0  0.00000000000E+00  0.00000000000E+00  0.12597432559E+04  0.13954517044E+04  0.60027692647E+03 0.  0.
        1    1    3    3  502    0  0.11392016828E+03  0.16826679534E+03  0.11433658864E+04  0.11612825106E+04  0.50400001928E-02 0.  1.
       -1    1    3    3    0  502 -0.11392016828E+03 -0.16826679534E+03  0.11637736943E+03  0.23416919374E+03  0.50400001928E-02 0. -1.
</event>
<event>
 5   0  0.2313168E-03  0.6000812E+03  0.7818609E-02  0.9905238E-01
        2   -1    0    0  501    0  0.00000000000E+00  0.00000000000E+00  0.11881738057E+04  0.11881738057E+04  0.25500000920E-02 0. -1.
       -2   -1    0    0    0  501  0.00000000000E+00  0.00000000000E+00 -0.75767002461E+02  0.75767002504E+02  0.25500000920E-02 0.  1.
    10030    2    1    2    0    0  0.00000000000E+00  0.00000000000E+00  0.11124068033E+04  0.12639408082E+04  0.60008122014E+03 0.  0.
        2    1    3    3  502    0  0.28671770686E+01  0.20249665132E+03  0.89904272829E+02  0.22157593006E+03  0.25500000920E-02 0. -1.
       -2    1    3    3    0  502 -0.28671770686E+01 -0.20249665132E+03  0.10225025304E+04  0.10423648782E+04  0.25500000920E-02 0.  1.
</event>
<event>
 5   0  0.1416315E-03  0.6002434E+03  0.7818609E-02  0.9904901E-01
       -1   -1    0    0    0  501  0.00000000000E+00  0.00000000000E+00  0.28728710688E+03  0.28728710693E+03  0.50400001928E-02 0.  1.
        1   -1    0    0  501    0  0.00000000000E+00  0.00000000000E+00 -0.31352969447E+03  0.31352969451E+03  0.50400001928E-02 0. -1.
    10030    2    1    2    0    0  0.00000000000E+00  0.00000000000E+00 -0.26242587582E+02  0.60081680144E+03  0.60024341353E+03 0.  0.
        2    1    3    3  502    0 -0.11254080509E+03 -0.14883203464E+03  0.22217054782E+03  0.29013128006E+03  0.25500000920E-02 0.  1.
       -2    1    3    3    0  502  0.11254080509E+03  0.14883203464E+03 -0.24841313541E+03  0.31068552137E+03  0.25500000920E-02 0. -1.
</event>
<event>
 5   0  0.1479385E-03  0.6001938E+03  0.7818609E-02  0.9905004E-01
        1   -1    0    0  501    0  0.00000000000E+00  0.00000000000E+00  0.58812005816E+03  0.58812005818E+03  0.50400001928E-02 0. -1.
       -1   -1    0    0    0  501  0.00000000000E+00  0.00000000000E+00 -0.15312886655E+03  0.15312886663E+03  0.50400001928E-02 0.  1.
    10030    2    1    2    0    0  0.00000000000E+00  0.00000000000E+00  0.43499119161E+03  0.74124892481E+03  0.60019382849E+03 0.  0.
        3    1    3    3  502    0 -0.23057897625E+03 -0.11612154800E+03  0.28545146465E+02  0.25974162890E+03  0.10100000352E+00 0.  1.
       -3    1    3    3    0  502  0.23057897625E+03  0.11612154800E+03  0.40644604515E+03  0.48150729591E+03  0.10100000352E+00 0. -1.
</event>
<event>
 5   0  0.2421210E-03  0.5998951E+03  0.7818609E-02  0.9905624E-01
        2   -1    0    0  501    0  0.00000000000E+00  0.00000000000E+00  0.91759671100E+03  0.91759671100E+03  0.25500000920E-02 0.  1.
       -2   -1    0    0    0  501  0.00000000000E+00  0.00000000000E+00 -0.98048026561E+02  0.98048026594E+02  0.25500000920E-02 0. -1.
    10030    2    1    2    0    0  0.00000000000E+00  0.00000000000E+00  0.81954868444E+03  0.10156447376E+04  0.59989514654E+03 0.  0.
        1    1    3    3  502    0 -0.54467045380E+02  0.22545260939E+03  0.73177650595E+03  0.76765382354E+03  0.50400001928E-02 0.  1.
       -1    1    3    3    0  502  0.54467045380E+02 -0.22545260939E+03  0.87772178488E+02  0.24799091405E+03  0.50400001928E-02 0. -1.
</event>
<event>
 5   0  0.2313168E-03  0.5999243E+03  0.7818609E-02  0.9905563E-01
       -2   -1    0    0    0  501  0.00000000000E+00  0.00000000000E+00  0.32197386285E+03  0.32197386286E+03  0.25500000920E-02 0.  1.
        2   -1    0    0  501    0  0.00000000000E+00  0.00000000000E+00 -0.27945522579E+03  0.27945522580E+03  0.25500000920E-02 0. -1.
    10030    2    1    2    0    0  0.00000000000E+00  0.00000000000E+00  0.42518637066E+02  0.60142908866E+03  0.59992425704E+03 0.  0.
        2    1    3    3  502    0  0.17498038580E+02 -0.29458937394E+03  0.75136080245E+02  0.30452341643E+03  0.25500000920E-02 0.  1.
       -2    1    3    3    0  502 -0.17498038580E+02  0.29458937394E+03 -0.32617443179E+02  0.29690567223E+03  0.25500000920E-02 0. -1.
</event>
<event>
 5   0  0.2324616E-03  0.5999368E+03  0.7818609E-02  0.9905537E-01
        2   -1    0    0  501    0  0.00000000000E+00  0.00000000000E+00  0.88323397863E+03  0.88323397863E+03  0.25500000920E-02 0. -1.
       -2   -1    0    0    0  501  0.00000000000E+00  0.00000000000E+00 -0.10187677736E+03  0.10187677740E+03  0.25500000920E-02 0.  1.
    10030    2    1    2    0    0  0.00000000000E+00  0.00000000000E+00  0.78135720127E+03  0.98511075603E+03  0.59993676806E+03 0.  0.
        4    1    3    3  502    0 -0.27171486955E+03  0.12488818473E+03  0.35205123956E+03  0.46191743547E+03  0.12699999809E+01 0.  1.
       -4    1    3    3    0  502  0.27171486955E+03 -0.12488818473E+03  0.42930596171E+03  0.52319332056E+03  0.12699999809E+01 0. -1.
</event>
<event>
 5   0  0.2406307E-03  0.5988994E+03  0.7818609E-02  0.9907692E-01
       -2   -1    0    0    0  501  0.00000000000E+00  0.00000000000E+00  0.42043813580E+02  0.42043813657E+02  0.25500000920E-02 0. -1.
        2   -1    0    0  501    0  0.00000000000E+00  0.00000000000E+00 -0.21327780240E+04  0.21327780240E+04  0.25500000920E-02 0.  1.
    10030    2    1    2    0    0  0.00000000000E+00  0.00000000000E+00 -0.20907342105E+04  0.21748218377E+04  0.59889939634E+03 0.  0.
        5    1    3    3  502    0  0.40228974002E+02  0.10523660916E+03 -0.20527347510E+04  0.20558295557E+04  0.46999998093E+01 0.  1.
       -5    1    3    3    0  502 -0.40228974002E+02 -0.10523660916E+03 -0.37999459502E+02  0.11899228201E+03  0.46999998093E+01 0. -1.
</event>
<event>
 5   0  0.2324616E-03  0.6000607E+03  0.7818609E-02  0.9905280E-01
       -2   -1    0    0    0  501  0.00000000000E+00  0.00000000000E+00  0.12100516192E+03  0.12100516195E+03  0.25500000920E-02 0. -1.
        2   -1    0    0  501    0  0.00000000000E+00  0.00000000000E+00 -0.74392048221E+03  0.74392048221E+03  0.25500000920E-02 0.  1.
    10030    2    1    2    0    0  0.00000000000E+00  0.00000000000E+00 -0.62291532028E+03  0.86492564416E+03  0.60006072500E+03 0.  0.
        4    1    3    3  502    0 -0.63346516474E+02 -0.24256018354E+03 -0.54904071196E+03  0.60356900192E+03  0.12699999809E+01 0.  1.
       -4    1    3    3    0  502  0.63346516474E+02  0.24256018354E+03 -0.73874608319E+02  0.26135664224E+03  0.12699999809E+01 0. -1.
</event>
<event>
 5   0  0.2421210E-03  0.5995711E+03  0.7818609E-02  0.9906296E-01
        2   -1    0    0  501    0  0.00000000000E+00  0.00000000000E+00  0.35724865358E+03  0.35724865359E+03  0.25500000920E-02 0.  1.
       -2   -1    0    0    0  501  0.00000000000E+00  0.00000000000E+00 -0.25156533258E+03  0.25156533259E+03  0.25500000920E-02 0. -1.
    10030    2    1    2    0    0  0.00000000000E+00  0.00000000000E+00  0.10568332100E+03  0.60881398618E+03  0.59957110123E+03 0.  0.
        1    1    3    3  502    0  0.22224894787E+01  0.20888645129E+03 -0.16549136714E+03  0.26650681345E+03  0.50400001928E-02 0. -1.
       -1    1    3    3    0  502 -0.22224894787E+01 -0.20888645129E+03  0.27117468814E+03  0.34230717274E+03  0.50400001928E-02 0.  1.
</event>
<event>
 5   0  0.1416315E-03  0.5995461E+03  0.7818609E-02  0.9906348E-01
       -1   -1    0    0    0  501  0.00000000000E+00  0.00000000000E+00  0.13722363465E+03  0.13722363474E+03  0.50400001928E-02 0.  1.
        1   -1    0    0  501    0  0.00000000000E+00  0.00000000000E+00 -0.65487175386E+03  0.65487175388E+03  0.50400001928E-02 0. -1.
    10030    2    1    2    0    0  0.00000000000E+00  0.00000000000E+00 -0.51764811922E+03  0.79209538862E+03  0.59954610277E+03 0.  0.
        2    1    3    3  502    0 -0.24182570209E+03 -0.59560119234E+02 -0.38397161586E+02  0.25199488094E+03  0.25500000920E-02 0. -1.
       -2    1    3    3    0  502  0.24182570209E+03  0.59560119234E+02 -0.47925095763E+03  0.54010050768E+03  0.25500000920E-02 0.  1.
</event>
<event>
 5   0  0.2313168E-03  0.5997990E+03  0.7818609E-02  0.9905823E-01
        2   -1    0    0  501    0  0.00000000000E+00  0.00000000000E+00  0.16366405700E+04  0.16366405701E+04  0.25500000920E-02 0. -1.
       -2   -1    0    0    0  501  0.00000000000E+00  0.00000000000E+00 -0.54953854481E+02  0.54953854540E+02  0.25500000920E-02 0.  1.
    10030    2    1    2    0    0  0.00000000000E+00  0.00000000000E+00  0.15816867156E+04  0.16915944246E+04  0.59979899225E+03 0.  0.
        2    1    3    3  502    0 -0.29195692099E+02  0.14125714539E+02  0.16316798500E+04  0.16320021621E+04  0.25500000920E-02 0. -1.
       -2    1    3    3    0  502  0.29195692099E+02 -0.14125714539E+02 -0.49993134440E+02  0.59592262468E+02  0.25500000920E-02 0.  1.
</event>
<event>
 5   0  0.2346281E-03  0.6000748E+03  0.7818609E-02  0.9905251E-01
        2   -1    0    0  501    0  0.00000000000E+00  0.00000000000E+00  0.18120813297E+04  0.18120813297E+04  0.25500000920E-02 0.  1.
       -2   -1    0    0    0  501  0.00000000000E+00  0.00000000000E+00 -0.49679033921E+02  0.49679033987E+02  0.25500000920E-02 0. -1.
    10030    2    1    2    0    0  0.00000000000E+00  0.00000000000E+00  0.17624022957E+04  0.18617603636E+04  0.60007482836E+03 0.  0.
        3    1    3    3  502    0 -0.22783731342E+02 -0.18926428566E+03  0.16000444275E+04  0.16113603720E+04  0.10100000352E+00 0.  1.
       -3    1    3    3    0  502  0.22783731342E+02  0.18926428566E+03  0.16235786821E+03  0.25039999163E+03  0.10100000352E+00 0. -1.
</event>
<event>
 5   0  0.2406307E-03  0.6000566E+03  0.7818609E-02  0.9905289E-01
        2   -1    0    0  501    0  0.00000000000E+00  0.00000000000E+00  0.61560725682E+03  0.61560725683E+03  0.25500000920E-02 0.  1.
       -2   -1    0    0    0  501  0.00000000000E+00  0.00000000000E+00 -0.14622469469E+03  0.14622469471E+03  0.25500000920E-02 0. -1.
    10030    2    1    2    0    0  0.00000000000E+00  0.00000000000E+00  0.46938256214E+03  0.76183195154E+03  0.60005660795E+03 0.  0.
        5    1    3    3  502    0 -0.19527582339E+03 -0.23969333136E+02 -0.52832416283E+02  0.20376587139E+03  0.46999998093E+01 0. -1.
       -5    1    3    3    0  502  0.19527582339E+03  0.23969333136E+02  0.52221497842E+03  0.55806608015E+03  0.46999998093E+01 0.  1.
</event>
<event>
 5   0  0.2421210E-03  0.5998620E+03  0.7818609E-02  0.9905692E-01
       -2   -1    0    0    0  501  0.00000000000E+00  0.00000000000E+00  0.76645576607E+03  0.76645576608E+03  0.25500000920E-02 0.  1.
        2   -1    0    0  501    0  0.00000000000E+00  0.00000000000E+00 -0.11736958138E+03  0.11736958141E+03  0.25500000920E-02 0. -1.
    10030    2    1    2    0    0  0.00000000000E+00  0.00000000000E+00  0.64908618469E+03  0.88382534749E+03  0.59986195887E+03 0.  0.
        1    1    3    3  502    0  0.70437350619E+02  0.14183837425E+03  0.69983341383E+03  0.71752794504E+03  0.50400001928E-02 0.  1.
       -1    1    3    3    0  502 -0.70437350619E+02 -0.14183837425E+03 -0.50747229134E+02  0.16629740245E+03  0.50400001928E-02 0. -1.
</event>
<event>
 5   0  0.1423430E-03  0.5999581E+03  0.7818609E-02  0.9905493E-01
       -1   -1    0    0    0  501  0.00000000000E+00  0.00000000000E+00  0.30915252320E+03  0.30915252324E+03  0.50400001928E-02 0. -1.
        1   -1    0    0  501    0  0.00000000000E+00  0.00000000000E+00 -0.29107774533E+03  0.29107774537E+03  0.50400001928E-02 0.  1.
    10030    2    1    2    0    0  0.00000000000E+00  0.00000000000E+00  0.18074777865E+02  0.60023026861E+03  0.59995806334E+03 0.  0.
        1    1    3    3  502    0 -0.25389431874E+03  0.15657857700E+03  0.40804646509E+02  0.30107174405E+03  0.50400001928E-02 0. -1.
       -1    1    3    3    0  502  0.25389431874E+03 -0.15657857700E+03 -0.22729868643E+02  0.29915852456E+03  0.50400001928E-02 0.  1.
</event>
<event>
 5   0  0.2313168E-03  0.5995335E+03  0.7818609E-02  0.9906374E-01
        2   -1    0    0  501    0  0.00000000000E+00  0.00000000000E+00  0.10192790752E+04  0.10192790752E+04  0.25500000920E-02 0.  1.
       -2   -1    0    0    0  501  0.00000000000E+00  0.00000000000E+00 -0.88160453689E+02  0.88160453726E+02  0.25500000920E-02 0. -1.
    10030    2    1    2    0    0  0.00000000000E+00  0.00000000000E+00  0.93111862153E+03  0.11074395289E+04  0.59953350442E+03 0.  0.
        2    1    3    3  502    0 -0.82576032176E+02  0.28235780014E+03  0.35920060478E+03  0.46429495245E+03  0.25500000920E-02 0.  1.
       -2    1    3    3    0  502  0.82576032176E+02 -0.28235780014E+03  0.57191801675E+03  0.64314457650E+03  0.25500000920E-02 0. -1.
</event>
<event>
 5   0  0.1479385E-03  0.6002812E+03  0.7818609E-02  0.9904823E-01
       -1   -1    0    0    0  501  0.00000000000E+00  0.00000000000E+00  0.61491581487E+03  0.61491581490E+03  0.50400001928E-02 0.  1.
        1   -1    0    0  501    0  0.00000000000E+00  0.00000000000E+00 -0.14649871003E+03  0.14649871011E+03  0.50400001928E-02 0. -1.
    10030    2    1    2    0    0  0.00000000000E+00  0.00000000000E+00  0.46841710485E+03  0.76141452501E+03  0.60028117976E+03 0.  0.
        3    1    3    3  502    0 -0.14074910392E+03 -0.11397964454E+03 -0.69374935753E+02  0.19394473836E+03  0.10100000352E+00 0. -1.
       -3    1    3    3    0  502  0.14074910392E+03  0.11397964454E+03  0.53779204060E+03  0.56746978665E+03  0.10100000352E+00 0.  1.
</event>
<event>
 5   0  0.2406307E-03  0.5995425E+03  0.7818609E-02  0.9906356E-01
        2   -1    0    0  501    0  0.00000000000E+00  0.00000000000E+00  0.56677482860E+03  0.56677482861E+03  0.25500000920E-02 0. -1.
       -2   -1    0    0    0  501  0.00000000000E+00  0.00000000000E+00 -0.15855117678E+03  0.15855117680E+03  0.25500000920E-02 0.  1.
    10030    2    1    2    0    0  0.00000000000E+00  0.00000000000E+00  0.40822365182E+03  0.72532600541E+03  0.59954254580E+03 0.  0.
        5    1    3    3  502    0  0.18032996429E+03  0.23494069496E+03  0.14834678328E+03  0.33127765436E+03  0.46999998093E+01 0. -1.
       -5    1    3    3    0  502 -0.18032996429E+03 -0.23494069496E+03  0.25987686854E+03  0.39404835105E+03  0.46999998093E+01 0.  1.
</event>
<event>
 5   0  0.1416315E-03  0.5999641E+03  0.7818609E-02  0.9905481E-01
        1   -1    0    0  501    0  0.00000000000E+00  0.00000000000E+00  0.59125592353E+03  0.59125592355E+03  0.50400001928E-02 0. -1.
       -1   -1    0    0    0  501  0.00000000000E+00  0.00000000000E+00 -0.15220012980E+03  0.15220012989E+03  0.50400001928E-02 0.  1.
    10030    2    1    2    0    0  0.00000000000E+00  0.00000000000E+00  0.43905579373E+03  0.74345605344E+03  0.59996409341E+03 0.  0.
        2    1    3    3  502    0  0.25714364408E+03  0.10672700955E+03  0.35793642598E+03  0.45346663969E+03  0.25500000920E-02 0. -1.
       -2    1    3    3    0  502 -0.25714364408E+03 -0.10672700955E+03  0.81119367747E+02  0.28998941375E+03  0.25500000920E-02 0.  1.
</event>
<event>
 5   0  0.2324616E-03  0.6000391E+03  0.7818609E-02  0.9905325E-01
       -2   -1    0    0    0  501  0.00000000000E+00  0.00000000000E+00  0.66236716444E+02  0.66236716493E+02  0.25500000920E-02 0. -1.
        2   -1    0    0  501    0  0.00000000000E+00  0.00000000000E+00 -0.13589402459E+04  0.13589402460E+04  0.25500000920E-02 0.  1.
    10030    2    1    2    0    0  0.00000000000E+00  0.00000000000E+00 -0.12927035295E+04  0.14251769624E+04  0.60003913130E+03 0.  0.
        4    1    3    3  502    0 -0.15014316428E+03  0.67037516048E+02 -0.50323500711E+02  0.17196239694E+03  0.12699999809E+01 0. -1.
       -4    1    3    3    0  502  0.15014316428E+03 -0.67037516048E+02 -0.12423800288E+04  0.12532145655E+04  0.12699999809E+01 0.  1.
</event>
<event>
 5   0  0.1423430E-03  0.6002399E+03  0.7818609E-02  0.9904909E-01
       -1   -1    0    0    0  501  0.00000000000E+00  0.00000000000E+00  0.16051403937E+03  0.16051403945E+03  0.50400001928E-02 0. -1.
        1   -1    0    0  501    0  0.00000000000E+00  0.00000000000E+00 -0.56114702012E+03  0.56114702014E+03  0.50400001928E-02 0.  1.
    10030    2    1    2    0    0  0.00000000000E+00  0.00000000000E+00 -0.40063298074E+03  0.72166105959E+03  0.60023986845E+03 0.  0.
        1    1    3    3  502    0 -0.14726000169E+03  0.35176635973E+02 -0.51186697988E+03  0.53378901163E+03  0.50400001928E-02 0.  1.
       -1    1    3    3    0  502  0.14726000169E+03 -0.35176635973E+02  0.11123399914E+03  0.18787204796E+03  0.50400001928E-02 0. -1.
</event>
<event>
 5   0  0.2421210E-03  0.6001847E+03  0.7818609E-02  0.9905023E-01
       -2   -1    0    0    0  501  0.00000000000E+00  0.00000000000E+00  0.17645697804E+03  0.17645697806E+03  0.25500000920E-02 0.  1.
        2   -1    0    0  501    0  0.00000000000E+00  0.00000000000E+00 -0.51035340228E+03  0.51035340229E+03  0.25500000920E-02 0. -1.
    10030    2    1    2    0    0  0.00000000000E+00  0.00000000000E+00 -0.33389642424E+03  0.68681038035E+03  0.60018470194E+03 0.  0.
        1    1    3    3  502    0  0.29980015097E+03 -0.12519666448E+02 -0.16202007123E+03  0.34100934896E+03  0.50400001928E-02 0.  1.
       -1    1    3    3    0  502 -0.29980015097E+03  0.12519666448E+02 -0.17187635301E+03  0.34580103140E+03  0.50400001928E-02 0. -1.
</event>
<event>
 5   0  0.1392854E-03  0.5999793E+03  0.7818609E-02  0.9905449E-01
        1   -1    0    0  501    0  0.00000000000E+00  0.00000000000E+00  0.92191716484E+03  0.92191716485E+03  0.50400001928E-02 0.  1.
       -1   -1    0    0    0  501  0.00000000000E+00  0.00000000000E+00 -0.97615924025E+02  0.97615924155E+02  0.50400001928E-02 0. -1.
    10030    2    1    2    0    0  0.00000000000E+00  0.00000000000E+00  0.82430124081E+03  0.10195330890E+04  0.59997931962E+03 0.  0.
        4    1    3    3  502    0 -0.52052104714E+02 -0.32873012491E+02  0.91106271713E+03  0.91314125085E+03  0.12699999809E+01 0.  1.
       -4    1    3    3    0  502  0.52052104714E+02  0.32873012491E+02 -0.86761476314E+02  0.10639183816E+03  0.12699999809E+01 0. -1.
</event>
<event>
 5   0  0.9496750E-04  0.5986069E+03  0.7818609E-02  0.9908301E-01
       -3   -1    0    0    0  501  0.00000000000E+00  0.00000000000E+00  0.81698199564E+03  0.81698200188E+03  0.10100000352E+00 0. -1.
        3   -1    0    0  501    0  0.00000000000E+00  0.00000000000E+00 -0.10965055031E+03  0.10965059683E+03  0.10100000352E+00 0.  1.
    10030    2    1    2    0    0  0.00000000000E+00  0.00000000000E+00  0.70733144533E+03  0.92663259870E+03  0.59860688221E+03 0.  0.
        2    1    3    3  502    0  0.90454262903E+02  0.11958380354E+03  0.75465066810E+03  0.76940229439E+03  0.25500000920E-02 0. -1.
       -2    1    3    3    0  502 -0.90454262903E+02 -0.11958380354E+03 -0.47319222769E+02  0.15723030432E+03  0.25500000920E-02 0.  1.
</event>
<event>
 5   0  0.2346281E-03  0.5996741E+03  0.7818609E-02  0.9906082E-01
       -2   -1    0    0    0  501  0.00000000000E+00  0.00000000000E+00  0.13148607136E+03  0.13148607138E+03  0.25500000920E-02 0.  1.
        2   -1    0    0  501    0  0.00000000000E+00  0.00000000000E+00 -0.68373980779E+03  0.68373980779E+03  0.25500000920E-02 0. -1.
    10030    2    1    2    0    0  0.00000000000E+00  0.00000000000E+00 -0.55225373643E+03  0.81522587918E+03  0.59967411539E+03 0.  0.
        3    1    3    3  502    0 -0.21271028144E+02  0.52169403807E+02  0.12422576563E+03  0.13640437815E+03  0.10100000352E+00 0.  1.
       -3    1    3    3    0  502  0.21271028144E+02 -0.52169403807E+02 -0.67647950207E+03  0.67882150102E+03  0.10100000352E+00 0. -1.
</event>
<event>
 5   0  0.1479385E-03  0.5999567E+03  0.7818609E-02  0.9905496E-01
       -1   -1    0    0    0  501  0.00000000000E+00  0.00000000000E+00  0.30506387149E+03  0.30506387153E+03  0.50400001928E-02 0. -1.
        1   -1    0    0  501    0  0.00000000000E+00  0.00000000000E+00 -0.29497761387E+03  0.29497761391E+03  0.50400001928E-02 0.  1.
    10030    2    1    2    0    0  0.00000000000E+00  0.00000000000E+00  0.10086257621E+02  0.60004148544E+03  0.59995670815E+03 0.  0.
        3    1    3    3  502    0 -0.23689445141E+03 -0.15309977390E+03  0.10717749254E+03  0.30173754652E+03  0.10100000352E+00 0. -1.
       -3    1    3    3    0  502  0.23689445141E+03  0.15309977390E+03 -0.97091234920E+02  0.29830393892E+03  0.10100000352E+00 0.  1.
</event>
<event>
 5   0  0.2421210E-03  0.6000868E+03  0.7818609E-02  0.9905226E-01
        2   -1    0    0  501    0  0.00000000000E+00  0.00000000000E+00  0.28550080344E+03  0.28550080345E+03  0.25500000920E-02 0.  1.
       -2   -1    0    0    0  501  0.00000000000E+00  0.00000000000E+00 -0.31532680099E+03  0.31532680100E+03  0.25500000920E-02 0. -1.
    10030    2    1    2    0    0  0.00000000000E+00  0.00000000000E+00 -0.29825997548E+02  0.60082760445E+03  0.60008684383E+03 0.  0.
        1    1    3    3  502    0  0.65383497077E+02  0.20074816445E+02 -0.30741752218E+03  0.31493417235E+03  0.50400001928E-02 0. -1.
       -1    1    3    3    0  502 -0.65383497077E+02 -0.20074816445E+02  0.27759152463E+03  0.28589343210E+03  0.50400001928E-02 0.  1.
</event>
<event>
 5   0  0.1392854E-03  0.5995213E+03  0.7818609E-02  0.9906400E-01
        1   -1    0    0  501    0  0.00000000000E+00  0.00000000000E+00  0.85577993141E+03  0.85577993142E+03  0.50400001928E-02 0. -1.
       -1   -1    0    0    0  501  0.00000000000E+00  0.00000000000E+00 -0.10499947270E+03  0.10499947282E+03  0.50400001928E-02 0.  1.
    10030    2    1    2    0    0  0.00000000000E+00  0.00000000000E+00  0.75078045871E+03  0.96077940424E+03  0.59952128104E+03 0.  0.
        4    1    3    3  502    0  0.24022069543E+03  0.34306270553E+02  0.93355112038E+02  0.25999940876E+03  0.12699999809E+01 0.  1.
       -4    1    3    3    0  502 -0.24022069543E+03 -0.34306270553E+02  0.65742534667E+03  0.70077999548E+03  0.12699999809E+01 0. -1.
</event>
<event>
 5   0  0.2346281E-03  0.5998625E+03  0.7818609E-02  0.9905691E-01
        2   -1    0    0  501    0  0.00000000000E+00  0.00000000000E+00  0.24698984719E+03  0.24698984720E+03  0.25500000920E-02 0.  1.
       -2   -1    0    0    0  501  0.00000000000E+00  0.00000000000E+00 -0.36422044595E+03  0.36422044596E+03  0.25500000920E-02 0. -1.
    10030    2    1    2    0    0  0.00000000000E+00  0.00000000000E+00 -0.11723059876E+03  0.61121029316E+03  0.59986249189E+03 0.  0.
        3    1    3    3  502    0  0.17678433745E+03 -0.99635840515E+02  0.16642186069E+03  0.26244284825E+03  0.10100000352E+00 0.  1.
       -3    1    3    3    0  502 -0.17678433745E+03  0.99635840515E+02 -0.28365245944E+03  0.34876744491E+03  0.10100000352E+00 0. -1.
</event>
<event>
 5   0  0.1392854E-03  0.6009230E+03  0.7818609E-02  0.9903493E-01
       -1   -1    0    0    0  501  0.00000000000E+00  0.00000000000E+00  0.22211107962E+03  0.22211107968E+03  0.50400001928E-02 0. -1.
        1   -1    0    0  501    0  0.00000000000E+00  0.00000000000E+00 -0.40645034558E+03  0.40645034562E+03  0.50400001928E-02 0.  1.
    10030    2    1    2    0    0  0.00000000000E+00  0.00000000000E+00 -0.18433926596E+03  0.62856142529E+03  0.60092304032E+03 0.  0.
        4    1    3    3  502    0 -0.15473862538E+03  0.13345160616E+03  0.13823904766E+03  0.24670837150E+03  0.12699999809E+01 0. -1.
       -4    1    3    3    0  502  0.15473862538E+03 -0.13345160616E+03 -0.32257831363E+03  0.38185305379E+03  0.12699999809E+01 0.  1.
</event>
<event>
 5   0  0.1418763E-03  0.6001691E+03  0.7818609E-02  0.9905055E-01
        1   -1    0    0  501    0  0.00000000000E+00  0.00000000000E+00  0.24095591872E+03  0.24095591877E+03  0.50400001928E-02 0. -1.
       -1   -1    0    0    0  501  0.00000000000E+00  0.00000000000E+00 -0.37372282739E+03  0.37372282743E+03  0.50400001928E-02 0.  1.
    10030    2    1    2    0    0  0.00000000000E+00  0.00000000000E+00 -0.13276690867E+03  0.61467874620E+03  0.60016906701E+03 0.  0.
        5    1    3    3  502    0  0.29928169794E+02 -0.27457348696E+03 -0.18644528682E+03  0.33327200612E+03  0.46999998093E+01 0.  1.
       -5    1    3    3    0  502 -0.29928169794E+02  0.27457348696E+03  0.53678378147E+02  0.28140674008E+03  0.46999998093E+01 0. -1.
</event>
<event>
 5   0  0.1392854E-03  0.6009809E+03  0.7818609E-02  0.9903373E-01
       -1   -1    0    0    0  501  0.00000000000E+00  0.00000000000E+00  0.92249864003E+02  0.92249864141E+02  0.50400001928E-02 0. -1.
        1   -1    0    0  501    0  0.00000000000E+00  0.00000000000E+00 -0.97880382798E+03  0.97880382799E+03  0.50400001928E-02 0.  1.
    10030    2    1    2    0    0  0.00000000000E+00  0.00000000000E+00 -0.88655396398E+03  0.10710536921E+04  0.60098093180E+03 0.  0.
        4    1    3    3  502    0  0.10115018351E+03 -0.28250669783E+03 -0.47154081032E+03  0.55892194683E+03  0.12699999809E+01 0.  1.
       -4    1    3    3    0  502 -0.10115018351E+03  0.28250669783E+03 -0.41501315365E+03  0.51213174531E+03  0.12699999809E+01 0. -1.
</event>
<event>
 5   0  0.1479385E-03  0.5997732E+03  0.7818609E-02  0.9905877E-01
        1   -1    0    0  501    0  0.00000000000E+00  0.00000000000E+00  0.39540428408E+03  0.39540428411E+03  0.50400001928E-02 0.  1.
       -1   -1    0    0    0  501  0.00000000000E+00  0.00000000000E+00 -0.22744306569E+03  0.22744306575E+03  0.50400001928E-02 0. -1.
    10030    2    1    2    0    0  0.00000000000E+00  0.00000000000E+00  0.16796121838E+03  0.62284734986E+03  0.59977316574E+03 0.  0.
        3    1    3    3  502    0 -0.22962277014E+03 -0.11829650126E+02 -0.11594982409E+03  0.25750908547E+03  0.10100000352E+00 0. -1.
       -3    1    3    3    0  502  0.22962277014E+03  0.11829650126E+02  0.28391104247E+03  0.36533826439E+03  0.10100000352E+00 0.  1.
</event>
<event>
 5   0  0.2313168E-03  0.6000123E+03  0.7818609E-02  0.9905381E-01
       -2   -1    0    0    0  501  0.00000000000E+00  0.00000000000E+00  0.85344147204E+03  0.85344147205E+03  0.25500000920E-02 0.  1.
        2   -1    0    0  501    0  0.00000000000E+00  0.00000000000E+00 -0.10545971049E+03  0.10545971052E+03  0.25500000920E-02 0. -1.
    10030    2    1    2    0    0  0.00000000000E+00  0.00000000000E+00  0.74798176155E+03  0.95890118257E+03  0.60001230180E+03 0.  0.
        2    1    3    3  502    0 -0.10602379646E+02  0.59289538652E+02 -0.95698045442E+02  0.11307420464E+03  0.25500000920E-02 0. -1.
       -2    1    3    3    0  502  0.10602379646E+02 -0.59289538652E+02  0.84367980699E+03  0.84582697792E+03  0.25500000920E-02 0.  1.
</event>
<event>
 5   0  0.2324616E-03  0.5998475E+03  0.7818609E-02  0.9905722E-01
        2   -1    0    0  501    0  0.00000000000E+00  0.00000000000E+00  0.28027524292E+03  0.28027524293E+03  0.25500000920E-02 0. -1.
       -2   -1    0    0    0  501  0.00000000000E+00  0.00000000000E+00 -0.32094970797E+03  0.32094970798E+03  0.25500000920E-02 0.  1.
    10030    2    1    2    0    0  0.00000000000E+00  0.00000000000E+00 -0.40674465048E+02  0.60122495091E+03  0.59984750520E+03 0.  0.
        4    1    3    3  502    0 -0.11046570106E+03  0.73383907612E+02 -0.28996197797E+03  0.31885330573E+03  0.12699999809E+01 0.  1.
       -4    1    3    3    0  502  0.11046570106E+03 -0.73383907612E+02  0.24928751292E+03  0.28237164519E+03  0.12699999809E+01 0. -1.
</event>
<event>
 5   0  0.2406307E-03  0.6000378E+03  0.7818609E-02  0.9905328E-01
       -2   -1    0    0    0  501  0.00000000000E+00  0.00000000000E+00  0.61334029407E+02  0.61334029460E+02  0.25500000920E-02 0. -1.
        2   -1    0    0  501    0  0.00000000000E+00  0.00000000000E+00 -0.14675593569E+04  0.14675593569E+04  0.25500000920E-02 0.  1.
    10030    2    1    2    0    0  0.00000000000E+00  0.00000000000E+00 -0.14062253275E+04  0.15288933864E+04  0.60003776146E+03 0.  0.
        5    1    3    3  502    0 -0.12060903883E+03  0.96087138985E+02 -0.47480450792E+02  0.16141797215E+03  0.46999998093E+01 0. -1.
       -5    1    3    3    0  502  0.12060903883E+03 -0.96087138985E+02 -0.13587448767E+04  0.13674754142E+04  0.46999998093E+01 0.  1.
</event>
<event>
 5   0  0.2406307E-03  0.5998693E+03  0.7818609E-02  0.9905677E-01
        2   -1    0    0  501    0  0.00000000000E+00  0.00000000000E+00  0.44592063033E+03  0.44592063034E+03  0.25500000920E-02 0. -1.
       -2   -1    0    0    0  501  0.00000000000E+00  0.00000000000E+00 -0.20174171089E+03  0.20174171091E+03  0.25500000920E-02 0.  1.
    10030    2    1    2    0    0  0.00000000000E+00  0.00000000000E+00  0.24417891944E+03  0.64766234125E+03  0.59986928874E+03 0.  0.
        5    1    3    3  502    0 -0.70563001867E+02 -0.25599641588E+03  0.27256883799E+03  0.38056427003E+03  0.46999998093E+01 0. -1.
       -5    1    3    3    0  502  0.70563001867E+02  0.25599641588E+03 -0.28389918551E+02  0.26709807122E+03  0.46999998093E+01 0.  1.
</event>
<event>
 5   0  0.1416315E-03  0.5995232E+03  0.7818609E-02  0.9906396E-01
       -1   -1    0    0    0  501  0.00000000000E+00  0.00000000000E+00  0.11101300097E+03  0.11101300108E+03  0.50400001928E-02 0.  1.
        1   -1    0    0  501    0  0.00000000000E+00  0.00000000000E+00 -0.80942774782E+03  0.80942774783E+03  0.50400001928E-02 0. -1.
    10030    2    1    2    0    0  0.00000000000E+00  0.00000000000E+00 -0.69841474685E+03  0.92044074891E+03  0.59952315522E+03 0.  0.
        2    1    3    3  502    0 -0.11303520399E+03  0.51704246695E+02 -0.76799703019E+03  0.77799082569E+03  0.25500000920E-02 0. -1.
       -2    1    3    3    0  502  0.11303520399E+03 -0.51704246695E+02  0.69582283336E+02  0.14244992323E+03  0.25500000920E-02 0.  1.
</event>
<event>
 5   0  0.1392854E-03  0.6000798E+03  0.7818609E-02  0.9905241E-01
       -1   -1    0    0    0  501  0.00000000000E+00  0.00000000000E+00  0.12157246017E+03  0.12157246028E+03  0.50400001928E-02 0. -1.
        1   -1    0    0  501    0  0.00000000000E+00  0.00000000000E+00 -0.74049605419E+03  0.74049605420E+03  0.50400001928E-02 0.  1.
    10030    2    1    2    0    0  0.00000000000E+00  0.00000000000E+00 -0.61892359401E+03  0.86206851448E+03  0.60007975173E+03 0.  0.
        4    1    3    3  502    0 -0.24577967197E+03  0.16861506889E+03 -0.26003755866E+03  0.39555003909E+03  0.12699999809E+01 0.  1.
       -4    1    3    3    0  502  0.24577967197E+03 -0.16861506889E+03 -0.35888603535E+03  0.46651847539E+03  0.12699999809E+01 0. -1.
</event>
<event>
 5   0  0.2346281E-03  0.6000225E+03  0.7818609E-02  0.9905359E-01
        2   -1    0    0  501    0  0.00000000000E+00  0.00000000000E+00  0.49665413060E+03  0.49665413061E+03  0.25500000920E-02 0. -1.
       -2   -1    0    0    0  501  0.00000000000E+00  0.00000000000E+00 -0.18122620257E+03  0.18122620258E+03  0.25500000920E-02 0.  1.
    10030    2    1    2    0    0  0.00000000000E+00  0.00000000000E+00  0.31542792804E+03  0.67788033319E+03  0.60002247320E+03 0.  0.
        3    1    3    3  502    0 -0.20295347331E+03 -0.22094482944E+03  0.15776319286E+03  0.33896307352E+03  0.10100000352E+00 0.  1.
       -3    1    3    3    0  502  0.20295347331E+03  0.22094482944E+03  0.15766473518E+03  0.33891725968E+03  0.10100000352E+00 0. -1.
</event>
<event>
 5   0  0.2421210E-03  0.5987253E+03  0.7818609E-02  0.9908054E-01
       -2   -1    0    0    0  501  0.00000000000E+00  0.00000000000E+00  0.11366926157E+03  0.11366926160E+03  0.25500000920E-02 0.  1.
        2   -1    0    0  501    0  0.00000000000E+00  0.00000000000E+00 -0.78841012240E+03  0.78841012241E+03  0.25500000920E-02 0. -1.
    10030    2    1    2    0    0  0.00000000000E+00  0.00000000000E+00 -0.67474086083E+03  0.90207938401E+03  0.59872530077E+03 0.  0.
        1    1    3    3  502    0  0.75764610139E+02  0.28920616505E+03 -0.36059042368E+03  0.46840787325E+03  0.50400001928E-02 0. -1.
       -1    1    3    3    0  502 -0.75764610139E+02 -0.28920616505E+03 -0.31415043715E+03  0.43367151076E+03  0.50400001928E-02 0.  1.
</event>
<event>
 5   0  0.1418763E-03  0.5967036E+03  0.7818609E-02  0.9912269E-01
       -1   -1    0    0    0  501  0.00000000000E+00  0.00000000000E+00  0.54410616937E+02  0.54410617171E+02  0.50400001928E-02 0.  1.
        1   -1    0    0  501    0  0.00000000000E+00  0.00000000000E+00 -0.16359637786E+04  0.16359637786E+04  0.50400001928E-02 0. -1.
    10030    2    1    2    0    0  0.00000000000E+00  0.00000000000E+00 -0.15815531616E+04  0.16903743958E+04  0.59670360711E+03 0.  0.
        5    1    3    3  502    0  0.94604565088E+02  0.18681851418E+03 -0.18889984284E+03  0.28205747925E+03  0.46999998093E+01 0.  1.
       -5    1    3    3    0  502 -0.94604565088E+02 -0.18681851418E+03 -0.13926533188E+04  0.14083169165E+04  0.46999998093E+01 0. -1.
</event>
<event>
 5   0  0.2406307E-03  0.6002746E+03  0.7818609E-02  0.9904836E-01
        2   -1    0    0  501    0  0.00000000000E+00  0.00000000000E+00  0.10770960705E+03  0.10770960708E+03  0.25500000920E-02 0. -1.
       -2   -1    0    0    0  501  0.00000000000E+00  0.00000000000E+00 -0.83634512715E+03  0.83634512715E+03  0.25500000920E-02 0.  1.
    10030    2    1    2    0    0  0.00000000000E+00  0.00000000000E+00 -0.72863552010E+03  0.94405473423E+03  0.60027462054E+03 0.  0.
        5    1    3    3  502    0  0.28568728830E+03  0.84751086111E+02 -0.30848471049E+03  0.42893458697E+03  0.46999998093E+01 0. -1.
       -5    1    3    3    0  502 -0.28568728830E+03 -0.84751086111E+02 -0.42015080961E+03  0.51512014726E+03  0.46999998093E+01 0.  1.
</event>
<event>
 5   0  0.1479385E-03  0.5995870E+03  0.7818609E-02  0.9906263E-01
       -1   -1    0    0    0  501  0.00000000000E+00  0.00000000000E+00  0.11660280873E+03  0.11660280884E+03  0.50400001928E-02 0.  1.
        1   -1    0    0  501    0  0.00000000000E+00  0.00000000000E+00 -0.77078891716E+03  0.77078891718E+03  0.50400001928E-02 0. -1.
    10030    2    1    2    0    0  0.00000000000E+00  0.00000000000E+00 -0.65418610843E+03  0.88739172602E+03  0.59958703367E+03 0.  0.
        3    1    3    3  502    0 -0.17621783525E+03 -0.24190781669E+03 -0.30128721405E+03  0.42467177065E+03  0.10100000352E+00 0.  1.
       -3    1    3    3    0  502  0.17621783525E+03  0.24190781669E+03 -0.35289889438E+03  0.46271995537E+03  0.10100000352E+00 0. -1.
</event>
<event>
 5   0  0.9496750E-04  0.6000346E+03  0.7818609E-02  0.9905334E-01
        3   -1    0    0  501    0  0.00000000000E+00  0.00000000000E+00  0.15169030559E+03  0.15169033922E+03  0.10100000352E+00 0. -1.
       -3   -1    0    0    0  501  0.00000000000E+00  0.00000000000E+00 -0.59338243065E+03  0.59338243925E+03  0.10100000352E+00 0.  1.
    10030    2    1    2    0    0  0.00000000000E+00  0.00000000000E+00 -0.44169212506E+03  0.74507277846E+03  0.60003459223E+03 0.  0.
        2    1    3    3  502    0 -0.10384165976E+03  0.25442791586E+03 -0.37033614828E+03  0.46115671675E+03  0.25500000920E-02 0.  1.
       -2    1    3    3    0  502  0.10384165976E+03 -0.25442791586E+03 -0.71355976774E+02  0.28391606171E+03  0.25500000920E-02 0. -1.
</event>
<event>
 5   0  0.2313168E-03  0.6000894E+03  0.7818609E-02  0.9905221E-01
       -2   -1    0    0    0  501  0.00000000000E+00  0.00000000000E+00  0.35737460362E+02  0.35737460453E+02  0.25500000920E-02 0. -1.
        2   -1    0    0  501    0  0.00000000000E+00  0.00000000000E+00 -0.25191164218E+04  0.25191164218E+04  0.25500000920E-02 0.  1.
    10030    2    1    2    0    0  0.00000000000E+00  0.00000000000E+00 -0.24833789614E+04  0.25548538822E+04  0.60008940463E+03 0.  0.
        2    1    3    3  502    0  0.11141295545E+03  0.10682467394E+03 -0.14625302281E+03  0.21263655446E+03  0.25500000920E-02 0. -1.
       -2    1    3    3    0  502 -0.11141295545E+03 -0.10682467394E+03 -0.23371259386E+04  0.23422173277E+04  0.25500000920E-02 0.  1.
</event>
<event>
 5   0  0.1423430E-03  0.5981452E+03  0.7818609E-02  0.9909262E-01
       -1   -1    0    0    0  501  0.00000000000E+00  0.00000000000E+00  0.13980054639E+03  0.13980054648E+03  0.50400001928E-02 0.  1.
        1   -1    0    0  501    0  0.00000000000E+00  0.00000000000E+00 -0.63980029919E+03  0.63980029921E+03  0.50400001928E-02 0. -1.
    10030    2    1    2    0    0  0.00000000000E+00  0.00000000000E+00 -0.49999975280E+03  0.77960084570E+03  0.59814523806E+03 0.  0.
        1    1    3    3  502    0 -0.19332246964E+02  0.23999399106E+03 -0.48122697186E+03  0.53809873629E+03  0.50400001928E-02 0. -1.
       -1    1    3    3    0  502  0.19332246964E+02 -0.23999399106E+03 -0.18772780938E+02  0.24150210941E+03  0.50400001928E-02 0.  1.
</event>
<event>
 5   0  0.2346281E-03  0.6000270E+03  0.7818609E-02  0.9905350E-01
       -2   -1    0    0    0  501  0.00000000000E+00  0.00000000000E+00  0.11381552366E+03  0.11381552369E+03  0.25500000920E-02 0.  1.
        2   -1    0    0  501    0  0.00000000000E+00  0.00000000000E+00 -0.79082453239E+03  0.79082453239E+03  0.25500000920E-02 0. -1.
    10030    2    1    2    0    0  0.00000000000E+00  0.00000000000E+00 -0.67700900872E+03  0.90464005608E+03  0.60002702704E+03 0.  0.
        3    1    3    3  502    0  0.21009738910E+02  0.65509522194E+02  0.10176271685E+03  0.12283552975E+03  0.10100000352E+00 0.  1.
       -3    1    3    3    0  502 -0.21009738910E+02 -0.65509522194E+02 -0.77877172558E+03  0.78180452633E+03  0.10100000352E+00 0. -1.
</event>
<event>
 5   0  0.2313168E-03  0.5999917E+03  0.7818609E-02  0.9905423E-01
       -2   -1    0    0    0  501  0.00000000000E+00  0.00000000000E+00  0.25262332454E+03  0.25262332455E+03  0.25500000920E-02 0. -1.
        2   -1    0    0  501    0  0.00000000000E+00  0.00000000000E+00 -0.35625173599E+03  0.35625173600E+03  0.25500000920E-02 0.  1.
    10030    2    1    2    0    0  0.00000000000E+00  0.00000000000E+00 -0.10362841145E+03  0.60887506055E+03  0.59999165969E+03 0.  0.
        2    1    3    3  502    0  0.15383529427E+03 -0.11987463956E+03 -0.28314158297E+03  0.34380864298E+03  0.25500000920E-02 0.  1.
       -2    1    3    3    0  502 -0.15383529427E+03  0.11987463956E+03  0.17951317152E+03  0.26506641758E+03  0.25500000920E-02 0. -1.
</event>
<event>
 5   0  0.1423430E-03  0.5999567E+03  0.7818609E-02  0.9905496E-01
       -1   -1    0    0    0  501  0.00000000000E+00  0.00000000000E+00  0.11420325325E+03  0.11420325336E+03  0.50400001928E-02 0.  1.
        1   -1    0    0  501    0  0.00000000000E+00  0.00000000000E+00 -0.78795478246E+03  0.78795478248E+03  0.50400001928E-02 0. -1.
    10030    2    1    2    0    0  0.00000000000E+00  0.00000000000E+00 -0.67375152922E+03  0.90215803584E+03  0.59995666385E+03 0.  0.
        1    1    3    3  502    0 -0.21458258974E+03 -0.19411687888E+03 -0.45584869040E+03  0.53993062429E+03  0.50400001928E-02 0. -1.
       -1    1    3    3    0  502  0.21458258974E+03  0.19411687888E+03 -0.21790283882E+03  0.36222741155E+03  0.50400001928E-02 0.  1.
</event>
<event>
 5   0  0.2406307E-03  0.5993316E+03  0.7818609E-02  0.9906794E-01
       -2   -1    0    0    0  501  0.00000000000E+00  0.00000000000E+00  0.16751268336E+03  0.16751268338E+03  0.25500000920E-02 0. -1.
        2   -1    0    0  501    0  0.00000000000E+00  0.00000000000E+00 -0.53607638741E+03  0.53607638741E+03  0.25500000920E-02 0.  1.
    10030    2    1    2    0    0  0.00000000000E+00  0.00000000000E+00 -0.36856370404E+03  0.70358907079E+03  0.59933160821E+03 0.  0.
        5    1    3    3  502    0 -0.28211506731E+02  0.29829630754E+03 -0.18315098020E+03  0.35120214657E+03  0.46999998093E+01 0. -1.
       -5    1    3    3    0  502  0.28211506731E+02 -0.29829630754E+03 -0.18541272384E+03  0.35238692423E+03  0.46999998093E+01 0.  1.
</event>
<event>
 5   0  0.2313168E-03  0.5999700E+03  0.7818609E-02  0.9905468E-01
        2   -1    0    0  501    0  0.00000000000E+00  0.00000000000E+00  0.33616569162E+03  0.33616569163E+03  0.25500000920E-02 0. -1.
       -2   -1    0    0    0  501  0.00000000000E+00  0.00000000000E+00 -0.26769832740E+03  0.26769832741E+03  0.25500000920E-02 0.  1.
    10030    2    1    2    0    0  0.00000000000E+00  0.00000000000E+00  0.68467364221E+02  0.60386401905E+03  0.59996997720E+03 0.  0.
        2    1    3    3  502    0  0.53283259427E+02 -0.13844735364E+03  0.29666380720E+03  0.33168688544E+03  0.25500000920E-02 0. -1.
       -2    1    3    3    0  502 -0.53283259427E+02  0.13844735364E+03 -0.22819644297E+03  0.27217713361E+03  0.25500000920E-02 0.  1.
</event>
<event>
 5   0  0.2406307E-03  0.5998578E+03  0.7818609E-02  0.9905701E-01
        2   -1    0    0  501    0  0.00000000000E+00  0.00000000000E+00  0.19158014512E+04  0.19158014512E+04  0.25500000920E-02 0. -1.
       -2   -1    0    0    0  501  0.00000000000E+00  0.00000000000E+00 -0.46955469184E+02  0.46955469253E+02  0.25500000920E-02 0.  1.
    10030    2    1    2    0    0  0.00000000000E+00  0.00000000000E+00  0.18688459820E+04  0.19627569204E+04  0.59985783673E+03 0.  0.
        5    1    3    3  502    0 -0.38155591331E+02 -0.19598835527E+03  0.16665698810E+04  0.16784947253E+04  0.46999998093E+01 0. -1.
       -5    1    3    3    0  502  0.38155591331E+02  0.19598835527E+03  0.20227610094E+03  0.28426219510E+03  0.46999998093E+01 0.  1.
</event>
<event>
 5   0  0.1392854E-03  0.5997061E+03  0.7818609E-02  0.9906016E-01
       -1   -1    0    0    0  501  0.00000000000E+00  0.00000000000E+00  0.53389942801E+02  0.53389943038E+02  0.50400001928E-02 0.  1.
        1   -1    0    0  501    0  0.00000000000E+00  0.00000000000E+00 -0.16840595393E+04  0.16840595393E+04  0.50400001928E-02 0. -1.
    10030    2    1    2    0    0  0.00000000000E+00  0.00000000000E+00 -0.16306695965E+04  0.17374494823E+04  0.59970607029E+03 0.  0.
        4    1    3    3  502    0  0.27253109019E+03 -0.91836975262E+02 -0.56945061764E+03  0.63795207028E+03  0.12699999809E+01 0.  1.
       -4    1    3    3    0  502 -0.27253109019E+03  0.91836975262E+02 -0.10612189788E+04  0.10994974120E+04  0.12699999809E+01 0. -1.
</event>
<event>
 5   0  0.2324616E-03  0.6002839E+03  0.7818609E-02  0.9904817E-01
       -2   -1    0    0    0  501  0.00000000000E+00  0.00000000000E+00  0.17663786809E+03  0.17663786810E+03  0.25500000920E-02 0.  1.
        2   -1    0    0  501    0  0.00000000000E+00  0.00000000000E+00 -0.50999933984E+03  0.50999933985E+03  0.25500000920E-02 0. -1.
    10030    2    1    2    0    0  0.00000000000E+00  0.00000000000E+00 -0.33336147175E+03  0.68663720795E+03  0.60028391990E+03 0.  0.
        4    1    3    3  502    0  0.73318057572E+02  0.26063065894E+03 -0.18509880516E+02  0.27138184634E+03  0.12699999809E+01 0. -1.
       -4    1    3    3    0  502 -0.73318057572E+02 -0.26063065894E+03 -0.31485159124E+03  0.41525536161E+03  0.12699999809E+01 0.  1.
</event>
<event>
 5   0  0.2346281E-03  0.6000915E+03  0.7818609E-02  0.9905216E-01
        2   -1    0    0  501    0  0.00000000000E+00  0.00000000000E+00  0.33180129256E+03  0.33180129257E+03  0.25500000920E-02 0.  1.
       -2   -1    0    0    0  501  0.00000000000E+00  0.00000000000E+00 -0.27132940021E+03  0.27132940022E+03  0.25500000920E-02 0. -1.
    10030    2    1    2    0    0  0.00000000000E+00  0.00000000000E+00  0.60471892350E+02  0.60313069279E+03  0.60009147871E+03 0.  0.
        3    1    3    3  502    0  0.70156010077E+02  0.29163554366E+03  0.37640716638E+02  0.30230777335E+03  0.10100000352E+00 0.  1.
       -3    1    3    3    0  502 -0.70156010077E+02 -0.29163554366E+03  0.22831175713E+02  0.30082291944E+03  0.10100000352E+00 0. -1.
</event>
<event>
 5   0  0.2406307E-03  0.6000763E+03  0.7818609E-02  0.9905248E-01
       -2   -1    0    0    0  501  0.00000000000E+00  0.00000000000E+00  0.14343943919E+03  0.14343943921E+03  0.25500000920E-02 0.  1.
        2   -1    0    0  501    0  0.00000000000E+00  0.00000000000E+00 -0.62760206704E+03  0.62760206705E+03  0.25500000920E-02 0. -1.
    10030    2    1    2    0    0  0.00000000000E+00  0.00000000000E+00 -0.48416262785E+03  0.77104150626E+03  0.60007629029E+03 0.  0.
        5    1    3    3  502    0 -0.11600488300E+03  0.18480635163E+02  0.11261350954E+03  0.16279606656E+03  0.46999998093E+01 0.  1.
       -5    1    3    3    0  502  0.11600488300E+03 -0.18480635163E+02 -0.59677613740E+03  0.60824543970E+03  0.46999998093E+01 0. -1.
</event>
<event>
 5   0  0.2346281E-03  0.6001096E+03  0.7818609E-02  0.9905179E-01
        2   -1    0    0  501    0  0.00000000000E+00  0.00000000000E+00  0.15052915424E+04  0.15052915424E+04  0.25500000920E-02 0. -1.
       -2   -1    0    0    0  501  0.00000000000E+00  0.00000000000E+00 -0.59810934054E+02  0.59810934108E+02  0.25500000920E-02 0.  1.
    10030    2    1    2    0    0  0.00000000000E+00  0.00000000000E+00  0.14454806084E+04  0.15651024765E+04  0.60010963405E+03 0.  0.
        3    1    3    3  502    0 -0.18721692511E+03 -0.89732906419E+02  0.15775032014E+03  0.26074383070E+03  0.10100000352E+00 0.  1.
       -3    1    3    3    0  502  0.18721692511E+03  0.89732906419E+02  0.12877302882E+04  0.13043586458E+04  0.10100000352E+00 0. -1.
</event>
<event>
 5   0  0.1479385E-03  0.5998020E+03  0.7818609E-02  0.9905817E-01
        1   -1    0    0  501    0  0.00000000000E+00  0.00000000000E+00  0.95260642337E+02  0.95260642470E+02  0.50400001928E-02 0. -1.
       -1   -1    0    0    0  501  0.00000000000E+00  0.00000000000E+00 -0.94415302426E+03  0.94415302427E+03  0.50400001928E-02 0.  1.
    10030    2    1    2    0    0  0.00000000000E+00  0.00000000000E+00 -0.84889238192E+03  0.10394136667E+04  0.59980204612E+03 0.  0.
        3    1    3    3  502    0 -0.29785337625E+03  0.63177133222E+01 -0.36481568850E+03  0.47100641612E+03  0.10100000352E+00 0.  1.
       -3    1    3    3    0  502  0.29785337625E+03 -0.63177133222E+01 -0.48407669342E+03  0.56840725062E+03  0.10100000352E+00 0. -1.
</event>
<event>
 5   0  0.1479385E-03  0.5999071E+03  0.7818609E-02  0.9905599E-01
       -1   -1    0    0    0  501  0.00000000000E+00  0.00000000000E+00  0.32777665720E+03  0.32777665723E+03  0.50400001928E-02 0. -1.
        1   -1    0    0  501    0  0.00000000000E+00  0.00000000000E+00 -0.27449220387E+03  0.27449220392E+03  0.50400001928E-02 0.  1.
    10030    2    1    2    0    0  0.00000000000E+00  0.00000000000E+00  0.53284453321E+02  0.60226886116E+03  0.59990711627E+03 0.  0.
        3    1    3    3  502    0  0.25660098259E+03 -0.22022795797E+01  0.18257017605E+03  0.31492982343E+03  0.10100000352E+00 0. -1.
       -3    1    3    3    0  502 -0.25660098259E+03  0.22022795797E+01 -0.12928572273E+03  0.28733903773E+03  0.10100000352E+00 0.  1.
</event>
<event>
 5   0  0.2324616E-03  0.5998932E+03  0.7818609E-02  0.9905628E-01
        2   -1    0    0  501    0  0.00000000000E+00  0.00000000000E+00  0.63916732649E+03  0.63916732649E+03  0.25500000920E-02 0.  1.
       -2   -1    0    0    0  501  0.00000000000E+00  0.00000000000E+00 -0.14075807939E+03  0.14075807941E+03  0.25500000920E-02 0. -1.
    10030    2    1    2    0    0  0.00000000000E+00  0.00000000000E+00  0.49840924710E+03  0.77992540590E+03  0.59989320814E+03 0.  0.
        4    1    3    3  502    0  0.23952190485E+03 -0.39092337181E+02  0.20048446806E+02  0.24352106038E+03  0.12699999809E+01 0. -1.
       -4    1    3    3    0  502 -0.23952190485E+03  0.39092337181E+02  0.47836080029E+03  0.53640434552E+03  0.12699999809E+01 0.  1.
</event>
<event>
 5   0  0.1418763E-03  0.6000369E+03  0.7818609E-02  0.9905330E-01
        1   -1    0    0  501    0  0.00000000000E+00  0.00000000000E+00  0.51948105218E+03  0.51948105221E+03  0.50400001928E-02 0. -1.
       -1   -1    0    0    0  501  0.00000000000E+00  0.00000000000E+00 -0.17327111904E+03  0.17327111911E+03  0.50400001928E-02 0.  1.
    10030    2    1    2    0    0  0.00000000000E+00  0.00000000000E+00  0.34620993314E+03  0.69275217132E+03  0.60003687642E+03 0.  0.
        5    1    3    3  502    0 -0.17125971067E+03  0.24198505228E+03  0.12016919019E+03  0.31992089380E+03  0.46999998093E+01 0.  1.
       -5    1    3    3    0  502  0.17125971067E+03 -0.24198505228E+03  0.22604074295E+03  0.37283127752E+03  0.46999998093E+01 0. -1.
</event>
<event>
 5   0  0.1418763E-03  0.5997658E+03  0.7818609E-02  0.9905892E-01
        1   -1    0    0  501    0  0.00000000000E+00  0.00000000000E+00  0.72330637478E+03  0.72330637480E+03  0.50400001928E-02 0.  1.
       -1   -1    0    0    0  501  0.00000000000E+00  0.00000000000E+00 -0.12433150239E+03  0.12433150250E+03  0.50400001928E-02 0. -1.
    10030    2    1    2    0    0  0.00000000000E+00  0.00000000000E+00  0.59897487239E+03  0.84763787730E+03  0.59976584870E+03 0.  0.
        5    1    3    3  502    0 -0.75392387510E+02 -0.24620008920E+02  0.70816167958E+03  0.71260452662E+03  0.46999998093E+01 0.  1.
       -5    1    3    3    0  502  0.75392387510E+02  0.24620008920E+02 -0.10918680719E+03  0.13503335068E+03  0.46999998093E+01 0. -1.
</event>
<event>
 5   0  0.1479385E-03  0.6002436E+03  0.7818609E-02  0.9904901E-01
        1   -1    0    0  501    0  0.00000000000E+00  0.00000000000E+00  0.20498975974E+03  0.20498975980E+03  0.50400001928E-02 0. -1.
       -1   -1    0    0    0  501  0.00000000000E+00  0.00000000000E+00 -0.43940287126E+03  0.43940287129E+03  0.50400001928E-02 0.  1.
    10030    2    1    2    0    0  0.00000000000E+00  0.00000000000E+00 -0.23441311152E+03  0.64439263109E+03  0.60024358068E+03 0.  0.
        3    1    3    3  502    0  0.11511398753E+03 -0.75549415451E+02  0.16908003432E+03  0.21805277459E+03  0.10100000352E+00 0. -1.
       -3    1    3    3    0  502 -0.11511398753E+03  0.75549415451E+02 -0.40349314584E+03  0.42633985650E+03  0.10100000352E+00 0.  1.
</event>
<event>
 5   0  0.1418763E-03  0.6003394E+03  0.7818609E-02  0.9904702E-01
        1   -1    0    0  501    0  0.00000000000E+00  0.00000000000E+00  0.83849229564E+03  0.83849229566E+03  0.50400001928E-02 0.  1.
       -1   -1    0    0    0  501  0.00000000000E+00  0.00000000000E+00 -0.10745699326E+03  0.10745699338E+03  0.50400001928E-02 0. -1.
    10030    2    1    2    0    0  0.00000000000E+00  0.00000000000E+00  0.73103530239E+03  0.94594928904E+03  0.60033944073E+03 0.  0.
        5    1    3    3  502    0 -0.21333566247E+02  0.25082620519E+03  0.62304001679E+03  0.67198947817E+03  0.46999998093E+01 0.  1.
       -5    1    3    3    0  502  0.21333566247E+02 -0.25082620519E+03  0.10799528560E+03  0.27395981086E+03  0.46999998093E+01 0. -1.
</event>
<event>
 5   0  0.1423430E-03  0.6000831E+03  0.7818609E-02  0.9905234E-01
       -1   -1    0    0    0  501  0.00000000000E+00  0.00000000000E+00  0.21833241817E+03  0.21833241822E+03  0.50400001928E-02 0. -1.
        1   -1    0    0  501    0  0.00000000000E+00  0.00000000000E+00 -0.41232959430E+03  0.41232959433E+03  0.50400001928E-02 0.  1.
    10030    2    1    2    0    0  0.00000000000E+00  0.00000000000E+00 -0.19399717613E+03  0.63066201256E+03  0.60008305236E+03 0.  0.
        1    1    3    3  502    0 -0.88293424518E+02  0.22046245618E+03  0.95718243832E+02  0.25604961555E+03  0.50400001928E-02 0. -1.
       -1    1    3    3    0  502  0.88293424518E+02 -0.22046245618E+03 -0.28971541996E+03  0.37461239700E+03  0.50400001928E-02 0.  1.
</event>
<event>
 5   0  0.2421210E-03  0.5999264E+03  0.7818609E-02  0.9905559E-01
        2   -1    0    0  501    0  0.00000000000E+00  0.00000000000E+00  0.70766915692E+03  0.70766915692E+03  0.25500000920E-02 0.  1.
       -2   -1    0    0    0  501  0.00000000000E+00  0.00000000000E+00 -0.12714689051E+03  0.12714689053E+03  0.25500000920E-02 0. -1.
    10030    2    1    2    0    0  0.00000000000E+00  0.00000000000E+00  0.58052226641E+03  0.83481604745E+03  0.59992643823E+03 0.  0.
        1    1    3    3  502    0  0.24386916853E+03  0.15889391926E+03  0.18935372305E+03  0.34723807596E+03  0.50400001928E-02 0. -1.
       -1    1    3    3    0  502 -0.24386916853E+03 -0.15889391926E+03  0.39116854336E+03  0.48757797149E+03  0.50400001928E-02 0.  1.
</event>
<event>
 5   0  0.1416315E-03  0.6021447E+03  0.7818609E-02  0.9900966E-01
        1   -1    0    0  501    0  0.00000000000E+00  0.00000000000E+00  0.11884550409E+03  0.11884550420E+03  0.50400001928E-02 0.  1.
       -1   -1    0    0    0  501  0.00000000000E+00  0.00000000000E+00 -0.76270929828E+03  0.76270929830E+03  0.50400001928E-02 0. -1.
    10030    2    1    2    0    0  0.00000000000E+00  0.00000000000E+00 -0.64386379419E+03  0.88155480250E+03  0.60214473704E+03 0.  0.
        2    1    3    3  502    0  0.17734871792E+03 -0.14692563412E+03 -0.38028612632E+02  0.23342211784E+03  0.25500000920E-02 0. -1.
       -2    1    3    3    0  502 -0.17734871792E+03  0.14692563412E+03 -0.60583518156E+03  0.64813268466E+03  0.25500000920E-02 0.  1.
</event>
<event>
 5   0  0.1479385E-03  0.5999314E+03  0.7818609E-02  0.9905548E-01
        1   -1    0    0  501    0  0.00000000000E+00  0.00000000000E+00  0.38487358942E+03  0.38487358945E+03  0.50400001928E-02 0.  1.
       -1   -1    0    0    0  501  0.00000000000E+00  0.00000000000E+00 -0.23378950722E+03  0.23378950727E+03  0.50400001928E-02 0. -1.
    10030    2    1    2    0    0  0.00000000000E+00  0.00000000000E+00  0.15108408220E+03  0.61866309672E+03  0.59993135220E+03 0.  0.
        3    1    3    3  502    0  0.28664639302E+03  0.58919302542E+02  0.14349141336E+03  0.32592550491E+03  0.10100000352E+00 0.  1.
       -3    1    3    3    0  502 -0.28664639302E+03 -0.58919302542E+02  0.75926688422E+01  0.29273759182E+03  0.10100000352E+00 0. -1.
</event>
<event>
 5   0  0.9496750E-04  0.5998495E+03  0.7818609E-02  0.9905718E-01
        3   -1    0    0  501    0  0.00000000000E+00  0.00000000000E+00  0.42663747121E+03  0.42663748317E+03  0.10100000352E+00 0.  1.
       -3   -1    0    0    0  501  0.00000000000E+00  0.00000000000E+00 -0.21084607762E+03  0.21084610181E+03  0.10100000352E+00 0. -1.
    10030    2    1    2    0    0  0.00000000000E+00  0.00000000000E+00  0.21579139359E+03  0.63748358498E+03  0.59984947743E+03 0.  0.
        5    1    3    3  502    0 -0.11028333016E+03  0.27180797380E+03  0.41606222208E+02  0.29630247258E+03  0.46999998093E+01 0.  1.
       -5    1    3    3    0  502  0.11028333016E+03 -0.27180797380E+03  0.17418517139E+03  0.34118111240E+03  0.46999998093E+01 0. -1.
</event>
<event>
 5   0  0.1416315E-03  0.6000420E+03  0.7818609E-02  0.9905319E-01
       -1   -1    0    0    0  501  0.00000000000E+00  0.00000000000E+00  0.20605693374E+03  0.20605693380E+03  0.50400001928E-02 0. -1.
        1   -1    0    0  501    0  0.00000000000E+00  0.00000000000E+00 -0.43683359701E+03  0.43683359703E+03  0.50400001928E-02 0.  1.
    10030    2    1    2    0    0  0.00000000000E+00  0.00000000000E+00 -0.23077666327E+03  0.64289053083E+03  0.60004197047E+03 0.  0.
        2    1    3    3  502    0 -0.33320663707E+02  0.12524569285E+03  0.17451815265E+03  0.21737832417E+03  0.25500000920E-02 0. -1.
       -2    1    3    3    0  502  0.33320663707E+02 -0.12524569285E+03 -0.40529481592E+03  0.42551220667E+03  0.25500000920E-02 0.  1.
</event>
<event>
 5   0  0.1479385E-03  0.5996702E+03  0.7818609E-02  0.9906091E-01
       -1   -1    0    0    0  501  0.00000000000E+00  0.00000000000E+00  0.12354567812E+03  0.12354567822E+03  0.50400001928E-02 0.  1.
        1   -1    0    0  501    0  0.00000000000E+00  0.00000000000E+00 -0.72767481507E+03  0.72767481509E+03  0.50400001928E-02 0. -1.
    10030    2    1    2    0    0  0.00000000000E+00  0.00000000000E+00 -0.60412913695E+03  0.85122049331E+03  0.59967017111E+03 0.  0.
        3    1    3    3  502    0 -0.19541187445E+03 -0.13331351981E+03 -0.40545545784E+02  0.24000468063E+03  0.10100000352E+00 0.  1.
       -3    1    3    3    0  502  0.19541187445E+03  0.13331351981E+03 -0.56358359117E+03  0.61121581268E+03  0.10100000352E+00 0. -1.
</event>
<event>
 5   0  0.2406307E-03  0.6001547E+03  0.7818609E-02  0.9905085E-01
        2   -1    0    0  501    0  0.00000000000E+00  0.00000000000E+00  0.24683896235E+04  0.24683896235E+04  0.25500000920E-02 0. -1.
       -2   -1    0    0    0  501  0.00000000000E+00  0.00000000000E+00 -0.36479821202E+02  0.36479821291E+02  0.25500000920E-02 0.  1.
    10030    2    1    2    0    0  0.00000000000E+00  0.00000000000E+00  0.24319098023E+04  0.25048694448E+04  0.60015468751E+03 0.  0.
        5    1    3    3  502    0 -0.72097778893E+01 -0.22364566229E+03  0.38168372763E+03  0.44246346865E+03  0.46999998093E+01 0.  1.
       -5    1    3    3    0  502  0.72097778893E+01  0.22364566229E+03  0.20502260747E+04  0.20624059761E+04  0.46999998093E+01 0. -1.
</event>
<event>
 5   0  0.2421210E-03  0.5995931E+03  0.7818609E-02  0.9906251E-01
       -2   -1    0    0    0  501  0.00000000000E+00  0.00000000000E+00  0.13296058848E+03  0.13296058850E+03  0.25500000920E-02 0.  1.
        2   -1    0    0  501    0  0.00000000000E+00  0.00000000000E+00 -0.67597446170E+03  0.67597446170E+03  0.25500000920E-02 0. -1.
    10030    2    1    2    0    0  0.00000000000E+00  0.00000000000E+00 -0.54301387322E+03  0.80893505020E+03  0.59959306946E+03 0.  0.
        1    1    3    3  502    0  0.14776670951E+03  0.20422821751E+03 -0.49044122817E+03  0.55143155838E+03  0.50400001928E-02 0.  1.
       -1    1    3    3    0  502 -0.14776670951E+03 -0.20422821751E+03 -0.52572645052E+02  0.25750349182E+03  0.50400001928E-02 0. -1.
</event>
<event>
 5   0  0.1423430E-03  0.5998941E+03  0.7818609E-02  0.9905626E-01
       -1   -1    0    0    0  501  0.00000000000E+00  0.00000000000E+00  0.11956654579E+03  0.11956654590E+03  0.50400001928E-02 0. -1.
        1   -1    0    0  501    0  0.00000000000E+00  0.00000000000E+00 -0.75245310205E+03  0.75245310207E+03  0.50400001928E-02 0.  1.
    10030    2    1    2    0    0  0.00000000000E+00  0.00000000000E+00 -0.63288655626E+03  0.87201964797E+03  0.59989405176E+03 0.  0.
        1    1    3    3  502    0  0.21750723012E+03 -0.12232102746E+03 -0.74528002299E+02  0.26043473667E+03  0.50400001928E-02 0. -1.
       -1    1    3    3    0  502 -0.21750723012E+03  0.12232102746E+03 -0.55835855396E+03  0.61158491129E+03  0.50400001928E-02 0.  1.
</event>
<event>
 5   0  0.2313168E-03  0.5999458E+03  0.7818609E-02  0.9905519E-01
       -2   -1    0    0    0  501  0.00000000000E+00  0.00000000000E+00  0.10731137757E+04  0.10731137757E+04  0.25500000920E-02 0. -1.
        2   -1    0    0  501    0  0.00000000000E+00  0.00000000000E+00 -0.83852937101E+02  0.83852937140E+02  0.25500000920E-02 0.  1.
    10030    2    1    2    0    0  0.00000000000E+00  0.00000000000E+00  0.98926083859E+03  0.11569667128E+04  0.59994580409E+03 0.  0.
        2    1    3    3  502    0 -0.14430223289E+03  0.24946877534E+03  0.65512047691E+03  0.71570988785E+03  0.25500000920E-02 0. -1.
       -2    1    3    3    0  502  0.14430223289E+03 -0.24946877534E+03  0.33414036168E+03  0.44125682498E+03  0.25500000920E-02 0.  1.
</event>
<event>
 5   0  0.2406307E-03  0.5998825E+03  0.7818609E-02  0.9905650E-01
       -2   -1    0    0    0  501  0.00000000000E+00  0.00000000000E+00  0.73159035345E+02  0.73159035390E+02  0.25500000920E-02 0. -1.
        2   -1    0    0  501    0  0.00000000000E+00  0.00000000000E+00 -0.12297146736E+04  0.12297146736E+04  0.25500000920E-02 0.  1.
    10030    2    1    2    0    0  0.00000000000E+00  0.00000000000E+00 -0.11565556382E+04  0.13028737090E+04  0.59988245282E+03 0.  0.
        5    1    3    3  502    0 -0.10279909967E+03 -0.15608578271E+03 -0.68869821938E+02  0.19923746844E+03  0.46999998093E+01 0. -1.
       -5    1    3    3    0  502  0.10279909967E+03  0.15608578271E+03 -0.10876858163E+04  0.11036362405E+04  0.46999998093E+01 0.  1.
</event>
<event>
 5   0  0.1416315E-03  0.5999669E+03  0.7818609E-02  0.9905475E-01
        1   -1    0    0  501    0  0.00000000000E+00  0.00000000000E+00  0.24388024752E+03  0.24388024757E+03  0.50400001928E-02 0.  1.
       -1   -1    0    0    0  501  0.00000000000E+00  0.00000000000E+00 -0.36899286658E+03  0.36899286662E+03  0.50400001928E-02 0. -1.
    10030    2    1    2    0    0  0.00000000000E+00  0.00000000000E+00 -0.12511261907E+03  0.61287311419E+03  0.59996690463E+03 0.  0.
        2    1    3    3  502    0  0.25595067129E+03 -0.76516391653E+02  0.76851265114E+02  0.27797773523E+03  0.25500000920E-02 0.  1.
       -2    1    3    3    0  502 -0.25595067129E+03  0.76516391653E+02 -0.20196388418E+03  0.33489537896E+03  0.25500000920E-02 0. -1.
</event>
<event>
 5   0  0.2313168E-03  0.6000160E+03  0.7818609E-02  0.9905373E-01
        2   -1    0    0  501    0  0.00000000000E+00  0.00000000000E+00  0.68875678249E+03  0.68875678250E+03  0.25500000920E-02 0. -1.
       -2   -1    0    0    0  501  0.00000000000E+00  0.00000000000E+00 -0.13067720300E+03  0.13067720303E+03  0.25500000920E-02 0.  1.
    10030    2    1    2    0    0  0.00000000000E+00  0.00000000000E+00  0.55807957949E+03  0.81943398553E+03  0.60001603278E+03 0.  0.
        2    1    3    3  502    0  0.15402937111E+03 -0.14787016918E+03  0.56685379322E+03  0.60573414713E+03  0.25500000920E-02 0. -1.
       -2    1    3    3    0  502 -0.15402937111E+03  0.14787016918E+03 -0.87742137318E+01  0.21369983840E+03  0.25500000920E-02 0.  1.
</event>
<event>
 5   0  0.2346281E-03  0.5999744E+03  0.7818609E-02  0.9905459E-01
        2   -1    0    0  501    0  0.00000000000E+00  0.00000000000E+00  0.54930151895E+03  0.54930151896E+03  0.25500000920E-02 0. -1.
       -2   -1    0    0    0  501  0.00000000000E+00  0.00000000000E+00 -0.16383046673E+03  0.16383046675E+03  0.25500000920E-02 0.  1.
    10030    2    1    2    0    0  0.00000000000E+00  0.00000000000E+00  0.38547105222E+03  0.71313198571E+03  0.59997441357E+03 0.  0.
        3    1    3    3  502    0  0.86636483928E+02 -0.19724977664E+03  0.44086343385E+03  0.49068720407E+03  0.10100000352E+00 0. -1.
       -3    1    3    3    0  502 -0.86636483928E+02  0.19724977664E+03 -0.55392381631E+02  0.22244478164E+03  0.10100000352E+00 0.  1.
</event>
<event>
 5   0  0.1418763E-03  0.5999334E+03  0.7818609E-02  0.9905544E-01
        1   -1    0    0  501    0  0.00000000000E+00  0.00000000000E+00  0.11237288736E+04  0.11237288736E+04  0.50400001928E-02 0.  1.
       -1   -1    0    0    0  501  0.00000000000E+00  0.00000000000E+00 -0.80072706282E+02  0.80072706440E+02  0.50400001928E-02 0. -1.
    10030    2    1    2    0    0  0.00000000000E+00  0.00000000000E+00  0.10436561673E+04  0.12038015800E+04  0.59993337009E+03 0.  0.
        5    1    3    3  502    0  0.12064288555E+03 -0.20620542678E+03  0.88568828605E+03  0.91735555480E+03  0.46999998093E+01 0.  1.
       -5    1    3    3    0  502 -0.12064288555E+03  0.20620542678E+03  0.15796788124E+03  0.28644602523E+03  0.46999998093E+01 0. -1.
</event>
<event>
 5   0  0.1479385E-03  0.5999741E+03  0.7818609E-02  0.9905460E-01
        1   -1    0    0  501    0  0.00000000000E+00  0.00000000000E+00  0.58739047991E+03  0.58739047993E+03  0.50400001928E-02 0.  1.
       -1   -1    0    0    0  501  0.00000000000E+00  0.00000000000E+00 -0.15320683869E+03  0.15320683877E+03  0.50400001928E-02 0. -1.
    10030    2    1    2    0    0  0.00000000000E+00  0.00000000000E+00  0.43418364122E+03  0.74059731870E+03  0.59997412791E+03 0.  0.
        3    1    3    3  502    0 -0.96518119762E+02  0.18035976805E+03 -0.53761075584E+02  0.21150805380E+03  0.10100000352E+00 0. -1.
       -3    1    3    3    0  502  0.96518119762E+02 -0.18035976805E+03  0.48794471680E+03  0.52908926490E+03  0.10100000352E+00 0.  1.
</event>
<event>
 5   0  0.2421210E-03  0.6001586E+03  0.7818609E-02  0.9905077E-01
       -2   -1    0    0    0  501  0.00000000000E+00  0.00000000000E+00  0.76346163637E+02  0.76346163679E+02  0.25500000920E-02 0.  1.
        2   -1    0    0  501    0  0.00000000000E+00  0.00000000000E+00 -0.11794646458E+04  0.11794646458E+04  0.25500000920E-02 0. -1.
    10030    2    1    2    0    0  0.00000000000E+00  0.00000000000E+00 -0.11031184821E+04  0.12558108094E+04  0.60015864862E+03 0.  0.
        1    1    3    3  502    0  0.11985060038E+03 -0.98256607540E+02 -0.13876929094E+02  0.15559915335E+03  0.50400001928E-02 0.  1.
       -1    1    3    3    0  502 -0.11985060038E+03  0.98256607540E+02 -0.10892415530E+04  0.11002116561E+04  0.50400001928E-02 0. -1.
</event>
<event>
 5   0  0.1392854E-03  0.6002274E+03  0.7818609E-02  0.9904934E-01
       -1   -1    0    0    0  501  0.00000000000E+00  0.00000000000E+00  0.11432859371E+03  0.11432859382E+03  0.50400001928E-02 0. -1.
        1   -1    0    0  501    0  0.00000000000E+00  0.00000000000E+00 -0.78780146918E+03  0.78780146920E+03  0.50400001928E-02 0.  1.
    10030    2    1    2    0    0  0.00000000000E+00  0.00000000000E+00 -0.67347287547E+03  0.90213006302E+03  0.60022740408E+03 0.  0.
        4    1    3    3  502    0  0.21679293581E+03  0.19321444955E+03 -0.45056298135E+03  0.53604068278E+03  0.12699999809E+01 0.  1.
       -4    1    3    3    0  502 -0.21679293581E+03 -0.19321444955E+03 -0.22290989411E+03  0.36608938024E+03  0.12699999809E+01 0. -1.
</event>
<event>
 5   0  0.1416315E-03  0.6004532E+03  0.7818609E-02  0.9904466E-01
       -1   -1    0    0    0  501  0.00000000000E+00  0.00000000000E+00  0.15786218477E+03  0.15786218485E+03  0.50400001928E-02 0. -1.
        1   -1    0    0  501    0  0.00000000000E+00  0.00000000000E+00 -0.57097916026E+03  0.57097916028E+03  0.50400001928E-02 0.  1.
    10030    2    1    2    0    0  0.00000000000E+00  0.00000000000E+00 -0.41311697549E+03  0.72884134513E+03  0.60045322127E+03 0.  0.
        2    1    3    3  502    0  0.67524291599E+02 -0.72063927737E+02  0.13758271997E+03  0.16935685542E+03  0.25500000920E-02 0. -1.
       -2    1    3    3    0  502 -0.67524291599E+02  0.72063927737E+02 -0.55069969546E+03  0.55948448971E+03  0.25500000920E-02 0.  1.
</event>
<event>
 5   0  0.2324616E-03  0.5994482E+03  0.7818609E-02  0.9906552E-01
       -2   -1    0    0    0  501  0.00000000000E+00  0.00000000000E+00  0.61507535634E+03  0.61507535634E+03  0.25500000920E-02 0. -1.
        2   -1    0    0  501    0  0.00000000000E+00  0.00000000000E+00 -0.14605449960E+03  0.14605449962E+03  0.25500000920E-02 0.  1.
    10030    2    1    2    0    0  0.00000000000E+00  0.00000000000E+00  0.46902085674E+03  0.76112985597E+03  0.59944815755E+03 0.  0.
        4    1    3    3  502    0  0.61777692839E+02 -0.20489357266E+03 -0.31933838712E+02  0.21637754598E+03  0.12699999809E+01 0.  1.
       -4    1    3    3    0  502 -0.61777692839E+02  0.20489357266E+03  0.50095469545E+03  0.54475230999E+03  0.12699999809E+01 0. -1.
</event>
<event>
 5   0  0.2313168E-03  0.5999159E+03  0.7818609E-02  0.9905581E-01
        2   -1    0    0  501    0  0.00000000000E+00  0.00000000000E+00  0.13213565110E+04  0.13213565110E+04  0.25500000920E-02 0. -1.
       -2   -1    0    0    0  501  0.00000000000E+00  0.00000000000E+00 -0.68092731896E+02  0.68092731944E+02  0.25500000920E-02 0.  1.
    10030    2    1    2    0    0  0.00000000000E+00  0.00000000000E+00  0.12532637791E+04  0.13894492429E+04  0.59991590969E+03 0.  0.
        2    1    3    3  502    0 -0.21454584190E+03  0.20955937597E+03  0.61400465059E+03  0.68333502858E+03  0.25500000920E-02 0.  1.
       -2    1    3    3    0  502  0.21454584190E+03 -0.20955937597E+03  0.63925912849E+03  0.70611421434E+03  0.25500000920E-02 0. -1.
</event>
<event>
 5   0  0.2346281E-03  0.6000276E+03  0.7818609E-02  0.9905349E-01
       -2   -1    0    0    0  501  0.00000000000E+00  0.00000000000E+00  0.77158874560E+03  0.77158874560E+03  0.25500000920E-02 0.  1.
        2   -1    0    0  501    0  0.00000000000E+00  0.00000000000E+00 -0.11665316184E+03  0.11665316187E+03  0.25500000920E-02 0. -1.
    10030    2    1    2    0    0  0.00000000000E+00  0.00000000000E+00  0.65493558376E+03  0.88824190747E+03  0.60002755546E+03 0.  0.
        3    1    3    3  502    0  0.12271581391E+03  0.41872275549E+02 -0.73032779236E+02  0.14881618019E+03  0.10100000352E+00 0. -1.
       -3    1    3    3    0  502 -0.12271581391E+03 -0.41872275549E+02  0.72796836299E+03  0.73942572728E+03  0.10100000352E+00 0.  1.
</event>
<event>
 5   0  0.9496750E-04  0.6002139E+03  0.7818609E-02  0.9904962E-01
       -4   -1    0    0    0  501  0.00000000000E+00  0.00000000000E+00  0.29769745265E+03  0.29770016159E+03  0.12699999809E+01 0.  1.
        4   -1    0    0  501    0  0.00000000000E+00  0.00000000000E+00 -0.30253048592E+03  0.30253315159E+03  0.12699999809E+01 0. -1.
    10030    2    1    2    0    0  0.00000000000E+00  0.00000000000E+00 -0.48330332738E+01  0.60023331318E+03  0.60021385526E+03 0.  0.
        4    1    3    3  502    0 -0.12744319461E+03  0.14362868043E+03 -0.23305701229E+03  0.30197375643E+03  0.12699999809E+01 0. -1.
       -4    1    3    3    0  502  0.12744319461E+03 -0.14362868043E+03  0.22822397902E+03  0.29825955675E+03  0.12699999809E+01 0.  1.
</event>
<event>
 5   0  0.2324616E-03  0.5998381E+03  0.7818609E-02  0.9905742E-01
        2   -1    0    0  501    0  0.00000000000E+00  0.00000000000E+00  0.18823131878E+03  0.18823131880E+03  0.25500000920E-02 0.  1.
       -2   -1    0    0    0  501  0.00000000000E+00  0.00000000000E+00 -0.47787706076E+03  0.47787706076E+03  0.25500000920E-02 0. -1.
    10030    2    1    2    0    0  0.00000000000E+00  0.00000000000E+00 -0.28964574198E+03  0.66610837956E+03  0.59983807605E+03 0.  0.
        4    1    3    3  502    0 -0.18651147184E+02 -0.88423624919E+02  0.17274967676E+03  0.19496324385E+03  0.12699999809E+01 0.  1.
       -4    1    3    3    0  502  0.18651147184E+02  0.88423624919E+02 -0.46239541873E+03  0.47114513571E+03  0.12699999809E+01 0. -1.
</event>
<event>
 5   0  0.2346281E-03  0.5966618E+03  0.7818609E-02  0.9912356E-01
        2   -1    0    0  501    0  0.00000000000E+00  0.00000000000E+00  0.27831212027E+03  0.27831212028E+03  0.25500000920E-02 0.  1.
       -2   -1    0    0    0  501  0.00000000000E+00  0.00000000000E+00 -0.31978956293E+03  0.31978956294E+03  0.25500000920E-02 0. -1.
    10030    2    1    2    0    0  0.00000000000E+00  0.00000000000E+00 -0.41477442662E+02  0.59810168323E+03  0.59666175110E+03 0.  0.
        3    1    3    3  502    0 -0.10884513196E+03  0.12929930264E+03  0.22569135282E+03  0.28196129053E+03  0.10100000352E+00 0.  1.
       -3    1    3    3    0  502  0.10884513196E+03 -0.12929930264E+03 -0.26716879549E+03  0.31614039270E+03  0.10100000352E+00 0. -1.
</event>
<event>
 5   0  0.1479385E-03  0.5999075E+03  0.7818609E-02  0.9905598E-01
       -1   -1    0    0    0  501  0.00000000000E+00  0.00000000000E+00  0.20600492111E+03  0.20600492117E+03  0.50400001928E-02 0. -1.
        1   -1    0    0  501    0  0.00000000000E+00  0.00000000000E+00 -0.43674812066E+03  0.43674812069E+03  0.50400001928E-02 0.  1.
    10030    2    1    2    0    0  0.00000000000E+00  0.00000000000E+00 -0.23074319955E+03  0.64275304186E+03  0.59990753344E+03 0.  0.
        3    1    3    3  502    0  0.72899497383E+02 -0.25452854570E+03 -0.26641196001E+03  0.37559880182E+03  0.10100000352E+00 0. -1.
       -3    1    3    3    0  502 -0.72899497383E+02  0.25452854570E+03  0.35668760458E+02  0.26715424003E+03  0.10100000352E+00 0.  1.
</event>
<event>
 5   0  0.2346281E-03  0.5992142E+03  0.7818609E-02  0.9907038E-01
        2   -1    0    0  501    0  0.00000000000E+00  0.00000000000E+00  0.34612163670E+03  0.34612163671E+03  0.25500000920E-02 0.  1.
       -2   -1    0    0    0  501  0.00000000000E+00  0.00000000000E+00 -0.25934352460E+03  0.25934352461E+03  0.25500000920E-02 0. -1.
    10030    2    1    2    0    0  0.00000000000E+00  0.00000000000E+00  0.86778112103E+02  0.60546516132E+03  0.59921416942E+03 0.  0.
        3    1    3    3  502    0 -0.84295577475E+02  0.22493433865E+03 -0.13754089894E+03  0.27680084929E+03  0.10100000352E+00 0. -1.
       -3    1    3    3    0  502  0.84295577475E+02 -0.22493433865E+03  0.22431901104E+03  0.32866431203E+03  0.10100000352E+00 0.  1.
</event>
<event>
 5   0  0.1416315E-03  0.5996836E+03  0.7818609E-02  0.9906063E-01
        1   -1    0    0  501    0  0.00000000000E+00  0.00000000000E+00  0.37424328741E+03  0.37424328745E+03  0.50400001928E-02 0.  1.
       -1   -1    0    0    0  501  0.00000000000E+00  0.00000000000E+00 -0.24023170440E+03  0.24023170445E+03  0.50400001928E-02 0. -1.
    10030    2    1    2    0    0  0.00000000000E+00  0.00000000000E+00  0.13401158301E+03  0.61447499190E+03  0.59968359265E+03 0.  0.
        2    1    3    3  502    0 -0.11124037393E+02  0.16376248880E+03 -0.19010805298E+03  0.25116323130E+03  0.25500000920E-02 0. -1.
       -2    1    3    3    0  502  0.11124037393E+02 -0.16376248880E+03  0.32411963600E+03  0.36331176060E+03  0.25500000920E-02 0.  1.
</event>
<event>
 5   0  0.1423430E-03  0.6003712E+03  0.7818609E-02  0.9904636E-01
        1   -1    0    0  501    0  0.00000000000E+00  0.00000000000E+00  0.38091566489E+03  0.38091566492E+03  0.50400001928E-02 0. -1.
       -1   -1    0    0    0  501  0.00000000000E+00  0.00000000000E+00 -0.23656520304E+03  0.23656520310E+03  0.50400001928E-02 0.  1.
    10030    2    1    2    0    0  0.00000000000E+00  0.00000000000E+00  0.14435046185E+03  0.61748086802E+03  0.60037119063E+03 0.  0.
        1    1    3    3  502    0  0.73053622505E+02 -0.19365194938E+03  0.29579616622E+03  0.36101700963E+03  0.50400001928E-02 0. -1.
       -1    1    3    3    0  502 -0.73053622505E+02  0.19365194938E+03 -0.15144570438E+03  0.25646385839E+03  0.50400001928E-02 0.  1.
</event>
<event>
 5   0  0.2324616E-03  0.5995092E+03  0.7818609E-02  0.9906425E-01
        2   -1    0    0  501    0  0.00000000000E+00  0.00000000000E+00  0.18776411216E+04  0.18776411216E+04  0.25500000920E-02 0.  1.
       -2   -1    0    0    0  501  0.00000000000E+00  0.00000000000E+00 -0.47854100027E+02  0.47854100095E+02  0.25500000920E-02 0. -1.
    10030    2    1    2    0    0  0.00000000000E+00  0.00000000000E+00  0.18297870216E+04  0.19254952217E+04  0.59950921966E+03 0.  0.
        4    1    3    3  502    0 -0.10905669228E+03 -0.18985842717E+03  0.15724208999E+04  0.15875921025E+04  0.12699999809E+01 0.  1.
       -4    1    3    3    0  502  0.10905669228E+03  0.18985842717E+03  0.25736612171E+03  0.33790311925E+03  0.12699999809E+01 0. -1.
</event>
<event>
 5   0  0.2324616E-03  0.5997778E+03  0.7818609E-02  0.9905867E-01
       -2   -1    0    0    0  501  0.00000000000E+00  0.00000000000E+00  0.14905124371E+03  0.14905124374E+03  0.25500000920E-02 0.  1.
        2   -1    0    0  501    0  0.00000000000E+00  0.00000000000E+00 -0.60337193739E+03  0.60337193740E+03  0.25500000920E-02 0. -1.
    10030    2    1    2    0    0  0.00000000000E+00  0.00000000000E+00 -0.45432069368E+03  0.75242318114E+03  0.59977775118E+03 0.  0.
        4    1    3    3  502    0  0.78773202900E+02  0.13237373099E+02 -0.58977751960E+03  0.59516349104E+03  0.12699999809E+01 0. -1.
       -4    1    3    3    0  502 -0.78773202900E+02 -0.13237373099E+02  0.13545682592E+03  0.15725969010E+03  0.12699999809E+01 0.  1.
</event>
<event>
 5   0  0.2324616E-03  0.6000041E+03  0.7818609E-02  0.9905398E-01
        2   -1    0    0  501    0  0.00000000000E+00  0.00000000000E+00  0.17378307363E+04  0.17378307363E+04  0.25500000920E-02 0. -1.
       -2   -1    0    0    0  501  0.00000000000E+00  0.00000000000E+00 -0.51789411173E+02  0.51789411235E+02  0.25500000920E-02 0.  1.
    10030    2    1    2    0    0  0.00000000000E+00  0.00000000000E+00  0.16860413251E+04  0.17896201475E+04  0.60000410201E+03 0.  0.
        4    1    3    3  502    0  0.15523564866E+03 -0.80726206369E+02  0.15698697607E+04  0.15795909298E+04  0.12699999809E+01 0. -1.
       -4    1    3    3    0  502 -0.15523564866E+03  0.80726206369E+02  0.11617156434E+03  0.21002921766E+03  0.12699999809E+01 0.  1.
</event>
<event>
 5   0  0.1418763E-03  0.5998242E+03  0.7818609E-02  0.9905771E-01
        1   -1    0    0  501    0  0.00000000000E+00  0.00000000000E+00  0.33353946003E+03  0.33353946007E+03  0.50400001928E-02 0. -1.
       -1   -1    0    0    0  501  0.00000000000E+00  0.00000000000E+00 -0.26967503916E+03  0.26967503921E+03  0.50400001928E-02 0.  1.
    10030    2    1    2    0    0  0.00000000000E+00  0.00000000000E+00  0.63864420867E+02  0.60321449927E+03  0.59982419748E+03 0.  0.
        5    1    3    3  502    0 -0.39086899540E+02 -0.96371780495E+02  0.31478673427E+03  0.33155404365E+03  0.46999998093E+01 0. -1.
       -5    1    3    3    0  502  0.39086899540E+02  0.96371780495E+02 -0.25092231340E+03  0.27166045563E+03  0.46999998093E+01 0.  1.
</event>
<event>
 5   0  0.1423430E-03  0.5995758E+03  0.7818609E-02  0.9906287E-01
       -1   -1    0    0    0  501  0.00000000000E+00  0.00000000000E+00  0.37689767416E+03  0.37689767419E+03  0.50400001928E-02 0. -1.
        1   -1    0    0  501    0  0.00000000000E+00  0.00000000000E+00 -0.23845407536E+03  0.23845407541E+03  0.50400001928E-02 0.  1.
    10030    2    1    2    0    0  0.00000000000E+00  0.00000000000E+00  0.13844359880E+03  0.61535174960E+03  0.59957580479E+03 0.  0.
        1    1    3    3  502    0  0.25081306196E+03  0.15158275139E+03  0.44074328826E+01  0.29309375301E+03  0.50400001928E-02 0.  1.
       -1    1    3    3    0  502 -0.25081306196E+03 -0.15158275139E+03  0.13403616592E+03  0.32225799659E+03  0.50400001928E-02 0. -1.
</event>
<event>
 5   0  0.1418763E-03  0.5999174E+03  0.7818609E-02  0.9905577E-01
       -1   -1    0    0    0  501  0.00000000000E+00  0.00000000000E+00  0.29095321747E+03  0.29095321751E+03  0.50400001928E-02 0.  1.
        1   -1    0    0  501    0  0.00000000000E+00  0.00000000000E+00 -0.30924292571E+03  0.30924292575E+03  0.50400001928E-02 0. -1.
    10030    2    1    2    0    0  0.00000000000E+00  0.00000000000E+00 -0.18289708240E+02  0.60019614326E+03  0.59991740844E+03 0.  0.
        5    1    3    3  502    0 -0.60727529664E+02  0.20061522105E+03 -0.22376453430E+03  0.30663815253E+03  0.46999998093E+01 0. -1.
       -5    1    3    3    0  502  0.60727529664E+02 -0.20061522105E+03  0.20547482606E+03  0.29355799073E+03  0.46999998093E+01 0.  1.
</event>
<event>
 5   0  0.2346281E-03  0.6000559E+03  0.7818609E-02  0.9905290E-01
       -2   -1    0    0    0  501  0.00000000000E+00  0.00000000000E+00  0.18269731309E+03  0.18269731311E+03  0.25500000920E-02 0. -1.
        2   -1    0    0  501    0  0.00000000000E+00  0.00000000000E+00 -0.49270993848E+03  0.49270993849E+03  0.25500000920E-02 0.  1.
    10030    2    1    2    0    0  0.00000000000E+00  0.00000000000E+00 -0.31001262539E+03  0.67540725159E+03  0.60005593706E+03 0.  0.
        3    1    3    3  502    0  0.24988769573E+03 -0.28313084567E+02  0.29159305018E+02  0.25317141724E+03  0.10100000352E+00 0. -1.
       -3    1    3    3    0  502 -0.24988769573E+03  0.28313084567E+02 -0.33917193041E+03  0.42223583435E+03  0.10100000352E+00 0.  1.
</event>
<event>
 5   0  0.9496750E-04  0.5999418E+03  0.7818609E-02  0.9905527E-01
       -3   -1    0    0    0  501  0.00000000000E+00  0.00000000000E+00  0.25489376913E+03  0.25489378914E+03  0.10100000352E+00 0. -1.
        3   -1    0    0  501    0  0.00000000000E+00  0.00000000000E+00 -0.35301971852E+03  0.35301973297E+03  0.10100000352E+00 0.  1.
    10030    2    1    2    0    0  0.00000000000E+00  0.00000000000E+00 -0.98125949387E+02  0.60791352211E+03  0.59994178753E+03 0.  0.
        4    1    3    3  502    0 -0.23545881626E+01  0.17248124730E+03  0.19960694647E+03  0.26381787417E+03  0.12699999809E+01 0. -1.
       -4    1    3    3    0  502  0.23545881626E+01 -0.17248124730E+03 -0.29773289585E+03  0.34409564794E+03  0.12699999809E+01 0.  1.
</event>
<event>
 5   0  0.2421210E-03  0.6003611E+03  0.7818609E-02  0.9904657E-01
        2   -1    0    0  501    0  0.00000000000E+00  0.00000000000E+00  0.27898316749E+03  0.27898316750E+03  0.25500000920E-02 0. -1.
       -2   -1    0    0    0  501  0.00000000000E+00  0.00000000000E+00 -0.32298851728E+03  0.32298851729E+03  0.25500000920E-02 0.  1.
    10030    2    1    2    0    0  0.00000000000E+00  0.00000000000E+00 -0.44005349789E+02  0.60197168478E+03  0.60036109007E+03 0.  0.
        1    1    3    3  502    0 -0.26851449830E+03 -0.95548163539E+02  0.72477878759E+02  0.29407912250E+03  0.50400001928E-02 0. -1.
       -1    1    3    3    0  502  0.26851449830E+03  0.95548163539E+02 -0.11648322855E+03  0.30789256229E+03  0.50400001928E-02 0.  1.
</event>
<event>
 5   0  0.9496750E-04  0.5997731E+03  0.7818609E-02  0.9905877E-01
        4   -1    0    0  501    0  0.00000000000E+00  0.00000000000E+00  0.17538758535E+03  0.17539218339E+03  0.12699999809E+01 0.  1.
       -4   -1    0    0    0  501  0.00000000000E+00  0.00000000000E+00 -0.51274906728E+03  0.51275064007E+03  0.12699999809E+01 0. -1.
    10030    2    1    2    0    0  0.00000000000E+00  0.00000000000E+00 -0.33736148193E+03  0.68814282346E+03  0.59977310376E+03 0.  0.
        4    1    3    3  502    0 -0.15300238440E+03 -0.29056404936E+02 -0.46271370798E+03  0.48822084424E+03  0.12699999809E+01 0. -1.
       -4    1    3    3    0  502  0.15300238440E+03  0.29056404936E+02  0.12535222605E+03  0.19992197922E+03  0.12699999809E+01 0.  1.
</event>
<event>
 5   0  0.1423430E-03  0.5999294E+03  0.7818609E-02  0.9905553E-01
        1   -1    0    0  501    0  0.00000000000E+00  0.00000000000E+00  0.79755084965E+03  0.79755084966E+03  0.50400001928E-02 0.  1.
       -1   -1    0    0    0  501  0.00000000000E+00  0.00000000000E+00 -0.11281890969E+03  0.11281890980E+03  0.50400001928E-02 0. -1.
    10030    2    1    2    0    0  0.00000000000E+00  0.00000000000E+00  0.68473193996E+03  0.91036975947E+03  0.59992938697E+03 0.  0.
        1    1    3    3  502    0 -0.99353327573E+02 -0.19206707175E+03  0.65783002880E+03  0.69246024476E+03  0.50400001928E-02 0.  1.
       -1    1    3    3    0  502  0.99353327573E+02  0.19206707175E+03  0.26901911158E+02  0.21790951471E+03  0.50400001928E-02 0. -1.
</event>
<event>
 5   0  0.9496750E-04  0.5998571E+03  0.7818609E-02  0.9905703E-01
       -4   -1    0    0    0  501  0.00000000000E+00  0.00000000000E+00  0.73744335795E+03  0.73744445152E+03  0.12699999809E+01 0.  1.
        4   -1    0    0  501    0  0.00000000000E+00  0.00000000000E+00 -0.12198063748E+03  0.12198724860E+03  0.12699999809E+01 0. -1.
    10030    2    1    2    0    0  0.00000000000E+00  0.00000000000E+00  0.61546272047E+03  0.85943170012E+03  0.59985705538E+03 0.  0.
        5    1    3    3  502    0  0.17329918266E+03  0.21549102682E+03  0.14147296446E+03  0.31065363192E+03  0.46999998093E+01 0. -1.
       -5    1    3    3    0  502 -0.17329918266E+03 -0.21549102682E+03  0.47398975600E+03  0.54877806821E+03  0.46999998093E+01 0.  1.
</event>
<event>
 5   0  0.2346281E-03  0.5997932E+03  0.7818609E-02  0.9905835E-01
       -2   -1    0    0    0  501  0.00000000000E+00  0.00000000000E+00  0.33845780191E+03  0.33845780192E+03  0.25500000920E-02 0.  1.
        2   -1    0    0  501    0  0.00000000000E+00  0.00000000000E+00 -0.26572876340E+03  0.26572876341E+03  0.25500000920E-02 0. -1.
    10030    2    1    2    0    0  0.00000000000E+00  0.00000000000E+00  0.72729038517E+02  0.60418656533E+03  0.59979320826E+03 0.  0.
        3    1    3    3  502    0 -0.29494589324E+03  0.32694814109E+02  0.79993803163E+02  0.30734516354E+03  0.10100000352E+00 0.  1.
       -3    1    3    3    0  502  0.29494589324E+03 -0.32694814109E+02 -0.72647646456E+01  0.29684140179E+03  0.10100000352E+00 0. -1.
</event>
<event>
 5   0  0.1416315E-03  0.5996811E+03  0.7818609E-02  0.9906068E-01
        1   -1    0    0  501    0  0.00000000000E+00  0.00000000000E+00  0.58199054485E+03  0.58199054488E+03  0.50400001928E-02 0. -1.
       -1   -1    0    0    0  501  0.00000000000E+00  0.00000000000E+00 -0.15447733798E+03  0.15447733806E+03  0.50400001928E-02 0.  1.
    10030    2    1    2    0    0  0.00000000000E+00  0.00000000000E+00  0.42751320688E+03  0.73646788293E+03  0.59968108236E+03 0.  0.
        2    1    3    3  502    0  0.24441408981E+02  0.29558342306E+03  0.26781261149E+03  0.39961298445E+03  0.25500000920E-02 0. -1.
       -2    1    3    3    0  502 -0.24441408981E+02 -0.29558342306E+03  0.15970059539E+03  0.33685489849E+03  0.25500000920E-02 0.  1.
</event>
<event>
 5   0  0.2313168E-03  0.6000729E+03  0.7818609E-02  0.9905255E-01
        2   -1    0    0  501    0  0.00000000000E+00  0.00000000000E+00  0.20227964071E+03  0.20227964073E+03  0.25500000920E-02 0. -1.
       -2   -1    0    0    0  501  0.00000000000E+00  0.00000000000E+00 -0.44503669397E+03  0.44503669398E+03  0.25500000920E-02 0.  1.
    10030    2    1    2    0    0  0.00000000000E+00  0.00000000000E+00 -0.24275705325E+03  0.64731633471E+03  0.60007287080E+03 0.  0.
        2    1    3    3  502    0 -0.11798136695E+03 -0.21969405293E+03  0.58600580648E+02  0.25616226869E+03  0.25500000920E-02 0. -1.
       -2    1    3    3    0  502  0.11798136695E+03  0.21969405293E+03 -0.30135763390E+03  0.39115406602E+03  0.25500000920E-02 0.  1.
</event>
<event>
 5   0  0.1479385E-03  0.6000267E+03  0.7818609E-02  0.9905351E-01
       -1   -1    0    0    0  501  0.00000000000E+00  0.00000000000E+00  0.27669036242E+03  0.27669036247E+03  0.50400001928E-02 0.  1.
        1   -1    0    0  501    0  0.00000000000E+00  0.00000000000E+00 -0.32530232724E+03  0.32530232728E+03  0.50400001928E-02 0. -1.
    10030    2    1    2    0    0  0.00000000000E+00  0.00000000000E+00 -0.48611964821E+02  0.60199268975E+03  0.60002672889E+03 0.  0.
        3    1    3    3  502    0 -0.12859272818E+03 -0.41590135624E+01  0.24760715014E+03  0.27903888283E+03  0.10100000352E+00 0.  1.
       -3    1    3    3    0  502  0.12859272818E+03  0.41590135624E+01 -0.29621911496E+03  0.32295380691E+03  0.10100000352E+00 0. -1.
</event>
<event>
 5   0  0.1423430E-03  0.5998368E+03  0.7818609E-02  0.9905745E-01
        1   -1    0    0  501    0  0.00000000000E+00  0.00000000000E+00  0.72358150893E+03  0.72358150895E+03  0.50400001928E-02 0. -1.
       -1   -1    0    0    0  501  0.00000000000E+00  0.00000000000E+00 -0.12431362452E+03  0.12431362462E+03  0.50400001928E-02 0.  1.
    10030    2    1    2    0    0  0.00000000000E+00  0.00000000000E+00  0.59926788441E+03  0.84789513357E+03  0.59983677800E+03 0.  0.
        1    1    3    3  502    0 -0.61394641705E+02 -0.17943285951E+03 -0.28799949247E+02  0.19181994214E+03  0.50400001928E-02 0.  1.
       -1    1    3    3    0  502  0.61394641705E+02  0.17943285951E+03  0.62806783366E+03  0.65607519142E+03  0.50400001928E-02 0. -1.
</event>
<event>
 5   0  0.2324616E-03  0.5999767E+03  0.7818609E-02  0.9905454E-01
       -2   -1    0    0    0  501  0.00000000000E+00  0.00000000000E+00  0.23586829697E+03  0.23586829699E+03  0.25500000920E-02 0.  1.
        2   -1    0    0  501    0  0.00000000000E+00  0.00000000000E+00 -0.38153923272E+03  0.38153923273E+03  0.25500000920E-02 0. -1.
    10030    2    1    2    0    0  0.00000000000E+00  0.00000000000E+00 -0.14567093575E+03  0.61740752972E+03  0.59997669640E+03 0.  0.
        4    1    3    3  502    0 -0.13717673017E+03 -0.15961930142E+03 -0.29281122641E+03  0.36060477521E+03  0.12699999809E+01 0. -1.
       -4    1    3    3    0  502  0.13717673017E+03  0.15961930142E+03  0.14714029067E+03  0.25680275451E+03  0.12699999809E+01 0.  1.
</event>
<event>
 5   0  0.2406307E-03  0.5999396E+03  0.7818609E-02  0.9905531E-01
        2   -1    0    0  501    0  0.00000000000E+00  0.00000000000E+00  0.15243798092E+04  0.15243798092E+04  0.25500000920E-02 0.  1.
       -2   -1    0    0    0  501  0.00000000000E+00  0.00000000000E+00 -0.59028522695E+02  0.59028522750E+02  0.25500000920E-02 0. -1.
    10030    2    1    2    0    0  0.00000000000E+00  0.00000000000E+00  0.14653512865E+04  0.15834083319E+04  0.59993962432E+03 0.  0.
        5    1    3    3  502    0  0.10650314921E+02  0.77752954406E+02 -0.31352899558E+02  0.84640684281E+02  0.46999998093E+01 0. -1.
       -5    1    3    3    0  502 -0.10650314921E+02 -0.77752954406E+02  0.14967041860E+04  0.14987676476E+04  0.46999998093E+01 0.  1.
</event>
<event>
 5   0  0.9496750E-04  0.6001768E+03  0.7818609E-02  0.9905039E-01
       -4   -1    0    0    0  501  0.00000000000E+00  0.00000000000E+00  0.81691715344E+02  0.81701586618E+02  0.12699999809E+01 0. -1.
        4   -1    0    0  501    0  0.00000000000E+00  0.00000000000E+00 -0.11022754104E+04  0.11022761420E+04  0.12699999809E+01 0.  1.
    10030    2    1    2    0    0  0.00000000000E+00  0.00000000000E+00 -0.10205836950E+04  0.11839777286E+04  0.60017679336E+03 0.  0.
        5    1    3    3  502    0 -0.14596268826E+03  0.22073228802E+03 -0.78929753585E+03  0.83249056417E+03  0.46999998093E+01 0.  1.
       -5    1    3    3    0  502  0.14596268826E+03 -0.22073228802E+03 -0.23128615917E+03  0.35148716443E+03  0.46999998093E+01 0. -1.
</event>
<event>
 5   0  0.1416315E-03  0.6000683E+03  0.7818609E-02  0.9905264E-01
        1   -1    0    0  501    0  0.00000000000E+00  0.00000000000E+00  0.31929987920E+03  0.31929987924E+03  0.50400001928E-02 0.  1.
       -1   -1    0    0    0  501  0.00000000000E+00  0.00000000000E+00 -0.28193090974E+03  0.28193090978E+03  0.50400001928E-02 0. -1.
    10030    2    1    2    0    0  0.00000000000E+00  0.00000000000E+00  0.37368969458E+02  0.60123078902E+03  0.60006834759E+03 0.  0.
        2    1    3    3  502    0 -0.27189450836E+03 -0.75284760997E+02 -0.83621527312E+02  0.29425665456E+03  0.25500000920E-02 0. -1.
       -2    1    3    3    0  502  0.27189450836E+03  0.75284760997E+02  0.12099049677E+03  0.30697413446E+03  0.25500000920E-02 0.  1.
</event>
<event>
 5   0  0.1423430E-03  0.5996535E+03  0.7818609E-02  0.9906125E-01
        1   -1    0    0  501    0  0.00000000000E+00  0.00000000000E+00  0.76240140545E+02  0.76240140712E+02  0.50400001928E-02 0.  1.
       -1   -1    0    0    0  501  0.00000000000E+00  0.00000000000E+00 -0.11791173611E+04  0.11791173611E+04  0.50400001928E-02 0. -1.
    10030    2    1    2    0    0  0.00000000000E+00  0.00000000000E+00 -0.11028772205E+04  0.12553575018E+04  0.59965347807E+03 0.  0.
        1    1    3    3  502    0  0.74549347363E+02 -0.22129663987E+03 -0.15774200857E+03  0.28180196824E+03  0.50400001928E-02 0.  1.
       -1    1    3    3    0  502 -0.74549347363E+02  0.22129663987E+03 -0.94513521197E+03  0.97355553357E+03  0.50400001928E-02 0. -1.
</event>
<event>
 5   0  0.1418763E-03  0.5998605E+03  0.7818609E-02  0.9905696E-01
        1   -1    0    0  501    0  0.00000000000E+00  0.00000000000E+00  0.63951351680E+03  0.63951351682E+03  0.50400001928E-02 0.  1.
       -1   -1    0    0    0  501  0.00000000000E+00  0.00000000000E+00 -0.14066652824E+03  0.14066652833E+03  0.50400001928E-02 0. -1.
    10030    2    1    2    0    0  0.00000000000E+00  0.00000000000E+00  0.49884698856E+03  0.78018004515E+03  0.59986047116E+03 0.  0.
        5    1    3    3  502    0  0.21433813218E+03 -0.19262728807E+03  0.14146604778E+03  0.32106204959E+03  0.46999998093E+01 0.  1.
       -5    1    3    3    0  502 -0.21433813218E+03  0.19262728807E+03  0.35738094078E+03  0.45911799556E+03  0.46999998093E+01 0. -1.
</event>
<event>
 5   0  0.1479385E-03  0.6006456E+03  0.7818609E-02  0.9904068E-01
        1   -1    0    0  501    0  0.00000000000E+00  0.00000000000E+00  0.50532688646E+03  0.50532688649E+03  0.50400001928E-02 0. -1.
       -1   -1    0    0    0  501  0.00000000000E+00  0.00000000000E+00 -0.17848599037E+03  0.17848599044E+03  0.50400001928E-02 0.  1.
    10030    2    1    2    0    0  0.00000000000E+00  0.00000000000E+00  0.32684089609E+03  0.68381287693E+03  0.60064555214E+03 0.  0.
        3    1    3    3  502    0  0.29144140166E+03 -0.32107679460E+02  0.23741850838E+03  0.37727516749E+03  0.10100000352E+00 0. -1.
       -3    1    3    3    0  502 -0.29144140166E+03  0.32107679460E+02  0.89422387708E+02  0.30653770944E+03  0.10100000352E+00 0.  1.
</event>
<event>
 5   0  0.2421210E-03  0.6000954E+03  0.7818609E-02  0.9905208E-01
       -2   -1    0    0    0  501  0.00000000000E+00  0.00000000000E+00  0.24685937346E+03  0.24685937347E+03  0.25500000920E-02 0.  1.
        2   -1    0    0  501    0  0.00000000000E+00  0.00000000000E+00 -0.36469597391E+03  0.36469597392E+03  0.25500000920E-02 0. -1.
    10030    2    1    2    0    0  0.00000000000E+00  0.00000000000E+00 -0.11783660046E+03  0.61155534739E+03  0.60009539118E+03 0.  0.
        1    1    3    3  502    0 -0.24939257318E+03  0.46909727355E+02  0.10423730272E+03  0.27434028756E+03  0.50400001928E-02 0.  1.
       -1    1    3    3    0  502  0.24939257318E+03 -0.46909727355E+02 -0.22207390318E+03  0.33721505983E+03  0.50400001928E-02 0. -1.
</event>
<event>
 5   0  0.1479385E-03  0.5998013E+03  0.7818609E-02  0.9905818E-01
       -1   -1    0    0    0  501  0.00000000000E+00  0.00000000000E+00  0.17213455550E+03  0.17213455557E+03  0.50400001928E-02 0.  1.
        1   -1    0    0  501    0  0.00000000000E+00  0.00000000000E+00 -0.52250057214E+03  0.52250057217E+03  0.50400001928E-02 0. -1.
    10030    2    1    2    0    0  0.00000000000E+00  0.00000000000E+00 -0.35036601665E+03  0.69463512774E+03  0.59980131299E+03 0.  0.
        3    1    3    3  502    0 -0.27241337197E+03 -0.55290109487E+02 -0.30556337981E+03  0.41307993260E+03  0.10100000352E+00 0.  1.
       -3    1    3    3    0  502  0.27241337197E+03  0.55290109487E+02 -0.44802636835E+02  0.28155519513E+03  0.10100000352E+00 0. -1.
</event>
<event>
 5   0  0.1423430E-03  0.6001060E+03  0.7818609E-02  0.9905186E-01
       -1   -1    0    0    0  501  0.00000000000E+00  0.00000000000E+00  0.32589765942E+03  0.32589765946E+03  0.50400001928E-02 0.  1.
        1   -1    0    0  501    0  0.00000000000E+00  0.00000000000E+00 -0.27625791119E+03  0.27625791124E+03  0.50400001928E-02 0. -1.
    10030    2    1    2    0    0  0.00000000000E+00  0.00000000000E+00  0.49639748222E+02  0.60215557070E+03  0.60010601290E+03 0.  0.
        1    1    3    3  502    0 -0.16247122199E+03 -0.15134297884E+03 -0.17768667009E+03  0.28438380400E+03  0.50400001928E-02 0. -1.
       -1    1    3    3    0  502  0.16247122199E+03  0.15134297884E+03  0.22732641832E+03  0.31777176670E+03  0.50400001928E-02 0.  1.
</event>
<event>
 5   0  0.1423430E-03  0.6000047E+03  0.7818609E-02  0.9905396E-01
       -1   -1    0    0    0  501  0.00000000000E+00  0.00000000000E+00  0.63252893735E+02  0.63252893936E+02  0.50400001928E-02 0. -1.
        1   -1    0    0  501    0  0.00000000000E+00  0.00000000000E+00 -0.14228822109E+04  0.14228822109E+04  0.50400001928E-02 0.  1.
    10030    2    1    2    0    0  0.00000000000E+00  0.00000000000E+00 -0.13596293171E+04  0.14861351048E+04  0.60000472477E+03 0.  0.
        1    1    3    3  502    0 -0.12980869001E+02 -0.20242864540E+03 -0.13234429845E+03  0.24220006770E+03  0.50400001928E-02 0. -1.
       -1    1    3    3    0  502  0.12980869001E+02  0.20242864540E+03 -0.12272850187E+04  0.12439350371E+04  0.50400001928E-02 0.  1.
</event>
<event>
 5   0  0.1416315E-03  0.5983364E+03  0.7818609E-02  0.9908863E-01
        1   -1    0    0  501    0  0.00000000000E+00  0.00000000000E+00  0.27198497835E+03  0.27198497840E+03  0.50400001928E-02 0.  1.
       -1   -1    0    0    0  501  0.00000000000E+00  0.00000000000E+00 -0.32906823784E+03  0.32906823788E+03  0.50400001928E-02 0. -1.
    10030    2    1    2    0    0  0.00000000000E+00  0.00000000000E+00 -0.57083259490E+02  0.60105321628E+03  0.59833641898E+03 0.  0.
        2    1    3    3  502    0  0.21354200319E+02  0.13890479925E+03 -0.29384510092E+03  0.32572302416E+03  0.25500000920E-02 0. -1.
       -2    1    3    3    0  502 -0.21354200319E+02 -0.13890479925E+03  0.23676184143E+03  0.27533019212E+03  0.25500000920E-02 0.  1.
</event>
<event>
 5   0  0.1479385E-03  0.6004808E+03  0.7818609E-02  0.9904409E-01
        1   -1    0    0  501    0  0.00000000000E+00  0.00000000000E+00  0.34805575483E+03  0.34805575487E+03  0.50400001928E-02 0. -1.
       -1   -1    0    0    0  501  0.00000000000E+00  0.00000000000E+00 -0.25899380552E+03  0.25899380557E+03  0.50400001928E-02 0.  1.
    10030    2    1    2    0    0  0.00000000000E+00  0.00000000000E+00  0.89061949306E+02  0.60704956044E+03  0.60048075574E+03 0.  0.
        3    1    3    3  502    0  0.61210986741E+02  0.10896733405E+03 -0.23144545773E+03  0.26303550120E+03  0.10100000352E+00 0.  1.
       -3    1    3    3    0  502 -0.61210986741E+02 -0.10896733405E+03  0.32050740704E+03  0.34401405924E+03  0.10100000352E+00 0. -1.
</event>
<event>
 5   0  0.2421210E-03  0.6003074E+03  0.7818609E-02  0.9904769E-01
       -2   -1    0    0    0  501  0.00000000000E+00  0.00000000000E+00  0.14632532694E+03  0.14632532696E+03  0.25500000920E-02 0. -1.
        2   -1    0    0  501    0  0.00000000000E+00  0.00000000000E+00 -0.61569817988E+03  0.61569817989E+03  0.25500000920E-02 0.  1.
    10030    2    1    2    0    0  0.00000000000E+00  0.00000000000E+00 -0.46937285294E+03  0.76202350685E+03  0.60030737953E+03 0.  0.
        1    1    3    3  502    0  0.14283193338E+03 -0.12014472335E+03 -0.53307793375E+03  0.56480775422E+03  0.50400001928E-02 0.  1.
       -1    1    3    3    0  502 -0.14283193338E+03  0.12014472335E+03  0.63705080812E+02  0.19721575264E+03  0.50400001928E-02 0. -1.
</event>
<event>
 5   0  0.2346281E-03  0.5999061E+03  0.7818609E-02  0.9905601E-01
       -2   -1    0    0    0  501  0.00000000000E+00  0.00000000000E+00  0.38807051459E+02  0.38807051543E+02  0.25500000920E-02 0. -1.
        2   -1    0    0  501    0  0.00000000000E+00  0.00000000000E+00 -0.23184400027E+04  0.23184400027E+04  0.25500000920E-02 0.  1.
    10030    2    1    2    0    0  0.00000000000E+00  0.00000000000E+00 -0.22796329513E+04  0.23572470543E+04  0.59990606128E+03 0.  0.
        3    1    3    3  502    0  0.97776666818E+02 -0.21879151891E+03 -0.43098552679E+03  0.49313136163E+03  0.10100000352E+00 0. -1.
       -3    1    3    3    0  502 -0.97776666818E+02  0.21879151891E+03 -0.18486474245E+04  0.18641156926E+04  0.10100000352E+00 0.  1.
</event>
<event>
 5   0  0.1479385E-03  0.5998849E+03  0.7818609E-02  0.9905645E-01
        1   -1    0    0  501    0  0.00000000000E+00  0.00000000000E+00  0.19732452587E+03  0.19732452593E+03  0.50400001928E-02 0.  1.
       -1   -1    0    0    0  501  0.00000000000E+00  0.00000000000E+00 -0.45592653937E+03  0.45592653940E+03  0.50400001928E-02 0. -1.
    10030    2    1    2    0    0  0.00000000000E+00  0.00000000000E+00 -0.25860201350E+03  0.65325106533E+03  0.59988494978E+03 0.  0.
        3    1    3    3  502    0  0.77532394350E+02 -0.21624940880E+03  0.80702999381E+02  0.24349140291E+03  0.10100000352E+00 0.  1.
       -3    1    3    3    0  502 -0.77532394350E+02  0.21624940880E+03 -0.33930501288E+03  0.40975966242E+03  0.10100000352E+00 0. -1.
</event>
<event>
 5   0  0.9496750E-04  0.5997861E+03  0.7818609E-02  0.9905850E-01
       -4   -1    0    0    0  501  0.00000000000E+00  0.00000000000E+00  0.62344474866E+03  0.62344604220E+03  0.12699999809E+01 0.  1.
        4   -1    0    0  501    0  0.00000000000E+00  0.00000000000E+00 -0.14425209949E+03  0.14425768994E+03  0.12699999809E+01 0. -1.
    10030    2    1    2    0    0  0.00000000000E+00  0.00000000000E+00  0.47919264918E+03  0.76770373214E+03  0.59978614965E+03 0.  0.
        2    1    3    3  502    0 -0.19687675666E+03 -0.19067694158E+03  0.83789074938E+02  0.28659860860E+03  0.25500000920E-02 0. -1.
       -2    1    3    3    0  502  0.19687675666E+03  0.19067694158E+03  0.39540357424E+03  0.48110512354E+03  0.25500000920E-02 0.  1.
</event>
<event>
 5   0  0.1416315E-03  0.6000771E+03  0.7818609E-02  0.9905246E-01
       -1   -1    0    0    0  501  0.00000000000E+00  0.00000000000E+00  0.10840956850E+03  0.10840956862E+03  0.50400001928E-02 0. -1.
        1   -1    0    0  501    0  0.00000000000E+00  0.00000000000E+00 -0.83039842983E+03  0.83039842985E+03  0.50400001928E-02 0.  1.
    10030    2    1    2    0    0  0.00000000000E+00  0.00000000000E+00 -0.72198886133E+03  0.93880799846E+03  0.60007711346E+03 0.  0.
        2    1    3    3  502    0  0.24036433399E+03  0.20435923408E+02 -0.81874134475E+02  0.25474696057E+03  0.25500000920E-02 0. -1.
       -2    1    3    3    0  502 -0.24036433399E+03 -0.20435923408E+02 -0.64011472685E+03  0.68406103789E+03  0.25500000920E-02 0.  1.
</event>
<event>
 5   0  0.1416315E-03  0.5999398E+03  0.7818609E-02  0.9905531E-01
       -1   -1    0    0    0  501  0.00000000000E+00  0.00000000000E+00  0.84744161348E+02  0.84744161498E+02  0.50400001928E-02 0. -1.
        1   -1    0    0  501    0  0.00000000000E+00  0.00000000000E+00 -0.10618070400E+04  0.10618070400E+04  0.50400001928E-02 0.  1.
    10030    2    1    2    0    0  0.00000000000E+00  0.00000000000E+00 -0.97706287860E+03  0.11465512015E+04  0.59993982101E+03 0.  0.
        2    1    3    3  502    0  0.18692217781E+03  0.38137549241E+02 -0.46128694685E+02  0.19627080704E+03  0.25500000920E-02 0. -1.
       -2    1    3    3    0  502 -0.18692217781E+03 -0.38137549241E+02 -0.93093418392E+03  0.95028039442E+03  0.25500000920E-02 0.  1.
</event>
<event>
 5   0  0.1423430E-03  0.6000238E+03  0.7818609E-02  0.9905357E-01
       -1   -1    0    0    0  501  0.00000000000E+00  0.00000000000E+00  0.97041005654E+02  0.97041005785E+02  0.50400001928E-02 0.  1.
        1   -1    0    0  501    0  0.00000000000E+00  0.00000000000E+00 -0.92751659753E+03  0.92751659755E+03  0.50400001928E-02 0. -1.
    10030    2    1    2    0    0  0.00000000000E+00  0.00000000000E+00 -0.83047559188E+03  0.10245576033E+04  0.60002381106E+03 0.  0.
        1    1    3    3  502    0  0.18828373853E+03  0.12779573402E+03 -0.74907868407E+03  0.78288018929E+03  0.50400001928E-02 0. -1.
       -1    1    3    3    0  502 -0.18828373853E+03 -0.12779573402E+03 -0.81396907804E+02  0.24167741404E+03  0.50400001928E-02 0.  1.
</event>
<event>
 5   0  0.1479385E-03  0.5997615E+03  0.7818609E-02  0.9905901E-01
        1   -1    0    0  501    0  0.00000000000E+00  0.00000000000E+00  0.42302908418E+03  0.42302908421E+03  0.50400001928E-02 0.  1.
       -1   -1    0    0    0  501  0.00000000000E+00  0.00000000000E+00 -0.21258222853E+03  0.21258222859E+03  0.50400001928E-02 0. -1.
    10030    2    1    2    0    0  0.00000000000E+00  0.00000000000E+00  0.21044685565E+03  0.63561131280E+03  0.59976150419E+03 0.  0.
        3    1    3    3  502    0 -0.16622987132E+03 -0.16256300327E+03  0.30593611050E+03  0.38426034672E+03  0.10100000352E+00 0.  1.
       -3    1    3    3    0  502  0.16622987132E+03  0.16256300327E+03 -0.95489254853E+02  0.25135096608E+03  0.10100000352E+00 0. -1.
</event>
<event>
 5   0  0.2406307E-03  0.5998931E+03  0.7818609E-02  0.9905628E-01
        2   -1    0    0  501    0  0.00000000000E+00  0.00000000000E+00  0.46957962662E+03  0.46957962662E+03  0.25500000920E-02 0.  1.
       -2   -1    0    0    0  501  0.00000000000E+00  0.00000000000E+00 -0.19159251431E+03  0.19159251433E+03  0.25500000920E-02 0. -1.
    10030    2    1    2    0    0  0.00000000000E+00  0.00000000000E+00  0.27798711230E+03  0.66117214096E+03  0.59989312829E+03 0.  0.
        5    1    3    3  502    0 -0.10697165519E+03 -0.15783021804E+03  0.39414194099E+03  0.43786216140E+03  0.46999998093E+01 0.  1.
       -5    1    3    3    0  502  0.10697165519E+03  0.15783021804E+03 -0.11615482869E+03  0.22330997955E+03  0.46999998093E+01 0. -1.
</event>
<event>
 5   0  0.2324616E-03  0.5996523E+03  0.7818609E-02  0.9906128E-01
       -2   -1    0    0    0  501  0.00000000000E+00  0.00000000000E+00  0.94489558021E+02  0.94489558056E+02  0.25500000920E-02 0. -1.
        2   -1    0    0  501    0  0.00000000000E+00  0.00000000000E+00 -0.95138266050E+03  0.95138266051E+03  0.25500000920E-02 0.  1.
    10030    2    1    2    0    0  0.00000000000E+00  0.00000000000E+00 -0.85689310248E+03  0.10458722186E+04  0.59965232300E+03 0.  0.
        4    1    3    3  502    0 -0.89896996545E+02  0.23835106223E+03 -0.70422568575E+03  0.74888458939E+03  0.12699999809E+01 0.  1.
       -4    1    3    3    0  502  0.89896996545E+02 -0.23835106223E+03 -0.15266741673E+03  0.29698762918E+03  0.12699999809E+01 0. -1.
</event>
<event>
 5   0  0.1418763E-03  0.5999886E+03  0.7818609E-02  0.9905430E-01
       -1   -1    0    0    0  501  0.00000000000E+00  0.00000000000E+00  0.72814968136E+02  0.72814968310E+02  0.50400001928E-02 0.  1.
        1   -1    0    0  501    0  0.00000000000E+00  0.00000000000E+00 -0.12359625756E+04  0.12359625756E+04  0.50400001928E-02 0. -1.
    10030    2    1    2    0    0  0.00000000000E+00  0.00000000000E+00 -0.11631476074E+04  0.13087775439E+04  0.59998858548E+03 0.  0.
        5    1    3    3  502    0  0.14985439638E+03 -0.34475210876E+02 -0.19780506434E+02  0.15510718459E+03  0.46999998093E+01 0.  1.
       -5    1    3    3    0  502 -0.14985439638E+03  0.34475210876E+02 -0.11433671010E+04  0.11536703593E+04  0.46999998093E+01 0. -1.
</event>
<event>
 5   0  0.1418763E-03  0.5996429E+03  0.7818609E-02  0.9906147E-01
        1   -1    0    0  501    0  0.00000000000E+00  0.00000000000E+00  0.41922084150E+03  0.41922084153E+03  0.50400001928E-02 0.  1.
       -1   -1    0    0    0  501  0.00000000000E+00  0.00000000000E+00 -0.21442854873E+03  0.21442854879E+03  0.50400001928E-02 0. -1.
    10030    2    1    2    0    0  0.00000000000E+00  0.00000000000E+00  0.20479229278E+03  0.63364939032E+03  0.59964294932E+03 0.  0.
        5    1    3    3  502    0 -0.15172338729E+03 -0.25597171221E+03  0.14092370978E+03  0.32927660968E+03  0.46999998093E+01 0.  1.
       -5    1    3    3    0  502  0.15172338729E+03  0.25597171221E+03  0.63868583002E+02  0.30437278064E+03  0.46999998093E+01 0. -1.
</event>
<event>
 5   0  0.2421210E-03  0.6001386E+03  0.7818609E-02  0.9905119E-01
        2   -1    0    0  501    0  0.00000000000E+00  0.00000000000E+00  0.33080195822E+03  0.33080195823E+03  0.25500000920E-02 0.  1.
       -2   -1    0    0    0  501  0.00000000000E+00  0.00000000000E+00 -0.27219179564E+03  0.27219179566E+03  0.25500000920E-02 0. -1.
    10030    2    1    2    0    0  0.00000000000E+00  0.00000000000E+00  0.58610162572E+02  0.60299375388E+03  0.60013858072E+03 0.  0.
        1    1    3    3  502    0  0.21853040068E+03 -0.50487881827E+00 -0.17730831710E+03  0.28141433912E+03  0.50400001928E-02 0. -1.
       -1    1    3    3    0  502 -0.21853040068E+03  0.50487881827E+00  0.23591847967E+03  0.32157941476E+03  0.50400001928E-02 0.  1.
</event>
<event>
 5   0  0.2324616E-03  0.5998927E+03  0.7818609E-02  0.9905629E-01
        2   -1    0    0  501    0  0.00000000000E+00  0.00000000000E+00  0.23287307268E+04  0.23287307268E+04  0.25500000920E-02 0. -1.
       -2   -1    0    0    0  501  0.00000000000E+00  0.00000000000E+00 -0.38633847275E+02  0.38633847359E+02  0.25500000920E-02 0.  1.
    10030    2    1    2    0    0  0.00000000000E+00  0.00000000000E+00  0.22900968796E+04  0.23673645742E+04  0.59989274824E+03 0.  0.
        4    1    3    3  502    0  0.19357790653E+03 -0.12753252358E+02  0.24228964907E+03  0.31038836687E+03  0.12699999809E+01 0.  1.
       -4    1    3    3    0  502 -0.19357790653E+03  0.12753252358E+02  0.20478072305E+04  0.20569762073E+04  0.12699999809E+01 0. -1.
</event>
<event>
 5   0  0.2324616E-03  0.6001292E+03  0.7818609E-02  0.9905138E-01
       -2   -1    0    0    0  501  0.00000000000E+00  0.00000000000E+00  0.23471555650E+03  0.23471555651E+03  0.25500000920E-02 0. -1.
        2   -1    0    0  501    0  0.00000000000E+00  0.00000000000E+00 -0.38360798815E+03  0.38360798816E+03  0.25500000920E-02 0.  1.
    10030    2    1    2    0    0  0.00000000000E+00  0.00000000000E+00 -0.14889243166E+03  0.61832354467E+03  0.60012919417E+03 0.  0.
        4    1    3    3  502    0  0.36545600120E+02 -0.92371653824E+02  0.21727928101E+03  0.23891421509E+03  0.12699999809E+01 0. -1.
       -4    1    3    3    0  502 -0.36545600120E+02  0.92371653824E+02 -0.36617171266E+03  0.37940932958E+03  0.12699999809E+01 0.  1.
</event>
<event>
 5   0  0.1392854E-03  0.6001199E+03  0.7818609E-02  0.9905157E-01
        1   -1    0    0  501    0  0.00000000000E+00  0.00000000000E+00  0.24656530913E+03  0.24656530919E+03  0.50400001928E-02 0. -1.
       -1   -1    0    0    0  501  0.00000000000E+00  0.00000000000E+00 -0.36516073464E+03  0.36516073467E+03  0.50400001928E-02 0.  1.
    10030    2    1    2    0    0  0.00000000000E+00  0.00000000000E+00 -0.11859542550E+03  0.61172604386E+03  0.60011988617E+03 0.  0.
        4    1    3    3  502    0 -0.24022179365E+03 -0.22397685445E+02 -0.24114686412E+03  0.34111814585E+03  0.12699999809E+01 0.  1.
       -4    1    3    3    0  502  0.24022179365E+03  0.22397685445E+02  0.12255143862E+03  0.27060789800E+03  0.12699999809E+01 0. -1.
</event>
<event>
 5   0  0.1479385E-03  0.5999146E+03  0.7818609E-02  0.9905583E-01
        1   -1    0    0  501    0  0.00000000000E+00  0.00000000000E+00  0.30162127223E+03  0.30162127227E+03  0.50400001928E-02 0.  1.
       -1   -1    0    0    0  501  0.00000000000E+00  0.00000000000E+00 -0.29830255479E+03  0.29830255484E+03  0.50400001928E-02 0. -1.
    10030    2    1    2    0    0  0.00000000000E+00  0.00000000000E+00  0.33187174318E+01  0.59992382711E+03  0.59991464763E+03 0.  0.
        3    1    3    3  502    0  0.45464238290E+02 -0.28316855169E+03 -0.86222360800E+02  0.29947576084E+03  0.10100000352E+00 0. -1.
       -3    1    3    3    0  502 -0.45464238290E+02  0.28316855169E+03  0.89541078232E+02  0.30044806626E+03  0.10100000352E+00 0.  1.
</event>
<event>
 5   0  0.1423430E-03  0.6000740E+03  0.7818609E-02  0.9905253E-01
       -1   -1    0    0    0  501  0.00000000000E+00  0.00000000000E+00  0.13527404251E+03  0.13527404260E+03  0.50400001928E-02 0.  1.
        1   -1    0    0  501    0  0.00000000000E+00  0.00000000000E+00 -0.66548024930E+03  0.66548024932E+03  0.50400001928E-02 0. -1.
    10030    2    1    2    0    0  0.00000000000E+00  0.00000000000E+00 -0.53020620680E+03  0.80075429192E+03  0.60007400736E+03 0.  0.
        1    1    3    3  502    0 -0.13326946724E+03 -0.49384716573E+02  0.87505151706E+02  0.16690342336E+03  0.50400001928E-02 0.  1.
       -1    1    3    3    0  502  0.13326946724E+03  0.49384716573E+02 -0.61771135850E+03  0.63385086856E+03  0.50400001928E-02 0. -1.
</event>
<event>
 5   0  0.2324616E-03  0.5999170E+03  0.7818609E-02  0.9905578E-01
        2   -1    0    0  501    0  0.00000000000E+00  0.00000000000E+00  0.10935431330E+04  0.10935431330E+04  0.25500000920E-02 0.  1.
       -2   -1    0    0    0  501  0.00000000000E+00  0.00000000000E+00 -0.82278506026E+02  0.82278506065E+02  0.25500000920E-02 0. -1.
    10030    2    1    2    0    0  0.00000000000E+00  0.00000000000E+00  0.10112646270E+04  0.11758216391E+04  0.59991697854E+03 0.  0.
        4    1    3    3  502    0  0.79466674537E+01  0.55152316797E+02 -0.72040053256E+02  0.91084080633E+02  0.12699999809E+01 0. -1.
       -4    1    3    3    0  502 -0.79466674537E+01 -0.55152316797E+02  0.10833046803E+04  0.10847375585E+04  0.12699999809E+01 0.  1.
</event>
<event>
 5   0  0.1392854E-03  0.6002558E+03  0.7818609E-02  0.9904875E-01
        1   -1    0    0  501    0  0.00000000000E+00  0.00000000000E+00  0.51184472061E+03  0.51184472063E+03  0.50400001928E-02 0. -1.
       -1   -1    0    0    0  501  0.00000000000E+00  0.00000000000E+00 -0.17598453794E+03  0.17598453801E+03  0.50400001928E-02 0.  1.
    10030    2    1    2    0    0  0.00000000000E+00  0.00000000000E+00  0.33586018267E+03  0.68782925865E+03  0.60025580109E+03 0.  0.
        4    1    3    3  502    0 -0.20527026064E+03  0.17268034883E+03  0.13677490217E+02  0.26859461911E+03  0.12699999809E+01 0.  1.
       -4    1    3    3    0  502  0.20527026064E+03 -0.17268034883E+03  0.32218269245E+03  0.41923463954E+03  0.12699999809E+01 0. -1.
</event>
<event>
 5   0  0.9496750E-04  0.5997434E+03  0.7818609E-02  0.9905938E-01
       -3   -1    0    0    0  501  0.00000000000E+00  0.00000000000E+00  0.72575613481E+03  0.72575614184E+03  0.10100000352E+00 0. -1.
        3   -1    0    0  501    0  0.00000000000E+00  0.00000000000E+00 -0.12390254125E+03  0.12390258242E+03  0.10100000352E+00 0.  1.
    10030    2    1    2    0    0  0.00000000000E+00  0.00000000000E+00  0.60185359356E+03  0.84965872426E+03  0.59974344484E+03 0.  0.
        1    1    3    3  502    0  0.53583700286E+02  0.15176760829E+03  0.65937922020E+03  0.67873822341E+03  0.50400001928E-02 0. -1.
       -1    1    3    3    0  502 -0.53583700286E+02 -0.15176760829E+03 -0.57525626649E+02  0.17092050084E+03  0.50400001928E-02 0.  1.
</event>
<event>
 5   0  0.2421210E-03  0.5998971E+03  0.7818609E-02  0.9905620E-01
        2   -1    0    0  501    0  0.00000000000E+00  0.00000000000E+00  0.13554953896E+04  0.13554953896E+04  0.25500000920E-02 0.  1.
       -2   -1    0    0    0  501  0.00000000000E+00  0.00000000000E+00 -0.66373611392E+02  0.66373611441E+02  0.25500000920E-02 0. -1.
    10030    2    1    2    0    0  0.00000000000E+00  0.00000000000E+00  0.12891217782E+04  0.14218690010E+04  0.59989707206E+03 0.  0.
        1    1    3    3  502    0  0.49912682877E+02 -0.25870313542E+03  0.30478354201E+03  0.40287913286E+03  0.50400001928E-02 0. -1.
       -1    1    3    3    0  502 -0.49912682877E+02  0.25870313542E+03  0.98433823617E+03  0.10189898682E+04  0.50400001928E-02 0.  1.
</event>
<event>
 5   0  0.1479385E-03  0.6001463E+03  0.7818609E-02  0.9905103E-01
       -1   -1    0    0    0  501  0.00000000000E+00  0.00000000000E+00  0.56322941367E+03  0.56322941369E+03  0.50400001928E-02 0. -1.
        1   -1    0    0  501    0  0.00000000000E+00  0.00000000000E+00 -0.15987071600E+03  0.15987071607E+03  0.50400001928E-02 0.  1.
    10030    2    1    2    0    0  0.00000000000E+00  0.00000000000E+00  0.40335869767E+03  0.72310012976E+03  0.60014628106E+03 0.  0.
        3    1    3    3  502    0 -0.22162861907E+01  0.67246873451E+02  0.55402353173E+03  0.55809420157E+03  0.10100000352E+00 0. -1.
       -3    1    3    3    0  502  0.22162861907E+01 -0.67246873451E+02 -0.15066483406E+03  0.16500592819E+03  0.10100000352E+00 0.  1.
</event>
<event>
 5   0  0.2346281E-03  0.5998893E+03  0.7818609E-02  0.9905636E-01
        2   -1    0    0  501    0  0.00000000000E+00  0.00000000000E+00  0.18507133535E+04  0.18507133535E+04  0.25500000920E-02 0. -1.
       -2   -1    0    0    0  501  0.00000000000E+00  0.00000000000E+00 -0.48611947071E+02  0.48611947138E+02  0.25500000920E-02 0.  1.
    10030    2    1    2    0    0  0.00000000000E+00  0.00000000000E+00  0.18021014065E+04  0.18993253007E+04  0.59988925528E+03 0.  0.
        3    1    3    3  502    0 -0.17576392319E+02  0.18632709328E+02 -0.45142718805E+02  0.51903590300E+02  0.10100000352E+00 0.  1.
       -3    1    3    3    0  502  0.17576392319E+02 -0.18632709328E+02  0.18472441253E+04  0.18474217104E+04  0.10100000352E+00 0. -1.
</event>
<event>
 5   0  0.2421210E-03  0.5995753E+03  0.7818609E-02  0.9906288E-01
       -2   -1    0    0    0  501  0.00000000000E+00  0.00000000000E+00  0.75528920754E+02  0.75528920797E+02  0.25500000920E-02 0.  1.
        2   -1    0    0  501    0  0.00000000000E+00  0.00000000000E+00 -0.11899102142E+04  0.11899102142E+04  0.25500000920E-02 0. -1.
    10030    2    1    2    0    0  0.00000000000E+00  0.00000000000E+00 -0.11143812934E+04  0.12654391350E+04  0.59957529736E+03 0.  0.
        1    1    3    3  502    0 -0.71082971089E+01 -0.21416151489E+03 -0.99968864940E+03  0.10223957542E+04  0.50400001928E-02 0. -1.
       -1    1    3    3    0  502  0.71082971089E+01  0.21416151489E+03 -0.11469264405E+03  0.24304338084E+03  0.50400001928E-02 0.  1.
</event>
<event>
 5   0  0.1418763E-03  0.5999489E+03  0.7818609E-02  0.9905512E-01
        1   -1    0    0  501    0  0.00000000000E+00  0.00000000000E+00  0.46285451904E+03  0.46285451907E+03  0.50400001928E-02 0.  1.
       -1   -1    0    0    0  501  0.00000000000E+00  0.00000000000E+00 -0.19441245757E+03  0.19441245764E+03  0.50400001928E-02 0. -1.
    10030    2    1    2    0    0  0.00000000000E+00  0.00000000000E+00  0.26844206146E+03  0.65726697670E+03  0.59994894641E+03 0.  0.
        5    1    3    3  502    0  0.15292396946E+03  0.25612147970E+03  0.16849302634E+03  0.34263091326E+03  0.46999998093E+01 0.  1.
       -5    1    3    3    0  502 -0.15292396946E+03 -0.25612147970E+03  0.99949035128E+02  0.31463606345E+03  0.46999998093E+01 0. -1.
</event>
<event>
 5   0  0.1416315E-03  0.5997629E+03  0.7818609E-02  0.9905898E-01
       -1   -1    0    0    0  501  0.00000000000E+00  0.00000000000E+00  0.88257217636E+02  0.88257217780E+02  0.50400001928E-02 0.  1.
        1   -1    0    0  501    0  0.00000000000E+00  0.00000000000E+00 -0.10189408820E+04  0.10189408820E+04  0.50400001928E-02 0. -1.
    10030    2    1    2    0    0  0.00000000000E+00  0.00000000000E+00 -0.93068366436E+03  0.11071980998E+04  0.59976291071E+03 0.  0.
        2    1    3    3  502    0  0.27060355297E+03  0.81015809621E+02 -0.27945689108E+03  0.39734871117E+03  0.25500000920E-02 0.  1.
       -2    1    3    3    0  502 -0.27060355297E+03 -0.81015809621E+02 -0.65122677328E+03  0.70984938862E+03  0.25500000920E-02 0. -1.
</event>
<event>
 5   0  0.2313168E-03  0.6001511E+03  0.7818609E-02  0.9905093E-01
        2   -1    0    0  501    0  0.00000000000E+00  0.00000000000E+00  0.29725406979E+03  0.29725406980E+03  0.25500000920E-02 0.  1.
       -2   -1    0    0    0  501  0.00000000000E+00  0.00000000000E+00 -0.30292380262E+03  0.30292380263E+03  0.25500000920E-02 0. -1.
    10030    2    1    2    0    0  0.00000000000E+00  0.00000000000E+00 -0.56697328339E+01  0.60017787243E+03  0.60015109155E+03 0.  0.
        2    1    3    3  502    0 -0.25816130393E+03  0.92402380377E+02  0.11907165780E+03  0.29893731525E+03  0.25500000920E-02 0.  1.
       -2    1    3    3    0  502  0.25816130393E+03 -0.92402380377E+02 -0.12474139064E+03  0.30124055718E+03  0.25500000920E-02 0. -1.
</event>
<event>
 5   0  0.2313168E-03  0.6005771E+03  0.7818609E-02  0.9904209E-01
       -2   -1    0    0    0  501  0.00000000000E+00  0.00000000000E+00  0.86977265371E+02  0.86977265409E+02  0.25500000920E-02 0. -1.
        2   -1    0    0  501    0  0.00000000000E+00  0.00000000000E+00 -0.10367446575E+04  0.10367446575E+04  0.25500000920E-02 0.  1.
    10030    2    1    2    0    0  0.00000000000E+00  0.00000000000E+00 -0.94976739209E+03  0.11237219229E+04  0.60057710651E+03 0.  0.
        2    1    3    3  502    0 -0.22584258238E+03 -0.10919558932E+02 -0.10514438254E+03  0.24935807581E+03  0.25500000920E-02 0. -1.
       -2    1    3    3    0  502  0.22584258238E+03  0.10919558932E+02 -0.84462300955E+03  0.87436384706E+03  0.25500000920E-02 0.  1.
</event>
<event>
 5   0  0.1423430E-03  0.5998155E+03  0.7818609E-02  0.9905789E-01
       -1   -1    0    0    0  501  0.00000000000E+00  0.00000000000E+00  0.51830209142E+03  0.51830209144E+03  0.50400001928E-02 0. -1.
        1   -1    0    0  501    0  0.00000000000E+00  0.00000000000E+00 -0.17353714547E+03  0.17353714554E+03  0.50400001928E-02 0.  1.
    10030    2    1    2    0    0  0.00000000000E+00  0.00000000000E+00  0.34476494595E+03  0.69183923698E+03  0.59981552320E+03 0.  0.
        1    1    3    3  502    0 -0.45805849571E+02  0.55707847054E+02  0.50815079964E+03  0.51324338795E+03  0.50400001928E-02 0. -1.
       -1    1    3    3    0  502  0.45805849571E+02 -0.55707847054E+02 -0.16338585369E+03  0.17859584903E+03  0.50400001928E-02 0.  1.
</event>
<event>
 5   0  0.1416315E-03  0.5999064E+03  0.7818609E-02  0.9905600E-01
       -1   -1    0    0    0  501  0.00000000000E+00  0.00000000000E+00  0.84303026966E+03  0.84303026967E+03  0.50400001928E-02 0. -1.
        1   -1    0    0  501    0  0.00000000000E+00  0.00000000000E+00 -0.10672441932E+03  0.10672441944E+03  0.50400001928E-02 0.  1.
    10030    2    1    2    0    0  0.00000000000E+00  0.00000000000E+00  0.73630585033E+03  0.94975468912E+03  0.59990637958E+03 0.  0.
        2    1    3    3  502    0 -0.14199280087E+03  0.11189650508E+03 -0.10781524691E+02  0.18110500995E+03  0.25500000920E-02 0.  1.
       -2    1    3    3    0  502  0.14199280087E+03 -0.11189650508E+03  0.74708737503E+03  0.76864967916E+03  0.25500000920E-02 0. -1.
</event>
<event>
 5   0  0.2421210E-03  0.6000343E+03  0.7818609E-02  0.9905335E-01
        2   -1    0    0  501    0  0.00000000000E+00  0.00000000000E+00  0.18394101800E+04  0.18394101800E+04  0.25500000920E-02 0.  1.
       -2   -1    0    0    0  501  0.00000000000E+00  0.00000000000E+00 -0.48934324269E+02  0.48934324336E+02  0.25500000920E-02 0. -1.
    10030    2    1    2    0    0  0.00000000000E+00  0.00000000000E+00  0.17904758558E+04  0.18883445044E+04  0.60003431328E+03 0.  0.
        1    1    3    3  502    0  0.23647078957E+03  0.14889710257E+03  0.12388519092E+04  0.12699774937E+04  0.50400001928E-02 0.  1.
       -1    1    3    3    0  502 -0.23647078957E+03 -0.14889710257E+03  0.55162394654E+03  0.61836701068E+03  0.50400001928E-02 0. -1.
</event>
<event>
 5   0  0.1392854E-03  0.5992873E+03  0.7818609E-02  0.9906886E-01
       -1   -1    0    0    0  501  0.00000000000E+00  0.00000000000E+00  0.15249666343E+03  0.15249666351E+03  0.50400001928E-02 0. -1.
        1   -1    0    0  501    0  0.00000000000E+00  0.00000000000E+00 -0.58877562511E+03  0.58877562513E+03  0.50400001928E-02 0.  1.
    10030    2    1    2    0    0  0.00000000000E+00  0.00000000000E+00 -0.43627896168E+03  0.74127228864E+03  0.59928730464E+03 0.  0.
        4    1    3    3  502    0  0.14366102748E+03  0.25357350493E+03 -0.13202713710E+03  0.31995435777E+03  0.12699999809E+01 0. -1.
       -4    1    3    3    0  502 -0.14366102748E+03 -0.25357350493E+03 -0.30425182457E+03  0.42131793087E+03  0.12699999809E+01 0.  1.
</event>
<event>
 5   0  0.2421210E-03  0.5999466E+03  0.7818609E-02  0.9905517E-01
        2   -1    0    0  501    0  0.00000000000E+00  0.00000000000E+00  0.98413486679E+03  0.98413486680E+03  0.25500000920E-02 0.  1.
       -2   -1    0    0    0  501  0.00000000000E+00  0.00000000000E+00 -0.91434596525E+02  0.91434596561E+02  0.25500000920E-02 0. -1.
    10030    2    1    2    0    0  0.00000000000E+00  0.00000000000E+00  0.89270027027E+03  0.10755694634E+04  0.59994657926E+03 0.  0.
        1    1    3    3  502    0 -0.48014299987E+02 -0.38322166692E+02  0.97273662893E+03  0.97467456658E+03  0.50400001928E-02 0.  1.
       -1    1    3    3    0  502  0.48014299987E+02  0.38322166692E+02 -0.80036358656E+02  0.10089489678E+03  0.50400001928E-02 0. -1.
</event>
<event>
 5   0  0.1423430E-03  0.5997676E+03  0.7818609E-02  0.9905888E-01
       -1   -1    0    0    0  501  0.00000000000E+00  0.00000000000E+00  0.77090974279E+02  0.77090974444E+02  0.50400001928E-02 0. -1.
        1   -1    0    0  501    0  0.00000000000E+00  0.00000000000E+00 -0.11665477710E+04  0.11665477710E+04  0.50400001928E-02 0.  1.
    10030    2    1    2    0    0  0.00000000000E+00  0.00000000000E+00 -0.10894567967E+04  0.12436387454E+04  0.59976763606E+03 0.  0.
        1    1    3    3  502    0  0.20138615017E+03 -0.13502117664E+02 -0.10046213569E+04  0.10246964230E+04  0.50400001928E-02 0.  1.
       -1    1    3    3    0  502 -0.20138615017E+03  0.13502117664E+02 -0.84835439824E+02  0.21894232240E+03  0.50400001928E-02 0. -1.
</event>
<event>
 5   0  0.2324616E-03  0.6001569E+03  0.7818609E-02  0.9905081E-01
       -2   -1    0    0    0  501  0.00000000000E+00  0.00000000000E+00  0.96815381698E+02  0.96815381731E+02  0.25500000920E-02 0.  1.
        2   -1    0    0  501    0  0.00000000000E+00  0.00000000000E+00 -0.93009051646E+03  0.93009051646E+03  0.25500000920E-02 0. -1.
    10030    2    1    2    0    0  0.00000000000E+00  0.00000000000E+00 -0.83327513476E+03  0.10269058982E+04  0.60015687410E+03 0.  0.
        4    1    3    3  502    0 -0.87723864285E+02  0.24715159925E+03 -0.66615991239E+03  0.71592599558E+03  0.12699999809E+01 0.  1.
       -4    1    3    3    0  502  0.87723864285E+02 -0.24715159925E+03 -0.16711522237E+03  0.31097990261E+03  0.12699999809E+01 0. -1.
</event>
<event>
 5   0  0.1418763E-03  0.6001021E+03  0.7818609E-02  0.9905194E-01
        1   -1    0    0  501    0  0.00000000000E+00  0.00000000000E+00  0.63020139777E+03  0.63020139779E+03  0.50400001928E-02 0.  1.
       -1   -1    0    0    0  501  0.00000000000E+00  0.00000000000E+00 -0.14286011489E+03  0.14286011498E+03  0.50400001928E-02 0. -1.
    10030    2    1    2    0    0  0.00000000000E+00  0.00000000000E+00  0.48734128288E+03  0.77306151277E+03  0.60010213841E+03 0.  0.
        5    1    3    3  502    0  0.25856344948E+03  0.65817104622E+02  0.66937820039E+02  0.27511763015E+03  0.46999998093E+01 0. -1.
       -5    1    3    3    0  502 -0.25856344948E+03 -0.65817104622E+02  0.42040346284E+03  0.49794388262E+03  0.46999998093E+01 0.  1.
</event>
<event>
 5   0  0.2346281E-03  0.5999264E+03  0.7818609E-02  0.9905559E-01
       -2   -1    0    0    0  501  0.00000000000E+00  0.00000000000E+00  0.10273860594E+03  0.10273860597E+03  0.25500000920E-02 0. -1.
        2   -1    0    0  501    0  0.00000000000E+00  0.00000000000E+00 -0.87579464107E+03  0.87579464107E+03  0.25500000920E-02 0.  1.
    10030    2    1    2    0    0  0.00000000000E+00  0.00000000000E+00 -0.77305603513E+03  0.97853324704E+03  0.59992639724E+03 0.  0.
        3    1    3    3  502    0 -0.69851222769E+02 -0.18210475692E+03 -0.14809440962E+02  0.19560333729E+03  0.10100000352E+00 0. -1.
       -3    1    3    3    0  502  0.69851222769E+02  0.18210475692E+03 -0.75824659417E+03  0.78292990975E+03  0.10100000352E+00 0.  1.
</event>
<event>
 5   0  0.2313168E-03  0.6004084E+03  0.7818609E-02  0.9904559E-01
       -2   -1    0    0    0  501  0.00000000000E+00  0.00000000000E+00  0.42952117944E+02  0.42952118019E+02  0.25500000920E-02 0.  1.
        2   -1    0    0  501    0  0.00000000000E+00  0.00000000000E+00 -0.20982098532E+04  0.20982098532E+04  0.25500000920E-02 0. -1.
    10030    2    1    2    0    0  0.00000000000E+00  0.00000000000E+00 -0.20552577353E+04  0.21411619713E+04  0.60040838492E+03 0.  0.
        2    1    3    3  502    0  0.19846339539E+03 -0.47284971165E+02 -0.24226841651E+03  0.31672949571E+03  0.25500000920E-02 0.  1.
       -2    1    3    3    0  502 -0.19846339539E+03  0.47284971165E+02 -0.18129893188E+04  0.18244324756E+04  0.25500000920E-02 0. -1.
</event>
<event>
 5   0  0.2421210E-03  0.6008547E+03  0.7818609E-02  0.9903634E-01
        2   -1    0    0  501    0  0.00000000000E+00  0.00000000000E+00  0.13360505328E+03  0.13360505331E+03  0.25500000920E-02 0.  1.
       -2   -1    0    0    0  501  0.00000000000E+00  0.00000000000E+00 -0.67554776820E+03  0.67554776821E+03  0.25500000920E-02 0. -1.
    10030    2    1    2    0    0  0.00000000000E+00  0.00000000000E+00 -0.54194271492E+03  0.80915282151E+03  0.60085470982E+03 0.  0.
        1    1    3    3  502    0 -0.18334434393E+03  0.21953113151E+03 -0.39474436362E+03  0.48747531095E+03  0.50400001928E-02 0. -1.
       -1    1    3    3    0  502  0.18334434393E+03 -0.21953113151E+03 -0.14719835129E+03  0.32167751056E+03  0.50400001928E-02 0.  1.
</event>
<event>
 5   0  0.1416315E-03  0.5996595E+03  0.7818609E-02  0.9906113E-01
        1   -1    0    0  501    0  0.00000000000E+00  0.00000000000E+00  0.44908469558E+03  0.44908469561E+03  0.50400001928E-02 0.  1.
       -1   -1    0    0    0  501  0.00000000000E+00  0.00000000000E+00 -0.20018025232E+03  0.20018025238E+03  0.50400001928E-02 0. -1.
    10030    2    1    2    0    0  0.00000000000E+00  0.00000000000E+00  0.24890444326E+03  0.64926494799E+03  0.59965952908E+03 0.  0.
        2    1    3    3  502    0 -0.23492203565E+03  0.41438698453E+01 -0.77214434602E+02  0.24732085114E+03  0.25500000920E-02 0. -1.
       -2    1    3    3    0  502  0.23492203565E+03 -0.41438698453E+01  0.32611887786E+03  0.40194409685E+03  0.25500000920E-02 0.  1.
</event>
<event>
 5   0  0.2313168E-03  0.5999199E+03  0.7818609E-02  0.9905572E-01
       -2   -1    0    0    0  501  0.00000000000E+00  0.00000000000E+00  0.81219874053E+02  0.81219874093E+02  0.25500000920E-02 0. -1.
        2   -1    0    0  501    0  0.00000000000E+00  0.00000000000E+00 -0.11078074927E+04  0.11078074927E+04  0.25500000920E-02 0.  1.
    10030    2    1    2    0    0  0.00000000000E+00  0.00000000000E+00 -0.10265876186E+04  0.11890273668E+04  0.59991994484E+03 0.  0.
        2    1    3    3  502    0  0.22349072971E+03  0.45702015720E+02 -0.89934301241E+03  0.92782252316E+03  0.25500000920E-02 0.  1.
       -2    1    3    3    0  502 -0.22349072971E+03 -0.45702015720E+02 -0.12724460620E+03  0.26120484360E+03  0.25500000920E-02 0. -1.
</event>
<event>
 5   0  0.1479385E-03  0.5997146E+03  0.7818609E-02  0.9905998E-01
        1   -1    0    0  501    0  0.00000000000E+00  0.00000000000E+00  0.75815596118E+03  0.75815596120E+03  0.50400001928E-02 0. -1.
       -1   -1    0    0    0  501  0.00000000000E+00  0.00000000000E+00 -0.11859619334E+03  0.11859619345E+03  0.50400001928E-02 0.  1.
    10030    2    1    2    0    0  0.00000000000E+00  0.00000000000E+00  0.63955976784E+03  0.87675215465E+03  0.59971463551E+03 0.  0.
        3    1    3    3  502    0 -0.53172465505E+02  0.80286662200E+02  0.73493512779E+03  0.74121718240E+03  0.10100000352E+00 0. -1.
       -3    1    3    3    0  502  0.53172465505E+02 -0.80286662200E+02 -0.95375359956E+02  0.13553497225E+03  0.10100000352E+00 0.  1.
</event>
<event>
 5   0  0.1416315E-03  0.6000465E+03  0.7818609E-02  0.9905310E-01
        1   -1    0    0  501    0  0.00000000000E+00  0.00000000000E+00  0.19634132089E+03  0.19634132095E+03  0.50400001928E-02 0. -1.
       -1   -1    0    0    0  501  0.00000000000E+00  0.00000000000E+00 -0.45845649470E+03  0.45845649473E+03  0.50400001928E-02 0.  1.
    10030    2    1    2    0    0  0.00000000000E+00  0.00000000000E+00 -0.26211517382E+03  0.65479781568E+03  0.60004651076E+03 0.  0.
        2    1    3    3  502    0  0.26424779109E+03  0.59163641752E+02 -0.27202146030E+03  0.38382666201E+03  0.25500000920E-02 0.  1.
       -2    1    3    3    0  502 -0.26424779109E+03 -0.59163641752E+02  0.99062864790E+01  0.27097115367E+03  0.25500000920E-02 0. -1.
</event>
<event>
 5   0  0.1416315E-03  0.6001881E+03  0.7818609E-02  0.9905016E-01
       -1   -1    0    0    0  501  0.00000000000E+00  0.00000000000E+00  0.15022010476E+03  0.15022010485E+03  0.50400001928E-02 0. -1.
        1   -1    0    0  501    0  0.00000000000E+00  0.00000000000E+00 -0.59949648800E+03  0.59949648803E+03  0.50400001928E-02 0.  1.
    10030    2    1    2    0    0  0.00000000000E+00  0.00000000000E+00 -0.44927638324E+03  0.74971659287E+03  0.60018805477E+03 0.  0.
        2    1    3    3  502    0 -0.68007350863E+02 -0.31174342072E+02  0.13838489834E+03  0.15731248987E+03  0.25500000920E-02 0. -1.
       -2    1    3    3    0  502  0.68007350863E+02  0.31174342072E+02 -0.58766128158E+03  0.59240410300E+03  0.25500000920E-02 0.  1.
</event>
<event>
 5   0  0.1418763E-03  0.5999744E+03  0.7818609E-02  0.9905459E-01
        1   -1    0    0  501    0  0.00000000000E+00  0.00000000000E+00  0.10289407040E+04  0.10289407040E+04  0.50400001928E-02 0.  1.
       -1   -1    0    0    0  501  0.00000000000E+00  0.00000000000E+00 -0.87461138358E+02  0.87461138504E+02  0.50400001928E-02 0. -1.
    10030    2    1    2    0    0  0.00000000000E+00  0.00000000000E+00  0.94147956568E+03  0.11164018426E+04  0.59997441734E+03 0.  0.
        5    1    3    3  502    0 -0.16930856074E+03 -0.13840645154E+03  0.88726135939E+02  0.23604269056E+03  0.46999998093E+01 0. -1.
       -5    1    3    3    0  502  0.16930856074E+03  0.13840645154E+03  0.85275342974E+03  0.88035915199E+03  0.46999998093E+01 0.  1.
</event>
<event>
 5   0  0.2421210E-03  0.6001137E+03  0.7818609E-02  0.9905170E-01
       -2   -1    0    0    0  501  0.00000000000E+00  0.00000000000E+00  0.63386570988E+02  0.63386571040E+02  0.25500000920E-02 0.  1.
        2   -1    0    0  501    0  0.00000000000E+00  0.00000000000E+00 -0.14203974337E+04  0.14203974337E+04  0.25500000920E-02 0. -1.
    10030    2    1    2    0    0  0.00000000000E+00  0.00000000000E+00 -0.13570108627E+04  0.14837840047E+04  0.60011373189E+03 0.  0.
        1    1    3    3  502    0 -0.20560035292E+03  0.18932502549E+03 -0.94843514698E+03  0.98875917111E+03  0.50400001928E-02 0. -1.
       -1    1    3    3    0  502  0.20560035292E+03 -0.18932502549E+03 -0.40857571572E+03  0.49502483362E+03  0.50400001928E-02 0.  1.
</event>
<event>
 5   0  0.2324616E-03  0.6019144E+03  0.7818609E-02  0.9901442E-01
        2   -1    0    0  501    0  0.00000000000E+00  0.00000000000E+00  0.10497864318E+04  0.10497864318E+04  0.25500000920E-02 0.  1.
       -2   -1    0    0    0  501  0.00000000000E+00  0.00000000000E+00 -0.86279689070E+02  0.86279689108E+02  0.25500000920E-02 0. -1.
    10030    2    1    2    0    0  0.00000000000E+00  0.00000000000E+00  0.96350674274E+03  0.11360661209E+04  0.60191443561E+03 0.  0.
        4    1    3    3  502    0 -0.16928754940E+03 -0.24590240027E+03  0.55355900426E+03  0.62893199071E+03  0.12699999809E+01 0.  1.
       -4    1    3    3    0  502  0.16928754940E+03  0.24590240027E+03  0.40994773848E+03  0.50713413021E+03  0.12699999809E+01 0. -1.
</event>
<event>
 5   0  0.2346281E-03  0.5998451E+03  0.7818609E-02  0.9905728E-01
       -2   -1    0    0    0  501  0.00000000000E+00  0.00000000000E+00  0.68325872050E+02  0.68325872098E+02  0.25500000920E-02 0. -1.
        2   -1    0    0  501    0  0.00000000000E+00  0.00000000000E+00 -0.13165367568E+04  0.13165367568E+04  0.25500000920E-02 0.  1.
    10030    2    1    2    0    0  0.00000000000E+00  0.00000000000E+00 -0.12482108848E+04  0.13848626289E+04  0.59984505342E+03 0.  0.
        3    1    3    3  502    0 -0.22618010993E+03 -0.96276745513E+02 -0.22739262572E+03  0.33486425650E+03  0.10100000352E+00 0. -1.
       -3    1    3    3    0  502  0.22618010993E+03  0.96276745513E+02 -0.10208182590E+04  0.10499983724E+04  0.10100000352E+00 0.  1.
</event>
<event>
 5   0  0.1416315E-03  0.5996361E+03  0.7818609E-02  0.9906161E-01
        1   -1    0    0  501    0  0.00000000000E+00  0.00000000000E+00  0.11183351490E+04  0.11183351490E+04  0.50400001928E-02 0.  1.
       -1   -1    0    0    0  501  0.00000000000E+00  0.00000000000E+00 -0.80379179771E+02  0.80379179929E+02  0.50400001928E-02 0. -1.
    10030    2    1    2    0    0  0.00000000000E+00  0.00000000000E+00  0.10379559693E+04  0.11987143290E+04  0.59963609661E+03 0.  0.
        2    1    3    3  502    0 -0.48387582311E+02 -0.14908377271E+03  0.10299095802E+04  0.10417682434E+04  0.25500000920E-02 0.  1.
       -2    1    3    3    0  502  0.48387582311E+02  0.14908377271E+03  0.80463890317E+01  0.15694608562E+03  0.25500000920E-02 0. -1.
</event>
<event>
 5   0  0.9496750E-04  0.6000438E+03  0.7818609E-02  0.9905315E-01
        4   -1    0    0  501    0  0.00000000000E+00  0.00000000000E+00  0.34028121998E+03  0.34028358992E+03  0.12699999809E+01 0. -1.
       -4   -1    0    0    0  501  0.00000000000E+00  0.00000000000E+00 -0.26452089120E+03  0.26452393990E+03  0.12699999809E+01 0.  1.
    10030    2    1    2    0    0  0.00000000000E+00  0.00000000000E+00  0.75760328784E+02  0.60480752982E+03  0.60004376566E+03 0.  0.
        4    1    3    3  502    0 -0.23274520713E+03 -0.82995083156E+00  0.22869901405E+03  0.32630640844E+03  0.12699999809E+01 0. -1.
       -4    1    3    3    0  502  0.23274520713E+03  0.82995083156E+00 -0.15293868527E+03  0.27850112138E+03  0.12699999809E+01 0.  1.
</event>
<event>
 5   0  0.1418763E-03  0.5995608E+03  0.7818609E-02  0.9906318E-01
       -1   -1    0    0    0  501  0.00000000000E+00  0.00000000000E+00  0.16258568920E+03  0.16258568928E+03  0.50400001928E-02 0. -1.
        1   -1    0    0  501    0  0.00000000000E+00  0.00000000000E+00 -0.55274406221E+03  0.55274406223E+03  0.50400001928E-02 0.  1.
    10030    2    1    2    0    0  0.00000000000E+00  0.00000000000E+00 -0.39015837301E+03  0.71532975151E+03  0.59956075369E+03 0.  0.
        5    1    3    3  502    0 -0.61064355155E+01  0.21216581177E+03  0.57434980578E+02  0.21993746209E+03  0.46999998093E+01 0. -1.
       -5    1    3    3    0  502  0.61064355155E+01 -0.21216581177E+03 -0.44759335359E+03  0.49539228942E+03  0.46999998093E+01 0.  1.
</event>
<event>
 5   0  0.1418763E-03  0.6030570E+03  0.7818609E-02  0.9899084E-01
        1   -1    0    0  501    0  0.00000000000E+00  0.00000000000E+00  0.23673977969E+03  0.23673977974E+03  0.50400001928E-02 0. -1.
       -1   -1    0    0    0  501  0.00000000000E+00  0.00000000000E+00 -0.38404805117E+03  0.38404805121E+03  0.50400001928E-02 0.  1.
    10030    2    1    2    0    0  0.00000000000E+00  0.00000000000E+00 -0.14730827148E+03  0.62078783095E+03  0.60305704888E+03 0.  0.
        5    1    3    3  502    0  0.14840341482E+03 -0.24710350592E+03 -0.16464790007E+03  0.33198604965E+03  0.46999998093E+01 0.  1.
       -5    1    3    3    0  502 -0.14840341482E+03  0.24710350592E+03  0.17339628587E+02  0.28880178130E+03  0.46999998093E+01 0. -1.
</event>
<event>
 5   0  0.1392854E-03  0.6005288E+03  0.7818609E-02  0.9904310E-01
        1   -1    0    0  501    0  0.00000000000E+00  0.00000000000E+00  0.24861743206E+03  0.24861743211E+03  0.50400001928E-02 0.  1.
       -1   -1    0    0    0  501  0.00000000000E+00  0.00000000000E+00 -0.36264030605E+03  0.36264030609E+03  0.50400001928E-02 0. -1.
    10030    2    1    2    0    0  0.00000000000E+00  0.00000000000E+00 -0.11402287399E+03  0.61125773819E+03  0.60052877259E+03 0.  0.
        4    1    3    3  502    0 -0.87133530203E+01  0.24481522754E+03 -0.23374141681E+03  0.33859574863E+03  0.12699999809E+01 0. -1.
       -4    1    3    3    0  502  0.87133530203E+01 -0.24481522754E+03  0.11971854282E+03  0.27266198956E+03  0.12699999809E+01 0.  1.
</event>
<event>
 5   0  0.1423430E-03  0.6000206E+03  0.7818609E-02  0.9905363E-01
       -1   -1    0    0    0  501  0.00000000000E+00  0.00000000000E+00  0.19104379651E+03  0.19104379658E+03  0.50400001928E-02 0.  1.
        1   -1    0    0  501    0  0.00000000000E+00  0.00000000000E+00 -0.47112850715E+03  0.47112850718E+03  0.50400001928E-02 0. -1.
    10030    2    1    2    0    0  0.00000000000E+00  0.00000000000E+00 -0.28008471064E+03  0.66217230375E+03  0.60002059525E+03 0.  0.
        1    1    3    3  502    0  0.24486277789E+03  0.16702268933E+03 -0.88849681327E+02  0.30943274656E+03  0.50400001928E-02 0.  1.
       -1    1    3    3    0  502 -0.24486277789E+03 -0.16702268933E+03 -0.19123502932E+03  0.35273955719E+03  0.50400001928E-02 0. -1.
</event>
<event>
 5   0  0.2324616E-03  0.5999257E+03  0.7818609E-02  0.9905560E-01
        2   -1    0    0  501    0  0.00000000000E+00  0.00000000000E+00  0.90963508821E+03  0.90963508821E+03  0.25500000920E-02 0. -1.
       -2   -1    0    0    0  501  0.00000000000E+00  0.00000000000E+00 -0.98916262766E+02  0.98916262799E+02  0.25500000920E-02 0.  1.
    10030    2    1    2    0    0  0.00000000000E+00  0.00000000000E+00  0.81071882544E+03  0.10085513510E+04  0.59992567348E+03 0.  0.
        4    1    3    3  502    0  0.44832057423E+00 -0.93365872041E+02 -0.73861224254E+02  0.11905662687E+03  0.12699999809E+01 0.  1.
       -4    1    3    3    0  502 -0.44832057423E+00  0.93365872041E+02  0.88458004970E+03  0.88949472414E+03  0.12699999809E+01 0. -1.
</event>
<event>
 5   0  0.2406307E-03  0.5998307E+03  0.7818609E-02  0.9905757E-01
       -2   -1    0    0    0  501  0.00000000000E+00  0.00000000000E+00  0.14075402210E+03  0.14075402212E+03  0.25500000920E-02 0. -1.
        2   -1    0    0  501    0  0.00000000000E+00  0.00000000000E+00 -0.63905250328E+03  0.63905250329E+03  0.25500000920E-02 0.  1.
    10030    2    1    2    0    0  0.00000000000E+00  0.00000000000E+00 -0.49829848119E+03  0.77980652541E+03  0.59983067670E+03 0.  0.
        5    1    3    3  502    0  0.26360001629E+03 -0.69629357709E+02 -0.86805472385E+02  0.28616515525E+03  0.46999998093E+01 0. -1.
       -5    1    3    3    0  502 -0.26360001629E+03  0.69629357709E+02 -0.41149300880E+03  0.49364137016E+03  0.46999998093E+01 0.  1.
</event>
<event>
 5   0  0.1418763E-03  0.5998301E+03  0.7818609E-02  0.9905759E-01
       -1   -1    0    0    0  501  0.00000000000E+00  0.00000000000E+00  0.47045827543E+02  0.47045827813E+02  0.50400001928E-02 0. -1.
        1   -1    0    0  501    0  0.00000000000E+00  0.00000000000E+00 -0.19119451181E+04  0.19119451181E+04  0.50400001928E-02 0.  1.
    10030    2    1    2    0    0  0.00000000000E+00  0.00000000000E+00 -0.18648992905E+04  0.19589909459E+04  0.59983011117E+03 0.  0.
        5    1    3    3  502    0 -0.10141701755E+03  0.21552400478E+03 -0.33745376625E+03  0.41307764699E+03  0.46999998093E+01 0. -1.
       -5    1    3    3    0  502  0.10141701755E+03 -0.21552400478E+03 -0.15274455243E+04  0.15459132989E+04  0.46999998093E+01 0.  1.
</event>
<event>
 5   0  0.2421210E-03  0.6000143E+03  0.7818609E-02  0.9905376E-01
       -2   -1    0    0    0  501  0.00000000000E+00  0.00000000000E+00  0.31034342399E+03  0.31034342400E+03  0.25500000920E-02 0.  1.
        2   -1    0    0  501    0  0.00000000000E+00  0.00000000000E+00 -0.29001517295E+03  0.29001517296E+03  0.25500000920E-02 0. -1.
    10030    2    1    2    0    0  0.00000000000E+00  0.00000000000E+00  0.20328251036E+02  0.60035859696E+03  0.60001433912E+03 0.  0.
        1    1    3    3  502    0 -0.20903096887E+03 -0.19283593764E+03 -0.85413751142E+02  0.29694301423E+03  0.50400001928E-02 0. -1.
       -1    1    3    3    0  502  0.20903096887E+03  0.19283593764E+03  0.10574200218E+03  0.30341558273E+03  0.50400001928E-02 0.  1.
</event>
<event>
 5   0  0.2313168E-03  0.6005642E+03  0.7818609E-02  0.9904236E-01
       -2   -1    0    0    0  501  0.00000000000E+00  0.00000000000E+00  0.10124459584E+03  0.10124459587E+03  0.25500000920E-02 0.  1.
        2   -1    0    0  501    0  0.00000000000E+00  0.00000000000E+00 -0.89060883805E+03  0.89060883805E+03  0.25500000920E-02 0. -1.
    10030    2    1    2    0    0  0.00000000000E+00  0.00000000000E+00 -0.78936424220E+03  0.99185343392E+03  0.60056417435E+03 0.  0.
        2    1    3    3  502    0 -0.42345599156E+02 -0.23980671061E+03 -0.68484965787E+03  0.72685587437E+03  0.25500000920E-02 0. -1.
       -2    1    3    3    0  502  0.42345599156E+02  0.23980671061E+03 -0.10451458434E+03  0.26499755955E+03  0.25500000920E-02 0.  1.
</event>
<event>
 5   0  0.2313168E-03  0.5995941E+03  0.7818609E-02  0.9906249E-01
        2   -1    0    0  501    0  0.00000000000E+00  0.00000000000E+00  0.10778639614E+04  0.10778639614E+04  0.25500000920E-02 0.  1.
       -2   -1    0    0    0  501  0.00000000000E+00  0.00000000000E+00 -0.83385532451E+02  0.83385532490E+02  0.25500000920E-02 0. -1.
    10030    2    1    2    0    0  0.00000000000E+00  0.00000000000E+00  0.99447842896E+03  0.11612494939E+04  0.59959406387E+03 0.  0.
        2    1    3    3  502    0 -0.77017355138E+02 -0.17374533103E+03  0.48189526526E+02  0.19606464118E+03  0.25500000920E-02 0. -1.
       -2    1    3    3    0  502  0.77017355138E+02  0.17374533103E+03  0.94628890243E+03  0.96518485272E+03  0.25500000920E-02 0.  1.
</event>
<event>
 5   0  0.1392854E-03  0.6000561E+03  0.7818609E-02  0.9905290E-01
        1   -1    0    0  501    0  0.00000000000E+00  0.00000000000E+00  0.64763108911E+03  0.64763108913E+03  0.50400001928E-02 0. -1.
       -1   -1    0    0    0  501  0.00000000000E+00  0.00000000000E+00 -0.13899397418E+03  0.13899397427E+03  0.50400001928E-02 0.  1.
    10030    2    1    2    0    0  0.00000000000E+00  0.00000000000E+00  0.50863711493E+03  0.78662506340E+03  0.60005606045E+03 0.  0.
        4    1    3    3  502    0  0.18553334294E+03 -0.99852376034E+01  0.56313085361E+03  0.59299266227E+03  0.12699999809E+01 0. -1.
       -4    1    3    3    0  502 -0.18553334294E+03  0.99852376034E+01 -0.54493738687E+02  0.19363240113E+03  0.12699999809E+01 0.  1.
</event>
<event>
 5   0  0.1423430E-03  0.5999974E+03  0.7818609E-02  0.9905411E-01
        1   -1    0    0  501    0  0.00000000000E+00  0.00000000000E+00  0.36923590831E+03  0.36923590835E+03  0.50400001928E-02 0.  1.
       -1   -1    0    0    0  501  0.00000000000E+00  0.00000000000E+00 -0.24374453231E+03  0.24374453236E+03  0.50400001928E-02 0. -1.
    10030    2    1    2    0    0  0.00000000000E+00  0.00000000000E+00  0.12549137601E+03  0.61298044071E+03  0.59999744603E+03 0.  0.
        1    1    3    3  502    0 -0.49456418113E+02  0.15424463694E+03 -0.19522941881E+03  0.25367670628E+03  0.50400001928E-02 0. -1.
       -1    1    3    3    0  502  0.49456418113E+02 -0.15424463694E+03  0.32072079482E+03  0.35930373442E+03  0.50400001928E-02 0.  1.
</event>
<event>
 5   0  0.2406307E-03  0.5999012E+03  0.7818609E-02  0.9905611E-01
       -2   -1    0    0    0  501  0.00000000000E+00  0.00000000000E+00  0.17181754482E+03  0.17181754484E+03  0.25500000920E-02 0. -1.
        2   -1    0    0  501    0  0.00000000000E+00  0.00000000000E+00 -0.52363895478E+03  0.52363895478E+03  0.25500000920E-02 0.  1.
    10030    2    1    2    0    0  0.00000000000E+00  0.00000000000E+00 -0.35182140995E+03  0.69545649962E+03  0.59990119050E+03 0.  0.
        5    1    3    3  502    0  0.28271343757E+03  0.98958839583E+02 -0.19343585488E+03  0.35659397031E+03  0.46999998093E+01 0.  1.
       -5    1    3    3    0  502 -0.28271343757E+03 -0.98958839583E+02 -0.15838555508E+03  0.33886252931E+03  0.46999998093E+01 0. -1.
</event>
<event>
 5   0  0.1418763E-03  0.6009313E+03  0.7818609E-02  0.9903476E-01
       -1   -1    0    0    0  501  0.00000000000E+00  0.00000000000E+00  0.30198169364E+03  0.30198169368E+03  0.50400001928E-02 0.  1.
        1   -1    0    0  501    0  0.00000000000E+00  0.00000000000E+00 -0.29895724158E+03  0.29895724162E+03  0.50400001928E-02 0. -1.
    10030    2    1    2    0    0  0.00000000000E+00  0.00000000000E+00  0.30244520607E+01  0.60093893531E+03  0.60093132441E+03 0.  0.
        5    1    3    3  502    0  0.22983015370E+03 -0.22233576915E+01  0.19498478077E+03  0.30144319133E+03  0.46999998093E+01 0.  1.
       -5    1    3    3    0  502 -0.22983015370E+03  0.22233576915E+01 -0.19196032871E+03  0.29949574398E+03  0.46999998093E+01 0. -1.
</event>
<event>
 5   0  0.2313168E-03  0.6002049E+03  0.7818609E-02  0.9904981E-01
       -2   -1    0    0    0  501  0.00000000000E+00  0.00000000000E+00  0.66920369339E+02  0.66920369387E+02  0.25500000920E-02 0. -1.
        2   -1    0    0  501    0  0.00000000000E+00  0.00000000000E+00 -0.13458008936E+04  0.13458008936E+04  0.25500000920E-02 0.  1.
    10030    2    1    2    0    0  0.00000000000E+00  0.00000000000E+00 -0.12788805242E+04  0.14127212630E+04  0.60020494130E+03 0.  0.
        2    1    3    3  502    0  0.19251928153E+03 -0.90123001870E+02 -0.11380518386E+04  0.11577339144E+04  0.25500000920E-02 0.  1.
       -2    1    3    3    0  502 -0.19251928153E+03  0.90123001870E+02 -0.14082868567E+03  0.25498734859E+03  0.25500000920E-02 0. -1.
</event>
<event>
 5   0  0.2324616E-03  0.6010568E+03  0.7818609E-02  0.9903216E-01
       -2   -1    0    0    0  501  0.00000000000E+00  0.00000000000E+00  0.14567843466E+03  0.14567843469E+03  0.25500000920E-02 0.  1.
        2   -1    0    0  501    0  0.00000000000E+00  0.00000000000E+00 -0.61997728319E+03  0.61997728320E+03  0.25500000920E-02 0. -1.
    10030    2    1    2    0    0  0.00000000000E+00  0.00000000000E+00 -0.47429884853E+03  0.76565571788E+03  0.60105680315E+03 0.  0.
        4    1    3    3  502    0 -0.79458494672E+02  0.26272018688E+03 -0.39306022936E+03  0.47940953867E+03  0.12699999809E+01 0. -1.
       -4    1    3    3    0  502  0.79458494672E+02 -0.26272018688E+03 -0.81238619169E+02  0.28624617921E+03  0.12699999809E+01 0.  1.
</event>
<event>
 5   0  0.1392854E-03  0.6002026E+03  0.7818609E-02  0.9904986E-01
       -1   -1    0    0    0  501  0.00000000000E+00  0.00000000000E+00  0.76163706731E+02  0.76163706898E+02  0.50400001928E-02 0.  1.
        1   -1    0    0  501    0  0.00000000000E+00  0.00000000000E+00 -0.11824634328E+04  0.11824634328E+04  0.50400001928E-02 0. -1.
    10030    2    1    2    0    0  0.00000000000E+00  0.00000000000E+00 -0.11062997260E+04  0.12586271397E+04  0.60020262654E+03 0.  0.
        4    1    3    3  502    0  0.13059154043E+03 -0.23055659756E+03 -0.84858702816E+03  0.88899496757E+03  0.12699999809E+01 0.  1.
       -4    1    3    3    0  502 -0.13059154043E+03  0.23055659756E+03 -0.25771269788E+03  0.36963217211E+03  0.12699999809E+01 0. -1.
</event>
<event>
 5   0  0.2406307E-03  0.5998694E+03  0.7818609E-02  0.9905677E-01
       -2   -1    0    0    0  501  0.00000000000E+00  0.00000000000E+00  0.97276859869E+02  0.97276859902E+02  0.25500000920E-02 0.  1.
        2   -1    0    0  501    0  0.00000000000E+00  0.00000000000E+00 -0.92479173559E+03  0.92479173559E+03  0.25500000920E-02 0. -1.
    10030    2    1    2    0    0  0.00000000000E+00  0.00000000000E+00 -0.82751487572E+03  0.10220685955E+04  0.59986943943E+03 0.  0.
        5    1    3    3  502    0  0.11918203609E+03 -0.26288028734E+02  0.52987213205E+02  0.13313584394E+03  0.46999998093E+01 0.  1.
       -5    1    3    3    0  502 -0.11918203609E+03  0.26288028734E+02 -0.88050208892E+03  0.88893275155E+03  0.46999998093E+01 0. -1.
</event>
<event>
 5   0  0.2346281E-03  0.6004882E+03  0.7818609E-02  0.9904394E-01
       -2   -1    0    0    0  501  0.00000000000E+00  0.00000000000E+00  0.20524812578E+03  0.20524812579E+03  0.25500000920E-02 0. -1.
        2   -1    0    0  501    0  0.00000000000E+00  0.00000000000E+00 -0.43920756659E+03  0.43920756659E+03  0.25500000920E-02 0.  1.
    10030    2    1    2    0    0  0.00000000000E+00  0.00000000000E+00 -0.23395944081E+03  0.64445569239E+03  0.60048823428E+03 0.  0.
        3    1    3    3  502    0 -0.29704364182E+03 -0.37885115514E+02 -0.93557148856E+02  0.31372465225E+03  0.10100000352E+00 0. -1.
       -3    1    3    3    0  502  0.29704364182E+03  0.37885115514E+02 -0.14040229195E+03  0.33073104014E+03  0.10100000352E+00 0.  1.
</event>
<event>
 5   0  0.2324616E-03  0.6001299E+03  0.7818609E-02  0.9905137E-01
       -2   -1    0    0    0  501  0.00000000000E+00  0.00000000000E+00  0.26381454931E+03  0.26381454933E+03  0.25500000920E-02 0. -1.
        2   -1    0    0  501    0  0.00000000000E+00  0.00000000000E+00 -0.34129648569E+03  0.34129648570E+03  0.25500000920E-02 0.  1.
    10030    2    1    2    0    0  0.00000000000E+00  0.00000000000E+00 -0.77481936372E+02  0.60511103502E+03  0.60012991447E+03 0.  0.
        4    1    3    3  502    0 -0.15988785119E+03 -0.24049674979E+03 -0.12086980379E+03  0.31307177130E+03  0.12699999809E+01 0.  1.
       -4    1    3    3    0  502  0.15988785119E+03  0.24049674979E+03  0.43387867414E+02  0.29203926372E+03  0.12699999809E+01 0. -1.
</event>
<event>
 5   0  0.1416315E-03  0.5997388E+03  0.7818609E-02  0.9905948E-01
       -1   -1    0    0    0  501  0.00000000000E+00  0.00000000000E+00  0.74008951996E+02  0.74008952168E+02  0.50400001928E-02 0.  1.
        1   -1    0    0  501    0  0.00000000000E+00  0.00000000000E+00 -0.12150106133E+04  0.12150106134E+04  0.50400001928E-02 0. -1.
    10030    2    1    2    0    0  0.00000000000E+00  0.00000000000E+00 -0.11410016614E+04  0.12890195655E+04  0.59973881740E+03 0.  0.
        2    1    3    3  502    0 -0.94289630985E+02  0.28047532595E+03 -0.46598377967E+03  0.55199440749E+03  0.25500000920E-02 0. -1.
       -2    1    3    3    0  502  0.94289630985E+02 -0.28047532595E+03 -0.67501788169E+03  0.73702515804E+03  0.25500000920E-02 0.  1.
</event>
<event>
 5   0  0.2346281E-03  0.6001278E+03  0.7818609E-02  0.9905141E-01
       -2   -1    0    0    0  501  0.00000000000E+00  0.00000000000E+00  0.76491272847E+02  0.76491272890E+02  0.25500000920E-02 0. -1.
        2   -1    0    0  501    0  0.00000000000E+00  0.00000000000E+00 -0.11771061736E+04  0.11771061736E+04  0.25500000920E-02 0.  1.
    10030    2    1    2    0    0  0.00000000000E+00  0.00000000000E+00 -0.11006149008E+04  0.12535974465E+04  0.60012781813E+03 0.  0.
        3    1    3    3  502    0  0.85806777086E+02  0.28598175497E+03 -0.48799102263E+03  0.57208706989E+03  0.10100000352E+00 0.  1.
       -3    1    3    3    0  502 -0.85806777086E+02 -0.28598175497E+03 -0.61262387814E+03  0.68151037662E+03  0.10100000352E+00 0. -1.
</event>
<event>
 5   0  0.1479385E-03  0.6000687E+03  0.7818609E-02  0.9905264E-01
       -1   -1    0    0    0  501  0.00000000000E+00  0.00000000000E+00  0.55258393185E+02  0.55258393414E+02  0.50400001928E-02 0.  1.
        1   -1    0    0  501    0  0.00000000000E+00  0.00000000000E+00 -0.16290849195E+04  0.16290849195E+04  0.50400001928E-02 0. -1.
    10030    2    1    2    0    0  0.00000000000E+00  0.00000000000E+00 -0.15738265263E+04  0.16843433129E+04  0.60006871345E+03 0.  0.
        3    1    3    3  502    0  0.15333851503E+03  0.15760301263E+02 -0.64386783665E+02  0.16705315142E+03  0.10100000352E+00 0.  1.
       -3    1    3    3    0  502 -0.15333851503E+03 -0.15760301263E+02 -0.15094397427E+04  0.15172901615E+04  0.10100000352E+00 0. -1.
</event>
<event>
 5   0  0.2324616E-03  0.6003017E+03  0.7818609E-02  0.9904780E-01
       -2   -1    0    0    0  501  0.00000000000E+00  0.00000000000E+00  0.79524485177E+02  0.79524485218E+02  0.25500000920E-02 0.  1.
        2   -1    0    0  501    0  0.00000000000E+00  0.00000000000E+00 -0.11328653110E+04  0.11328653110E+04  0.25500000920E-02 0. -1.
    10030    2    1    2    0    0  0.00000000000E+00  0.00000000000E+00 -0.10533408258E+04  0.12123897962E+04  0.60030169301E+03 0.  0.
        4    1    3    3  502    0  0.25037236816E+03 -0.93554047402E+02 -0.25085733081E+03  0.36656472258E+03  0.12699999809E+01 0.  1.
       -4    1    3    3    0  502 -0.25037236816E+03  0.93554047402E+02 -0.80248349500E+03  0.84582507362E+03  0.12699999809E+01 0. -1.
</event>
<event>
 5   0  0.1423430E-03  0.6000022E+03  0.7818609E-02  0.9905402E-01
        1   -1    0    0  501    0  0.00000000000E+00  0.00000000000E+00  0.58727933915E+03  0.58727933917E+03  0.50400001928E-02 0. -1.
       -1   -1    0    0    0  501  0.00000000000E+00  0.00000000000E+00 -0.15325015888E+03  0.15325015896E+03  0.50400001928E-02 0.  1.
    10030    2    1    2    0    0  0.00000000000E+00  0.00000000000E+00  0.43402918027E+03  0.74052949813E+03  0.60000217357E+03 0.  0.
        1    1    3    3  502    0  0.12512696383E+03 -0.20416239806E+03 -0.60385464873E+01  0.23953184742E+03  0.50400001928E-02 0.  1.
       -1    1    3    3    0  502 -0.12512696383E+03  0.20416239806E+03  0.44006772675E+03  0.50099765071E+03  0.50400001928E-02 0. -1.
</event>
<event>
 5   0  0.2406307E-03  0.6002305E+03  0.7818609E-02  0.9904928E-01
       -2   -1    0    0    0  501  0.00000000000E+00  0.00000000000E+00  0.26957129718E+03  0.26957129719E+03  0.25500000920E-02 0.  1.
        2   -1    0    0  501    0  0.00000000000E+00  0.00000000000E+00 -0.33411999352E+03  0.33411999353E+03  0.25500000920E-02 0. -1.
    10030    2    1    2    0    0  0.00000000000E+00  0.00000000000E+00 -0.64548696338E+02  0.60369129072E+03  0.60023048930E+03 0.  0.
        5    1    3    3  502    0  0.24160982755E+02  0.23734475873E+03 -0.21534246118E+03  0.32141990163E+03  0.46999998093E+01 0. -1.
       -5    1    3    3    0  502 -0.24160982755E+02 -0.23734475873E+03  0.15079376484E+03  0.28227138908E+03  0.46999998093E+01 0.  1.
</event>
<event>
 5   0  0.1418763E-03  0.5997526E+03  0.7818609E-02  0.9905919E-01
        1   -1    0    0  501    0  0.00000000000E+00  0.00000000000E+00  0.73415613498E+03  0.73415613499E+03  0.50400001928E-02 0. -1.
       -1   -1    0    0    0  501  0.00000000000E+00  0.00000000000E+00 -0.12248866309E+03  0.12248866319E+03  0.50400001928E-02 0.  1.
    10030    2    1    2    0    0  0.00000000000E+00  0.00000000000E+00  0.61166747189E+03  0.85664479819E+03  0.59975262742E+03 0.  0.
        5    1    3    3  502    0 -0.68896713135E+02  0.45988319010E+02 -0.10576838496E+03  0.13442739238E+03  0.46999998093E+01 0.  1.
       -5    1    3    3    0  502  0.68896713135E+02 -0.45988319010E+02  0.71743585685E+03  0.72221740581E+03  0.46999998093E+01 0. -1.
</event>
<event>
 5   0  0.1418763E-03  0.5998226E+03  0.7818609E-02  0.9905774E-01
       -1   -1    0    0    0  501  0.00000000000E+00  0.00000000000E+00  0.52232307046E+03  0.52232307049E+03  0.50400001928E-02 0. -1.
        1   -1    0    0  501    0  0.00000000000E+00  0.00000000000E+00 -0.17220527839E+03  0.17220527846E+03  0.50400001928E-02 0.  1.
    10030    2    1    2    0    0  0.00000000000E+00  0.00000000000E+00  0.35011779208E+03  0.69452834895E+03  0.59982260641E+03 0.  0.
        5    1    3    3  502    0  0.52161550490E+02 -0.27259123381E+03  0.30655912545E+03  0.41355458587E+03  0.46999998093E+01 0. -1.
       -5    1    3    3    0  502 -0.52161550490E+02  0.27259123381E+03  0.43558666626E+02  0.28097376307E+03  0.46999998093E+01 0.  1.
</event>
<event>
 5   0  0.2406307E-03  0.5976097E+03  0.7818609E-02  0.9910378E-01
        2   -1    0    0  501    0  0.00000000000E+00  0.00000000000E+00  0.73262327435E+03  0.73262327436E+03  0.25500000920E-02 0.  1.
       -2   -1    0    0    0  501  0.00000000000E+00  0.00000000000E+00 -0.12186937889E+03  0.12186937891E+03  0.25500000920E-02 0. -1.
    10030    2    1    2    0    0  0.00000000000E+00  0.00000000000E+00  0.61075389546E+03  0.85449265327E+03  0.59760971685E+03 0.  0.
        5    1    3    3  502    0 -0.10096259386E+03  0.58580543525E+02 -0.87863514360E+02  0.14617528038E+03  0.46999998093E+01 0. -1.
       -5    1    3    3    0  502  0.10096259386E+03 -0.58580543525E+02  0.69861740982E+03  0.70831737290E+03  0.46999998093E+01 0.  1.
</event>
<event>
 5   0  0.1392854E-03  0.6001031E+03  0.7818609E-02  0.9905192E-01
       -1   -1    0    0    0  501  0.00000000000E+00  0.00000000000E+00  0.14390503745E+03  0.14390503753E+03  0.50400001928E-02 0.  1.
        1   -1    0    0  501    0  0.00000000000E+00  0.00000000000E+00 -0.62562741304E+03  0.62562741306E+03  0.50400001928E-02 0. -1.
    10030    2    1    2    0    0  0.00000000000E+00  0.00000000000E+00 -0.48172237560E+03  0.76953245060E+03  0.60010311228E+03 0.  0.
        4    1    3    3  502    0  0.74611616272E+02 -0.29058782753E+03 -0.24675778352E+03  0.38845745638E+03  0.12699999809E+01 0.  1.
       -4    1    3    3    0  502 -0.74611616272E+02  0.29058782753E+03 -0.23496459207E+03  0.38107499422E+03  0.12699999809E+01 0. -1.
</event>
<event>
 5   0  0.1392854E-03  0.5998430E+03  0.7818609E-02  0.9905732E-01
        1   -1    0    0  501    0  0.00000000000E+00  0.00000000000E+00  0.10231259830E+04  0.10231259831E+04  0.50400001928E-02 0.  1.
       -1   -1    0    0    0  501  0.00000000000E+00  0.00000000000E+00 -0.87919683297E+02  0.87919683442E+02  0.50400001928E-02 0. -1.
    10030    2    1    2    0    0  0.00000000000E+00  0.00000000000E+00  0.93520629975E+03  0.11110456665E+04  0.59984302110E+03 0.  0.
        4    1    3    3  502    0  0.15843595916E+03  0.85412009440E+02  0.23245598151E+02  0.18149141920E+03  0.12699999809E+01 0. -1.
       -4    1    3    3    0  502 -0.15843595916E+03 -0.85412009440E+02  0.91196070160E+03  0.92955424730E+03  0.12699999809E+01 0.  1.
</event>
<event>
 5   0  0.1418763E-03  0.5997767E+03  0.7818609E-02  0.9905869E-01
       -1   -1    0    0    0  501  0.00000000000E+00  0.00000000000E+00  0.11855018142E+03  0.11855018152E+03  0.50400001928E-02 0. -1.
        1   -1    0    0  501    0  0.00000000000E+00  0.00000000000E+00 -0.75860729782E+03  0.75860729784E+03  0.50400001928E-02 0.  1.
    10030    2    1    2    0    0  0.00000000000E+00  0.00000000000E+00 -0.64005711640E+03  0.87715747936E+03  0.59977673458E+03 0.  0.
        5    1    3    3  502    0 -0.36269205762E+02 -0.25850647564E+02  0.11363173108E+03  0.12213914840E+03  0.46999998093E+01 0. -1.
       -5    1    3    3    0  502  0.36269205762E+02  0.25850647564E+02 -0.75368884748E+03  0.75501833096E+03  0.46999998093E+01 0.  1.
</event>
<event>
 5   0  0.1416315E-03  0.5999876E+03  0.7818609E-02  0.9905432E-01
        1   -1    0    0  501    0  0.00000000000E+00  0.00000000000E+00  0.32222652433E+03  0.32222652437E+03  0.50400001928E-02 0.  1.
       -1   -1    0    0    0  501  0.00000000000E+00  0.00000000000E+00 -0.27929504491E+03  0.27929504495E+03  0.50400001928E-02 0. -1.
    10030    2    1    2    0    0  0.00000000000E+00  0.00000000000E+00  0.42931479419E+02  0.60152156932E+03  0.59998757190E+03 0.  0.
        2    1    3    3  502    0  0.81200288436E+02 -0.85820075739E+02  0.29792009382E+03  0.32049173866E+03  0.25500000920E-02 0.  1.
       -2    1    3    3    0  502 -0.81200288436E+02  0.85820075739E+02 -0.25498861440E+03  0.28102983066E+03  0.25500000920E-02 0. -1.
</event>
<event>
 5   0  0.1392854E-03  0.5992192E+03  0.7818609E-02  0.9907027E-01
       -1   -1    0    0    0  501  0.00000000000E+00  0.00000000000E+00  0.19099978559E+03  0.19099978565E+03  0.50400001928E-02 0.  1.
        1   -1    0    0  501    0  0.00000000000E+00  0.00000000000E+00 -0.46997915780E+03  0.46997915782E+03  0.50400001928E-02 0. -1.
    10030    2    1    2    0    0  0.00000000000E+00  0.00000000000E+00 -0.27897937221E+03  0.66097894348E+03  0.59921921999E+03 0.  0.
        4    1    3    3  502    0  0.29761700142E+03 -0.20023095259E+02 -0.17044445878E+03  0.34355455215E+03  0.12699999809E+01 0. -1.
       -4    1    3    3    0  502 -0.29761700142E+03  0.20023095259E+02 -0.10853491343E+03  0.31742439132E+03  0.12699999809E+01 0.  1.
</event>
<event>
 5   0  0.1392854E-03  0.5998958E+03  0.7818609E-02  0.9905622E-01
       -1   -1    0    0    0  501  0.00000000000E+00  0.00000000000E+00  0.41974039746E+03  0.41974039749E+03  0.50400001928E-02 0.  1.
        1   -1    0    0  501    0  0.00000000000E+00  0.00000000000E+00 -0.21434380801E+03  0.21434380806E+03  0.50400001928E-02 0. -1.
    10030    2    1    2    0    0  0.00000000000E+00  0.00000000000E+00  0.20539658946E+03  0.63408420556E+03  0.59989584161E+03 0.  0.
        4    1    3    3  502    0 -0.42480738427E+02  0.82114300974E+02  0.40430154783E+03  0.41473934711E+03  0.12699999809E+01 0.  1.
       -4    1    3    3    0  502  0.42480738427E+02 -0.82114300974E+02 -0.19890495837E+03  0.21934485845E+03  0.12699999809E+01 0. -1.
</event>
<event>
 5   0  0.1423430E-03  0.5998881E+03  0.7818609E-02  0.9905638E-01
       -1   -1    0    0    0  501  0.00000000000E+00  0.00000000000E+00  0.12769970072E+03  0.12769970082E+03  0.50400001928E-02 0. -1.
        1   -1    0    0  501    0  0.00000000000E+00  0.00000000000E+00 -0.70451564797E+03  0.70451564799E+03  0.50400001928E-02 0.  1.
    10030    2    1    2    0    0  0.00000000000E+00  0.00000000000E+00 -0.57681594726E+03  0.83221534881E+03  0.59988811439E+03 0.  0.
        1    1    3    3  502    0 -0.17301283280E+03 -0.15410586180E+03 -0.55266425551E+03  0.59926608139E+03  0.50400001928E-02 0.  1.
       -1    1    3    3    0  502  0.17301283280E+03  0.15410586180E+03 -0.24151691743E+02  0.23294926742E+03  0.50400001928E-02 0. -1.
</event>
<event>
 5   0  0.2313168E-03  0.6004890E+03  0.7818609E-02  0.9904392E-01
       -2   -1    0    0    0  501  0.00000000000E+00  0.00000000000E+00  0.66699427390E+02  0.66699427439E+02  0.25500000920E-02 0.  1.
        2   -1    0    0  501    0  0.00000000000E+00  0.00000000000E+00 -0.13515370293E+04  0.13515370293E+04  0.25500000920E-02 0. -1.
    10030    2    1    2    0    0  0.00000000000E+00  0.00000000000E+00 -0.12848376020E+04  0.14182364568E+04  0.60048895407E+03 0.  0.
        2    1    3    3  502    0 -0.25161794210E+03 -0.29961361460E+02 -0.10227898563E+04  0.10537117073E+04  0.25500000920E-02 0. -1.
       -2    1    3    3    0  502  0.25161794210E+03  0.29961361460E+02 -0.26204774564E+03  0.36452474946E+03  0.25500000920E-02 0.  1.
</event>
<event>
 5   0  0.1423430E-03  0.6000063E+03  0.7818609E-02  0.9905393E-01
       -1   -1    0    0    0  501  0.00000000000E+00  0.00000000000E+00  0.14388416720E+03  0.14388416729E+03  0.50400001928E-02 0.  1.
        1   -1    0    0  501    0  0.00000000000E+00  0.00000000000E+00 -0.62551633361E+03  0.62551633363E+03  0.50400001928E-02 0. -1.
    10030    2    1    2    0    0  0.00000000000E+00  0.00000000000E+00 -0.48163216641E+03  0.76940050092E+03  0.60000632255E+03 0.  0.
        1    1    3    3  502    0  0.21695238582E+03  0.15900797076E+03 -0.70455432042E+02  0.27805726103E+03  0.50400001928E-02 0.  1.
       -1    1    3    3    0  502 -0.21695238582E+03 -0.15900797076E+03 -0.41117673437E+03  0.49134323990E+03  0.50400001928E-02 0. -1.
</event>
<event>
 5   0  0.1392854E-03  0.5999940E+03  0.7818609E-02  0.9905419E-01
        1   -1    0    0  501    0  0.00000000000E+00  0.00000000000E+00  0.45428138753E+03  0.45428138756E+03  0.50400001928E-02 0.  1.
       -1   -1    0    0    0  501  0.00000000000E+00  0.00000000000E+00 -0.19811110818E+03  0.19811110824E+03  0.50400001928E-02 0. -1.
    10030    2    1    2    0    0  0.00000000000E+00  0.00000000000E+00  0.25617027935E+03  0.65239249580E+03  0.59999396376E+03 0.  0.
        4    1    3    3  502    0 -0.11174519792E+03  0.27443559865E+03  0.17902392520E+03  0.34619801525E+03  0.12699999809E+01 0. -1.
       -4    1    3    3    0  502  0.11174519792E+03 -0.27443559865E+03  0.77146354145E+02  0.30619448055E+03  0.12699999809E+01 0.  1.
</event>
<event>
 5   0  0.9496750E-04  0.6001591E+03  0.7818609E-02  0.9905076E-01
       -3   -1    0    0    0  501  0.00000000000E+00  0.00000000000E+00  0.12615242203E+03  0.12615246246E+03  0.10100000352E+00 0.  1.
        3   -1    0    0  501    0  0.00000000000E+00  0.00000000000E+00 -0.71380095362E+03  0.71380096077E+03  0.10100000352E+00 0. -1.
    10030    2    1    2    0    0  0.00000000000E+00  0.00000000000E+00 -0.58764853159E+03  0.83995342323E+03  0.60015910933E+03 0.  0.
        5    1    3    3  502    0  0.12030551159E+03  0.27157513111E+03 -0.23445984275E+03  0.37844415151E+03  0.46999998093E+01 0.  1.
       -5    1    3    3    0  502 -0.12030551159E+03 -0.27157513111E+03 -0.35318868885E+03  0.46150927172E+03  0.46999998093E+01 0. -1.
</event>
<event>
 5   0  0.2406307E-03  0.6001502E+03  0.7818609E-02  0.9905095E-01
        2   -1    0    0  501    0  0.00000000000E+00  0.00000000000E+00  0.49594499861E+03  0.49594499861E+03  0.25500000920E-02 0.  1.
       -2   -1    0    0    0  501  0.00000000000E+00  0.00000000000E+00 -0.18156259855E+03  0.18156259857E+03  0.25500000920E-02 0. -1.
    10030    2    1    2    0    0  0.00000000000E+00  0.00000000000E+00  0.31438240006E+03  0.67750759718E+03  0.60015019018E+03 0.  0.
        5    1    3    3  502    0 -0.11369657326E+03  0.20685871636E+03  0.36628266698E+03  0.43577806442E+03  0.46999998093E+01 0.  1.
       -5    1    3    3    0  502  0.11369657326E+03 -0.20685871636E+03 -0.51900266921E+02  0.24172953276E+03  0.46999998093E+01 0. -1.
</event>
<event>
 5   0  0.9496750E-04  0.5998739E+03  0.7818609E-02  0.9905668E-01
       -4   -1    0    0    0  501  0.00000000000E+00  0.00000000000E+00  0.12822743747E+03  0.12823372653E+03  0.12699999809E+01 0.  1.
        4   -1    0    0  501    0  0.00000000000E+00  0.00000000000E+00 -0.70155870385E+03  0.70155985336E+03  0.12699999809E+01 0. -1.
    10030    2    1    2    0    0  0.00000000000E+00  0.00000000000E+00 -0.57333126638E+03  0.82979357990E+03  0.59987385693E+03 0.  0.
        2    1    3    3  502    0 -0.83054807410E+02 -0.20732037835E+01  0.11199694931E+03  0.13944789661E+03  0.25500000920E-02 0.  1.
       -2    1    3    3    0  502  0.83054807410E+02  0.20732037835E+01 -0.68532821569E+03  0.69034568329E+03  0.25500000920E-02 0. -1.
</event>
<event>
 5   0  0.1479385E-03  0.6000259E+03  0.7818609E-02  0.9905352E-01
        1   -1    0    0  501    0  0.00000000000E+00  0.00000000000E+00  0.87940285612E+03  0.87940285613E+03  0.50400001928E-02 0. -1.
       -1   -1    0    0    0  501  0.00000000000E+00  0.00000000000E+00 -0.10235101784E+03  0.10235101797E+03  0.50400001928E-02 0.  1.
    10030    2    1    2    0    0  0.00000000000E+00  0.00000000000E+00  0.77705183827E+03  0.98175387410E+03  0.60002592439E+03 0.  0.
        3    1    3    3  502    0  0.29305398958E+02 -0.27116356435E+03  0.18404012360E+03  0.32902775314E+03  0.10100000352E+00 0.  1.
       -3    1    3    3    0  502 -0.29305398958E+02  0.27116356435E+03  0.59301171467E+03  0.65272612096E+03  0.10100000352E+00 0. -1.
</event>
<event>
 5   0  0.1392854E-03  0.6015169E+03  0.7818609E-02  0.9902264E-01
       -1   -1    0    0    0  501  0.00000000000E+00  0.00000000000E+00  0.16038232969E+03  0.16038232976E+03  0.50400001928E-02 0. -1.
        1   -1    0    0  501    0  0.00000000000E+00  0.00000000000E+00 -0.56400005015E+03  0.56400005018E+03  0.50400001928E-02 0.  1.
    10030    2    1    2    0    0  0.00000000000E+00  0.00000000000E+00 -0.40361772047E+03  0.72438237994E+03  0.60151688928E+03 0.  0.
        4    1    3    3  502    0 -0.26748554994E+03  0.13687947338E+03 -0.18612944575E+03  0.35345479645E+03  0.12699999809E+01 0. -1.
       -4    1    3    3    0  502  0.26748554994E+03 -0.13687947338E+03 -0.21748827472E+03  0.37092758349E+03  0.12699999809E+01 0.  1.
</event>
<event>
 5   0  0.1416315E-03  0.5999100E+03  0.7818609E-02  0.9905593E-01
        1   -1    0    0  501    0  0.00000000000E+00  0.00000000000E+00  0.29243154589E+03  0.29243154593E+03  0.50400001928E-02 0. -1.
       -1   -1    0    0    0  501  0.00000000000E+00  0.00000000000E+00 -0.30767199584E+03  0.30767199588E+03  0.50400001928E-02 0.  1.
    10030    2    1    2    0    0  0.00000000000E+00  0.00000000000E+00 -0.15240449950E+02  0.60010354182E+03  0.59990998457E+03 0.  0.
        2    1    3    3  502    0  0.17830168638E+03 -0.12023975057E+03 -0.21679031714E+03  0.30536393139E+03  0.25500000920E-02 0.  1.
       -2    1    3    3    0  502 -0.17830168638E+03  0.12023975057E+03  0.20154986719E+03  0.29473961042E+03  0.25500000920E-02 0. -1.
</event>
<event>
 5   0  0.2324616E-03  0.6000994E+03  0.7818609E-02  0.9905200E-01
       -2   -1    0    0    0  501  0.00000000000E+00  0.00000000000E+00  0.62149029514E+02  0.62149029567E+02  0.25500000920E-02 0. -1.
        2   -1    0    0  501    0  0.00000000000E+00  0.00000000000E+00 -0.14486120821E+04  0.14486120821E+04  0.25500000920E-02 0.  1.
    10030    2    1    2    0    0  0.00000000000E+00  0.00000000000E+00 -0.13864630525E+04  0.15107611116E+04  0.60009944204E+03 0.  0.
        4    1    3    3  502    0  0.11339134193E+03  0.27582038892E+02 -0.13891322166E+04  0.13940259300E+04  0.12699999809E+01 0.  1.
       -4    1    3    3    0  502 -0.11339134193E+03 -0.27582038892E+02  0.26691640904E+01  0.11673518164E+03  0.12699999809E+01 0. -1.
</event>
<event>
 5   0  0.1418763E-03  0.5998259E+03  0.7818609E-02  0.9905767E-01
        1   -1    0    0  501    0  0.00000000000E+00  0.00000000000E+00  0.16279933903E+03  0.16279933910E+03  0.50400001928E-02 0. -1.
       -1   -1    0    0    0  501  0.00000000000E+00  0.00000000000E+00 -0.55250696998E+03  0.55250697001E+03  0.50400001928E-02 0.  1.
    10030    2    1    2    0    0  0.00000000000E+00  0.00000000000E+00 -0.38970763096E+03  0.71530630911E+03  0.59982587326E+03 0.  0.
        5    1    3    3  502    0 -0.19438444494E+02  0.13930110476E+03 -0.51068798784E+03  0.52972347677E+03  0.46999998093E+01 0.  1.
       -5    1    3    3    0  502  0.19438444494E+02 -0.13930110476E+03  0.12098035689E+03  0.18558283234E+03  0.46999998093E+01 0. -1.
</event>
<event>
 5   0  0.1479385E-03  0.6000771E+03  0.7818609E-02  0.9905246E-01
        1   -1    0    0  501    0  0.00000000000E+00  0.00000000000E+00  0.28366117837E+03  0.28366117841E+03  0.50400001928E-02 0.  1.
       -1   -1    0    0    0  501  0.00000000000E+00  0.00000000000E+00 -0.31736143738E+03  0.31736143742E+03  0.50400001928E-02 0. -1.
    10030    2    1    2    0    0  0.00000000000E+00  0.00000000000E+00 -0.33700259007E+02  0.60102261583E+03  0.60007705945E+03 0.  0.
        3    1    3    3  502    0  0.24565265488E+03  0.19221984060E+02  0.15461658539E+03  0.29089690648E+03  0.10100000352E+00 0.  1.
       -3    1    3    3    0  502 -0.24565265488E+03 -0.19221984060E+02 -0.18831684439E+03  0.31012570935E+03  0.10100000352E+00 0. -1.
</event>
<event>
 5   0  0.2313168E-03  0.6003774E+03  0.7818609E-02  0.9904623E-01
        2   -1    0    0  501    0  0.00000000000E+00  0.00000000000E+00  0.12815438156E+03  0.12815438159E+03  0.25500000920E-02 0.  1.
       -2   -1    0    0    0  501  0.00000000000E+00  0.00000000000E+00 -0.70316182024E+03  0.70316182024E+03  0.25500000920E-02 0. -1.
    10030    2    1    2    0    0  0.00000000000E+00  0.00000000000E+00 -0.57500743868E+03  0.83131620183E+03  0.60037744202E+03 0.  0.
        2    1    3    3  502    0  0.58695596328E+02 -0.12276162234E+03 -0.65800639728E+03  0.67192857344E+03  0.25500000920E-02 0. -1.
       -2    1    3    3    0  502 -0.58695596328E+02  0.12276162234E+03  0.82998958598E+02  0.15938762838E+03  0.25500000920E-02 0.  1.
</event>
<event>
 5   0  0.2406307E-03  0.6000064E+03  0.7818609E-02  0.9905393E-01
       -2   -1    0    0    0  501  0.00000000000E+00  0.00000000000E+00  0.39407093914E+02  0.39407093997E+02  0.25500000920E-02 0.  1.
        2   -1    0    0  501    0  0.00000000000E+00  0.00000000000E+00 -0.22839015508E+04  0.22839015508E+04  0.25500000920E-02 0. -1.
    10030    2    1    2    0    0  0.00000000000E+00  0.00000000000E+00 -0.22444944569E+04  0.23233086448E+04  0.60000640997E+03 0.  0.
        5    1    3    3  502    0  0.83948325516E+02  0.22712525163E+03 -0.43668566722E+03  0.49934923975E+03  0.46999998093E+01 0.  1.
       -5    1    3    3    0  502 -0.83948325516E+02 -0.22712525163E+03 -0.18078087896E+04  0.18239594050E+04  0.46999998093E+01 0. -1.
</event>
<event>
 5   0  0.2346281E-03  0.5999202E+03  0.7818609E-02  0.9905572E-01
        2   -1    0    0  501    0  0.00000000000E+00  0.00000000000E+00  0.23246626057E+03  0.23246626059E+03  0.25500000920E-02 0.  1.
       -2   -1    0    0    0  501  0.00000000000E+00  0.00000000000E+00 -0.38704996113E+03  0.38704996114E+03  0.25500000920E-02 0. -1.
    10030    2    1    2    0    0  0.00000000000E+00  0.00000000000E+00 -0.15458370056E+03  0.61951622173E+03  0.59992018511E+03 0.  0.
        3    1    3    3  502    0 -0.20858653177E+03  0.21554410094E+03 -0.74290678739E+02  0.30900924879E+03  0.10100000352E+00 0.  1.
       -3    1    3    3    0  502  0.20858653177E+03 -0.21554410094E+03 -0.80293021820E+02  0.31050697294E+03  0.10100000352E+00 0. -1.
</event>
<event>
 5   0  0.9496750E-04  0.6000473E+03  0.7818609E-02  0.9905308E-01
       -4   -1    0    0    0  501  0.00000000000E+00  0.00000000000E+00  0.54151041013E+03  0.54151189939E+03  0.12699999809E+01 0. -1.
        4   -1    0    0  501    0  0.00000000000E+00  0.00000000000E+00 -0.16622387080E+03  0.16622872232E+03  0.12699999809E+01 0.  1.
    10030    2    1    2    0    0  0.00000000000E+00  0.00000000000E+00  0.37528653933E+03  0.70774062171E+03  0.60004733232E+03 0.  0.
        3    1    3    3  502    0 -0.12922976401E+03  0.17144993657E+03 -0.59536961942E+02  0.22280052220E+03  0.10100000352E+00 0.  1.
       -3    1    3    3    0  502  0.12922976401E+03 -0.17144993657E+03  0.43482350127E+03  0.48494009951E+03  0.10100000352E+00 0. -1.
</event>
<event>
 5   0  0.2346281E-03  0.5993604E+03  0.7818609E-02  0.9906734E-01
        2   -1    0    0  501    0  0.00000000000E+00  0.00000000000E+00  0.44690367196E+03  0.44690367197E+03  0.25500000920E-02 0. -1.
       -2   -1    0    0    0  501  0.00000000000E+00  0.00000000000E+00 -0.20095652360E+03  0.20095652361E+03  0.25500000920E-02 0.  1.
    10030    2    1    2    0    0  0.00000000000E+00  0.00000000000E+00  0.24594714837E+03  0.64786019558E+03  0.59936035340E+03 0.  0.
        3    1    3    3  502    0 -0.25070708839E+03  0.42217651493E+02  0.29446824459E+03  0.38903461484E+03  0.10100000352E+00 0. -1.
       -3    1    3    3    0  502  0.25070708839E+03 -0.42217651493E+02 -0.48521096222E+02  0.25882558075E+03  0.10100000352E+00 0.  1.
</event>
<event>
 5   0  0.1418763E-03  0.5994509E+03  0.7818609E-02  0.9906546E-01
       -1   -1    0    0    0  501  0.00000000000E+00  0.00000000000E+00  0.67924949665E+02  0.67924949852E+02  0.50400001928E-02 0. -1.
        1   -1    0    0  501    0  0.00000000000E+00  0.00000000000E+00 -0.13225678515E+04  0.13225678515E+04  0.50400001928E-02 0.  1.
    10030    2    1    2    0    0  0.00000000000E+00  0.00000000000E+00 -0.12546429018E+04  0.13904928014E+04  0.59945093170E+03 0.  0.
        5    1    3    3  502    0 -0.22597466013E+03 -0.71548885552E+02 -0.10526995714E+04  0.10790654603E+04  0.46999998093E+01 0.  1.
       -5    1    3    3    0  502  0.22597466013E+03  0.71548885552E+02 -0.20194333046E+03  0.31142734106E+03  0.46999998093E+01 0. -1.
</event>
<event>
 5   0  0.1479385E-03  0.5994673E+03  0.7818609E-02  0.9906512E-01
       -1   -1    0    0    0  501  0.00000000000E+00  0.00000000000E+00  0.13267206382E+03  0.13267206392E+03  0.50400001928E-02 0. -1.
        1   -1    0    0  501    0  0.00000000000E+00  0.00000000000E+00 -0.67716028864E+03  0.67716028866E+03  0.50400001928E-02 0.  1.
    10030    2    1    2    0    0  0.00000000000E+00  0.00000000000E+00 -0.54448822482E+03  0.80983235258E+03  0.59946727376E+03 0.  0.
        3    1    3    3  502    0  0.10547941139E+03  0.21750274373E+03 -0.51165402717E+03  0.56588267643E+03  0.10100000352E+00 0.  1.
       -3    1    3    3    0  502 -0.10547941139E+03 -0.21750274373E+03 -0.32834197648E+02  0.24394967615E+03  0.10100000352E+00 0. -1.
</event>
<event>
 5   0  0.9496750E-04  0.6000445E+03  0.7818609E-02  0.9905314E-01
        3   -1    0    0  501    0  0.00000000000E+00  0.00000000000E+00  0.22552086607E+03  0.22552088868E+03  0.10100000352E+00 0.  1.
       -3   -1    0    0    0  501  0.00000000000E+00  0.00000000000E+00 -0.39913533780E+03  0.39913535058E+03  0.10100000352E+00 0. -1.
    10030    2    1    2    0    0  0.00000000000E+00  0.00000000000E+00 -0.17361447173E+03  0.62465623926E+03  0.60004452539E+03 0.  0.
        4    1    3    3  502    0 -0.81026921968E+02  0.88660935061E+01  0.21377043248E+03  0.22878675748E+03  0.12699999809E+01 0.  1.
       -4    1    3    3    0  502  0.81026921968E+02 -0.88660935061E+01 -0.38738490421E+03  0.39586948178E+03  0.12699999809E+01 0. -1.
</event>
<event>
 5   0  0.1392854E-03  0.5994601E+03  0.7818609E-02  0.9906527E-01
        1   -1    0    0  501    0  0.00000000000E+00  0.00000000000E+00  0.66974995801E+03  0.66974995803E+03  0.50400001928E-02 0. -1.
       -1   -1    0    0    0  501  0.00000000000E+00  0.00000000000E+00 -0.13413677914E+03  0.13413677923E+03  0.50400001928E-02 0.  1.
    10030    2    1    2    0    0  0.00000000000E+00  0.00000000000E+00  0.53561317887E+03  0.80388673726E+03  0.59946009789E+03 0.  0.
        4    1    3    3  502    0 -0.96199570867E+02  0.88695071652E+02  0.62942250100E+03  0.64288060387E+03  0.12699999809E+01 0. -1.
       -4    1    3    3    0  502  0.96199570867E+02 -0.88695071652E+02 -0.93809322129E+02  0.16100613339E+03  0.12699999809E+01 0.  1.
</event>
<event>
 5   0  0.2324616E-03  0.5998478E+03  0.7818609E-02  0.9905722E-01
       -2   -1    0    0    0  501  0.00000000000E+00  0.00000000000E+00  0.14587530281E+03  0.14587530284E+03  0.25500000920E-02 0. -1.
        2   -1    0    0  501    0  0.00000000000E+00  0.00000000000E+00 -0.61665234171E+03  0.61665234172E+03  0.25500000920E-02 0.  1.
    10030    2    1    2    0    0  0.00000000000E+00  0.00000000000E+00 -0.47077703890E+03  0.76252764456E+03  0.59984780433E+03 0.  0.
        4    1    3    3  502    0 -0.95245591496E+02 -0.80253565951E+02 -0.58222023219E+03  0.59539429726E+03  0.12699999809E+01 0.  1.
       -4    1    3    3    0  502  0.95245591496E+02  0.80253565951E+02  0.11144319329E+03  0.16713334729E+03  0.12699999809E+01 0. -1.
</event>
<event>
 5   0  0.1392854E-03  0.5998857E+03  0.7818609E-02  0.9905643E-01
        1   -1    0    0  501    0  0.00000000000E+00  0.00000000000E+00  0.38192542550E+03  0.38192542554E+03  0.50400001928E-02 0.  1.
       -1   -1    0    0    0  501  0.00000000000E+00  0.00000000000E+00 -0.23555833097E+03  0.23555833102E+03  0.50400001928E-02 0. -1.
    10030    2    1    2    0    0  0.00000000000E+00  0.00000000000E+00  0.14636709454E+03  0.61748375656E+03  0.59988570849E+03 0.  0.
        4    1    3    3  502    0 -0.10958378686E+03 -0.14696709487E+03  0.31754221899E+03  0.36666416113E+03  0.12699999809E+01 0.  1.
       -4    1    3    3    0  502  0.10958378686E+03  0.14696709487E+03 -0.17117512445E+03  0.25081959542E+03  0.12699999809E+01 0. -1.
</event>
<event>
 5   0  0.2406307E-03  0.5999856E+03  0.7818609E-02  0.9905436E-01
        2   -1    0    0  501    0  0.00000000000E+00  0.00000000000E+00  0.24045120610E+03  0.24045120612E+03  0.25500000920E-02 0.  1.
       -2   -1    0    0    0  501  0.00000000000E+00  0.00000000000E+00 -0.37427834578E+03  0.37427834579E+03  0.25500000920E-02 0. -1.
    10030    2    1    2    0    0  0.00000000000E+00  0.00000000000E+00 -0.13382713968E+03  0.61472955191E+03  0.59998559872E+03 0.  0.
        5    1    3    3  502    0  0.92272759650E+02  0.99019179816E+02 -0.34117522309E+03  0.36707176818E+03  0.46999998093E+01 0. -1.
       -5    1    3    3    0  502 -0.92272759650E+02 -0.99019179816E+02  0.20734808342E+03  0.24765778372E+03  0.46999998093E+01 0.  1.
</event>
<event>
 5   0  0.1479385E-03  0.6002584E+03  0.7818609E-02  0.9904870E-01
        1   -1    0    0  501    0  0.00000000000E+00  0.00000000000E+00  0.30120047711E+03  0.30120047715E+03  0.50400001928E-02 0.  1.
       -1   -1    0    0    0  501  0.00000000000E+00  0.00000000000E+00 -0.29906170793E+03  0.29906170797E+03  0.50400001928E-02 0. -1.
    10030    2    1    2    0    0  0.00000000000E+00  0.00000000000E+00  0.21387691796E+01  0.60026218512E+03  0.60025837483E+03 0.  0.
        3    1    3    3  502    0 -0.51454032929E+02 -0.18043581120E+03 -0.23318179708E+03  0.29929644194E+03  0.10100000352E+00 0. -1.
       -3    1    3    3    0  502  0.51454032929E+02  0.18043581120E+03  0.23532056626E+03  0.30096574318E+03  0.10100000352E+00 0.  1.
</event>
<event>
 5   0  0.2313168E-03  0.6001855E+03  0.7818609E-02  0.9905021E-01
        2   -1    0    0  501    0  0.00000000000E+00  0.00000000000E+00  0.46964555055E+03  0.46964555055E+03  0.25500000920E-02 0. -1.
       -2   -1    0    0    0  501  0.00000000000E+00  0.00000000000E+00 -0.19175236998E+03  0.19175237000E+03  0.25500000920E-02 0.  1.
    10030    2    1    2    0    0  0.00000000000E+00  0.00000000000E+00  0.27789318057E+03  0.66139792055E+03  0.60018546259E+03 0.  0.
        2    1    3    3  502    0  0.50387017888E+02 -0.17904975523E+03  0.39845974691E+03  0.43973609852E+03  0.25500000920E-02 0. -1.
       -2    1    3    3    0  502 -0.50387017888E+02  0.17904975523E+03 -0.12056656635E+03  0.22166182204E+03  0.25500000920E-02 0.  1.
</event>
<event>
 5   0  0.2324616E-03  0.5999413E+03  0.7818609E-02  0.9905528E-01
        2   -1    0    0  501    0  0.00000000000E+00  0.00000000000E+00  0.58865691231E+03  0.58865691231E+03  0.25500000920E-02 0. -1.
       -2   -1    0    0    0  501  0.00000000000E+00  0.00000000000E+00 -0.15286047874E+03  0.15286047876E+03  0.25500000920E-02 0.  1.
    10030    2    1    2    0    0  0.00000000000E+00  0.00000000000E+00  0.43579643357E+03  0.74151739107E+03  0.59994125525E+03 0.  0.
        4    1    3    3  502    0 -0.24432961485E+03 -0.17317231410E+03  0.23913244907E+03  0.38323824465E+03  0.12699999809E+01 0. -1.
       -4    1    3    3    0  502  0.24432961485E+03  0.17317231410E+03  0.19666398450E+03  0.35827914642E+03  0.12699999809E+01 0.  1.
</event>
<event>
 5   0  0.2313168E-03  0.5999530E+03  0.7818609E-02  0.9905504E-01
        2   -1    0    0  501    0  0.00000000000E+00  0.00000000000E+00  0.12740562711E+04  0.12740562711E+04  0.25500000920E-02 0. -1.
       -2   -1    0    0    0  501  0.00000000000E+00  0.00000000000E+00 -0.70629447573E+02  0.70629447619E+02  0.25500000920E-02 0.  1.
    10030    2    1    2    0    0  0.00000000000E+00  0.00000000000E+00  0.12034268235E+04  0.13446857187E+04  0.59995296695E+03 0.  0.
        2    1    3    3  502    0  0.14040160527E+03  0.26479091205E+03  0.62998005236E+03  0.69764009650E+03  0.25500000920E-02 0. -1.
       -2    1    3    3    0  502 -0.14040160527E+03 -0.26479091205E+03  0.57344677119E+03  0.64704562224E+03  0.25500000920E-02 0.  1.
</event>
<event>
 5   0  0.1392854E-03  0.5995428E+03  0.7818609E-02  0.9906355E-01
       -1   -1    0    0    0  501  0.00000000000E+00  0.00000000000E+00  0.14931194458E+03  0.14931194467E+03  0.50400001928E-02 0. -1.
        1   -1    0    0  501    0  0.00000000000E+00  0.00000000000E+00 -0.60184666282E+03  0.60184666284E+03  0.50400001928E-02 0.  1.
    10030    2    1    2    0    0  0.00000000000E+00  0.00000000000E+00 -0.45253471824E+03  0.75115860751E+03  0.59954281117E+03 0.  0.
        4    1    3    3  502    0 -0.20883340776E+03  0.86484252469E+02 -0.47296295182E+03  0.52420080582E+03  0.12699999809E+01 0.  1.
       -4    1    3    3    0  502  0.20883340776E+03 -0.86484252469E+02  0.20428233580E+02  0.22695780170E+03  0.12699999809E+01 0. -1.
</event>
<event>
 5   0  0.2406307E-03  0.5999920E+03  0.7818609E-02  0.9905423E-01
       -2   -1    0    0    0  501  0.00000000000E+00  0.00000000000E+00  0.55656590854E+02  0.55656590913E+02  0.25500000920E-02 0. -1.
        2   -1    0    0  501    0  0.00000000000E+00  0.00000000000E+00 -0.16170158410E+04  0.16170158410E+04  0.25500000920E-02 0.  1.
    10030    2    1    2    0    0  0.00000000000E+00  0.00000000000E+00 -0.15613592502E+04  0.16726724319E+04  0.59999196368E+03 0.  0.
        5    1    3    3  502    0  0.16844491966E+02 -0.49302475120E+02 -0.16042024271E+04  0.16050551355E+04  0.46999998093E+01 0.  1.
       -5    1    3    3    0  502 -0.16844491966E+02  0.49302475120E+02  0.42843176949E+02  0.67617296395E+02  0.46999998093E+01 0. -1.
</event>
<event>
 5   0  0.1416315E-03  0.6003368E+03  0.7818609E-02  0.9904708E-01
       -1   -1    0    0    0  501  0.00000000000E+00  0.00000000000E+00  0.46579918871E+02  0.46579919144E+02  0.50400001928E-02 0. -1.
        1   -1    0    0  501    0  0.00000000000E+00  0.00000000000E+00 -0.19343327658E+04  0.19343327659E+04  0.50400001928E-02 0.  1.
    10030    2    1    2    0    0  0.00000000000E+00  0.00000000000E+00 -0.18877528470E+04  0.19809126850E+04  0.60033678408E+03 0.  0.
        2    1    3    3  502    0  0.20790140897E+03  0.88021414369E+02 -0.15965964806E+04  0.16124797943E+04  0.25500000920E-02 0.  1.
       -2    1    3    3    0  502 -0.20790140897E+03 -0.88021414369E+02 -0.29115636638E+03  0.36843289067E+03  0.25500000920E-02 0. -1.
</event>
<event>
 5   0  0.1392854E-03  0.5996773E+03  0.7818609E-02  0.9906076E-01
        1   -1    0    0  501    0  0.00000000000E+00  0.00000000000E+00  0.11476670902E+03  0.11476670913E+03  0.50400001928E-02 0.  1.
       -1   -1    0    0    0  501  0.00000000000E+00  0.00000000000E+00 -0.78335633224E+03  0.78335633226E+03  0.50400001928E-02 0. -1.
    10030    2    1    2    0    0  0.00000000000E+00  0.00000000000E+00 -0.66858962322E+03  0.89812304139E+03  0.59967734090E+03 0.  0.
        4    1    3    3  502    0  0.95575698331E+02  0.20674461604E+03 -0.42253281075E+02  0.23165708069E+03  0.12699999809E+01 0.  1.
       -4    1    3    3    0  502 -0.95575698331E+02 -0.20674461604E+03 -0.62633634215E+03  0.66646596070E+03  0.12699999809E+01 0. -1.
</event>
<event>
 5   0  0.1418763E-03  0.6017323E+03  0.7818609E-02  0.9901819E-01
        1   -1    0    0  501    0  0.00000000000E+00  0.00000000000E+00  0.39449443922E+03  0.39449443925E+03  0.50400001928E-02 0.  1.
       -1   -1    0    0    0  501  0.00000000000E+00  0.00000000000E+00 -0.22945936586E+03  0.22945936591E+03  0.50400001928E-02 0. -1.
    10030    2    1    2    0    0  0.00000000000E+00  0.00000000000E+00  0.16503507337E+03  0.62395380516E+03  0.60173231219E+03 0.  0.
        5    1    3    3  502    0  0.11288794192E+03  0.84090993574E+02 -0.19316403242E+03  0.23905944041E+03  0.46999998093E+01 0. -1.
       -5    1    3    3    0  502 -0.11288794192E+03 -0.84090993574E+02  0.35819910579E+03  0.38489436475E+03  0.46999998093E+01 0.  1.
</event>
<event>
 5   0  0.1416315E-03  0.6010866E+03  0.7818609E-02  0.9903154E-01
        1   -1    0    0  501    0  0.00000000000E+00  0.00000000000E+00  0.10872165740E+04  0.10872165740E+04  0.50400001928E-02 0. -1.
       -1   -1    0    0    0  501  0.00000000000E+00  0.00000000000E+00 -0.83080301311E+02  0.83080301464E+02  0.50400001928E-02 0.  1.
    10030    2    1    2    0    0  0.00000000000E+00  0.00000000000E+00  0.10041362727E+04  0.11702968755E+04  0.60108661824E+03 0.  0.
        2    1    3    3  502    0 -0.10413885368E+03  0.27396173300E+03  0.63160154554E+03  0.69629048846E+03  0.25500000920E-02 0.  1.
       -2    1    3    3    0  502  0.10413885368E+03 -0.27396173300E+03  0.37253472716E+03  0.47400638702E+03  0.25500000920E-02 0. -1.
</event>
<event>
 5   0  0.2421210E-03  0.5998255E+03  0.7818609E-02  0.9905768E-01
        2   -1    0    0  501    0  0.00000000000E+00  0.00000000000E+00  0.15289587255E+03  0.15289587257E+03  0.25500000920E-02 0.  1.
       -2   -1    0    0    0  501  0.00000000000E+00  0.00000000000E+00 -0.58829351628E+03  0.58829351628E+03  0.25500000920E-02 0. -1.
    10030    2    1    2    0    0  0.00000000000E+00  0.00000000000E+00 -0.43539764373E+03  0.74118938886E+03  0.59982547628E+03 0.  0.
        1    1    3    3  502    0 -0.78242690457E+02 -0.28549847407E+03 -0.27717001802E+03  0.40552992025E+03  0.50400001928E-02 0. -1.
       -1    1    3    3    0  502  0.78242690457E+02  0.28549847407E+03 -0.15822762570E+03  0.33565946861E+03  0.50400001928E-02 0.  1.
</event>
<event>
 5   0  0.1392854E-03  0.5998617E+03  0.7818609E-02  0.9905693E-01
        1   -1    0    0  501    0  0.00000000000E+00  0.00000000000E+00  0.41472868996E+03  0.41472868999E+03  0.50400001928E-02 0. -1.
       -1   -1    0    0    0  501  0.00000000000E+00  0.00000000000E+00 -0.21690933633E+03  0.21690933639E+03  0.50400001928E-02 0.  1.
    10030    2    1    2    0    0  0.00000000000E+00  0.00000000000E+00  0.19781935363E+03  0.63163802638E+03  0.59986173382E+03 0.  0.
        4    1    3    3  502    0  0.22536470141E+02 -0.49248163872E+02 -0.21171483720E+03  0.21853617394E+03  0.12699999809E+01 0.  1.
       -4    1    3    3    0  502 -0.22536470141E+02  0.49248163872E+02  0.40953419083E+03  0.41310185244E+03  0.12699999809E+01 0. -1.
</event>
<event>
 5   0  0.2346281E-03  0.5992038E+03  0.7818609E-02  0.9907059E-01
       -2   -1    0    0    0  501  0.00000000000E+00  0.00000000000E+00  0.39944157917E+03  0.39944157918E+03  0.25500000920E-02 0. -1.
        2   -1    0    0  501    0  0.00000000000E+00  0.00000000000E+00 -0.22471693695E+03  0.22471693697E+03  0.25500000920E-02 0.  1.
    10030    2    1    2    0    0  0.00000000000E+00  0.00000000000E+00  0.17472464221E+03  0.62415851615E+03  0.59920376558E+03 0.  0.
        3    1    3    3  502    0 -0.14411335135E+03  0.55871580223E+02  0.35470447961E+03  0.38691803987E+03  0.10100000352E+00 0. -1.
       -3    1    3    3    0  502  0.14411335135E+03 -0.55871580223E+02 -0.17997983740E+03  0.23724047628E+03  0.10100000352E+00 0.  1.
</event>
<event>
 5   0  0.2421210E-03  0.6001144E+03  0.7818609E-02  0.9905169E-01
       -2   -1    0    0    0  501  0.00000000000E+00  0.00000000000E+00  0.87058856003E+02  0.87058856041E+02  0.25500000920E-02 0.  1.
        2   -1    0    0  501    0  0.00000000000E+00  0.00000000000E+00 -0.10341777358E+04  0.10341777358E+04  0.25500000920E-02 0. -1.
    10030    2    1    2    0    0  0.00000000000E+00  0.00000000000E+00 -0.94711887984E+03  0.11212365919E+04  0.60011442445E+03 0.  0.
        1    1    3    3  502    0 -0.21141994329E+03 -0.36534321888E+02 -0.81641299349E+02  0.22956143161E+03  0.50400001928E-02 0.  1.
       -1    1    3    3    0  502  0.21141994329E+03  0.36534321888E+02 -0.86547758049E+03  0.89167516027E+03  0.50400001928E-02 0. -1.
</event>
<event>
 5   0  0.2421210E-03  0.6002931E+03  0.7818609E-02  0.9904798E-01
        2   -1    0    0  501    0  0.00000000000E+00  0.00000000000E+00  0.47873897893E+03  0.47873897894E+03  0.25500000920E-02 0. -1.
       -2   -1    0    0    0  501  0.00000000000E+00  0.00000000000E+00 -0.18817759475E+03  0.18817759477E+03  0.25500000920E-02 0.  1.
    10030    2    1    2    0    0  0.00000000000E+00  0.00000000000E+00  0.29056138418E+03  0.66691657370E+03  0.60029309367E+03 0.  0.
        1    1    3    3  502    0 -0.64351390926E+02  0.29213616927E+03  0.11799234588E+03  0.32156933408E+03  0.50400001928E-02 0. -1.
       -1    1    3    3    0  502  0.64351390926E+02 -0.29213616927E+03  0.17256903830E+03  0.34534723962E+03  0.50400001928E-02 0.  1.
</event>
<event>
 5   0  0.2406307E-03  0.6000224E+03  0.7818609E-02  0.9905360E-01
        2   -1    0    0  501    0  0.00000000000E+00  0.00000000000E+00  0.93398281611E+02  0.93398281645E+02  0.25500000920E-02 0. -1.
       -2   -1    0    0    0  501  0.00000000000E+00  0.00000000000E+00 -0.96368698131E+03  0.96368698131E+03  0.25500000920E-02 0.  1.
    10030    2    1    2    0    0  0.00000000000E+00  0.00000000000E+00 -0.87028869970E+03  0.10570852630E+04  0.60002235987E+03 0.  0.
        5    1    3    3  502    0  0.30281595075E+02 -0.13580439257E+03 -0.90333337587E+03  0.91399840590E+03  0.46999998093E+01 0.  1.
       -5    1    3    3    0  502 -0.30281595075E+02  0.13580439257E+03  0.33044676169E+02  0.14308685705E+03  0.46999998093E+01 0. -1.
</event>
<event>
 5   0  0.1418763E-03  0.5996773E+03  0.7818609E-02  0.9906076E-01
       -1   -1    0    0    0  501  0.00000000000E+00  0.00000000000E+00  0.22608482193E+03  0.22608482199E+03  0.50400001928E-02 0. -1.
        1   -1    0    0  501    0  0.00000000000E+00  0.00000000000E+00 -0.39765262123E+03  0.39765262126E+03  0.50400001928E-02 0.  1.
    10030    2    1    2    0    0  0.00000000000E+00  0.00000000000E+00 -0.17156779929E+03  0.62373744325E+03  0.59967732019E+03 0.  0.
        5    1    3    3  502    0 -0.11076144620E+03  0.24239542484E+03  0.57048311464E+02  0.27258070325E+03  0.46999998093E+01 0. -1.
       -5    1    3    3    0  502  0.11076144620E+03 -0.24239542484E+03 -0.22861611076E+03  0.35115673999E+03  0.46999998093E+01 0.  1.
</event>
<event>
 5   0  0.2346281E-03  0.6006057E+03  0.7818609E-02  0.9904150E-01
       -2   -1    0    0    0  501  0.00000000000E+00  0.00000000000E+00  0.10898859774E+03  0.10898859777E+03  0.25500000920E-02 0.  1.
        2   -1    0    0  501    0  0.00000000000E+00  0.00000000000E+00 -0.82744247521E+03  0.82744247522E+03  0.25500000920E-02 0. -1.
    10030    2    1    2    0    0  0.00000000000E+00  0.00000000000E+00 -0.71845387747E+03  0.93643107299E+03  0.60060567796E+03 0.  0.
        3    1    3    3  502    0 -0.24454582905E+03  0.17422049994E+03 -0.36722882877E+03  0.47435479125E+03  0.10100000352E+00 0.  1.
       -3    1    3    3    0  502  0.24454582905E+03 -0.17422049994E+03 -0.35122504870E+03  0.46207628173E+03  0.10100000352E+00 0. -1.
</event>
<event>
 5   0  0.1416315E-03  0.6000992E+03  0.7818609E-02  0.9905200E-01
        1   -1    0    0  501    0  0.00000000000E+00  0.00000000000E+00  0.19550168197E+03  0.19550168204E+03  0.50400001928E-02 0. -1.
       -1   -1    0    0    0  501  0.00000000000E+00  0.00000000000E+00 -0.46050638353E+03  0.46050638355E+03  0.50400001928E-02 0.  1.
    10030    2    1    2    0    0  0.00000000000E+00  0.00000000000E+00 -0.26500470155E+03  0.65600806559E+03  0.60009923369E+03 0.  0.
        2    1    3    3  502    0  0.24724066363E+03  0.13838434858E+02 -0.31772971965E+03  0.40282952074E+03  0.25500000920E-02 0.  1.
       -2    1    3    3    0  502 -0.24724066363E+03 -0.13838434858E+02  0.52725018093E+02  0.25317854485E+03  0.25500000920E-02 0. -1.
</event>
<event>
 5   0  0.1423430E-03  0.6004462E+03  0.7818609E-02  0.9904481E-01
        1   -1    0    0  501    0  0.00000000000E+00  0.00000000000E+00  0.84657497609E+03  0.84657497610E+03  0.50400001928E-02 0. -1.
       -1   -1    0    0    0  501  0.00000000000E+00  0.00000000000E+00 -0.10646889691E+03  0.10646889703E+03  0.50400001928E-02 0.  1.
    10030    2    1    2    0    0  0.00000000000E+00  0.00000000000E+00  0.74010607918E+03  0.95304387313E+03  0.60044618050E+03 0.  0.
        1    1    3    3  502    0 -0.21318045506E+03 -0.20374348771E+03  0.28059501583E+03  0.40705144409E+03  0.50400001928E-02 0.  1.
       -1    1    3    3    0  502  0.21318045506E+03  0.20374348771E+03  0.45951106335E+03  0.54599242904E+03  0.50400001928E-02 0. -1.
</event>
<event>
 5   0  0.1423430E-03  0.6007293E+03  0.7818609E-02  0.9903894E-01
        1   -1    0    0  501    0  0.00000000000E+00  0.00000000000E+00  0.10569494203E+04  0.10569494203E+04  0.50400001928E-02 0. -1.
       -1   -1    0    0    0  501  0.00000000000E+00  0.00000000000E+00 -0.85357835973E+02  0.85357836122E+02  0.50400001928E-02 0.  1.
    10030    2    1    2    0    0  0.00000000000E+00  0.00000000000E+00  0.97159158430E+03  0.11423072564E+04  0.60072927460E+03 0.  0.
        1    1    3    3  502    0 -0.25680679632E+03 -0.13553146895E+03  0.63186042542E+03  0.69538917661E+03  0.50400001928E-02 0.  1.
       -1    1    3    3    0  502  0.25680679632E+03  0.13553146895E+03  0.33973115888E+03  0.44691807980E+03  0.50400001928E-02 0. -1.
</event>
<event>
 5   0  0.1479385E-03  0.5990642E+03  0.7818609E-02  0.9907350E-01
       -1   -1    0    0    0  501  0.00000000000E+00  0.00000000000E+00  0.71696044646E+03  0.71696044648E+03  0.50400001928E-02 0. -1.
        1   -1    0    0  501    0  0.00000000000E+00  0.00000000000E+00 -0.12513865754E+03  0.12513865764E+03  0.50400001928E-02 0.  1.
    10030    2    1    2    0    0  0.00000000000E+00  0.00000000000E+00  0.59182178892E+03  0.84209910413E+03  0.59906416295E+03 0.  0.
        3    1    3    3  502    0 -0.92494875845E+02  0.64757584923E+02 -0.94078082237E+02  0.14696782852E+03  0.10100000352E+00 0.  1.
       -3    1    3    3    0  502  0.92494875845E+02 -0.64757584923E+02  0.68589987116E+03  0.69513127560E+03  0.10100000352E+00 0. -1.
</event>
<event>
 5   0  0.2313168E-03  0.6005973E+03  0.7818609E-02  0.9904168E-01
       -2   -1    0    0    0  501  0.00000000000E+00  0.00000000000E+00  0.13891804062E+03  0.13891804064E+03  0.25500000920E-02 0. -1.
        2   -1    0    0  501    0  0.00000000000E+00  0.00000000000E+00 -0.64915451793E+03  0.64915451793E+03  0.25500000920E-02 0.  1.
    10030    2    1    2    0    0  0.00000000000E+00  0.00000000000E+00 -0.51023647731E+03  0.78807255857E+03  0.60059728171E+03 0.  0.
        2    1    3    3  502    0 -0.16295993686E+03 -0.20218940142E+03 -0.57237006931E+02  0.26591835220E+03  0.25500000920E-02 0. -1.
       -2    1    3    3    0  502  0.16295993686E+03  0.20218940142E+03 -0.45299947038E+03  0.52215420638E+03  0.25500000920E-02 0.  1.
</event>
<event>
 5   0  0.1418763E-03  0.6001002E+03  0.7818609E-02  0.9905198E-01
        1   -1    0    0  501    0  0.00000000000E+00  0.00000000000E+00  0.10474470254E+04  0.10474470254E+04  0.50400001928E-02 0.  1.
       -1   -1    0    0    0  501  0.00000000000E+00  0.00000000000E+00 -0.85951910511E+02  0.85951910659E+02  0.50400001928E-02 0. -1.
    10030    2    1    2    0    0  0.00000000000E+00  0.00000000000E+00  0.96149511492E+03  0.11333989361E+04  0.60010023524E+03 0.  0.
        5    1    3    3  502    0 -0.18045147732E+03 -0.22730988577E+02  0.93138166882E+03  0.94898542482E+03  0.46999998093E+01 0.  1.
       -5    1    3    3    0  502  0.18045147732E+03  0.22730988577E+02  0.30113446100E+02  0.18441351128E+03  0.46999998093E+01 0. -1.
</event>
<event>
 5   0  0.2406307E-03  0.6000796E+03  0.7818609E-02  0.9905241E-01
        2   -1    0    0  501    0  0.00000000000E+00  0.00000000000E+00  0.66180514142E+03  0.66180514142E+03  0.25500000920E-02 0.  1.
       -2   -1    0    0    0  501  0.00000000000E+00  0.00000000000E+00 -0.13602776663E+03  0.13602776666E+03  0.25500000920E-02 0. -1.
    10030    2    1    2    0    0  0.00000000000E+00  0.00000000000E+00  0.52577737478E+03  0.79783290808E+03  0.60007957921E+03 0.  0.
        5    1    3    3  502    0 -0.71355574458E+02  0.57938150739E+02 -0.11679677465E+03  0.14870112267E+03  0.46999998093E+01 0. -1.
       -5    1    3    3    0  502  0.71355574458E+02 -0.57938150739E+02  0.64257414943E+03  0.64913178541E+03  0.46999998093E+01 0.  1.
</event>
<event>
 5   0  0.9496750E-04  0.5999442E+03  0.7818609E-02  0.9905522E-01
        4   -1    0    0  501    0  0.00000000000E+00  0.00000000000E+00  0.33609880518E+03  0.33610120461E+03  0.12699999809E+01 0. -1.
       -4   -1    0    0    0  501  0.00000000000E+00  0.00000000000E+00 -0.26772377541E+03  0.26772678764E+03  0.12699999809E+01 0.  1.
    10030    2    1    2    0    0  0.00000000000E+00  0.00000000000E+00  0.68375029765E+02  0.60382799225E+03  0.59994424702E+03 0.  0.
        3    1    3    3  502    0 -0.43950880134E+02  0.31387849330E+02 -0.26279276506E+03  0.26828515523E+03  0.10100000352E+00 0.  1.
       -3    1    3    3    0  502  0.43950880134E+02 -0.31387849330E+02  0.33116779482E+03  0.33554283702E+03  0.10100000352E+00 0. -1.
</event>
<event>
 5   0  0.9496750E-04  0.6002500E+03  0.7818609E-02  0.9904888E-01
        4   -1    0    0  501    0  0.00000000000E+00  0.00000000000E+00  0.14568995932E+03  0.14569549460E+03  0.12699999809E+01 0. -1.
       -4   -1    0    0    0  501  0.00000000000E+00  0.00000000000E+00 -0.61824715716E+03  0.61824846157E+03  0.12699999809E+01 0.  1.
    10030    2    1    2    0    0  0.00000000000E+00  0.00000000000E+00 -0.47255719784E+03  0.76394395617E+03  0.60025000037E+03 0.  0.
        2    1    3    3  502    0  0.12893364569E+03 -0.26235910761E+03 -0.32277445291E+03  0.43547621496E+03  0.25500000920E-02 0.  1.
       -2    1    3    3    0  502 -0.12893364569E+03  0.26235910761E+03 -0.14978274492E+03  0.32846774121E+03  0.25500000920E-02 0. -1.
</event>
<event>
 5   0  0.1423430E-03  0.5999190E+03  0.7818609E-02  0.9905574E-01
       -1   -1    0    0    0  501  0.00000000000E+00  0.00000000000E+00  0.55222196256E+02  0.55222196486E+02  0.50400001928E-02 0.  1.
        1   -1    0    0  501    0  0.00000000000E+00  0.00000000000E+00 -0.16293396910E+04  0.16293396910E+04  0.50400001928E-02 0. -1.
    10030    2    1    2    0    0  0.00000000000E+00  0.00000000000E+00 -0.15741174947E+04  0.16845618875E+04  0.59991904915E+03 0.  0.
        1    1    3    3  502    0  0.49741653184E+02 -0.28064869665E+03 -0.10495381346E+04  0.10875514788E+04  0.50400001928E-02 0. -1.
       -1    1    3    3    0  502 -0.49741653184E+02  0.28064869665E+03 -0.52457936009E+03  0.59701040866E+03  0.50400001928E-02 0.  1.
</event>
<event>
 5   0  0.1416315E-03  0.5998794E+03  0.7818609E-02  0.9905656E-01
        1   -1    0    0  501    0  0.00000000000E+00  0.00000000000E+00  0.95083027259E+03  0.95083027261E+03  0.50400001928E-02 0. -1.
       -1   -1    0    0    0  501  0.00000000000E+00  0.00000000000E+00 -0.94616072388E+02  0.94616072522E+02  0.50400001928E-02 0.  1.
    10030    2    1    2    0    0  0.00000000000E+00  0.00000000000E+00  0.85621420020E+03  0.10454463451E+04  0.59987940781E+03 0.  0.
        2    1    3    3  502    0 -0.26767502257E+03  0.13296511151E+03  0.47199518135E+03  0.55866724426E+03  0.25500000920E-02 0.  1.
       -2    1    3    3    0  502  0.26767502257E+03 -0.13296511151E+03  0.38421901885E+03  0.48677910086E+03  0.25500000920E-02 0. -1.
</event>
<event>
 5   0  0.2421210E-03  0.6002191E+03  0.7818609E-02  0.9904952E-01
        2   -1    0    0  501    0  0.00000000000E+00  0.00000000000E+00  0.34985312792E+03  0.34985312793E+03  0.25500000920E-02 0.  1.
       -2   -1    0    0    0  501  0.00000000000E+00  0.00000000000E+00 -0.25743873202E+03  0.25743873203E+03  0.25500000920E-02 0. -1.
    10030    2    1    2    0    0  0.00000000000E+00  0.00000000000E+00  0.92414395902E+02  0.60729185997E+03  0.60021911217E+03 0.  0.
        1    1    3    3  502    0  0.25738533147E+03  0.14443791634E+03 -0.88046697329E+01  0.29527452102E+03  0.50400001928E-02 0.  1.
       -1    1    3    3    0  502 -0.25738533147E+03 -0.14443791634E+03  0.10121906563E+03  0.31201733895E+03  0.50400001928E-02 0. -1.
</event>
<event>
 5   0  0.2421210E-03  0.6000748E+03  0.7818609E-02  0.9905251E-01
        2   -1    0    0  501    0  0.00000000000E+00  0.00000000000E+00  0.18243214835E+03  0.18243214837E+03  0.25500000920E-02 0.  1.
       -2   -1    0    0    0  501  0.00000000000E+00  0.00000000000E+00 -0.49345717882E+03  0.49345717883E+03  0.25500000920E-02 0. -1.
    10030    2    1    2    0    0  0.00000000000E+00  0.00000000000E+00 -0.31102503047E+03  0.67588932720E+03  0.60007483954E+03 0.  0.
        1    1    3    3  502    0  0.71430278016E+02  0.13628517234E+03  0.13460853871E+03  0.20443921232E+03  0.50400001928E-02 0.  1.
       -1    1    3    3    0  502 -0.71430278016E+02 -0.13628517234E+03 -0.44563356918E+03  0.47145011488E+03  0.50400001928E-02 0. -1.
</event>
<event>
 5   0  0.1418763E-03  0.5995272E+03  0.7818609E-02  0.9906387E-01
       -1   -1    0    0    0  501  0.00000000000E+00  0.00000000000E+00  0.52596042573E+03  0.52596042576E+03  0.50400001928E-02 0. -1.
        1   -1    0    0  501    0  0.00000000000E+00  0.00000000000E+00 -0.17084597507E+03  0.17084597514E+03  0.50400001928E-02 0.  1.
    10030    2    1    2    0    0  0.00000000000E+00  0.00000000000E+00  0.35511445067E+03  0.69680640090E+03  0.59952721978E+03 0.  0.
        5    1    3    3  502    0 -0.26393690446E+03  0.23325832888E+02  0.34039537572E+03  0.43139064179E+03  0.46999998093E+01 0. -1.
       -5    1    3    3    0  502  0.26393690446E+03 -0.23325832888E+02  0.14719074946E+02  0.26541575911E+03  0.46999998093E+01 0.  1.
</event>
<event>
 5   0  0.1416315E-03  0.5998549E+03  0.7818609E-02  0.9905707E-01
        1   -1    0    0  501    0  0.00000000000E+00  0.00000000000E+00  0.14734663957E+04  0.14734663957E+04  0.50400001928E-02 0. -1.
       -1   -1    0    0    0  501  0.00000000000E+00  0.00000000000E+00 -0.61050919377E+02  0.61050919585E+02  0.50400001928E-02 0.  1.
    10030    2    1    2    0    0  0.00000000000E+00  0.00000000000E+00  0.14124154764E+04  0.15345173153E+04  0.59985491012E+03 0.  0.
        2    1    3    3  502    0 -0.13182236686E+03  0.88820694299E+02  0.13568539565E+04  0.13661328308E+04  0.25500000920E-02 0. -1.
       -2    1    3    3    0  502  0.13182236686E+03 -0.88820694299E+02  0.55561519893E+02  0.16838448455E+03  0.25500000920E-02 0.  1.
</event>
<event>
 5   0  0.2406307E-03  0.6004042E+03  0.7818609E-02  0.9904568E-01
       -2   -1    0    0    0  501  0.00000000000E+00  0.00000000000E+00  0.13332153009E+03  0.13332153011E+03  0.25500000920E-02 0. -1.
        2   -1    0    0  501    0  0.00000000000E+00  0.00000000000E+00 -0.67596962189E+03  0.67596962189E+03  0.25500000920E-02 0.  1.
    10030    2    1    2    0    0  0.00000000000E+00  0.00000000000E+00 -0.54264809180E+03  0.80929115201E+03  0.60040421150E+03 0.  0.
        5    1    3    3  502    0  0.13238994387E+03 -0.14717001334E+03  0.32817571397E+02  0.20071171629E+03  0.46999998093E+01 0. -1.
       -5    1    3    3    0  502 -0.13238994387E+03  0.14717001334E+03 -0.57546566320E+03  0.60857943572E+03  0.46999998093E+01 0.  1.
</event>
<event>
 5   0  0.1418763E-03  0.6000125E+03  0.7818609E-02  0.9905380E-01
        1   -1    0    0  501    0  0.00000000000E+00  0.00000000000E+00  0.39154895804E+03  0.39154895808E+03  0.50400001928E-02 0.  1.
       -1   -1    0    0    0  501  0.00000000000E+00  0.00000000000E+00 -0.22986586879E+03  0.22986586885E+03  0.50400001928E-02 0. -1.
    10030    2    1    2    0    0  0.00000000000E+00  0.00000000000E+00  0.16168308925E+03  0.62141482692E+03  0.60001247134E+03 0.  0.
        5    1    3    3  502    0  0.15598121825E+03  0.11949856375E+03  0.31557927333E+03  0.37178275234E+03  0.46999998093E+01 0.  1.
       -5    1    3    3    0  502 -0.15598121825E+03 -0.11949856375E+03 -0.15389618408E+03  0.24963207458E+03  0.46999998093E+01 0. -1.
</event>
<event>
 5   0  0.1416315E-03  0.5998054E+03  0.7818609E-02  0.9905810E-01
       -1   -1    0    0    0  501  0.00000000000E+00  0.00000000000E+00  0.25456098384E+03  0.25456098389E+03  0.50400001928E-02 0.  1.
        1   -1    0    0  501    0  0.00000000000E+00  0.00000000000E+00 -0.35332052606E+03  0.35332052610E+03  0.50400001928E-02 0. -1.
    10030    2    1    2    0    0  0.00000000000E+00  0.00000000000E+00 -0.98759542221E+02  0.60788151000E+03  0.59980537094E+03 0.  0.
        2    1    3    3  502    0  0.76870541097E+02  0.28921985775E+03 -0.69250257044E+02  0.30716901587E+03  0.25500000920E-02 0.  1.
       -2    1    3    3    0  502 -0.76870541097E+02 -0.28921985775E+03 -0.29509285176E+02  0.30071249412E+03  0.25500000920E-02 0. -1.
</event>
<event>
 5   0  0.2406307E-03  0.5998957E+03  0.7818609E-02  0.9905622E-01
       -2   -1    0    0    0  501  0.00000000000E+00  0.00000000000E+00  0.19083577600E+03  0.19083577602E+03  0.25500000920E-02 0.  1.
        2   -1    0    0  501    0  0.00000000000E+00  0.00000000000E+00 -0.47144576144E+03  0.47144576144E+03  0.25500000920E-02 0. -1.
    10030    2    1    2    0    0  0.00000000000E+00  0.00000000000E+00 -0.28060998544E+03  0.66228153746E+03  0.59989571672E+03 0.  0.
        5    1    3    3  502    0  0.19371988924E+03  0.15026233341E+03  0.50403339805E+02  0.25033727447E+03  0.46999998093E+01 0.  1.
       -5    1    3    3    0  502 -0.19371988924E+03 -0.15026233341E+03 -0.33101332524E+03  0.41194426299E+03  0.46999998093E+01 0. -1.
</event>
<event>
 5   0  0.2421210E-03  0.6000748E+03  0.7818609E-02  0.9905251E-01
        2   -1    0    0  501    0  0.00000000000E+00  0.00000000000E+00  0.55417253743E+03  0.55417253744E+03  0.25500000920E-02 0. -1.
       -2   -1    0    0    0  501  0.00000000000E+00  0.00000000000E+00 -0.16244477917E+03  0.16244477919E+03  0.25500000920E-02 0.  1.
    10030    2    1    2    0    0  0.00000000000E+00  0.00000000000E+00  0.39172775827E+03  0.71661731662E+03  0.60007478025E+03 0.  0.
        1    1    3    3  502    0  0.52157097392E+01 -0.26971998678E+02  0.55266745741E+03  0.55334980875E+03  0.50400001928E-02 0. -1.
       -1    1    3    3    0  502 -0.52157097392E+01  0.26971998678E+02 -0.16093969914E+03  0.16326750787E+03  0.50400001928E-02 0.  1.
</event>
<event>
 5   0  0.1416315E-03  0.6002747E+03  0.7818609E-02  0.9904836E-01
        1   -1    0    0  501    0  0.00000000000E+00  0.00000000000E+00  0.15070034864E+04  0.15070034864E+04  0.50400001928E-02 0.  1.
       -1   -1    0    0    0  501  0.00000000000E+00  0.00000000000E+00 -0.59775867221E+02  0.59775867433E+02  0.50400001928E-02 0. -1.
    10030    2    1    2    0    0  0.00000000000E+00  0.00000000000E+00  0.14472276192E+04  0.15667793538E+04  0.60027473869E+03 0.  0.
        2    1    3    3  502    0 -0.41416463402E+02  0.18557683354E+03  0.13297446233E+04  0.13432702066E+04  0.25500000920E-02 0.  1.
       -2    1    3    3    0  502  0.41416463402E+02 -0.18557683354E+03  0.11748299583E+03  0.22350914724E+03  0.25500000920E-02 0. -1.
</event>
<event>
 5   0  0.1418763E-03  0.6006098E+03  0.7818609E-02  0.9904142E-01
       -1   -1    0    0    0  501  0.00000000000E+00  0.00000000000E+00  0.21191308430E+03  0.21191308436E+03  0.50400001928E-02 0.  1.
        1   -1    0    0  501    0  0.00000000000E+00  0.00000000000E+00 -0.42556608228E+03  0.42556608231E+03  0.50400001928E-02 0. -1.
    10030    2    1    2    0    0  0.00000000000E+00  0.00000000000E+00 -0.21365299799E+03  0.63747916667E+03  0.60060976048E+03 0.  0.
        5    1    3    3  502    0 -0.22434071939E+03  0.89116649474E+02 -0.29636767171E+03  0.38226485900E+03  0.46999998093E+01 0. -1.
       -5    1    3    3    0  502  0.22434071939E+03 -0.89116649474E+02  0.82714673728E+02  0.25521430767E+03  0.46999998093E+01 0.  1.
</event>
<event>
 5   0  0.1479385E-03  0.6001141E+03  0.7818609E-02  0.9905169E-01
        1   -1    0    0  501    0  0.00000000000E+00  0.00000000000E+00  0.87655162228E+02  0.87655162373E+02  0.50400001928E-02 0.  1.
       -1   -1    0    0    0  501  0.00000000000E+00  0.00000000000E+00 -0.10271412949E+04  0.10271412949E+04  0.50400001928E-02 0. -1.
    10030    2    1    2    0    0  0.00000000000E+00  0.00000000000E+00 -0.93948613267E+03  0.11147964573E+04  0.60011411222E+03 0.  0.
        3    1    3    3  502    0 -0.10018336951E+03  0.39130725205E+01 -0.99510479489E+03  0.10001427811E+04  0.10100000352E+00 0. -1.
       -3    1    3    3    0  502  0.10018336951E+03 -0.39130725205E+01  0.55618662220E+02  0.11465367614E+03  0.10100000352E+00 0.  1.
</event>
<event>
 5   0  0.1423430E-03  0.5999305E+03  0.7818609E-02  0.9905550E-01
       -1   -1    0    0    0  501  0.00000000000E+00  0.00000000000E+00  0.35119966992E+03  0.35119966996E+03  0.50400001928E-02 0.  1.
        1   -1    0    0  501    0  0.00000000000E+00  0.00000000000E+00 -0.25620512548E+03  0.25620512553E+03  0.50400001928E-02 0. -1.
    10030    2    1    2    0    0  0.00000000000E+00  0.00000000000E+00  0.94994544446E+02  0.60740479549E+03  0.59993051440E+03 0.  0.
        1    1    3    3  502    0 -0.11377444798E+03  0.18435606577E+03 -0.16256622108E+03  0.27084970050E+03  0.50400001928E-02 0. -1.
       -1    1    3    3    0  502  0.11377444798E+03 -0.18435606577E+03  0.25756076553E+03  0.33655509499E+03  0.50400001928E-02 0.  1.
</event>
<event>
 5   0  0.1418763E-03  0.5997309E+03  0.7818609E-02  0.9905965E-01
       -1   -1    0    0    0  501  0.00000000000E+00  0.00000000000E+00  0.88092761091E+02  0.88092761235E+02  0.50400001928E-02 0.  1.
        1   -1    0    0  501    0  0.00000000000E+00  0.00000000000E+00 -0.10207340778E+04  0.10207340778E+04  0.50400001928E-02 0. -1.
    10030    2    1    2    0    0  0.00000000000E+00  0.00000000000E+00 -0.93264131667E+03  0.11088268390E+04  0.59973088410E+03 0.  0.
        5    1    3    3  502    0 -0.55319746860E+02 -0.21759005454E+03 -0.83373749977E+03  0.86345006500E+03  0.46999998093E+01 0. -1.
       -5    1    3    3    0  502  0.55319746860E+02  0.21759005454E+03 -0.98903816899E+02  0.24537677401E+03  0.46999998093E+01 0.  1.
</event>
<event>
 5   0  0.1392854E-03  0.5977509E+03  0.7818609E-02  0.9910083E-01
        1   -1    0    0  501    0  0.00000000000E+00  0.00000000000E+00  0.22071467306E+03  0.22071467312E+03  0.50400001928E-02 0.  1.
       -1   -1    0    0    0  501  0.00000000000E+00  0.00000000000E+00 -0.40471492205E+03  0.40471492208E+03  0.50400001928E-02 0. -1.
    10030    2    1    2    0    0  0.00000000000E+00  0.00000000000E+00 -0.18400024899E+03  0.62542959520E+03  0.59775085690E+03 0.  0.
        4    1    3    3  502    0  0.15957525265E+03 -0.22623488668E+03 -0.20981248293E+03  0.34737497910E+03  0.12699999809E+01 0. -1.
       -4    1    3    3    0  502 -0.15957525265E+03  0.22623488668E+03  0.25812233944E+02  0.27805461610E+03  0.12699999809E+01 0.  1.
</event>
<event>
 5   0  0.1479385E-03  0.5983602E+03  0.7818609E-02  0.9908814E-01
        1   -1    0    0  501    0  0.00000000000E+00  0.00000000000E+00  0.12250351879E+03  0.12250351889E+03  0.50400001928E-02 0.  1.
       -1   -1    0    0    0  501  0.00000000000E+00  0.00000000000E+00 -0.73066248866E+03  0.73066248868E+03  0.50400001928E-02 0. -1.
    10030    2    1    2    0    0  0.00000000000E+00  0.00000000000E+00 -0.60815896988E+03  0.85316600757E+03  0.59836017901E+03 0.  0.
        3    1    3    3  502    0 -0.17981062097E+03  0.19206935406E+02  0.35761237920E+02  0.18433567782E+03  0.10100000352E+00 0.  1.
       -3    1    3    3    0  502  0.17981062097E+03 -0.19206935406E+02 -0.64392020780E+03  0.66883032975E+03  0.10100000352E+00 0. -1.
</event>
<event>
 5   0  0.2324616E-03  0.5999181E+03  0.7818609E-02  0.9905576E-01
        2   -1    0    0  501    0  0.00000000000E+00  0.00000000000E+00  0.18225809145E+03  0.18225809147E+03  0.25500000920E-02 0.  1.
       -2   -1    0    0    0  501  0.00000000000E+00  0.00000000000E+00 -0.49367043847E+03  0.49367043848E+03  0.25500000920E-02 0. -1.
    10030    2    1    2    0    0  0.00000000000E+00  0.00000000000E+00 -0.31141234702E+03  0.67592852994E+03  0.59991810084E+03 0.  0.
        4    1    3    3  502    0 -0.13594474964E+03  0.22779566907E+03 -0.31345231758E+03  0.41064073117E+03  0.12699999809E+01 0. -1.
       -4    1    3    3    0  502  0.13594474964E+03 -0.22779566907E+03  0.20399705576E+01  0.26528779878E+03  0.12699999809E+01 0.  1.
</event>
<event>
 5   0  0.1479385E-03  0.6003387E+03  0.7818609E-02  0.9904704E-01
        1   -1    0    0  501    0  0.00000000000E+00  0.00000000000E+00  0.37170392832E+03  0.37170392835E+03  0.50400001928E-02 0.  1.
       -1   -1    0    0    0  501  0.00000000000E+00  0.00000000000E+00 -0.24240166815E+03  0.24240166821E+03  0.50400001928E-02 0. -1.
    10030    2    1    2    0    0  0.00000000000E+00  0.00000000000E+00  0.12930226016E+03  0.61410559656E+03  0.60033874541E+03 0.  0.
        3    1    3    3  502    0  0.21545490449E+03 -0.76004077903E+02 -0.13450349008E+03  0.26512003842E+03  0.10100000352E+00 0. -1.
       -3    1    3    3    0  502 -0.21545490449E+03  0.76004077903E+02  0.26380575025E+03  0.34898555814E+03  0.10100000352E+00 0.  1.
</event>
<event>
 5   0  0.2346281E-03  0.5990891E+03  0.7818609E-02  0.9907298E-01
        2   -1    0    0  501    0  0.00000000000E+00  0.00000000000E+00  0.95483381284E+03  0.95483381285E+03  0.25500000920E-02 0.  1.
       -2   -1    0    0    0  501  0.00000000000E+00  0.00000000000E+00 -0.93971276559E+02  0.93971276593E+02  0.25500000920E-02 0. -1.
    10030    2    1    2    0    0  0.00000000000E+00  0.00000000000E+00  0.86086253628E+03  0.10488050894E+04  0.59908914967E+03 0.  0.
        3    1    3    3  502    0 -0.42506870860E+02 -0.29490034036E+03  0.37636154556E+03  0.48002194532E+03  0.10100000352E+00 0.  1.
       -3    1    3    3    0  502  0.42506870860E+02  0.29490034036E+03  0.48450099073E+03  0.56878314412E+03  0.10100000352E+00 0. -1.
</event>
<event>
 5   0  0.2346281E-03  0.5998263E+03  0.7818609E-02  0.9905766E-01
       -2   -1    0    0    0  501  0.00000000000E+00  0.00000000000E+00  0.11214904761E+03  0.11214904763E+03  0.25500000920E-02 0.  1.
        2   -1    0    0  501    0  0.00000000000E+00  0.00000000000E+00 -0.80203897326E+03  0.80203897326E+03  0.25500000920E-02 0. -1.
    10030    2    1    2    0    0  0.00000000000E+00  0.00000000000E+00 -0.68988992565E+03  0.91418802089E+03  0.59982633156E+03 0.  0.
        3    1    3    3  502    0  0.88244724409E+02 -0.14567267448E+03  0.31292528567E+02  0.17316723715E+03  0.10100000352E+00 0.  1.
       -3    1    3    3    0  502 -0.88244724409E+02  0.14567267448E+03 -0.72118245422E+03  0.74102078375E+03  0.10100000352E+00 0. -1.
</event>
<event>
 5   0  0.9496750E-04  0.5986442E+03  0.7818609E-02  0.9908223E-01
       -4   -1    0    0    0  501  0.00000000000E+00  0.00000000000E+00  0.52707504145E+03  0.52707657150E+03  0.12699999809E+01 0. -1.
        4   -1    0    0  501    0  0.00000000000E+00  0.00000000000E+00 -0.16997872009E+03  0.16998346444E+03  0.12699999809E+01 0.  1.
    10030    2    1    2    0    0  0.00000000000E+00  0.00000000000E+00  0.35709632136E+03  0.69706003594E+03  0.59864422738E+03 0.  0.
        4    1    3    3  502    0  0.15254715557E+03 -0.21528568583E+03  0.13986350668E+02  0.26422678158E+03  0.12699999809E+01 0.  1.
       -4    1    3    3    0  502 -0.15254715557E+03  0.21528568583E+03  0.34310997069E+03  0.43283325437E+03  0.12699999809E+01 0. -1.
</event>
<event>
 5   0  0.2406307E-03  0.6001220E+03  0.7818609E-02  0.9905153E-01
       -2   -1    0    0    0  501  0.00000000000E+00  0.00000000000E+00  0.97316156183E+02  0.97316156216E+02  0.25500000920E-02 0.  1.
        2   -1    0    0  501    0  0.00000000000E+00  0.00000000000E+00 -0.92519696997E+03  0.92519696998E+03  0.25500000920E-02 0. -1.
    10030    2    1    2    0    0  0.00000000000E+00  0.00000000000E+00 -0.82788081379E+03  0.10225131262E+04  0.60012203042E+03 0.  0.
        5    1    3    3  502    0 -0.10239314677E+03  0.26988945429E+03 -0.55330019368E+03  0.62408963168E+03  0.46999998093E+01 0. -1.
       -5    1    3    3    0  502  0.10239314677E+03 -0.26988945429E+03 -0.27458062011E+03  0.39842349451E+03  0.46999998093E+01 0.  1.
</event>
<event>
 5   0  0.1418763E-03  0.6000113E+03  0.7818609E-02  0.9905383E-01
        1   -1    0    0  501    0  0.00000000000E+00  0.00000000000E+00  0.14404894556E+03  0.14404894565E+03  0.50400001928E-02 0.  1.
       -1   -1    0    0    0  501  0.00000000000E+00  0.00000000000E+00 -0.62481112107E+03  0.62481112110E+03  0.50400001928E-02 0. -1.
    10030    2    1    2    0    0  0.00000000000E+00  0.00000000000E+00 -0.48076217552E+03  0.76886006674E+03  0.60001127725E+03 0.  0.
        5    1    3    3  502    0 -0.26227107732E+03 -0.14416596594E+03 -0.26637031487E+03  0.40068089345E+03  0.46999998093E+01 0. -1.
       -5    1    3    3    0  502  0.26227107732E+03  0.14416596594E+03 -0.21439186065E+03  0.36817917329E+03  0.46999998093E+01 0.  1.
</event>
<event>
 5   0  0.1416315E-03  0.6000381E+03  0.7818609E-02  0.9905327E-01
        1   -1    0    0  501    0  0.00000000000E+00  0.00000000000E+00  0.34868865648E+03  0.34868865652E+03  0.50400001928E-02 0. -1.
       -1   -1    0    0    0  501  0.00000000000E+00  0.00000000000E+00 -0.25814271824E+03  0.25814271829E+03  0.50400001928E-02 0.  1.
    10030    2    1    2    0    0  0.00000000000E+00  0.00000000000E+00  0.90545938246E+02  0.60683137480E+03  0.60003812422E+03 0.  0.
        2    1    3    3  502    0  0.29040256378E+03 -0.66393060743E+02  0.81309941956E+02  0.30879280146E+03  0.25500000920E-02 0.  1.
       -2    1    3    3    0  502 -0.29040256378E+03  0.66393060743E+02  0.92359962897E+01  0.29803857334E+03  0.25500000920E-02 0. -1.
</event>
<event>
 5   0  0.2406307E-03  0.6001430E+03  0.7818609E-02  0.9905109E-01
       -2   -1    0    0    0  501  0.00000000000E+00  0.00000000000E+00  0.66019271033E+03  0.66019271034E+03  0.25500000920E-02 0. -1.
        2   -1    0    0  501    0  0.00000000000E+00  0.00000000000E+00 -0.13638881592E+03  0.13638881594E+03  0.25500000920E-02 0.  1.
    10030    2    1    2    0    0  0.00000000000E+00  0.00000000000E+00  0.52380389442E+03  0.79658152628E+03  0.60014298979E+03 0.  0.
        5    1    3    3  502    0 -0.29640346463E+03  0.17284310904E+01  0.20017358546E+03  0.35770037130E+03  0.46999998093E+01 0.  1.
       -5    1    3    3    0  502  0.29640346463E+03 -0.17284310904E+01  0.32363030895E+03  0.43888115497E+03  0.46999998093E+01 0. -1.
</event>
<event>
 5   0  0.2421210E-03  0.5999381E+03  0.7818609E-02  0.9905535E-01
        2   -1    0    0  501    0  0.00000000000E+00  0.00000000000E+00  0.43929594969E+03  0.43929594970E+03  0.25500000920E-02 0.  1.
       -2   -1    0    0    0  501  0.00000000000E+00  0.00000000000E+00 -0.20483098958E+03  0.20483098959E+03  0.25500000920E-02 0. -1.
    10030    2    1    2    0    0  0.00000000000E+00  0.00000000000E+00  0.23446496012E+03  0.64412693929E+03  0.59993807714E+03 0.  0.
        1    1    3    3  502    0  0.37498923361E+02  0.14273500539E+03  0.39762311599E+03  0.42412686004E+03  0.50400001928E-02 0.  1.
       -1    1    3    3    0  502 -0.37498923361E+02 -0.14273500539E+03 -0.16315815587E+03  0.22000007925E+03  0.50400001928E-02 0. -1.
</event>
<event>
 5   0  0.1416315E-03  0.5998015E+03  0.7818609E-02  0.9905818E-01
       -1   -1    0    0    0  501  0.00000000000E+00  0.00000000000E+00  0.31636186914E+03  0.31636186918E+03  0.50400001928E-02 0.  1.
        1   -1    0    0  501    0  0.00000000000E+00  0.00000000000E+00 -0.28429618850E+03  0.28429618854E+03  0.50400001928E-02 0. -1.
    10030    2    1    2    0    0  0.00000000000E+00  0.00000000000E+00  0.32065680641E+02  0.60065805773E+03  0.59980154588E+03 0.  0.
        2    1    3    3  502    0  0.22266940123E+03  0.67843582324E+02 -0.17332991037E+03  0.29022004021E+03  0.25500000920E-02 0. -1.
       -2    1    3    3    0  502 -0.22266940123E+03 -0.67843582324E+02  0.20539559101E+03  0.31043801751E+03  0.25500000920E-02 0.  1.
</event>
<event>
 5   0  0.2421210E-03  0.6004805E+03  0.7818609E-02  0.9904410E-01
       -2   -1    0    0    0  501  0.00000000000E+00  0.00000000000E+00  0.15813759090E+03  0.15813759092E+03  0.25500000920E-02 0.  1.
        2   -1    0    0  501    0  0.00000000000E+00  0.00000000000E+00 -0.57003647190E+03  0.57003647191E+03  0.25500000920E-02 0. -1.
    10030    2    1    2    0    0  0.00000000000E+00  0.00000000000E+00 -0.41189888101E+03  0.72817406283E+03  0.60048045563E+03 0.  0.
        1    1    3    3  502    0  0.47301716946E+02 -0.17407939098E+03 -0.49699386613E+03  0.52871919748E+03  0.50400001928E-02 0. -1.
       -1    1    3    3    0  502 -0.47301716946E+02  0.17407939098E+03  0.85094985120E+02  0.19945486534E+03  0.50400001928E-02 0.  1.
</event>
<event>
 5   0  0.1392854E-03  0.5999774E+03  0.7818609E-02  0.9905453E-01
       -1   -1    0    0    0  501  0.00000000000E+00  0.00000000000E+00  0.30776159050E+03  0.30776159054E+03  0.50400001928E-02 0.  1.
        1   -1    0    0  501    0  0.00000000000E+00  0.00000000000E+00 -0.29241213284E+03  0.29241213289E+03  0.50400001928E-02 0. -1.
    10030    2    1    2    0    0  0.00000000000E+00  0.00000000000E+00  0.15349457661E+02  0.60017372343E+03  0.59997740995E+03 0.  0.
        4    1    3    3  502    0 -0.25412670321E+03  0.82408851996E+02 -0.12882507712E+03  0.29659587584E+03  0.12699999809E+01 0. -1.
       -4    1    3    3    0  502  0.25412670321E+03 -0.82408851996E+02  0.14417453478E+03  0.30357784759E+03  0.12699999809E+01 0.  1.
</event>
<event>
 5   0  0.9496750E-04  0.6000221E+03  0.7818609E-02  0.9905360E-01
        3   -1    0    0  501    0  0.00000000000E+00  0.00000000000E+00  0.29150850942E+03  0.29150852692E+03  0.10100000352E+00 0. -1.
       -3   -1    0    0    0  501  0.00000000000E+00  0.00000000000E+00 -0.30876158620E+03  0.30876160272E+03  0.10100000352E+00 0.  1.
    10030    2    1    2    0    0  0.00000000000E+00  0.00000000000E+00 -0.17253076786E+02  0.60027012964E+03  0.60002213282E+03 0.  0.
        4    1    3    3  502    0 -0.89748105756E+02  0.19947184536E+03  0.19679046746E+03  0.29423093066E+03  0.12699999809E+01 0. -1.
       -4    1    3    3    0  502  0.89748105756E+02 -0.19947184536E+03 -0.21404354424E+03  0.30603919898E+03  0.12699999809E+01 0.  1.
</event>
<event>
 5   0  0.2346281E-03  0.5997436E+03  0.7818609E-02  0.9905938E-01
        2   -1    0    0  501    0  0.00000000000E+00  0.00000000000E+00  0.77599898860E+03  0.77599898860E+03  0.25500000920E-02 0. -1.
       -2   -1    0    0    0  501  0.00000000000E+00  0.00000000000E+00 -0.11588041840E+03  0.11588041843E+03  0.25500000920E-02 0.  1.
    10030    2    1    2    0    0  0.00000000000E+00  0.00000000000E+00  0.66011857019E+03  0.89187940703E+03  0.59974357018E+03 0.  0.
        3    1    3    3  502    0  0.97455054012E+02 -0.57758465955E+02  0.74295301635E+03  0.75154023355E+03  0.10100000352E+00 0. -1.
       -3    1    3    3    0  502 -0.97455054012E+02  0.57758465955E+02 -0.82834446156E+02  0.14033917348E+03  0.10100000352E+00 0.  1.
</event>
<event>
 5   0  0.1392854E-03  0.5999293E+03  0.7818609E-02  0.9905553E-01
       -1   -1    0    0    0  501  0.00000000000E+00  0.00000000000E+00  0.62951066403E+02  0.62951066605E+02  0.50400001928E-02 0.  1.
        1   -1    0    0  501    0  0.00000000000E+00  0.00000000000E+00 -0.14293449382E+04  0.14293449382E+04  0.50400001928E-02 0. -1.
    10030    2    1    2    0    0  0.00000000000E+00  0.00000000000E+00 -0.13663938718E+04  0.14922960048E+04  0.59992929009E+03 0.  0.
        4    1    3    3  502    0  0.17901091726E+02 -0.23644517008E+03 -0.22621985089E+03  0.32772519186E+03  0.12699999809E+01 0.  1.
       -4    1    3    3    0  502 -0.17901091726E+02  0.23644517008E+03 -0.11401740209E+04  0.11645708130E+04  0.12699999809E+01 0. -1.
</event>
<event>
 5   0  0.2346281E-03  0.6001355E+03  0.7818609E-02  0.9905125E-01
        2   -1    0    0  501    0  0.00000000000E+00  0.00000000000E+00  0.21339028955E+04  0.21339028955E+04  0.25500000920E-02 0.  1.
       -2   -1    0    0    0  501  0.00000000000E+00  0.00000000000E+00 -0.42195286412E+02  0.42195286489E+02  0.25500000920E-02 0. -1.
    10030    2    1    2    0    0  0.00000000000E+00  0.00000000000E+00  0.20917076091E+04  0.21760981820E+04  0.60013546450E+03 0.  0.
        3    1    3    3  502    0  0.16145327308E+03  0.17749751911E+03  0.39248609732E+03  0.46001942945E+03  0.10100000352E+00 0. -1.
       -3    1    3    3    0  502 -0.16145327308E+03 -0.17749751911E+03  0.16992215118E+04  0.17160787526E+04  0.10100000352E+00 0.  1.
</event>
<event>
 5   0  0.2324616E-03  0.6000619E+03  0.7818609E-02  0.9905278E-01
        2   -1    0    0  501    0  0.00000000000E+00  0.00000000000E+00  0.98027925149E+02  0.98027925182E+02  0.25500000920E-02 0.  1.
       -2   -1    0    0    0  501  0.00000000000E+00  0.00000000000E+00 -0.91829525512E+03  0.91829525513E+03  0.25500000920E-02 0. -1.
    10030    2    1    2    0    0  0.00000000000E+00  0.00000000000E+00 -0.82026732997E+03  0.10163231803E+04  0.60006192531E+03 0.  0.
        4    1    3    3  502    0 -0.12122768429E+03 -0.24945880453E+03 -0.21634688508E+03  0.35175763557E+03  0.12699999809E+01 0.  1.
       -4    1    3    3    0  502  0.12122768429E+03  0.24945880453E+03 -0.60392044489E+03  0.66456554474E+03  0.12699999809E+01 0. -1.
</event>
<event>
 5   0  0.2313168E-03  0.6017845E+03  0.7818609E-02  0.9901711E-01
        2   -1    0    0  501    0  0.00000000000E+00  0.00000000000E+00  0.86686599310E+03  0.86686599310E+03  0.25500000920E-02 0. -1.
       -2   -1    0    0    0  501  0.00000000000E+00  0.00000000000E+00 -0.10444077260E+03  0.10444077263E+03  0.25500000920E-02 0.  1.
    10030    2    1    2    0    0  0.00000000000E+00  0.00000000000E+00  0.76242522050E+03  0.97130676573E+03  0.60178452647E+03 0.  0.
        2    1    3    3  502    0 -0.75039903863E+02  0.29904179856E+02  0.84903740289E+03  0.85287147839E+03  0.25500000920E-02 0. -1.
       -2    1    3    3    0  502  0.75039903863E+02 -0.29904179856E+02 -0.86612182383E+02  0.11843528734E+03  0.25500000920E-02 0.  1.
</event>
<event>
 5   0  0.2313168E-03  0.6003029E+03  0.7818609E-02  0.9904778E-01
        2   -1    0    0  501    0  0.00000000000E+00  0.00000000000E+00  0.14236387873E+04  0.14236387873E+04  0.25500000920E-02 0.  1.
       -2   -1    0    0    0  501  0.00000000000E+00  0.00000000000E+00 -0.63282121603E+02  0.63282121654E+02  0.25500000920E-02 0. -1.
    10030    2    1    2    0    0  0.00000000000E+00  0.00000000000E+00  0.13603566657E+04  0.14869209089E+04  0.60030286654E+03 0.  0.
        2    1    3    3  502    0  0.47670013394E+02  0.28861517640E+03  0.84670117900E+03  0.89580915196E+03  0.25500000920E-02 0.  1.
       -2    1    3    3    0  502 -0.47670013394E+02 -0.28861517640E+03  0.51365548666E+03  0.59111175695E+03  0.25500000920E-02 0. -1.
</event>
<event>
 5   0  0.1416315E-03  0.6000780E+03  0.7818609E-02  0.9905244E-01
        1   -1    0    0  501    0  0.00000000000E+00  0.00000000000E+00  0.58785343724E+03  0.58785343727E+03  0.50400001928E-02 0. -1.
       -1   -1    0    0    0  501  0.00000000000E+00  0.00000000000E+00 -0.15313919640E+03  0.15313919648E+03  0.50400001928E-02 0.  1.
    10030    2    1    2    0    0  0.00000000000E+00  0.00000000000E+00  0.43471424084E+03  0.74099263375E+03  0.60007800500E+03 0.  0.
        2    1    3    3  502    0  0.20312723958E+03 -0.18289581062E+03  0.64558295209E+02  0.28085463587E+03  0.25500000920E-02 0.  1.
       -2    1    3    3    0  502 -0.20312723958E+03  0.18289581062E+03  0.37015594563E+03  0.46013799788E+03  0.25500000920E-02 0. -1.
</event>
<event>
 5   0  0.2313168E-03  0.6021103E+03  0.7818609E-02  0.9901038E-01
       -2   -1    0    0    0  501  0.00000000000E+00  0.00000000000E+00  0.74761869539E+02  0.74761869582E+02  0.25500000920E-02 0.  1.
        2   -1    0    0  501    0  0.00000000000E+00  0.00000000000E+00 -0.12123052115E+04  0.12123052115E+04  0.25500000920E-02 0. -1.
    10030    2    1    2    0    0  0.00000000000E+00  0.00000000000E+00 -0.11375433419E+04  0.12870670810E+04  0.60211030249E+03 0.  0.
        2    1    3    3  502    0  0.24808727452E+03  0.15058767925E+03 -0.39762718226E+03  0.49227159272E+03  0.25500000920E-02 0.  1.
       -2    1    3    3    0  502 -0.24808727452E+03 -0.15058767925E+03 -0.73991615966E+03  0.79479548832E+03  0.25500000920E-02 0. -1.
</event>
<event>
 5   0  0.2406307E-03  0.5998328E+03  0.7818609E-02  0.9905753E-01
       -2   -1    0    0    0  501  0.00000000000E+00  0.00000000000E+00  0.25830235953E+03  0.25830235954E+03  0.25500000920E-02 0.  1.
        2   -1    0    0  501    0  0.00000000000E+00  0.00000000000E+00 -0.34823475209E+03  0.34823475210E+03  0.25500000920E-02 0. -1.
    10030    2    1    2    0    0  0.00000000000E+00  0.00000000000E+00 -0.89932392557E+02  0.60653711164E+03  0.59983283719E+03 0.  0.
        5    1    3    3  502    0 -0.20285251668E+03 -0.21977072607E+03 -0.22825056527E+02  0.29998564760E+03  0.46999998093E+01 0.  1.
       -5    1    3    3    0  502  0.20285251668E+03  0.21977072607E+03 -0.67107336030E+02  0.30655146404E+03  0.46999998093E+01 0. -1.
</event>
<event>
 5   0  0.2406307E-03  0.6000236E+03  0.7818609E-02  0.9905357E-01
       -2   -1    0    0    0  501  0.00000000000E+00  0.00000000000E+00  0.64965226390E+02  0.64965226440E+02  0.25500000920E-02 0.  1.
        2   -1    0    0  501    0  0.00000000000E+00  0.00000000000E+00 -0.13854654949E+04  0.13854654949E+04  0.25500000920E-02 0. -1.
    10030    2    1    2    0    0  0.00000000000E+00  0.00000000000E+00 -0.13205002685E+04  0.14504307214E+04  0.60002359811E+03 0.  0.
        5    1    3    3  502    0  0.23323794097E+03  0.10819453478E+03 -0.10337897626E+04  0.10652930853E+04  0.46999998093E+01 0. -1.
       -5    1    3    3    0  502 -0.23323794097E+03 -0.10819453478E+03 -0.28671050598E+03  0.38513763605E+03  0.46999998093E+01 0.  1.
</event>
<event>
 5   0  0.2346281E-03  0.5997313E+03  0.7818609E-02  0.9905964E-01
        2   -1    0    0  501    0  0.00000000000E+00  0.00000000000E+00  0.17964668892E+04  0.17964668892E+04  0.25500000920E-02 0. -1.
       -2   -1    0    0    0  501  0.00000000000E+00  0.00000000000E+00 -0.50053465261E+02  0.50053465326E+02  0.25500000920E-02 0.  1.
    10030    2    1    2    0    0  0.00000000000E+00  0.00000000000E+00  0.17464134239E+04  0.18465203545E+04  0.59973125011E+03 0.  0.
        3    1    3    3  502    0 -0.22024715156E+03 -0.13798957179E+03  0.13337019084E+04  0.13587901679E+04  0.10100000352E+00 0.  1.
       -3    1    3    3    0  502  0.22024715156E+03  0.13798957179E+03  0.41271151551E+03  0.48773018661E+03  0.10100000352E+00 0. -1.
</event>
<event>
 5   0  0.1479385E-03  0.6002127E+03  0.7818609E-02  0.9904965E-01
       -1   -1    0    0    0  501  0.00000000000E+00  0.00000000000E+00  0.22582665358E+03  0.22582665363E+03  0.50400001928E-02 0.  1.
        1   -1    0    0  501    0  0.00000000000E+00  0.00000000000E+00 -0.39881839970E+03  0.39881839973E+03  0.50400001928E-02 0. -1.
    10030    2    1    2    0    0  0.00000000000E+00  0.00000000000E+00 -0.17299174612E+03  0.62464505337E+03  0.60021271102E+03 0.  0.
        3    1    3    3  502    0 -0.14515747884E+03  0.17797364972E+03 -0.28753945373E+03  0.36800035504E+03  0.10100000352E+00 0. -1.
       -3    1    3    3    0  502  0.14515747884E+03 -0.17797364972E+03  0.11454770761E+03  0.25664469832E+03  0.10100000352E+00 0.  1.
</event>
<event>
 5   0  0.9496750E-04  0.5999363E+03  0.7818609E-02  0.9905538E-01
        3   -1    0    0  501    0  0.00000000000E+00  0.00000000000E+00  0.80665906003E+02  0.80665969233E+02  0.10100000352E+00 0.  1.
       -3   -1    0    0    0  501  0.00000000000E+00  0.00000000000E+00 -0.11154756558E+04  0.11154756604E+04  0.10100000352E+00 0. -1.
    10030    2    1    2    0    0  0.00000000000E+00  0.00000000000E+00 -0.10348097498E+04  0.11961416296E+04  0.59993631312E+03 0.  0.
        5    1    3    3  502    0  0.20408887134E+03 -0.21048438055E+03 -0.39126197121E+03  0.48894167543E+03  0.46999998093E+01 0.  1.
       -5    1    3    3    0  502 -0.20408887134E+03  0.21048438055E+03 -0.64354777857E+03  0.70719995416E+03  0.46999998093E+01 0. -1.
</event>
<event>
 5   0  0.1423430E-03  0.5994885E+03  0.7818609E-02  0.9906468E-01
        1   -1    0    0  501    0  0.00000000000E+00  0.00000000000E+00  0.41371034035E+03  0.41371034038E+03  0.50400001928E-02 0. -1.
       -1   -1    0    0    0  501  0.00000000000E+00  0.00000000000E+00 -0.21717274903E+03  0.21717274909E+03  0.50400001928E-02 0.  1.
    10030    2    1    2    0    0  0.00000000000E+00  0.00000000000E+00  0.19653759132E+03  0.63088308947E+03  0.59948848844E+03 0.  0.
        1    1    3    3  502    0 -0.27476621806E+03 -0.55142523613E+02  0.21018386748E+03  0.35030619559E+03  0.50400001928E-02 0. -1.
       -1    1    3    3    0  502  0.27476621806E+03  0.55142523613E+02 -0.13646276153E+02  0.28057689388E+03  0.50400001928E-02 0.  1.
</event>
<event>
 5   0  0.2346281E-03  0.5998956E+03  0.7818609E-02  0.9905623E-01
       -2   -1    0    0    0  501  0.00000000000E+00  0.00000000000E+00  0.37627284723E+03  0.37627284724E+03  0.25500000920E-02 0.  1.
        2   -1    0    0  501    0  0.00000000000E+00  0.00000000000E+00 -0.23910490169E+03  0.23910490170E+03  0.25500000920E-02 0. -1.
    10030    2    1    2    0    0  0.00000000000E+00  0.00000000000E+00  0.13716794554E+03  0.61537774894E+03  0.59989559809E+03 0.  0.
        3    1    3    3  502    0 -0.20080629862E+03 -0.22177038979E+03  0.46501762806E+02  0.30276674107E+03  0.10100000352E+00 0. -1.
       -3    1    3    3    0  502  0.20080629862E+03  0.22177038979E+03  0.90666182733E+02  0.31261100787E+03  0.10100000352E+00 0.  1.
</event>
<event>
 5   0  0.9496750E-04  0.5999777E+03  0.7818609E-02  0.9905452E-01
       -4   -1    0    0    0  501  0.00000000000E+00  0.00000000000E+00  0.84223474757E+03  0.84223570508E+03  0.12699999809E+01 0. -1.
        4   -1    0    0  501    0  0.00000000000E+00  0.00000000000E+00 -0.10684582657E+03  0.10685337410E+03  0.12699999809E+01 0.  1.
    10030    2    1    2    0    0  0.00000000000E+00  0.00000000000E+00  0.73538892100E+03  0.94908907918E+03  0.59997767883E+03 0.  0.
        1    1    3    3  502    0 -0.53361230819E+02 -0.12929552489E+03  0.78749815506E+03  0.79982379182E+03  0.50400001928E-02 0. -1.
       -1    1    3    3    0  502  0.53361230819E+02  0.12929552489E+03 -0.52109234058E+02  0.14926528736E+03  0.50400001928E-02 0.  1.
</event>
<event>
 5   0  0.2324616E-03  0.6000028E+03  0.7818609E-02  0.9905400E-01
        2   -1    0    0  501    0  0.00000000000E+00  0.00000000000E+00  0.80812871963E+03  0.80812871963E+03  0.25500000920E-02 0. -1.
       -2   -1    0    0    0  501  0.00000000000E+00  0.00000000000E+00 -0.11136943545E+03  0.11136943548E+03  0.25500000920E-02 0.  1.
    10030    2    1    2    0    0  0.00000000000E+00  0.00000000000E+00  0.69675928418E+03  0.91949815511E+03  0.60000279763E+03 0.  0.
        4    1    3    3  502    0 -0.12102208007E+03  0.18182101285E+03  0.66354391263E+03  0.69856807933E+03  0.12699999809E+01 0. -1.
       -4    1    3    3    0  502  0.12102208007E+03 -0.18182101285E+03  0.33215371549E+02  0.22093007578E+03  0.12699999809E+01 0.  1.
</event>
<event>
 5   0  0.9496750E-04  0.5999275E+03  0.7818609E-02  0.9905556E-01
       -3   -1    0    0    0  501  0.00000000000E+00  0.00000000000E+00  0.22792964017E+03  0.22792966255E+03  0.10100000352E+00 0. -1.
        3   -1    0    0  501    0  0.00000000000E+00  0.00000000000E+00 -0.39476329235E+03  0.39476330527E+03  0.10100000352E+00 0.  1.
    10030    2    1    2    0    0  0.00000000000E+00  0.00000000000E+00 -0.16683365217E+03  0.62269296781E+03  0.59992754952E+03 0.  0.
        2    1    3    3  502    0  0.56612769564E+01 -0.14833244271E+03  0.18713455813E+03  0.23885959572E+03  0.25500000920E-02 0. -1.
       -2    1    3    3    0  502 -0.56612769564E+01  0.14833244271E+03 -0.35396821030E+03  0.38383337209E+03  0.25500000920E-02 0.  1.
</event>
<event>
 5   0  0.1392854E-03  0.5999540E+03  0.7818609E-02  0.9905502E-01
        1   -1    0    0  501    0  0.00000000000E+00  0.00000000000E+00  0.29957472415E+03  0.29957472419E+03  0.50400001928E-02 0.  1.
       -1   -1    0    0    0  501  0.00000000000E+00  0.00000000000E+00 -0.30037979670E+03  0.30037979675E+03  0.50400001928E-02 0. -1.
    10030    2    1    2    0    0  0.00000000000E+00  0.00000000000E+00 -0.80507255697E+00  0.59995452093E+03  0.59995398077E+03 0.  0.
        4    1    3    3  502    0  0.20338899084E+03 -0.12414375628E+03 -0.18262736400E+03  0.30022178601E+03  0.12699999809E+01 0. -1.
       -4    1    3    3    0  502 -0.20338899084E+03  0.12414375628E+03  0.18182229144E+03  0.29973273492E+03  0.12699999809E+01 0.  1.
</event>
<event>
 5   0  0.2324616E-03  0.6002392E+03  0.7818609E-02  0.9904910E-01
       -2   -1    0    0    0  501  0.00000000000E+00  0.00000000000E+00  0.66629272691E+02  0.66629272740E+02  0.25500000920E-02 0.  1.
        2   -1    0    0  501    0  0.00000000000E+00  0.00000000000E+00 -0.13518350089E+04  0.13518350089E+04  0.25500000920E-02 0. -1.
    10030    2    1    2    0    0  0.00000000000E+00  0.00000000000E+00 -0.12852057362E+04  0.14184642816E+04  0.60023923056E+03 0.  0.
        4    1    3    3  502    0 -0.48127601167E+02  0.54446830988E+02 -0.13307240544E+04  0.13327073367E+04  0.12699999809E+01 0. -1.
       -4    1    3    3    0  502  0.48127601167E+02 -0.54446830988E+02  0.45518318261E+02  0.85756944886E+02  0.12699999809E+01 0.  1.
</event>
<event>
 5   0  0.2421210E-03  0.6000734E+03  0.7818609E-02  0.9905254E-01
        2   -1    0    0  501    0  0.00000000000E+00  0.00000000000E+00  0.79959755911E+03  0.79959755911E+03  0.25500000920E-02 0.  1.
       -2   -1    0    0    0  501  0.00000000000E+00  0.00000000000E+00 -0.11258414698E+03  0.11258414701E+03  0.25500000920E-02 0. -1.
    10030    2    1    2    0    0  0.00000000000E+00  0.00000000000E+00  0.68701341213E+03  0.91218170613E+03  0.60007335930E+03 0.  0.
        1    1    3    3  502    0 -0.26334442654E+03  0.10973513338E+03  0.48472158650E+03  0.56244742238E+03  0.50400001928E-02 0.  1.
       -1    1    3    3    0  502  0.26334442654E+03 -0.10973513338E+03  0.20229182563E+03  0.34973428375E+03  0.50400001928E-02 0. -1.
</event>
<event>
 5   0  0.2313168E-03  0.5999037E+03  0.7818609E-02  0.9905606E-01
       -2   -1    0    0    0  501  0.00000000000E+00  0.00000000000E+00  0.10774265732E+03  0.10774265735E+03  0.25500000920E-02 0.  1.
        2   -1    0    0  501    0  0.00000000000E+00  0.00000000000E+00 -0.83505566590E+03  0.83505566590E+03  0.25500000920E-02 0. -1.
    10030    2    1    2    0    0  0.00000000000E+00  0.00000000000E+00 -0.72731300858E+03  0.94279832325E+03  0.59990371384E+03 0.  0.
        2    1    3    3  502    0  0.29330968374E+03  0.48075312155E+01 -0.46202093189E+03  0.54728148556E+03  0.25500000920E-02 0. -1.
       -2    1    3    3    0  502 -0.29330968374E+03 -0.48075312155E+01 -0.26529207669E+03  0.39551683769E+03  0.25500000920E-02 0.  1.
</event>
<event>
 5   0  0.1479385E-03  0.6002475E+03  0.7818609E-02  0.9904893E-01
       -1   -1    0    0    0  501  0.00000000000E+00  0.00000000000E+00  0.97491268605E+02  0.97491268735E+02  0.50400001928E-02 0.  1.
        1   -1    0    0  501    0  0.00000000000E+00  0.00000000000E+00 -0.92392123739E+03  0.92392123741E+03  0.50400001928E-02 0. -1.
    10030    2    1    2    0    0  0.00000000000E+00  0.00000000000E+00 -0.82642996879E+03  0.10214125061E+04  0.60024746096E+03 0.  0.
        3    1    3    3  502    0 -0.20557214351E+03 -0.99648808265E+02 -0.74442338646E+03  0.77868862820E+03  0.10100000352E+00 0. -1.
       -3    1    3    3    0  502  0.20557214351E+03  0.99648808265E+02 -0.82006582327E+02  0.24272387794E+03  0.10100000352E+00 0.  1.
</event>
<event>
 5   0  0.1418763E-03  0.5987005E+03  0.7818609E-02  0.9908106E-01
       -1   -1    0    0    0  501  0.00000000000E+00  0.00000000000E+00  0.73781798607E+02  0.73781798779E+02  0.50400001928E-02 0.  1.
        1   -1    0    0  501    0  0.00000000000E+00  0.00000000000E+00 -0.12145350169E+04  0.12145350169E+04  0.50400001928E-02 0. -1.
    10030    2    1    2    0    0  0.00000000000E+00  0.00000000000E+00 -0.11407532183E+04  0.12883168157E+04  0.59870051992E+03 0.  0.
        5    1    3    3  502    0  0.17117036506E+03  0.20821768892E+03 -0.85040390172E+03  0.89211142012E+03  0.46999998093E+01 0. -1.
       -5    1    3    3    0  502 -0.17117036506E+03 -0.20821768892E+03 -0.29034931661E+03  0.39620539561E+03  0.46999998093E+01 0.  1.
</event>
<event>
 5   0  0.1392854E-03  0.6004426E+03  0.7818609E-02  0.9904488E-01
        1   -1    0    0  501    0  0.00000000000E+00  0.00000000000E+00  0.25434818241E+03  0.25434818246E+03  0.50400001928E-02 0.  1.
       -1   -1    0    0    0  501  0.00000000000E+00  0.00000000000E+00 -0.35436794028E+03  0.35436794032E+03  0.50400001928E-02 0. -1.
    10030    2    1    2    0    0  0.00000000000E+00  0.00000000000E+00 -0.10001975787E+03  0.60871612278E+03  0.60044264186E+03 0.  0.
        4    1    3    3  502    0  0.21994537336E+03 -0.44347266102E+02  0.15220937568E+03  0.27113088024E+03  0.12699999809E+01 0. -1.
       -4    1    3    3    0  502 -0.21994537336E+03  0.44347266102E+02 -0.25222913355E+03  0.33758524254E+03  0.12699999809E+01 0.  1.
</event>
<event>
 5   0  0.1416315E-03  0.5998148E+03  0.7818609E-02  0.9905790E-01
        1   -1    0    0  501    0  0.00000000000E+00  0.00000000000E+00  0.12583051330E+04  0.12583051330E+04  0.50400001928E-02 0. -1.
       -1   -1    0    0    0  501  0.00000000000E+00  0.00000000000E+00 -0.71480636102E+02  0.71480636280E+02  0.50400001928E-02 0.  1.
    10030    2    1    2    0    0  0.00000000000E+00  0.00000000000E+00  0.11868244969E+04  0.13297857693E+04  0.59981480956E+03 0.  0.
        2    1    3    3  502    0  0.10660202106E+03 -0.77023008614E+02 -0.41402670234E+01  0.13158144462E+03  0.25500000920E-02 0.  1.
       -2    1    3    3    0  502 -0.10660202106E+03  0.77023008614E+02  0.11909647639E+04  0.11982043247E+04  0.25500000920E-02 0. -1.
</event>
<event>
 5   0  0.2313168E-03  0.6020481E+03  0.7818609E-02  0.9901166E-01
       -2   -1    0    0    0  501  0.00000000000E+00  0.00000000000E+00  0.94952022490E+02  0.94952022524E+02  0.25500000920E-02 0. -1.
        2   -1    0    0  501    0  0.00000000000E+00  0.00000000000E+00 -0.95432909073E+03  0.95432909074E+03  0.25500000920E-02 0.  1.
    10030    2    1    2    0    0  0.00000000000E+00  0.00000000000E+00 -0.85937706824E+03  0.10492811133E+04  0.60204809544E+03 0.  0.
        2    1    3    3  502    0  0.15345443320E+03  0.25337343086E+03 -0.33633410408E+03  0.44818186945E+03  0.25500000920E-02 0. -1.
       -2    1    3    3    0  502 -0.15345443320E+03 -0.25337343086E+03 -0.52304296417E+03  0.60109924381E+03  0.25500000920E-02 0.  1.
</event>
<event>
 5   0  0.2406307E-03  0.6000832E+03  0.7818609E-02  0.9905233E-01
       -2   -1    0    0    0  501  0.00000000000E+00  0.00000000000E+00  0.28616616584E+03  0.28616616585E+03  0.25500000920E-02 0.  1.
        2   -1    0    0  501    0  0.00000000000E+00  0.00000000000E+00 -0.31458985599E+03  0.31458985600E+03  0.25500000920E-02 0. -1.
    10030    2    1    2    0    0  0.00000000000E+00  0.00000000000E+00 -0.28423690152E+02  0.60075602186E+03  0.60008323726E+03 0.  0.
        5    1    3    3  502    0  0.13139193434E+03 -0.21893101760E+03  0.14347109904E+03  0.29291752617E+03  0.46999998093E+01 0.  1.
       -5    1    3    3    0  502 -0.13139193434E+03  0.21893101760E+03 -0.17189478919E+03  0.30783849569E+03  0.46999998093E+01 0. -1.
</event>
<event>
 5   0  0.1423430E-03  0.6001728E+03  0.7818609E-02  0.9905048E-01
        1   -1    0    0  501    0  0.00000000000E+00  0.00000000000E+00  0.11712149985E+04  0.11712149985E+04  0.50400001928E-02 0.  1.
       -1   -1    0    0    0  501  0.00000000000E+00  0.00000000000E+00 -0.76887534109E+02  0.76887534274E+02  0.50400001928E-02 0. -1.
    10030    2    1    2    0    0  0.00000000000E+00  0.00000000000E+00  0.10943274644E+04  0.12481025328E+04  0.60017275265E+03 0.  0.
        1    1    3    3  502    0 -0.16314503901E+03 -0.13779380725E+03  0.98559552261E+03  0.10084651562E+04  0.50400001928E-02 0.  1.
       -1    1    3    3    0  502  0.16314503901E+03  0.13779380725E+03  0.10873194180E+03  0.23963737660E+03  0.50400001928E-02 0. -1.
</event>
<event>
 5   0  0.2421210E-03  0.5998433E+03  0.7818609E-02  0.9905731E-01
       -2   -1    0    0    0  501  0.00000000000E+00  0.00000000000E+00  0.99591827441E+02  0.99591827474E+02  0.25500000920E-02 0. -1.
        2   -1    0    0  501    0  0.00000000000E+00  0.00000000000E+00 -0.90321673862E+03  0.90321673862E+03  0.25500000920E-02 0.  1.
    10030    2    1    2    0    0  0.00000000000E+00  0.00000000000E+00 -0.80362491117E+03  0.10028085661E+04  0.59984333152E+03 0.  0.
        1    1    3    3  502    0 -0.24459756444E+02 -0.29427228745E+03 -0.48961768296E+03  0.57176912678E+03  0.50400001928E-02 0.  1.
       -1    1    3    3    0  502  0.24459756444E+02  0.29427228745E+03 -0.31400722822E+03  0.43103943931E+03  0.50400001928E-02 0. -1.
</event>
<event>
 5   0  0.1392854E-03  0.5999193E+03  0.7818609E-02  0.9905574E-01
       -1   -1    0    0    0  501  0.00000000000E+00  0.00000000000E+00  0.30212928141E+03  0.30212928146E+03  0.50400001928E-02 0. -1.
        1   -1    0    0  501    0  0.00000000000E+00  0.00000000000E+00 -0.29780556143E+03  0.29780556147E+03  0.50400001928E-02 0.  1.
    10030    2    1    2    0    0  0.00000000000E+00  0.00000000000E+00  0.43237199839E+01  0.59993484293E+03  0.59991926224E+03 0.  0.
        4    1    3    3  502    0 -0.58568251775E+02 -0.15015539202E+02 -0.29164580589E+03  0.29784995472E+03  0.12699999809E+01 0.  1.
       -4    1    3    3    0  502  0.58568251775E+02  0.15015539202E+02  0.29596952588E+03  0.30208488820E+03  0.12699999809E+01 0. -1.
</event>
<event>
 5   0  0.2406307E-03  0.5999829E+03  0.7818609E-02  0.9905442E-01
        2   -1    0    0  501    0  0.00000000000E+00  0.00000000000E+00  0.83541492564E+03  0.83541492565E+03  0.25500000920E-02 0. -1.
       -2   -1    0    0    0  501  0.00000000000E+00  0.00000000000E+00 -0.10772476223E+03  0.10772476226E+03  0.25500000920E-02 0.  1.
    10030    2    1    2    0    0  0.00000000000E+00  0.00000000000E+00  0.72769016341E+03  0.94313968791E+03  0.59998291391E+03 0.  0.
        5    1    3    3  502    0  0.17524655865E+03  0.60075660771E+02 -0.69883361948E+01  0.18544909861E+03  0.46999998093E+01 0.  1.
       -5    1    3    3    0  502 -0.17524655865E+03 -0.60075660771E+02  0.73467849960E+03  0.75769058930E+03  0.46999998093E+01 0. -1.
</event>
<event>
 5   0  0.2324616E-03  0.6000642E+03  0.7818609E-02  0.9905273E-01
       -2   -1    0    0    0  501  0.00000000000E+00  0.00000000000E+00  0.49393670464E+03  0.49393670464E+03  0.25500000920E-02 0.  1.
        2   -1    0    0  501    0  0.00000000000E+00  0.00000000000E+00 -0.18224860575E+03  0.18224860577E+03  0.25500000920E-02 0. -1.
    10030    2    1    2    0    0  0.00000000000E+00  0.00000000000E+00  0.31168809889E+03  0.67618531041E+03  0.60006424909E+03 0.  0.
        4    1    3    3  502    0  0.14745710704E+03  0.36218045244E+02 -0.13575306178E+03  0.20368075977E+03  0.12699999809E+01 0. -1.
       -4    1    3    3    0  502 -0.14745710704E+03 -0.36218045244E+02  0.44744116067E+03  0.47250455064E+03  0.12699999809E+01 0.  1.
</event>
<event>
 5   0  0.2406307E-03  0.6001057E+03  0.7818609E-02  0.9905187E-01
       -2   -1    0    0    0  501  0.00000000000E+00  0.00000000000E+00  0.11770738519E+03  0.11770738522E+03  0.25500000920E-02 0.  1.
        2   -1    0    0  501    0  0.00000000000E+00  0.00000000000E+00 -0.76487736114E+03  0.76487736114E+03  0.25500000920E-02 0. -1.
    10030    2    1    2    0    0  0.00000000000E+00  0.00000000000E+00 -0.64716997595E+03  0.88258474636E+03  0.60010570464E+03 0.  0.
        5    1    3    3  502    0 -0.66557029715E+02 -0.28832170537E+03 -0.39638733812E+03  0.49467590987E+03  0.46999998093E+01 0. -1.
       -5    1    3    3    0  502  0.66557029715E+02  0.28832170537E+03 -0.25078263783E+03  0.38790883649E+03  0.46999998093E+01 0.  1.
</event>
<event>
 5   0  0.2406307E-03  0.6006122E+03  0.7818609E-02  0.9904137E-01
        2   -1    0    0  501    0  0.00000000000E+00  0.00000000000E+00  0.43116197490E+03  0.43116197491E+03  0.25500000920E-02 0. -1.
       -2   -1    0    0    0  501  0.00000000000E+00  0.00000000000E+00 -0.20916441103E+03  0.20916441104E+03  0.25500000920E-02 0.  1.
    10030    2    1    2    0    0  0.00000000000E+00  0.00000000000E+00  0.22199756387E+03  0.64032638595E+03  0.60061215620E+03 0.  0.
        5    1    3    3  502    0  0.18772743592E+03 -0.23073110040E+03  0.67258892830E+02  0.30499881893E+03  0.46999998093E+01 0.  1.
       -5    1    3    3    0  502 -0.18772743592E+03  0.23073110040E+03  0.15473867104E+03  0.33532756702E+03  0.46999998093E+01 0. -1.
</event>
<event>
 5   0  0.9496750E-04  0.5999950E+03  0.7818609E-02  0.9905417E-01
       -4   -1    0    0    0  501  0.00000000000E+00  0.00000000000E+00  0.64856484890E+03  0.64856609234E+03  0.12699999809E+01 0.  1.
        4   -1    0    0  501    0  0.00000000000E+00  0.00000000000E+00 -0.13876131313E+03  0.13876712478E+03  0.12699999809E+01 0. -1.
    10030    2    1    2    0    0  0.00000000000E+00  0.00000000000E+00  0.50980353577E+03  0.78733321712E+03  0.59999495805E+03 0.  0.
        4    1    3    3  502    0  0.20109571936E+03  0.16372677375E+03  0.45283127727E+03  0.52182729265E+03  0.12699999809E+01 0.  1.
       -4    1    3    3    0  502 -0.20109571936E+03 -0.16372677375E+03  0.56972258506E+02  0.26550592446E+03  0.12699999809E+01 0. -1.
</event>
<event>
 5   0  0.2421210E-03  0.5997660E+03  0.7818609E-02  0.9905892E-01
        2   -1    0    0  501    0  0.00000000000E+00  0.00000000000E+00  0.29044929315E+04  0.29044929315E+04  0.25500000920E-02 0.  1.
       -2   -1    0    0    0  501  0.00000000000E+00  0.00000000000E+00 -0.30962308438E+02  0.30962308543E+02  0.25500000920E-02 0. -1.
    10030    2    1    2    0    0  0.00000000000E+00  0.00000000000E+00  0.28735306231E+04  0.29354552400E+04  0.59976597488E+03 0.  0.
        1    1    3    3  502    0 -0.87380079343E+01 -0.21741713849E+03  0.24467458276E+04  0.24564021881E+04  0.50400001928E-02 0.  1.
       -1    1    3    3    0  502  0.87380079343E+01  0.21741713849E+03  0.42678479545E+03  0.47905305191E+03  0.50400001928E-02 0. -1.
</event>
<event>
 5   0  0.1416315E-03  0.5999731E+03  0.7818609E-02  0.9905462E-01
       -1   -1    0    0    0  501  0.00000000000E+00  0.00000000000E+00  0.23926122426E+03  0.23926122431E+03  0.50400001928E-02 0.  1.
        1   -1    0    0  501    0  0.00000000000E+00  0.00000000000E+00 -0.37612414371E+03  0.37612414374E+03  0.50400001928E-02 0. -1.
    10030    2    1    2    0    0  0.00000000000E+00  0.00000000000E+00 -0.13686291945E+03  0.61538536805E+03  0.59997307647E+03 0.  0.
        2    1    3    3  502    0 -0.78958066777E+02  0.11071357113E+02  0.22819464002E+03  0.24172245447E+03  0.25500000920E-02 0.  1.
       -2    1    3    3    0  502  0.78958066777E+02 -0.11071357113E+02 -0.36505755947E+03  0.37366291358E+03  0.25500000920E-02 0. -1.
</event>
<event>
 5   0  0.2324616E-03  0.5997324E+03  0.7818609E-02  0.9905961E-01
        2   -1    0    0  501    0  0.00000000000E+00  0.00000000000E+00  0.18819510637E+04  0.18819510637E+04  0.25500000920E-02 0. -1.
       -2   -1    0    0    0  501  0.00000000000E+00  0.00000000000E+00 -0.47780068694E+02  0.47780068762E+02  0.25500000920E-02 0.  1.
    10030    2    1    2    0    0  0.00000000000E+00  0.00000000000E+00  0.18341709950E+04  0.19297311325E+04  0.59973244425E+03 0.  0.
        4    1    3    3  502    0  0.33102899243E+02  0.26446237976E+03  0.47494214958E+03  0.54461712294E+03  0.12699999809E+01 0.  1.
       -4    1    3    3    0  502 -0.33102899243E+02 -0.26446237976E+03  0.13592288454E+04  0.13851140095E+04  0.12699999809E+01 0. -1.
</event>
<event>
 5   0  0.1479385E-03  0.5998498E+03  0.7818609E-02  0.9905718E-01
       -1   -1    0    0    0  501  0.00000000000E+00  0.00000000000E+00  0.54780922745E+02  0.54780922977E+02  0.50400001928E-02 0.  1.
        1   -1    0    0  501    0  0.00000000000E+00  0.00000000000E+00 -0.16420853234E+04  0.16420853234E+04  0.50400001928E-02 0. -1.
    10030    2    1    2    0    0  0.00000000000E+00  0.00000000000E+00 -0.15873044007E+04  0.16968662464E+04  0.59984981269E+03 0.  0.
        3    1    3    3  502    0  0.93998029959E+02  0.72914254642E+02 -0.14813061988E+02  0.11988142130E+03  0.10100000352E+00 0.  1.
       -3    1    3    3    0  502 -0.93998029959E+02 -0.72914254642E+02 -0.15724913387E+04  0.15769848251E+04  0.10100000352E+00 0. -1.
</event>
<event>
 5   0  0.2346281E-03  0.5998184E+03  0.7818609E-02  0.9905783E-01
       -2   -1    0    0    0  501  0.00000000000E+00  0.00000000000E+00  0.69983474928E+02  0.69983474974E+02  0.25500000920E-02 0.  1.
        2   -1    0    0  501    0  0.00000000000E+00  0.00000000000E+00 -0.12852395594E+04  0.12852395594E+04  0.25500000920E-02 0. -1.
    10030    2    1    2    0    0  0.00000000000E+00  0.00000000000E+00 -0.12152560845E+04  0.13552230344E+04  0.59981840756E+03 0.  0.
        3    1    3    3  502    0 -0.95368799054E+02 -0.26520742801E+03 -0.83931548293E+03  0.88537036194E+03  0.10100000352E+00 0. -1.
       -3    1    3    3    0  502  0.95368799054E+02  0.26520742801E+03 -0.37594060152E+03  0.46985267242E+03  0.10100000352E+00 0.  1.
</event>
<event>
 5   0  0.1392854E-03  0.5996536E+03  0.7818609E-02  0.9906125E-01
        1   -1    0    0  501    0  0.00000000000E+00  0.00000000000E+00  0.51175166873E+03  0.51175166876E+03  0.50400001928E-02 0. -1.
       -1   -1    0    0    0  501  0.00000000000E+00  0.00000000000E+00 -0.17566353448E+03  0.17566353455E+03  0.50400001928E-02 0.  1.
    10030    2    1    2    0    0  0.00000000000E+00  0.00000000000E+00  0.33608813425E+03  0.68741520330E+03  0.59965358979E+03 0.  0.
        4    1    3    3  502    0  0.10477330503E+03  0.20790098240E+03  0.38462374560E+03  0.44959682218E+03  0.12699999809E+01 0. -1.
       -4    1    3    3    0  502 -0.10477330503E+03 -0.20790098240E+03 -0.48535611347E+02  0.23781838113E+03  0.12699999809E+01 0.  1.
</event>
<event>
 5   0  0.2421210E-03  0.5998699E+03  0.7818609E-02  0.9905676E-01
       -2   -1    0    0    0  501  0.00000000000E+00  0.00000000000E+00  0.47757386550E+02  0.47757386618E+02  0.25500000920E-02 0.  1.
        2   -1    0    0  501    0  0.00000000000E+00  0.00000000000E+00 -0.18837079025E+04  0.18837079025E+04  0.25500000920E-02 0. -1.
    10030    2    1    2    0    0  0.00000000000E+00  0.00000000000E+00 -0.18359505160E+04  0.19314652892E+04  0.59986987428E+03 0.  0.
        1    1    3    3  502    0 -0.16511105401E+03 -0.22757204010E+02 -0.17208728576E+04  0.17289253721E+04  0.50400001928E-02 0. -1.
       -1    1    3    3    0  502  0.16511105401E+03  0.22757204010E+02 -0.11507765841E+03  0.20253991701E+03  0.50400001928E-02 0.  1.
</event>
<event>
 5   0  0.1418763E-03  0.6000004E+03  0.7818609E-02  0.9905405E-01
       -1   -1    0    0    0  501  0.00000000000E+00  0.00000000000E+00  0.91372819800E+02  0.91372819939E+02  0.50400001928E-02 0.  1.
        1   -1    0    0  501    0  0.00000000000E+00  0.00000000000E+00 -0.98497709452E+03  0.98497709453E+03  0.50400001928E-02 0. -1.
    10030    2    1    2    0    0  0.00000000000E+00  0.00000000000E+00 -0.89360427472E+03  0.10763499145E+04  0.60000044882E+03 0.  0.
        5    1    3    3  502    0 -0.15101780492E+03  0.19871263963E+03 -0.74528802959E+03  0.78598309626E+03  0.46999998093E+01 0. -1.
       -5    1    3    3    0  502  0.15101780492E+03 -0.19871263963E+03 -0.14831624513E+03  0.29036681821E+03  0.46999998093E+01 0.  1.
</event>
<event>
 5   0  0.1392854E-03  0.5999119E+03  0.7818609E-02  0.9905589E-01
       -1   -1    0    0    0  501  0.00000000000E+00  0.00000000000E+00  0.13259857992E+03  0.13259858002E+03  0.50400001928E-02 0. -1.
        1   -1    0    0  501    0  0.00000000000E+00  0.00000000000E+00 -0.67854099955E+03  0.67854099957E+03  0.50400001928E-02 0.  1.
    10030    2    1    2    0    0  0.00000000000E+00  0.00000000000E+00 -0.54594241963E+03  0.81113957959E+03  0.59991190355E+03 0.  0.
        4    1    3    3  502    0 -0.20380823416E+03  0.13022132760E+03 -0.51285550261E+03  0.56702536974E+03  0.12699999809E+01 0.  1.
       -4    1    3    3    0  502  0.20380823416E+03 -0.13022132760E+03 -0.33086917022E+02  0.24411420985E+03  0.12699999809E+01 0. -1.
</event>
<event>
 5   0  0.2346281E-03  0.5998887E+03  0.7818609E-02  0.9905637E-01
        2   -1    0    0  501    0  0.00000000000E+00  0.00000000000E+00  0.32993567152E+03  0.32993567153E+03  0.25500000920E-02 0.  1.
       -2   -1    0    0    0  501  0.00000000000E+00  0.00000000000E+00 -0.27267928910E+03  0.27267928911E+03  0.25500000920E-02 0. -1.
    10030    2    1    2    0    0  0.00000000000E+00  0.00000000000E+00  0.57256382416E+02  0.60261496064E+03  0.59988873756E+03 0.  0.
        3    1    3    3  502    0 -0.11020658315E+03 -0.26553917296E+03  0.11451569742E+03  0.30946792807E+03  0.10100000352E+00 0.  1.
       -3    1    3    3    0  502  0.11020658315E+03  0.26553917296E+03 -0.57259315002E+02  0.29314703257E+03  0.10100000352E+00 0. -1.
</event>
<event>
 5   0  0.1418763E-03  0.6001312E+03  0.7818609E-02  0.9905134E-01
        1   -1    0    0  501    0  0.00000000000E+00  0.00000000000E+00  0.22825318176E+03  0.22825318182E+03  0.50400001928E-02 0.  1.
       -1   -1    0    0    0  501  0.00000000000E+00  0.00000000000E+00 -0.39447149618E+03  0.39447149621E+03  0.50400001928E-02 0. -1.
    10030    2    1    2    0    0  0.00000000000E+00  0.00000000000E+00 -0.16621831442E+03  0.62272467803E+03  0.60013123280E+03 0.  0.
        5    1    3    3  502    0 -0.14435086159E+03 -0.21124217610E+02  0.18893241653E+03  0.23874872110E+03  0.46999998093E+01 0.  1.
       -5    1    3    3    0  502  0.14435086159E+03  0.21124217610E+02 -0.35515073094E+03  0.38397595693E+03  0.46999998093E+01 0. -1.
</event>
<event>
 5   0  0.1479385E-03  0.6002387E+03  0.7818609E-02  0.9904911E-01
       -1   -1    0    0    0  501  0.00000000000E+00  0.00000000000E+00  0.42056891050E+03  0.42056891053E+03  0.50400001928E-02 0. -1.
        1   -1    0    0  501    0  0.00000000000E+00  0.00000000000E+00 -0.21416613238E+03  0.21416613244E+03  0.50400001928E-02 0.  1.
    10030    2    1    2    0    0  0.00000000000E+00  0.00000000000E+00  0.20640277811E+03  0.63473504297E+03  0.60023867583E+03 0.  0.
        3    1    3    3  502    0 -0.16531943964E+03  0.12202242539E+03 -0.12812054310E+03  0.24214638793E+03  0.10100000352E+00 0.  1.
       -3    1    3    3    0  502  0.16531943964E+03 -0.12202242539E+03  0.33452332122E+03  0.39258865504E+03  0.10100000352E+00 0. -1.
</event>
<event>
 5   0  0.1416315E-03  0.5999690E+03  0.7818609E-02  0.9905470E-01
       -1   -1    0    0    0  501  0.00000000000E+00  0.00000000000E+00  0.14624458479E+03  0.14624458487E+03  0.50400001928E-02 0.  1.
        1   -1    0    0  501    0  0.00000000000E+00  0.00000000000E+00 -0.61534390576E+03  0.61534390578E+03  0.50400001928E-02 0. -1.
    10030    2    1    2    0    0  0.00000000000E+00  0.00000000000E+00 -0.46909932098E+03  0.76158849065E+03  0.59996904600E+03 0.  0.
        2    1    3    3  502    0  0.10782216955E+03 -0.27896998507E+03 -0.20502897626E+03  0.36261102290E+03  0.25500000920E-02 0. -1.
       -2    1    3    3    0  502 -0.10782216955E+03  0.27896998507E+03 -0.26407034472E+03  0.39897746776E+03  0.25500000920E-02 0.  1.
</event>
<event>
 5   0  0.2313168E-03  0.5999926E+03  0.7818609E-02  0.9905421E-01
       -2   -1    0    0    0  501  0.00000000000E+00  0.00000000000E+00  0.38544845163E+03  0.38544845164E+03  0.25500000920E-02 0.  1.
        2   -1    0    0  501    0  0.00000000000E+00  0.00000000000E+00 -0.23348849189E+03  0.23348849190E+03  0.25500000920E-02 0. -1.
    10030    2    1    2    0    0  0.00000000000E+00  0.00000000000E+00  0.15195995975E+03  0.61893694354E+03  0.59999259222E+03 0.  0.
        2    1    3    3  502    0 -0.16864089248E+03  0.43212475452E+02  0.32801093559E+03  0.37134652621E+03  0.25500000920E-02 0.  1.
       -2    1    3    3    0  502  0.16864089248E+03 -0.43212475452E+02 -0.17605097585E+03  0.24759041733E+03  0.25500000920E-02 0. -1.
</event>
<event>
 5   0  0.1416315E-03  0.6000350E+03  0.7818609E-02  0.9905333E-01
        1   -1    0    0  501    0  0.00000000000E+00  0.00000000000E+00  0.24884126097E+03  0.24884126103E+03  0.50400001928E-02 0. -1.
       -1   -1    0    0    0  501  0.00000000000E+00  0.00000000000E+00 -0.36171853951E+03  0.36171853955E+03  0.50400001928E-02 0.  1.
    10030    2    1    2    0    0  0.00000000000E+00  0.00000000000E+00 -0.11287727854E+03  0.61055980057E+03  0.60003499070E+03 0.  0.
        2    1    3    3  502    0  0.39922625527E+02  0.22114237614E+03 -0.25870336679E+03  0.34267360351E+03  0.25500000920E-02 0.  1.
       -2    1    3    3    0  502 -0.39922625527E+02 -0.22114237614E+03  0.14582608825E+03  0.26788619706E+03  0.25500000920E-02 0. -1.
</event>
<event>
 5   0  0.1416315E-03  0.6008103E+03  0.7818609E-02  0.9903726E-01
       -1   -1    0    0    0  501  0.00000000000E+00  0.00000000000E+00  0.13616590028E+03  0.13616590038E+03  0.50400001928E-02 0. -1.
        1   -1    0    0  501    0  0.00000000000E+00  0.00000000000E+00 -0.66274496049E+03  0.66274496051E+03  0.50400001928E-02 0.  1.
    10030    2    1    2    0    0  0.00000000000E+00  0.00000000000E+00 -0.52657906021E+03  0.79891086089E+03  0.60081033363E+03 0.  0.
        2    1    3    3  502    0  0.22896023106E+03 -0.19025437510E+03 -0.31687171993E+03  0.43477258602E+03  0.25500000920E-02 0.  1.
       -2    1    3    3    0  502 -0.22896023106E+03  0.19025437510E+03 -0.20970734028E+03  0.36413827487E+03  0.25500000920E-02 0. -1.
</event>
<event>
 5   0  0.1479385E-03  0.6001700E+03  0.7818609E-02  0.9905053E-01
        1   -1    0    0  501    0  0.00000000000E+00  0.00000000000E+00  0.65299723497E+03  0.65299723499E+03  0.50400001928E-02 0. -1.
       -1   -1    0    0    0  501  0.00000000000E+00  0.00000000000E+00 -0.13790412226E+03  0.13790412235E+03  0.50400001928E-02 0.  1.
    10030    2    1    2    0    0  0.00000000000E+00  0.00000000000E+00  0.51509311271E+03  0.79090135734E+03  0.60017001114E+03 0.  0.
        3    1    3    3  502    0  0.15627340249E+03  0.15482984560E+03 -0.11417231660E+02  0.22028168510E+03  0.10100000352E+00 0.  1.
       -3    1    3    3    0  502 -0.15627340249E+03 -0.15482984560E+03  0.52651034437E+03  0.57061967223E+03  0.10100000352E+00 0. -1.
</event>
<event>
 5   0  0.2421210E-03  0.6001515E+03  0.7818609E-02  0.9905092E-01
       -2   -1    0    0    0  501  0.00000000000E+00  0.00000000000E+00  0.19472077617E+03  0.19472077618E+03  0.25500000920E-02 0. -1.
        2   -1    0    0  501    0  0.00000000000E+00  0.00000000000E+00 -0.46243372352E+03  0.46243372353E+03  0.25500000920E-02 0.  1.
    10030    2    1    2    0    0  0.00000000000E+00  0.00000000000E+00 -0.26771294736E+03  0.65715449971E+03  0.60015149280E+03 0.  0.
        1    1    3    3  502    0  0.18414767043E+03  0.37587656788E+02  0.12229012676E+03  0.22422772263E+03  0.50400001928E-02 0. -1.
       -1    1    3    3    0  502 -0.18414767043E+03 -0.37587656788E+02 -0.39000307412E+03  0.43292677708E+03  0.50400001928E-02 0.  1.
</event>
<event>
 5   0  0.9496750E-04  0.6000044E+03  0.7818609E-02  0.9905397E-01
        3   -1    0    0  501    0  0.00000000000E+00  0.00000000000E+00  0.80292826153E+03  0.80292826788E+03  0.10100000352E+00 0.  1.
       -3   -1    0    0    0  501  0.00000000000E+00  0.00000000000E+00 -0.11209131214E+03  0.11209135764E+03  0.10100000352E+00 0. -1.
    10030    2    1    2    0    0  0.00000000000E+00  0.00000000000E+00  0.69083694939E+03  0.91501962553E+03  0.60000435370E+03 0.  0.
        4    1    3    3  502    0 -0.47400890437E+02 -0.19166868648E+03  0.68987074664E+03  0.71757019849E+03  0.12699999809E+01 0.  1.
       -4    1    3    3    0  502  0.47400890437E+02  0.19166868648E+03  0.96620274566E+00  0.19744942704E+03  0.12699999809E+01 0. -1.
</event>
<event>
 5   0  0.2324616E-03  0.6000331E+03  0.7818609E-02  0.9905337E-01
       -2   -1    0    0    0  501  0.00000000000E+00  0.00000000000E+00  0.87258688748E+02  0.87258688786E+02  0.25500000920E-02 0. -1.
        2   -1    0    0  501    0  0.00000000000E+00  0.00000000000E+00 -0.10315297585E+04  0.10315297585E+04  0.25500000920E-02 0.  1.
    10030    2    1    2    0    0  0.00000000000E+00  0.00000000000E+00 -0.94427106978E+03  0.11187884473E+04  0.60003311294E+03 0.  0.
        4    1    3    3  502    0 -0.11178379382E+03  0.17338937833E+03 -0.87828464046E+03  0.90218901326E+03  0.12699999809E+01 0.  1.
       -4    1    3    3    0  502  0.11178379382E+03 -0.17338937833E+03 -0.65986429313E+02  0.21659943405E+03  0.12699999809E+01 0. -1.
</event>
<event>
 5   0  0.1423430E-03  0.6003183E+03  0.7818609E-02  0.9904746E-01
       -1   -1    0    0    0  501  0.00000000000E+00  0.00000000000E+00  0.80176419314E+03  0.80176419315E+03  0.50400001928E-02 0. -1.
        1   -1    0    0  501    0  0.00000000000E+00  0.00000000000E+00 -0.11237157258E+03  0.11237157269E+03  0.50400001928E-02 0.  1.
    10030    2    1    2    0    0  0.00000000000E+00  0.00000000000E+00  0.68939262056E+03  0.91413576584E+03  0.60031825985E+03 0.  0.
        1    1    3    3  502    0  0.93361763018E+02  0.23569543910E+02  0.77760682912E+03  0.78354599285E+03  0.50400001928E-02 0. -1.
       -1    1    3    3    0  502 -0.93361763018E+02 -0.23569543910E+02 -0.88214208558E+02  0.13058977299E+03  0.50400001928E-02 0.  1.
</event>
<event>
 5   0  0.2421210E-03  0.6000211E+03  0.7818609E-02  0.9905362E-01
       -2   -1    0    0    0  501  0.00000000000E+00  0.00000000000E+00  0.15282963206E+03  0.15282963208E+03  0.25500000920E-02 0. -1.
        2   -1    0    0  501    0  0.00000000000E+00  0.00000000000E+00 -0.58893242130E+03  0.58893242130E+03  0.25500000920E-02 0.  1.
    10030    2    1    2    0    0  0.00000000000E+00  0.00000000000E+00 -0.43610278924E+03  0.74176205339E+03  0.60002108385E+03 0.  0.
        1    1    3    3  502    0 -0.12612528686E+03 -0.19237637125E+03  0.20030802619E+02  0.23090580174E+03  0.50400001928E-02 0. -1.
       -1    1    3    3    0  502  0.12612528686E+03  0.19237637125E+03 -0.45613359185E+03  0.51085625164E+03  0.50400001928E-02 0.  1.
</event>
<event>
 5   0  0.9496750E-04  0.5999117E+03  0.7818609E-02  0.9905589E-01
       -3   -1    0    0    0  501  0.00000000000E+00  0.00000000000E+00  0.66839122932E+03  0.66839123695E+03  0.10100000352E+00 0.  1.
        3   -1    0    0  501    0  0.00000000000E+00  0.00000000000E+00 -0.13461203025E+03  0.13461206814E+03  0.10100000352E+00 0. -1.
    10030    2    1    2    0    0  0.00000000000E+00  0.00000000000E+00  0.53377919908E+03  0.80300330509E+03  0.59991172236E+03 0.  0.
        3    1    3    3  502    0 -0.22365256979E+03  0.15843677860E+03  0.43000886435E+03  0.50993168014E+03  0.10100000352E+00 0.  1.
       -3    1    3    3    0  502  0.22365256979E+03 -0.15843677860E+03  0.10377033472E+03  0.29307162495E+03  0.10100000352E+00 0. -1.
</event>
<event>
 5   0  0.2324616E-03  0.6000906E+03  0.7818609E-02  0.9905218E-01
       -2   -1    0    0    0  501  0.00000000000E+00  0.00000000000E+00  0.11278088695E+03  0.11278088698E+03  0.25500000920E-02 0.  1.
        2   -1    0    0  501    0  0.00000000000E+00  0.00000000000E+00 -0.79824863157E+03  0.79824863157E+03  0.25500000920E-02 0. -1.
    10030    2    1    2    0    0  0.00000000000E+00  0.00000000000E+00 -0.68546774462E+03  0.91102951855E+03  0.60009062212E+03 0.  0.
        4    1    3    3  502    0  0.66668471585E+02  0.19085887671E+03 -0.61494059340E+01  0.20226523185E+03  0.12699999809E+01 0.  1.
       -4    1    3    3    0  502 -0.66668471585E+02 -0.19085887671E+03 -0.67931833869E+03  0.70876428670E+03  0.12699999809E+01 0. -1.
</event>
<event>
 5   0  0.2406307E-03  0.5998509E+03  0.7818609E-02  0.9905715E-01
       -2   -1    0    0    0  501  0.00000000000E+00  0.00000000000E+00  0.29018685791E+03  0.29018685792E+03  0.25500000920E-02 0. -1.
        2   -1    0    0  501    0  0.00000000000E+00  0.00000000000E+00 -0.30999086056E+03  0.30999086057E+03  0.25500000920E-02 0.  1.
    10030    2    1    2    0    0  0.00000000000E+00  0.00000000000E+00 -0.19804002650E+02  0.60017771849E+03  0.59985089418E+03 0.  0.
        5    1    3    3  502    0 -0.28369528760E+03  0.78949669404E+02 -0.66652542370E+02  0.30196145103E+03  0.46999998093E+01 0. -1.
       -5    1    3    3    0  502  0.28369528760E+03 -0.78949669404E+02  0.46848539719E+02  0.29821626746E+03  0.46999998093E+01 0.  1.
</event>
<event>
 5   0  0.2421210E-03  0.6000140E+03  0.7818609E-02  0.9905377E-01
        2   -1    0    0  501    0  0.00000000000E+00  0.00000000000E+00  0.27094655368E+04  0.27094655368E+04  0.25500000920E-02 0.  1.
       -2   -1    0    0    0  501  0.00000000000E+00  0.00000000000E+00 -0.33218431450E+02  0.33218431548E+02  0.25500000920E-02 0. -1.
    10030    2    1    2    0    0  0.00000000000E+00  0.00000000000E+00  0.26762471053E+04  0.27426839683E+04  0.60001398429E+03 0.  0.
        1    1    3    3  502    0  0.21772458703E+03  0.12232109491E+03  0.57820730236E+03  0.62983341495E+03  0.50400001928E-02 0. -1.
       -1    1    3    3    0  502 -0.21772458703E+03 -0.12232109491E+03  0.20980398030E+04  0.21128505534E+04  0.50400001928E-02 0.  1.
</event>
<event>
 5   0  0.2406307E-03  0.5999957E+03  0.7818609E-02  0.9905415E-01
       -2   -1    0    0    0  501  0.00000000000E+00  0.00000000000E+00  0.59671233748E+02  0.59671233802E+02  0.25500000920E-02 0.  1.
        2   -1    0    0  501    0  0.00000000000E+00  0.00000000000E+00 -0.15082430714E+04  0.15082430714E+04  0.25500000920E-02 0. -1.
    10030    2    1    2    0    0  0.00000000000E+00  0.00000000000E+00 -0.14485718377E+04  0.15679143052E+04  0.59999574968E+03 0.  0.
        5    1    3    3  502    0 -0.11043108461E+03 -0.17735478865E+03 -0.16182711493E+03  0.26431014099E+03  0.46999998093E+01 0.  1.
       -5    1    3    3    0  502  0.11043108461E+03  0.17735478865E+03 -0.12867447228E+04  0.13036041643E+04  0.46999998093E+01 0. -1.
</event>
<event>
 5   0  0.2421210E-03  0.5996789E+03  0.7818609E-02  0.9906072E-01
        2   -1    0    0  501    0  0.00000000000E+00  0.00000000000E+00  0.12367075784E+04  0.12367075784E+04  0.25500000920E-02 0.  1.
       -2   -1    0    0    0  501  0.00000000000E+00  0.00000000000E+00 -0.72696009548E+02  0.72696009592E+02  0.25500000920E-02 0. -1.
    10030    2    1    2    0    0  0.00000000000E+00  0.00000000000E+00  0.11640115688E+04  0.13094035880E+04  0.59967893395E+03 0.  0.
        1    1    3    3  502    0 -0.14883165505E+03 -0.27198787441E+02  0.11472478725E+04  0.11571811943E+04  0.50400001928E-02 0.  1.
       -1    1    3    3    0  502  0.14883165505E+03  0.27198787441E+02  0.16763696345E+02  0.15222239363E+03  0.50400001928E-02 0. -1.
</event>
<event>
 5   0  0.1392854E-03  0.5999151E+03  0.7818609E-02  0.9905582E-01
       -1   -1    0    0    0  501  0.00000000000E+00  0.00000000000E+00  0.12863343051E+03  0.12863343061E+03  0.50400001928E-02 0.  1.
        1   -1    0    0  501    0  0.00000000000E+00  0.00000000000E+00 -0.69946462413E+03  0.69946462415E+03  0.50400001928E-02 0. -1.
    10030    2    1    2    0    0  0.00000000000E+00  0.00000000000E+00 -0.57083119362E+03  0.82809805476E+03  0.59991510789E+03 0.  0.
        4    1    3    3  502    0  0.61268528966E+02 -0.13179959766E+03  0.76775263410E+02  0.16438071833E+03  0.12699999809E+01 0.  1.
       -4    1    3    3    0  502 -0.61268528966E+02  0.13179959766E+03 -0.64760645703E+03  0.66371733643E+03  0.12699999809E+01 0. -1.
</event>
<event>
 5   0  0.1479385E-03  0.5997919E+03  0.7818609E-02  0.9905838E-01
       -1   -1    0    0    0  501  0.00000000000E+00  0.00000000000E+00  0.15009568049E+03  0.15009568058E+03  0.50400001928E-02 0. -1.
        1   -1    0    0  501    0  0.00000000000E+00  0.00000000000E+00 -0.59920166937E+03  0.59920166939E+03  0.50400001928E-02 0.  1.
    10030    2    1    2    0    0  0.00000000000E+00  0.00000000000E+00 -0.44910598887E+03  0.74929734996E+03  0.59979190510E+03 0.  0.
        3    1    3    3  502    0 -0.15319303456E+03  0.43562622369E+02  0.92896706838E+02  0.18437900165E+03  0.10100000352E+00 0. -1.
       -3    1    3    3    0  502  0.15319303456E+03 -0.43562622369E+02 -0.54200269571E+03  0.56491834832E+03  0.10100000352E+00 0.  1.
</event>
<event>
 5   0  0.2421210E-03  0.6003338E+03  0.7818609E-02  0.9904714E-01
        2   -1    0    0  501    0  0.00000000000E+00  0.00000000000E+00  0.71007756188E+03  0.71007756188E+03  0.25500000920E-02 0. -1.
       -2   -1    0    0    0  501  0.00000000000E+00  0.00000000000E+00 -0.12688779340E+03  0.12688779343E+03  0.25500000920E-02 0.  1.
    10030    2    1    2    0    0  0.00000000000E+00  0.00000000000E+00  0.58318976847E+03  0.83696535531E+03  0.60033382375E+03 0.  0.
        1    1    3    3  502    0  0.22589346713E+03 -0.18697737786E+03  0.20219655013E+03  0.35619073996E+03  0.50400001928E-02 0.  1.
       -1    1    3    3    0  502 -0.22589346713E+03  0.18697737786E+03  0.38099321834E+03  0.48077461535E+03  0.50400001928E-02 0. -1.
</event>
<event>
 5   0  0.1416315E-03  0.6001934E+03  0.7818609E-02  0.9905005E-01
       -1   -1    0    0    0  501  0.00000000000E+00  0.00000000000E+00  0.44289543664E+02  0.44289543950E+02  0.50400001928E-02 0. -1.
        1   -1    0    0  501    0  0.00000000000E+00  0.00000000000E+00 -0.20333925086E+04  0.20333925086E+04  0.50400001928E-02 0.  1.
    10030    2    1    2    0    0  0.00000000000E+00  0.00000000000E+00 -0.19891029650E+04  0.20776820526E+04  0.60019339084E+03 0.  0.
        2    1    3    3  502    0  0.19553456660E+03 -0.22628916730E+03 -0.10805709466E+04  0.11211931700E+04  0.25500000920E-02 0. -1.
       -2    1    3    3    0  502 -0.19553456660E+03  0.22628916730E+03 -0.90853201841E+03  0.95648888256E+03  0.25500000920E-02 0.  1.
</event>
<event>
 5   0  0.2313168E-03  0.5997822E+03  0.7818609E-02  0.9905858E-01
        2   -1    0    0  501    0  0.00000000000E+00  0.00000000000E+00  0.80115003773E+03  0.80115003773E+03  0.25500000920E-02 0.  1.
       -2   -1    0    0    0  501  0.00000000000E+00  0.00000000000E+00 -0.11225695523E+03  0.11225695526E+03  0.25500000920E-02 0. -1.
    10030    2    1    2    0    0  0.00000000000E+00  0.00000000000E+00  0.68889308250E+03  0.91340699299E+03  0.59978217356E+03 0.  0.
        2    1    3    3  502    0 -0.28069634487E+03  0.25553678479E+02  0.50043199288E+03  0.57434798513E+03  0.25500000920E-02 0.  1.
       -2    1    3    3    0  502  0.28069634487E+03 -0.25553678479E+02  0.18846108962E+03  0.33905900787E+03  0.25500000920E-02 0. -1.
</event>
<event>
 5   0  0.1392854E-03  0.6013168E+03  0.7818609E-02  0.9902678E-01
        1   -1    0    0  501    0  0.00000000000E+00  0.00000000000E+00  0.46089873012E+03  0.46089873015E+03  0.50400001928E-02 0. -1.
       -1   -1    0    0    0  501  0.00000000000E+00  0.00000000000E+00 -0.19612869224E+03  0.19612869231E+03  0.50400001928E-02 0.  1.
    10030    2    1    2    0    0  0.00000000000E+00  0.00000000000E+00  0.26477003788E+03  0.65702742246E+03  0.60131677251E+03 0.  0.
        4    1    3    3  502    0  0.38210871989E+02 -0.11625440847E+03  0.43245301812E+03  0.44943562833E+03  0.12699999809E+01 0. -1.
       -4    1    3    3    0  502 -0.38210871989E+02  0.11625440847E+03 -0.16768298024E+03  0.20759179413E+03  0.12699999809E+01 0.  1.
</event>
<event>
 5   0  0.2406307E-03  0.5997909E+03  0.7818609E-02  0.9905840E-01
       -2   -1    0    0    0  501  0.00000000000E+00  0.00000000000E+00  0.13410882474E+03  0.13410882477E+03  0.25500000920E-02 0. -1.
        2   -1    0    0  501    0  0.00000000000E+00  0.00000000000E+00 -0.67062903607E+03  0.67062903608E+03  0.25500000920E-02 0.  1.
    10030    2    1    2    0    0  0.00000000000E+00  0.00000000000E+00 -0.53652021133E+03  0.80473786085E+03  0.59979086981E+03 0.  0.
        5    1    3    3  502    0  0.15376944157E+03  0.15732534280E+03  0.51265951579E+01  0.22010151436E+03  0.46999998093E+01 0. -1.
       -5    1    3    3    0  502 -0.15376944157E+03 -0.15732534280E+03 -0.54164680649E+03  0.58463634648E+03  0.46999998093E+01 0.  1.
</event>
<event>
 5   0  0.1392854E-03  0.5999067E+03  0.7818609E-02  0.9905600E-01
        1   -1    0    0  501    0  0.00000000000E+00  0.00000000000E+00  0.55134039250E+03  0.55134039252E+03  0.50400001928E-02 0. -1.
       -1   -1    0    0    0  501  0.00000000000E+00  0.00000000000E+00 -0.16318775748E+03  0.16318775756E+03  0.50400001928E-02 0.  1.
    10030    2    1    2    0    0  0.00000000000E+00  0.00000000000E+00  0.38815263502E+03  0.71452815008E+03  0.59990666706E+03 0.  0.
        4    1    3    3  502    0  0.26822925024E+03  0.91878586593E+02  0.31066565751E+03  0.42059882193E+03  0.12699999809E+01 0.  1.
       -4    1    3    3    0  502 -0.26822925024E+03 -0.91878586593E+02  0.77486977514E+02  0.29392932814E+03  0.12699999809E+01 0. -1.
</event>
<event>
 5   0  0.2421210E-03  0.6000812E+03  0.7818609E-02  0.9905238E-01
        2   -1    0    0  501    0  0.00000000000E+00  0.00000000000E+00  0.13499608767E+03  0.13499608770E+03  0.25500000920E-02 0.  1.
       -2   -1    0    0    0  501  0.00000000000E+00  0.00000000000E+00 -0.66686643280E+03  0.66686643280E+03  0.25500000920E-02 0. -1.
    10030    2    1    2    0    0  0.00000000000E+00  0.00000000000E+00 -0.53187034513E+03  0.80186252050E+03  0.60008119264E+03 0.  0.
        1    1    3    3  502    0 -0.25846645223E+02  0.15164429289E+03 -0.61016153774E+03  0.62925443407E+03  0.50400001928E-02 0. -1.
       -1    1    3    3    0  502  0.25846645223E+02 -0.15164429289E+03  0.78291192613E+02  0.17260808643E+03  0.50400001928E-02 0.  1.
</event>
<event>
 5   0  0.1416315E-03  0.5999121E+03  0.7818609E-02  0.9905588E-01
        1   -1    0    0  501    0  0.00000000000E+00  0.00000000000E+00  0.90541203548E+03  0.90541203550E+03  0.50400001928E-02 0. -1.
       -1   -1    0    0    0  501  0.00000000000E+00  0.00000000000E+00 -0.99373136800E+02  0.99373136928E+02  0.50400001928E-02 0.  1.
    10030    2    1    2    0    0  0.00000000000E+00  0.00000000000E+00  0.80603889868E+03  0.10047851724E+04  0.59991210734E+03 0.  0.
        2    1    3    3  502    0 -0.14953226653E+03 -0.96394919072E+02  0.80750301679E+03  0.82686939796E+03  0.25500000920E-02 0. -1.
       -2    1    3    3    0  502  0.14953226653E+03  0.96394919072E+02 -0.14641181048E+01  0.17791577446E+03  0.25500000920E-02 0.  1.
</event>
<event>
 5   0  0.9496750E-04  0.5999386E+03  0.7818609E-02  0.9905533E-01
        4   -1    0    0  501    0  0.00000000000E+00  0.00000000000E+00  0.20692482389E+03  0.20692872117E+03  0.12699999809E+01 0.  1.
       -4   -1    0    0    0  501  0.00000000000E+00  0.00000000000E+00 -0.43484265575E+03  0.43484451033E+03  0.12699999809E+01 0. -1.
    10030    2    1    2    0    0  0.00000000000E+00  0.00000000000E+00 -0.22791783186E+03  0.64177323149E+03  0.59993861568E+03 0.  0.
        5    1    3    3  502    0 -0.15318515128E+03  0.15251976846E+03  0.10846171138E+03  0.24189667872E+03  0.46999998093E+01 0.  1.
       -5    1    3    3    0  502  0.15318515128E+03 -0.15251976846E+03 -0.33637954324E+03  0.39987655277E+03  0.46999998093E+01 0. -1.
</event>
<event>
 5   0  0.1479385E-03  0.5997505E+03  0.7818609E-02  0.9905924E-01
       -1   -1    0    0    0  501  0.00000000000E+00  0.00000000000E+00  0.57834619301E+02  0.57834619520E+02  0.50400001928E-02 0. -1.
        1   -1    0    0  501    0  0.00000000000E+00  0.00000000000E+00 -0.15548676016E+04  0.15548676016E+04  0.50400001928E-02 0.  1.
    10030    2    1    2    0    0  0.00000000000E+00  0.00000000000E+00 -0.14970329823E+04  0.16127022212E+04  0.59975053476E+03 0.  0.
        3    1    3    3  502    0  0.20970325509E+03 -0.70002842394E+01 -0.17242265860E+03  0.27157695516E+03  0.10100000352E+00 0. -1.
       -3    1    3    3    0  502 -0.20970325509E+03  0.70002842394E+01 -0.13246103237E+04  0.13411252660E+04  0.10100000352E+00 0.  1.
</event>
<event>
 5   0  0.1418763E-03  0.5998363E+03  0.7818609E-02  0.9905746E-01
       -1   -1    0    0    0  501  0.00000000000E+00  0.00000000000E+00  0.22926044468E+03  0.22926044473E+03  0.50400001928E-02 0. -1.
        1   -1    0    0  501    0  0.00000000000E+00  0.00000000000E+00 -0.39235251047E+03  0.39235251050E+03  0.50400001928E-02 0.  1.
    10030    2    1    2    0    0  0.00000000000E+00  0.00000000000E+00 -0.16309206579E+03  0.62161295523E+03  0.59983634784E+03 0.  0.
        5    1    3    3  502    0  0.26547379897E+03 -0.12914926694E+03 -0.13611657832E+03  0.32512410551E+03  0.46999998093E+01 0.  1.
       -5    1    3    3    0  502 -0.26547379897E+03  0.12914926694E+03 -0.26975487473E+02  0.29648884973E+03  0.46999998093E+01 0. -1.
</event>
<event>
 5   0  0.1392854E-03  0.5999628E+03  0.7818609E-02  0.9905483E-01
        1   -1    0    0  501    0  0.00000000000E+00  0.00000000000E+00  0.97811905760E+03  0.97811905761E+03  0.50400001928E-02 0. -1.
       -1   -1    0    0    0  501  0.00000000000E+00  0.00000000000E+00 -0.92001933827E+02  0.92001933965E+02  0.50400001928E-02 0.  1.
    10030    2    1    2    0    0  0.00000000000E+00  0.00000000000E+00  0.88611712377E+03  0.10701209916E+04  0.59996281516E+03 0.  0.
        4    1    3    3  502    0 -0.12981257530E+03 -0.11488301241E+03  0.87973426009E+03  0.89665121007E+03  0.12699999809E+01 0. -1.
       -4    1    3    3    0  502  0.12981257530E+03  0.11488301241E+03  0.63828636851E+01  0.17346978151E+03  0.12699999809E+01 0.  1.
</event>
<event>
 5   0  0.2324616E-03  0.6034884E+03  0.7818609E-02  0.9898195E-01
        2   -1    0    0  501    0  0.00000000000E+00  0.00000000000E+00  0.33114176289E+03  0.33114176290E+03  0.25500000920E-02 0.  1.
       -2   -1    0    0    0  501  0.00000000000E+00  0.00000000000E+00 -0.27495647251E+03  0.27495647252E+03  0.25500000920E-02 0. -1.
    10030    2    1    2    0    0  0.00000000000E+00  0.00000000000E+00  0.56185290384E+02  0.60609823542E+03  0.60348842915E+03 0.  0.
        4    1    3    3  502    0  0.26390584264E+03 -0.84701551741E+02 -0.91701472124E+02  0.29194420620E+03  0.12699999809E+01 0. -1.
       -4    1    3    3    0  502 -0.26390584264E+03  0.84701551741E+02  0.14788676251E+03  0.31415402921E+03  0.12699999809E+01 0.  1.
</event>
<event>
 5   0  0.2421210E-03  0.5999745E+03  0.7818609E-02  0.9905459E-01
        2   -1    0    0  501    0  0.00000000000E+00  0.00000000000E+00  0.12493672437E+04  0.12493672437E+04  0.25500000920E-02 0. -1.
       -2   -1    0    0    0  501  0.00000000000E+00  0.00000000000E+00 -0.72030331791E+02  0.72030331836E+02  0.25500000920E-02 0.  1.
    10030    2    1    2    0    0  0.00000000000E+00  0.00000000000E+00  0.11773369119E+04  0.13213975755E+04  0.59997445653E+03 0.  0.
        1    1    3    3  502    0 -0.17480361373E+03 -0.60183689244E+02  0.11089904122E+04  0.11242944962E+04  0.50400001928E-02 0. -1.
       -1    1    3    3    0  502  0.17480361373E+03  0.60183689244E+02  0.68346499675E+02  0.19710307930E+03  0.50400001928E-02 0.  1.
</event>
<event>
 5   0  0.2406307E-03  0.6002117E+03  0.7818609E-02  0.9904967E-01
        2   -1    0    0  501    0  0.00000000000E+00  0.00000000000E+00  0.11577125318E+04  0.11577125318E+04  0.25500000920E-02 0. -1.
       -2   -1    0    0    0  501  0.00000000000E+00  0.00000000000E+00 -0.77794364630E+02  0.77794364672E+02  0.25500000920E-02 0.  1.
    10030    2    1    2    0    0  0.00000000000E+00  0.00000000000E+00  0.10799181671E+04  0.12355068964E+04  0.60021166553E+03 0.  0.
        5    1    3    3  502    0  0.42039916867E+02 -0.10782605951E+02  0.11511418753E+04  0.11519693252E+04  0.46999998093E+01 0. -1.
       -5    1    3    3    0  502 -0.42039916867E+02  0.10782605951E+02 -0.71223708164E+02  0.83537571212E+02  0.46999998093E+01 0.  1.
</event>
<event>
 5   0  0.2313168E-03  0.6001740E+03  0.7818609E-02  0.9905045E-01
        2   -1    0    0  501    0  0.00000000000E+00  0.00000000000E+00  0.11901901507E+04  0.11901901507E+04  0.25500000920E-02 0.  1.
       -2   -1    0    0    0  501  0.00000000000E+00  0.00000000000E+00 -0.75662031209E+02  0.75662031252E+02  0.25500000920E-02 0. -1.
    10030    2    1    2    0    0  0.00000000000E+00  0.00000000000E+00  0.11145281195E+04  0.12658521820E+04  0.60017398930E+03 0.  0.
        2    1    3    3  502    0 -0.18365334508E+03 -0.65520536359E+02  0.76163667128E+02  0.20933799474E+03  0.25500000920E-02 0. -1.
       -2    1    3    3    0  502  0.18365334508E+03  0.65520536359E+02  0.10383644524E+04  0.10565141872E+04  0.25500000920E-02 0.  1.
</event>
<event>
 5   0  0.9496750E-04  0.5997747E+03  0.7818609E-02  0.9905874E-01
       -4   -1    0    0    0  501  0.00000000000E+00  0.00000000000E+00  0.56662986933E+02  0.56677217540E+02  0.12699999809E+01 0. -1.
        4   -1    0    0  501    0  0.00000000000E+00  0.00000000000E+00 -0.15869322386E+04  0.15869327468E+04  0.12699999809E+01 0.  1.
    10030    2    1    2    0    0  0.00000000000E+00  0.00000000000E+00 -0.15302692516E+04  0.16436099643E+04  0.59977473456E+03 0.  0.
        5    1    3    3  502    0  0.10320480659E+03 -0.68639883293E+02 -0.15133517729E+04  0.15184262722E+04  0.46999998093E+01 0.  1.
       -5    1    3    3    0  502 -0.10320480659E+03  0.68639883293E+02 -0.16917478779E+02  0.12518369210E+03  0.46999998093E+01 0. -1.
</event>
<event>
 5   0  0.1423430E-03  0.6000655E+03  0.7818609E-02  0.9905270E-01
       -1   -1    0    0    0  501  0.00000000000E+00  0.00000000000E+00  0.85925592609E+02  0.85925592756E+02  0.50400001928E-02 0. -1.
        1   -1    0    0  501    0  0.00000000000E+00  0.00000000000E+00 -0.10476466812E+04  0.10476466812E+04  0.50400001928E-02 0.  1.
    10030    2    1    2    0    0  0.00000000000E+00  0.00000000000E+00 -0.96172108861E+03  0.11335722740E+04  0.60006553648E+03 0.  0.
        1    1    3    3  502    0 -0.66594877156E+02 -0.33327115815E+02 -0.10299110367E+04  0.10325997859E+04  0.50400001928E-02 0.  1.
       -1    1    3    3    0  502  0.66594877156E+02  0.33327115815E+02  0.68189948064E+02  0.10097248811E+03  0.50400001928E-02 0. -1.
</event>
<event>
 5   0  0.2406307E-03  0.6004358E+03  0.7818609E-02  0.9904502E-01
        2   -1    0    0  501    0  0.00000000000E+00  0.00000000000E+00  0.46213768981E+03  0.46213768982E+03  0.25500000920E-02 0. -1.
       -2   -1    0    0    0  501  0.00000000000E+00  0.00000000000E+00 -0.19503015354E+03  0.19503015356E+03  0.25500000920E-02 0.  1.
    10030    2    1    2    0    0  0.00000000000E+00  0.00000000000E+00  0.26710753627E+03  0.65716784338E+03  0.60043579043E+03 0.  0.
        5    1    3    3  502    0  0.75614172235E+02  0.67474344246E+02 -0.17570046804E+03  0.20288675324E+03  0.46999998093E+01 0.  1.
       -5    1    3    3    0  502 -0.75614172235E+02 -0.67474344246E+02  0.44280800431E+03  0.45428109013E+03  0.46999998093E+01 0. -1.
</event>
<event>
 5   0  0.2421210E-03  0.6002664E+03  0.7818609E-02  0.9904854E-01
        2   -1    0    0  501    0  0.00000000000E+00  0.00000000000E+00  0.10239326550E+03  0.10239326553E+03  0.25500000920E-02 0. -1.
       -2   -1    0    0    0  501  0.00000000000E+00  0.00000000000E+00 -0.87974469468E+03  0.87974469468E+03  0.25500000920E-02 0.  1.
    10030    2    1    2    0    0  0.00000000000E+00  0.00000000000E+00 -0.77735142918E+03  0.98213796022E+03  0.60026638125E+03 0.  0.
        1    1    3    3  502    0  0.13482483274E+03  0.18690440526E+02  0.48989456353E+02  0.14466179506E+03  0.50400001928E-02 0. -1.
       -1    1    3    3    0  502 -0.13482483274E+03 -0.18690440526E+02 -0.82634088553E+03  0.83747616516E+03  0.50400001928E-02 0.  1.
</event>
<event>
 5   0  0.1418763E-03  0.5998918E+03  0.7818609E-02  0.9905631E-01
       -1   -1    0    0    0  501  0.00000000000E+00  0.00000000000E+00  0.99317160032E+02  0.99317160160E+02  0.50400001928E-02 0.  1.
        1   -1    0    0  501    0  0.00000000000E+00  0.00000000000E+00 -0.90586105200E+03  0.90586105201E+03  0.50400001928E-02 0. -1.
    10030    2    1    2    0    0  0.00000000000E+00  0.00000000000E+00 -0.80654389196E+03  0.10051782122E+04  0.59989181405E+03 0.  0.
        5    1    3    3  502    0 -0.23895329253E+03  0.33961152146E+02 -0.70157293441E+03  0.74194252349E+03  0.46999998093E+01 0. -1.
       -5    1    3    3    0  502  0.23895329253E+03 -0.33961152146E+02 -0.10497095755E+03  0.26323568868E+03  0.46999998093E+01 0.  1.
</event>
<event>
 5   0  0.1423430E-03  0.5999608E+03  0.7818609E-02  0.9905487E-01
        1   -1    0    0  501    0  0.00000000000E+00  0.00000000000E+00  0.45897706966E+03  0.45897706969E+03  0.50400001928E-02 0.  1.
       -1   -1    0    0    0  501  0.00000000000E+00  0.00000000000E+00 -0.19606260573E+03  0.19606260580E+03  0.50400001928E-02 0. -1.
    10030    2    1    2    0    0  0.00000000000E+00  0.00000000000E+00  0.26291446393E+03  0.65503967548E+03  0.59996079965E+03 0.  0.
        1    1    3    3  502    0  0.17942038272E+03  0.24032629497E+03  0.12456601371E+03  0.32475389696E+03  0.50400001928E-02 0. -1.
       -1    1    3    3    0  502 -0.17942038272E+03 -0.24032629497E+03  0.13834845021E+03  0.33028577852E+03  0.50400001928E-02 0.  1.
</event>
<event>
 5   0  0.2406307E-03  0.6002855E+03  0.7818609E-02  0.9904814E-01
       -2   -1    0    0    0  501  0.00000000000E+00  0.00000000000E+00  0.13094970270E+03  0.13094970272E+03  0.25500000920E-02 0.  1.
        2   -1    0    0  501    0  0.00000000000E+00  0.00000000000E+00 -0.68794089855E+03  0.68794089855E+03  0.25500000920E-02 0. -1.
    10030    2    1    2    0    0  0.00000000000E+00  0.00000000000E+00 -0.55699119585E+03  0.81889060127E+03  0.60028545260E+03 0.  0.
        5    1    3    3  502    0 -0.63479650211E+02 -0.82427182338E+02  0.10551160350E+03  0.14825213270E+03  0.46999998093E+01 0.  1.
       -5    1    3    3    0  502  0.63479650211E+02  0.82427182338E+02 -0.66250279935E+03  0.67063846857E+03  0.46999998093E+01 0. -1.
</event>
<event>
 5   0  0.1479385E-03  0.5999169E+03  0.7818609E-02  0.9905579E-01
        1   -1    0    0  501    0  0.00000000000E+00  0.00000000000E+00  0.82201040958E+03  0.82201040959E+03  0.50400001928E-02 0.  1.
       -1   -1    0    0    0  501  0.00000000000E+00  0.00000000000E+00 -0.10945733032E+03  0.10945733043E+03  0.50400001928E-02 0. -1.
    10030    2    1    2    0    0  0.00000000000E+00  0.00000000000E+00  0.71255307926E+03  0.93146774003E+03  0.59991687753E+03 0.  0.
        3    1    3    3  502    0  0.19236702339E+03 -0.84658735005E+02  0.23982050075E+02  0.21153562827E+03  0.10100000352E+00 0. -1.
       -3    1    3    3    0  502 -0.19236702339E+03  0.84658735005E+02  0.68857102919E+03  0.71993211176E+03  0.10100000352E+00 0.  1.
</event>
<event>
 5   0  0.2406307E-03  0.5997900E+03  0.7818609E-02  0.9905842E-01
        2   -1    0    0  501    0  0.00000000000E+00  0.00000000000E+00  0.77180172387E+03  0.77180172387E+03  0.25500000920E-02 0.  1.
       -2   -1    0    0    0  501  0.00000000000E+00  0.00000000000E+00 -0.11652864873E+03  0.11652864876E+03  0.25500000920E-02 0. -1.
    10030    2    1    2    0    0  0.00000000000E+00  0.00000000000E+00  0.65527307514E+03  0.88833037263E+03  0.59979000319E+03 0.  0.
        5    1    3    3  502    0  0.27558952274E+03 -0.66832148339E+02  0.18328890008E+03  0.33768777293E+03  0.46999998093E+01 0. -1.
       -5    1    3    3    0  502 -0.27558952274E+03  0.66832148339E+02  0.47198417506E+03  0.55064259970E+03  0.46999998093E+01 0.  1.
</event>
<event>
 5   0  0.1416315E-03  0.5999852E+03  0.7818609E-02  0.9905437E-01
       -1   -1    0    0    0  501  0.00000000000E+00  0.00000000000E+00  0.43452950126E+03  0.43452950129E+03  0.50400001928E-02 0.  1.
        1   -1    0    0  501    0  0.00000000000E+00  0.00000000000E+00 -0.20711036385E+03  0.20711036392E+03  0.50400001928E-02 0. -1.
    10030    2    1    2    0    0  0.00000000000E+00  0.00000000000E+00  0.22741913740E+03  0.64163986520E+03  0.59998521029E+03 0.  0.
        2    1    3    3  502    0  0.15288833722E+03 -0.83922040756E+02  0.37474115546E+03  0.41333846444E+03  0.25500000920E-02 0.  1.
       -2    1    3    3    0  502 -0.15288833722E+03  0.83922040756E+02 -0.14732201805E+03  0.22830140077E+03  0.25500000920E-02 0. -1.
</event>
<event>
 5   0  0.2421210E-03  0.5997943E+03  0.7818609E-02  0.9905833E-01
       -2   -1    0    0    0  501  0.00000000000E+00  0.00000000000E+00  0.53812475619E+03  0.53812475620E+03  0.25500000920E-02 0.  1.
        2   -1    0    0  501    0  0.00000000000E+00  0.00000000000E+00 -0.16713280966E+03  0.16713280968E+03  0.25500000920E-02 0. -1.
    10030    2    1    2    0    0  0.00000000000E+00  0.00000000000E+00  0.37099194653E+03  0.70525756588E+03  0.59979430627E+03 0.  0.
        1    1    3    3  502    0 -0.17254814712E+03 -0.28026094350E+02  0.47202289173E+03  0.50335269482E+03  0.50400001928E-02 0.  1.
       -1    1    3    3    0  502  0.17254814712E+03  0.28026094350E+02 -0.10103094521E+03  0.20190487105E+03  0.50400001928E-02 0. -1.
</event>
<event>
 5   0  0.1416315E-03  0.5999239E+03  0.7818609E-02  0.9905564E-01
       -1   -1    0    0    0  501  0.00000000000E+00  0.00000000000E+00  0.43406713387E+03  0.43406713390E+03  0.50400001928E-02 0.  1.
        1   -1    0    0  501    0  0.00000000000E+00  0.00000000000E+00 -0.20728862816E+03  0.20728862822E+03  0.50400001928E-02 0. -1.
    10030    2    1    2    0    0  0.00000000000E+00  0.00000000000E+00  0.22677850571E+03  0.64135576212E+03  0.59992393097E+03 0.  0.
        2    1    3    3  502    0 -0.19711999042E+03 -0.13035390220E+03 -0.84108886070E+02  0.25084404550E+03  0.25500000920E-02 0.  1.
       -2    1    3    3    0  502  0.19711999042E+03  0.13035390220E+03  0.31088739178E+03  0.39051171662E+03  0.25500000920E-02 0. -1.
</event>
<event>
 5   0  0.9496750E-04  0.5997662E+03  0.7818609E-02  0.9905891E-01
        3   -1    0    0  501    0  0.00000000000E+00  0.00000000000E+00  0.30162504749E+03  0.30162506440E+03  0.10100000352E+00 0.  1.
       -3   -1    0    0    0  501  0.00000000000E+00  0.00000000000E+00 -0.29815117223E+03  0.29815118933E+03  0.10100000352E+00 0. -1.
    10030    2    1    2    0    0  0.00000000000E+00  0.00000000000E+00  0.34738752676E+01  0.59977625374E+03  0.59976619339E+03 0.  0.
        3    1    3    3  502    0 -0.22180547142E+03  0.16886959604E+03  0.11226143111E+03  0.30052827943E+03  0.10100000352E+00 0.  1.
       -3    1    3    3    0  502  0.22180547142E+03 -0.16886959604E+03 -0.10878755584E+03  0.29924797431E+03  0.10100000352E+00 0. -1.
</event>
<event>
 5   0  0.2324616E-03  0.5991660E+03  0.7818609E-02  0.9907138E-01
        2   -1    0    0  501    0  0.00000000000E+00  0.00000000000E+00  0.64886589630E+03  0.64886589630E+03  0.25500000920E-02 0.  1.
       -2   -1    0    0    0  501  0.00000000000E+00  0.00000000000E+00 -0.13831820417E+03  0.13831820420E+03  0.25500000920E-02 0. -1.
    10030    2    1    2    0    0  0.00000000000E+00  0.00000000000E+00  0.51054769212E+03  0.78718410050E+03  0.59916597212E+03 0.  0.
        4    1    3    3  502    0  0.18168938860E+03 -0.14922421007E+03  0.11354428789E+02  0.23539208728E+03  0.12699999809E+01 0. -1.
       -4    1    3    3    0  502 -0.18168938860E+03  0.14922421007E+03  0.49919326333E+03  0.55179201322E+03  0.12699999809E+01 0.  1.
</event>
<event>
 5   0  0.1416315E-03  0.5999166E+03  0.7818609E-02  0.9905579E-01
        1   -1    0    0  501    0  0.00000000000E+00  0.00000000000E+00  0.13129557420E+04  0.13129557420E+04  0.50400001928E-02 0. -1.
       -1   -1    0    0    0  501  0.00000000000E+00  0.00000000000E+00 -0.68528560517E+02  0.68528560702E+02  0.50400001928E-02 0.  1.
    10030    2    1    2    0    0  0.00000000000E+00  0.00000000000E+00  0.12444271815E+04  0.13814843028E+04  0.59991655139E+03 0.  0.
        2    1    3    3  502    0  0.12522885092E+03  0.64438996987E+02  0.12341197431E+02  0.14137522624E+03  0.25500000920E-02 0.  1.
       -2    1    3    3    0  502 -0.12522885092E+03 -0.64438996987E+02  0.12320859841E+04  0.12401090765E+04  0.25500000920E-02 0. -1.
</event>
<event>
 5   0  0.9496750E-04  0.6003879E+03  0.7818609E-02  0.9904602E-01
        4   -1    0    0  501    0  0.00000000000E+00  0.00000000000E+00  0.16448300146E+03  0.16448790433E+03  0.12699999809E+01 0. -1.
       -4   -1    0    0    0  501  0.00000000000E+00  0.00000000000E+00 -0.54786293156E+03  0.54786440355E+03  0.12699999809E+01 0.  1.
    10030    2    1    2    0    0  0.00000000000E+00  0.00000000000E+00 -0.38337993010E+03  0.71235230788E+03  0.60038790772E+03 0.  0.
        4    1    3    3  502    0 -0.21369134762E+03  0.17162606280E+03 -0.46398376572E+02  0.27798186943E+03  0.12699999809E+01 0.  1.
       -4    1    3    3    0  502  0.21369134762E+03 -0.17162606280E+03 -0.33698155353E+03  0.43437043845E+03  0.12699999809E+01 0. -1.
</event>
<event>
 5   0  0.1479385E-03  0.6001416E+03  0.7818609E-02  0.9905112E-01
       -1   -1    0    0    0  501  0.00000000000E+00  0.00000000000E+00  0.50478929036E+03  0.50478929039E+03  0.50400001928E-02 0. -1.
        1   -1    0    0  501    0  0.00000000000E+00  0.00000000000E+00 -0.17837638533E+03  0.17837638541E+03  0.50400001928E-02 0.  1.
    10030    2    1    2    0    0  0.00000000000E+00  0.00000000000E+00  0.32641290503E+03  0.68316567580E+03  0.60014161330E+03 0.  0.
        3    1    3    3  502    0 -0.17484783571E+03  0.23882859496E+03  0.21933964431E+03  0.36840297663E+03  0.10100000352E+00 0.  1.
       -3    1    3    3    0  502  0.17484783571E+03 -0.23882859496E+03  0.10707326072E+03  0.31476269917E+03  0.10100000352E+00 0. -1.
</event>
<event>
 5   0  0.1416315E-03  0.5983513E+03  0.7818609E-02  0.9908833E-01
        1   -1    0    0  501    0  0.00000000000E+00  0.00000000000E+00  0.31726144151E+03  0.31726144155E+03  0.50400001928E-02 0.  1.
       -1   -1    0    0    0  501  0.00000000000E+00  0.00000000000E+00 -0.28212082701E+03  0.28212082705E+03  0.50400001928E-02 0. -1.
    10030    2    1    2    0    0  0.00000000000E+00  0.00000000000E+00  0.35140614499E+02  0.59938226860E+03  0.59835126901E+03 0.  0.
        2    1    3    3  502    0 -0.16860384025E+01  0.22357601271E+03 -0.18156101191E+03  0.28801645307E+03  0.25500000920E-02 0. -1.
       -2    1    3    3    0  502  0.16860384025E+01 -0.22357601271E+03  0.21670162641E+03  0.31136581553E+03  0.25500000920E-02 0.  1.
</event>
<event>
 5   0  0.1423430E-03  0.5998449E+03  0.7818609E-02  0.9905728E-01
       -1   -1    0    0    0  501  0.00000000000E+00  0.00000000000E+00  0.55365650870E+02  0.55365651100E+02  0.50400001928E-02 0.  1.
        1   -1    0    0  501    0  0.00000000000E+00  0.00000000000E+00 -0.16247162695E+04  0.16247162695E+04  0.50400001928E-02 0. -1.
    10030    2    1    2    0    0  0.00000000000E+00  0.00000000000E+00 -0.15693506186E+04  0.16800819206E+04  0.59984489309E+03 0.  0.
        1    1    3    3  502    0 -0.21511691897E+03 -0.11552114441E+03 -0.29686661656E+03  0.38438289724E+03  0.50400001928E-02 0.  1.
       -1    1    3    3    0  502  0.21511691897E+03  0.11552114441E+03 -0.12724840021E+04  0.12956990234E+04  0.50400001928E-02 0. -1.
</event>
<event>
 5   0  0.1479385E-03  0.6000669E+03  0.7818609E-02  0.9905267E-01
        1   -1    0    0  501    0  0.00000000000E+00  0.00000000000E+00  0.12628245383E+04  0.12628245383E+04  0.50400001928E-02 0.  1.
       -1   -1    0    0    0  501  0.00000000000E+00  0.00000000000E+00 -0.71284704010E+02  0.71284704188E+02  0.50400001928E-02 0. -1.
    10030    2    1    2    0    0  0.00000000000E+00  0.00000000000E+00  0.11915398343E+04  0.13341092425E+04  0.60006690811E+03 0.  0.
        3    1    3    3  502    0  0.16527552155E+02 -0.22980766494E+03  0.16848971632E+03  0.28543566272E+03  0.10100000352E+00 0. -1.
       -3    1    3    3    0  502 -0.16527552155E+02  0.22980766494E+03  0.10230501180E+04  0.10486735798E+04  0.10100000352E+00 0.  1.
</event>
<event>
 5   0  0.1418763E-03  0.6004606E+03  0.7818609E-02  0.9904451E-01
        1   -1    0    0  501    0  0.00000000000E+00  0.00000000000E+00  0.13598018970E+04  0.13598018970E+04  0.50400001928E-02 0. -1.
       -1   -1    0    0    0  501  0.00000000000E+00  0.00000000000E+00 -0.66287767981E+02  0.66287768173E+02  0.50400001928E-02 0.  1.
    10030    2    1    2    0    0  0.00000000000E+00  0.00000000000E+00  0.12935141290E+04  0.14260896651E+04  0.60046059917E+03 0.  0.
        5    1    3    3  502    0 -0.44841021793E+02  0.24171535974E+03  0.23760216405E+03  0.34192676223E+03  0.46999998093E+01 0.  1.
       -5    1    3    3    0  502  0.44841021793E+02 -0.24171535974E+03  0.10559119649E+04  0.10841629029E+04  0.46999998093E+01 0. -1.
</event>
<event>
 5   0  0.1418763E-03  0.6003774E+03  0.7818609E-02  0.9904623E-01
        1   -1    0    0  501    0  0.00000000000E+00  0.00000000000E+00  0.13418047870E+04  0.13418047871E+04  0.50400001928E-02 0. -1.
       -1   -1    0    0    0  501  0.00000000000E+00  0.00000000000E+00 -0.67158252098E+02  0.67158252287E+02  0.50400001928E-02 0.  1.
    10030    2    1    2    0    0  0.00000000000E+00  0.00000000000E+00  0.12746465349E+04  0.14089630393E+04  0.60037742894E+03 0.  0.
        5    1    3    3  502    0  0.23255489755E+03  0.15303664745E+03  0.90063726046E+03  0.94269377890E+03  0.46999998093E+01 0.  1.
       -5    1    3    3    0  502 -0.23255489755E+03 -0.15303664745E+03  0.37400927448E+03  0.46626926044E+03  0.46999998093E+01 0. -1.
</event>
<event>
 5   0  0.2324616E-03  0.6009110E+03  0.7818609E-02  0.9903518E-01
       -2   -1    0    0    0  501  0.00000000000E+00  0.00000000000E+00  0.20527721135E+03  0.20527721136E+03  0.25500000920E-02 0. -1.
        2   -1    0    0  501    0  0.00000000000E+00  0.00000000000E+00 -0.43976387633E+03  0.43976387633E+03  0.25500000920E-02 0.  1.
    10030    2    1    2    0    0  0.00000000000E+00  0.00000000000E+00 -0.23448666498E+03  0.64504108770E+03  0.60091098240E+03 0.  0.
        4    1    3    3  502    0 -0.18589544860E+03  0.21964939617E+03 -0.24473670497E+02  0.28879672522E+03  0.12699999809E+01 0. -1.
       -4    1    3    3    0  502  0.18589544860E+03 -0.21964939617E+03 -0.21001299448E+03  0.35624436248E+03  0.12699999809E+01 0.  1.
</event>
<event>
 5   0  0.1392854E-03  0.6004282E+03  0.7818609E-02  0.9904518E-01
       -1   -1    0    0    0  501  0.00000000000E+00  0.00000000000E+00  0.52881393325E+03  0.52881393328E+03  0.50400001928E-02 0.  1.
        1   -1    0    0  501    0  0.00000000000E+00  0.00000000000E+00 -0.17043522218E+03  0.17043522225E+03  0.50400001928E-02 0. -1.
    10030    2    1    2    0    0  0.00000000000E+00  0.00000000000E+00  0.35837871108E+03  0.69924915553E+03  0.60042824797E+03 0.  0.
        4    1    3    3  502    0 -0.15722011832E+03  0.82240569488E+00  0.47703173067E+03  0.50227455333E+03  0.12699999809E+01 0.  1.
       -4    1    3    3    0  502  0.15722011832E+03 -0.82240569488E+00 -0.11865301959E+03  0.19697460220E+03  0.12699999809E+01 0. -1.
</event>
<event>
 5   0  0.2346281E-03  0.6006180E+03  0.7818609E-02  0.9904125E-01
       -2   -1    0    0    0  501  0.00000000000E+00  0.00000000000E+00  0.34081144274E+02  0.34081144369E+02  0.25500000920E-02 0. -1.
        2   -1    0    0  501    0  0.00000000000E+00  0.00000000000E+00 -0.26461989297E+04  0.26461989297E+04  0.25500000920E-02 0.  1.
    10030    2    1    2    0    0  0.00000000000E+00  0.00000000000E+00 -0.26121177854E+04  0.26802800741E+04  0.60061797386E+03 0.  0.
        3    1    3    3  502    0  0.17318867972E+03 -0.18669613606E+03 -0.20163696715E+04  0.20323868796E+04  0.10100000352E+00 0.  1.
       -3    1    3    3    0  502 -0.17318867972E+03  0.18669613606E+03 -0.59574811394E+03  0.64789319449E+03  0.10100000352E+00 0. -1.
</event>
<event>
 5   0  0.9496750E-04  0.5997734E+03  0.7818609E-02  0.9905876E-01
        3   -1    0    0  501    0  0.00000000000E+00  0.00000000000E+00  0.29581741978E+03  0.29581743702E+03  0.10100000352E+00 0.  1.
       -3   -1    0    0    0  501  0.00000000000E+00  0.00000000000E+00 -0.30401195637E+03  0.30401197314E+03  0.10100000352E+00 0. -1.
    10030    2    1    2    0    0  0.00000000000E+00  0.00000000000E+00 -0.81945365901E+01  0.59982941016E+03  0.59977343295E+03 0.  0.
        3    1    3    3  502    0 -0.23889730071E+03 -0.16156389291E+03 -0.86307256170E+02  0.30103781232E+03  0.10100000352E+00 0. -1.
       -3    1    3    3    0  502  0.23889730071E+03  0.16156389291E+03  0.78112719580E+02  0.29879159784E+03  0.10100000352E+00 0.  1.
</event>
<event>
 5   0  0.2421210E-03  0.6000559E+03  0.7818609E-02  0.9905290E-01
       -2   -1    0    0    0  501  0.00000000000E+00  0.00000000000E+00  0.26160534131E+03  0.26160534132E+03  0.25500000920E-02 0.  1.
        2   -1    0    0  501    0  0.00000000000E+00  0.00000000000E+00 -0.34409381335E+03  0.34409381336E+03  0.25500000920E-02 0. -1.
    10030    2    1    2    0    0  0.00000000000E+00  0.00000000000E+00 -0.82488472041E+02  0.60569915467E+03  0.60005592902E+03 0.  0.
        1    1    3    3  502    0 -0.10395653586E+03  0.21011041500E+03  0.14776909907E+03  0.27710838043E+03  0.50400001928E-02 0.  1.
       -1    1    3    3    0  502  0.10395653586E+03 -0.21011041500E+03 -0.23025757111E+03  0.32859077424E+03  0.50400001928E-02 0. -1.
</event>
<event>
 5   0  0.1416315E-03  0.6003684E+03  0.7818609E-02  0.9904642E-01
       -1   -1    0    0    0  501  0.00000000000E+00  0.00000000000E+00  0.18037581325E+03  0.18037581332E+03  0.50400001928E-02 0.  1.
        1   -1    0    0  501    0  0.00000000000E+00  0.00000000000E+00 -0.49957123596E+03  0.49957123599E+03  0.50400001928E-02 0. -1.
    10030    2    1    2    0    0  0.00000000000E+00  0.00000000000E+00 -0.31919542271E+03  0.67994704931E+03  0.60036844686E+03 0.  0.
        2    1    3    3  502    0  0.25304419119E+03 -0.14240106176E+03 -0.73336805155E+02  0.29947906785E+03  0.25500000920E-02 0.  1.
       -2    1    3    3    0  502 -0.25304419119E+03  0.14240106176E+03 -0.24585861756E+03  0.38046798146E+03  0.25500000920E-02 0. -1.
</event>
<event>
 5   0  0.2421210E-03  0.6000187E+03  0.7818609E-02  0.9905367E-01
       -2   -1    0    0    0  501  0.00000000000E+00  0.00000000000E+00  0.79720786796E+02  0.79720786837E+02  0.25500000920E-02 0.  1.
        2   -1    0    0  501    0  0.00000000000E+00  0.00000000000E+00 -0.11290106473E+04  0.11290106473E+04  0.25500000920E-02 0. -1.
    10030    2    1    2    0    0  0.00000000000E+00  0.00000000000E+00 -0.10492898605E+04  0.12087314341E+04  0.60001872347E+03 0.  0.
        1    1    3    3  502    0 -0.24422134691E+03 -0.86820990025E+02 -0.22030585249E+03  0.34017145568E+03  0.50400001928E-02 0.  1.
       -1    1    3    3    0  502  0.24422134691E+03  0.86820990025E+02 -0.82898400801E+03  0.86855997845E+03  0.50400001928E-02 0. -1.
</event>
<event>
 5   0  0.2346281E-03  0.6000009E+03  0.7818609E-02  0.9905404E-01
       -2   -1    0    0    0  501  0.00000000000E+00  0.00000000000E+00  0.81182876886E+02  0.81182876926E+02  0.25500000920E-02 0. -1.
        2   -1    0    0  501    0  0.00000000000E+00  0.00000000000E+00 -0.11086113624E+04  0.11086113624E+04  0.25500000920E-02 0.  1.
    10030    2    1    2    0    0  0.00000000000E+00  0.00000000000E+00 -0.10274284855E+04  0.11897942393E+04  0.60000086591E+03 0.  0.
        3    1    3    3  502    0  0.26695074170E+03  0.13147317890E+03 -0.58928543494E+03  0.66015545843E+03  0.10100000352E+00 0. -1.
       -3    1    3    3    0  502 -0.26695074170E+03 -0.13147317890E+03 -0.43814305057E+03  0.52963878089E+03  0.10100000352E+00 0.  1.
</event>
<event>
 5   0  0.1416315E-03  0.5982002E+03  0.7818609E-02  0.9909147E-01
       -1   -1    0    0    0  501  0.00000000000E+00  0.00000000000E+00  0.20995074034E+03  0.20995074040E+03  0.50400001928E-02 0. -1.
        1   -1    0    0  501    0  0.00000000000E+00  0.00000000000E+00 -0.42610413371E+03  0.42610413374E+03  0.50400001928E-02 0.  1.
    10030    2    1    2    0    0  0.00000000000E+00  0.00000000000E+00 -0.21615339337E+03  0.63605487414E+03  0.59820022857E+03 0.  0.
        2    1    3    3  502    0  0.24876875888E+03 -0.14752493674E+03 -0.27020261797E+02  0.29048166364E+03  0.25500000920E-02 0.  1.
       -2    1    3    3    0  502 -0.24876875888E+03  0.14752493674E+03 -0.18913313157E+03  0.34557321051E+03  0.25500000920E-02 0. -1.
</event>
<event>
 5   0  0.2346281E-03  0.6000682E+03  0.7818609E-02  0.9905265E-01
        2   -1    0    0  501    0  0.00000000000E+00  0.00000000000E+00  0.11200536083E+04  0.11200536083E+04  0.25500000920E-02 0.  1.
       -2   -1    0    0    0  501  0.00000000000E+00  0.00000000000E+00 -0.80371560429E+02  0.80371560470E+02  0.25500000920E-02 0. -1.
    10030    2    1    2    0    0  0.00000000000E+00  0.00000000000E+00  0.10396820479E+04  0.12004251688E+04  0.60006818377E+03 0.  0.
        3    1    3    3  502    0 -0.16415414490E+03 -0.25095692886E+03  0.53928614038E+03  0.61705389946E+03  0.10100000352E+00 0. -1.
       -3    1    3    3    0  502  0.16415414490E+03  0.25095692886E+03  0.50039590753E+03  0.58337126936E+03  0.10100000352E+00 0.  1.
</event>
<event>
 5   0  0.1392854E-03  0.6007804E+03  0.7818609E-02  0.9903788E-01
        1   -1    0    0  501    0  0.00000000000E+00  0.00000000000E+00  0.86430602952E+03  0.86430602953E+03  0.50400001928E-02 0.  1.
       -1   -1    0    0    0  501  0.00000000000E+00  0.00000000000E+00 -0.10440084086E+03  0.10440084099E+03  0.50400001928E-02 0. -1.
    10030    2    1    2    0    0  0.00000000000E+00  0.00000000000E+00  0.75990518865E+03  0.96870687052E+03  0.60078041350E+03 0.  0.
        4    1    3    3  502    0  0.10718957443E+03  0.44178016755E+02 -0.66867605017E+02  0.13384390734E+03  0.12699999809E+01 0. -1.
       -4    1    3    3    0  502 -0.10718957443E+03 -0.44178016755E+02  0.82677279367E+03  0.83486296317E+03  0.12699999809E+01 0.  1.
</event>
<event>
 5   0  0.9496750E-04  0.6001286E+03  0.7818609E-02  0.9905139E-01
        4   -1    0    0  501    0  0.00000000000E+00  0.00000000000E+00  0.23692038005E+03  0.23692378391E+03  0.12699999809E+01 0.  1.
       -4   -1    0    0    0  501  0.00000000000E+00  0.00000000000E+00 -0.38003010379E+03  0.38003222585E+03  0.12699999809E+01 0. -1.
    10030    2    1    2    0    0  0.00000000000E+00  0.00000000000E+00 -0.14310972374E+03  0.61695600976E+03  0.60012859035E+03 0.  0.
        1    1    3    3  502    0 -0.12618618928E+03  0.13587220029E+03 -0.31408154389E+03  0.36473473294E+03  0.50400001928E-02 0. -1.
       -1    1    3    3    0  502  0.12618618928E+03 -0.13587220029E+03  0.17097182014E+03  0.25222127682E+03  0.50400001928E-02 0.  1.
</event>
<event>
 5   0  0.1392854E-03  0.6000860E+03  0.7818609E-02  0.9905228E-01
        1   -1    0    0  501    0  0.00000000000E+00  0.00000000000E+00  0.24978349260E+03  0.24978349265E+03  0.50400001928E-02 0.  1.
       -1   -1    0    0    0  501  0.00000000000E+00  0.00000000000E+00 -0.36041537289E+03  0.36041537293E+03  0.50400001928E-02 0. -1.
    10030    2    1    2    0    0  0.00000000000E+00  0.00000000000E+00 -0.11063188029E+03  0.61019886557E+03  0.60008602934E+03 0.  0.
        4    1    3    3  502    0 -0.60623319934E+00  0.15917312875E+03  0.20330809708E+03  0.25820969709E+03  0.12699999809E+01 0.  1.
       -4    1    3    3    0  502  0.60623319934E+00 -0.15917312875E+03 -0.31393997737E+03  0.35198916848E+03  0.12699999809E+01 0. -1.
</event>
<event>
 5   0  0.2421210E-03  0.6001957E+03  0.7818609E-02  0.9905000E-01
       -2   -1    0    0    0  501  0.00000000000E+00  0.00000000000E+00  0.16987739039E+03  0.16987739041E+03  0.25500000920E-02 0.  1.
        2   -1    0    0  501    0  0.00000000000E+00  0.00000000000E+00 -0.53013955723E+03  0.53013955723E+03  0.25500000920E-02 0. -1.
    10030    2    1    2    0    0  0.00000000000E+00  0.00000000000E+00 -0.36026216684E+03  0.70001694764E+03  0.60019571653E+03 0.  0.
        1    1    3    3  502    0 -0.25463169688E+03 -0.13762645442E+03 -0.87701986380E+02  0.30244004439E+03  0.50400001928E-02 0.  1.
       -1    1    3    3    0  502  0.25463169688E+03  0.13762645442E+03 -0.27256018046E+03  0.39757690326E+03  0.50400001928E-02 0. -1.
</event>
<event>
 5   0  0.1423430E-03  0.6002974E+03  0.7818609E-02  0.9904789E-01
       -1   -1    0    0    0  501  0.00000000000E+00  0.00000000000E+00  0.25216175953E+03  0.25216175958E+03  0.50400001928E-02 0. -1.
        1   -1    0    0  501    0  0.00000000000E+00  0.00000000000E+00 -0.35726769694E+03  0.35726769698E+03  0.50400001928E-02 0.  1.
    10030    2    1    2    0    0  0.00000000000E+00  0.00000000000E+00 -0.10510593741E+03  0.60942945656E+03  0.60029742998E+03 0.  0.
        1    1    3    3  502    0 -0.15712673405E+03 -0.18086150469E+03 -0.23610596282E+03  0.33637140208E+03  0.50400001928E-02 0.  1.
       -1    1    3    3    0  502  0.15712673405E+03  0.18086150469E+03  0.13100002541E+03  0.27305805448E+03  0.50400001928E-02 0. -1.
</event>
<event>
 5   0  0.1416315E-03  0.6000520E+03  0.7818609E-02  0.9905298E-01
        1   -1    0    0  501    0  0.00000000000E+00  0.00000000000E+00  0.80677382996E+03  0.80677382998E+03  0.50400001928E-02 0. -1.
       -1   -1    0    0    0  501  0.00000000000E+00  0.00000000000E+00 -0.11157478130E+03  0.11157478141E+03  0.50400001928E-02 0.  1.
    10030    2    1    2    0    0  0.00000000000E+00  0.00000000000E+00  0.69519904866E+03  0.91834861139E+03  0.60005204339E+03 0.  0.
        2    1    3    3  502    0  0.17988974921E+03  0.23904399773E+03  0.38227216578E+03  0.48542184072E+03  0.25500000920E-02 0. -1.
       -2    1    3    3    0  502 -0.17988974921E+03 -0.23904399773E+03  0.31292688288E+03  0.43292677066E+03  0.25500000920E-02 0.  1.
</event>
<event>
 5   0  0.2313168E-03  0.5999662E+03  0.7818609E-02  0.9905476E-01
        2   -1    0    0  501    0  0.00000000000E+00  0.00000000000E+00  0.95064899412E+03  0.95064899413E+03  0.25500000920E-02 0.  1.
       -2   -1    0    0    0  501  0.00000000000E+00  0.00000000000E+00 -0.94661508165E+02  0.94661508199E+02  0.25500000920E-02 0. -1.
    10030    2    1    2    0    0  0.00000000000E+00  0.00000000000E+00  0.85598748596E+03  0.10453105023E+04  0.59996622418E+03 0.  0.
        2    1    3    3  502    0 -0.11467486681E+03 -0.81444182786E+02  0.88963734970E+03  0.90068756735E+03  0.25500000920E-02 0.  1.
       -2    1    3    3    0  502  0.11467486681E+03  0.81444182786E+02 -0.33649863739E+02  0.14462293498E+03  0.25500000920E-02 0. -1.
</event>
<event>
 5   0  0.2313168E-03  0.5997976E+03  0.7818609E-02  0.9905826E-01
       -2   -1    0    0    0  501  0.00000000000E+00  0.00000000000E+00  0.59949659596E+02  0.59949659650E+02  0.25500000920E-02 0.  1.
        2   -1    0    0  501    0  0.00000000000E+00  0.00000000000E+00 -0.15002466581E+04  0.15002466581E+04  0.25500000920E-02 0. -1.
    10030    2    1    2    0    0  0.00000000000E+00  0.00000000000E+00 -0.14402969986E+04  0.15601963178E+04  0.59979755421E+03 0.  0.
        2    1    3    3  502    0  0.14987196883E+03 -0.25938903922E+03 -0.75647195696E+03  0.81363020002E+03  0.25500000920E-02 0. -1.
       -2    1    3    3    0  502 -0.14987196883E+03  0.25938903922E+03 -0.68382504159E+03  0.74656611778E+03  0.25500000920E-02 0.  1.
</event>
<event>
 5   0  0.2406307E-03  0.5999113E+03  0.7818609E-02  0.9905590E-01
        2   -1    0    0  501    0  0.00000000000E+00  0.00000000000E+00  0.74053544442E+03  0.74053544443E+03  0.25500000920E-02 0.  1.
       -2   -1    0    0    0  501  0.00000000000E+00  0.00000000000E+00 -0.12149774357E+03  0.12149774360E+03  0.25500000920E-02 0. -1.
    10030    2    1    2    0    0  0.00000000000E+00  0.00000000000E+00  0.61903770085E+03  0.86203318803E+03  0.59991127860E+03 0.  0.
        5    1    3    3  502    0 -0.56188902155E+01 -0.16593705212E+03 -0.49383019206E+02  0.17328430332E+03  0.46999998093E+01 0. -1.
       -5    1    3    3    0  502  0.56188902155E+01  0.16593705212E+03  0.66842072005E+03  0.68874888471E+03  0.46999998093E+01 0.  1.
</event>
<event>
 5   0  0.2421210E-03  0.5999386E+03  0.7818609E-02  0.9905533E-01
       -2   -1    0    0    0  501  0.00000000000E+00  0.00000000000E+00  0.16082135589E+03  0.16082135591E+03  0.25500000920E-02 0.  1.
        2   -1    0    0  501    0  0.00000000000E+00  0.00000000000E+00 -0.55951261687E+03  0.55951261688E+03  0.25500000920E-02 0. -1.
    10030    2    1    2    0    0  0.00000000000E+00  0.00000000000E+00 -0.39869126098E+03  0.72033397279E+03  0.59993858917E+03 0.  0.
        1    1    3    3  502    0 -0.15755298982E+03 -0.28817852940E+02 -0.50387394572E+03  0.52871766231E+03  0.50400001928E-02 0. -1.
       -1    1    3    3    0  502  0.15755298982E+03  0.28817852940E+02  0.10518268473E+03  0.19161631048E+03  0.50400001928E-02 0.  1.
</event>
<event>
 5   0  0.1423430E-03  0.5999870E+03  0.7818609E-02  0.9905433E-01
       -1   -1    0    0    0  501  0.00000000000E+00  0.00000000000E+00  0.45803133691E+02  0.45803133968E+02  0.50400001928E-02 0.  1.
        1   -1    0    0  501    0  0.00000000000E+00  0.00000000000E+00 -0.19648461172E+04  0.19648461172E+04  0.50400001928E-02 0. -1.
    10030    2    1    2    0    0  0.00000000000E+00  0.00000000000E+00 -0.19190429835E+04  0.20106492511E+04  0.59998703210E+03 0.  0.
        1    1    3    3  502    0  0.16163036337E+03 -0.14021439759E+03 -0.16641542889E+04  0.16778539712E+04  0.50400001928E-02 0.  1.
       -1    1    3    3    0  502 -0.16163036337E+03  0.14021439759E+03 -0.25488869461E+03  0.33279527990E+03  0.50400001928E-02 0. -1.
</event>
<event>
 5   0  0.2324616E-03  0.6001360E+03  0.7818609E-02  0.9905124E-01
       -2   -1    0    0    0  501  0.00000000000E+00  0.00000000000E+00  0.88185502635E+02  0.88185502671E+02  0.25500000920E-02 0.  1.
        2   -1    0    0  501    0  0.00000000000E+00  0.00000000000E+00 -0.10210387569E+04  0.10210387569E+04  0.25500000920E-02 0. -1.
    10030    2    1    2    0    0  0.00000000000E+00  0.00000000000E+00 -0.93285325426E+03  0.11092242596E+04  0.60013603794E+03 0.  0.
        4    1    3    3  502    0 -0.12604292329E+02 -0.11247324324E+03 -0.98007150753E+03  0.98658546077E+03  0.12699999809E+01 0. -1.
       -4    1    3    3    0  502  0.12604292329E+02  0.11247324324E+03  0.47218253266E+02  0.12263879880E+03  0.12699999809E+01 0.  1.
</event>
<event>
 5   0  0.2406307E-03  0.5999803E+03  0.7818609E-02  0.9905447E-01
       -2   -1    0    0    0  501  0.00000000000E+00  0.00000000000E+00  0.36636324538E+02  0.36636324627E+02  0.25500000920E-02 0. -1.
        2   -1    0    0  501    0  0.00000000000E+00  0.00000000000E+00 -0.24564172566E+04  0.24564172566E+04  0.25500000920E-02 0.  1.
    10030    2    1    2    0    0  0.00000000000E+00  0.00000000000E+00 -0.24197809321E+04  0.24930535812E+04  0.59998033276E+03 0.  0.
        5    1    3    3  502    0 -0.27575978504E+03 -0.45339219373E+02 -0.16626557441E+04  0.16859849695E+04  0.46999998093E+01 0.  1.
       -5    1    3    3    0  502  0.27575978504E+03  0.45339219373E+02 -0.75712518796E+03  0.80706861177E+03  0.46999998093E+01 0. -1.
</event>
<event>
 5   0  0.2346281E-03  0.5996888E+03  0.7818609E-02  0.9906052E-01
        2   -1    0    0  501    0  0.00000000000E+00  0.00000000000E+00  0.53670153176E+03  0.53670153176E+03  0.25500000920E-02 0. -1.
       -2   -1    0    0    0  501  0.00000000000E+00  0.00000000000E+00 -0.16751706617E+03  0.16751706619E+03  0.25500000920E-02 0.  1.
    10030    2    1    2    0    0  0.00000000000E+00  0.00000000000E+00  0.36918446559E+03  0.70421859795E+03  0.59968880603E+03 0.  0.
        3    1    3    3  502    0 -0.23509689975E+03 -0.55646320998E+02  0.39314193462E+03  0.46144084808E+03  0.10100000352E+00 0. -1.
       -3    1    3    3    0  502  0.23509689975E+03  0.55646320998E+02 -0.23957469035E+02  0.24277774988E+03  0.10100000352E+00 0.  1.
</event>
<event>
 5   0  0.1423430E-03  0.5999616E+03  0.7818609E-02  0.9905486E-01
       -1   -1    0    0    0  501  0.00000000000E+00  0.00000000000E+00  0.15041071295E+03  0.15041071303E+03  0.50400001928E-02 0.  1.
        1   -1    0    0  501    0  0.00000000000E+00  0.00000000000E+00 -0.59828511263E+03  0.59828511265E+03  0.50400001928E-02 0. -1.
    10030    2    1    2    0    0  0.00000000000E+00  0.00000000000E+00 -0.44787439969E+03  0.74869582569E+03  0.59996163336E+03 0.  0.
        1    1    3    3  502    0  0.51530909554E+02  0.86947871166E+02  0.12852312022E+03  0.16350400422E+03  0.50400001928E-02 0.  1.
       -1    1    3    3    0  502 -0.51530909554E+02 -0.86947871166E+02 -0.57639751990E+03  0.58519182147E+03  0.50400001928E-02 0. -1.
</event>
<event>
 5   0  0.9496750E-04  0.6001088E+03  0.7818609E-02  0.9905180E-01
        4   -1    0    0  501    0  0.00000000000E+00  0.00000000000E+00  0.66379612906E+03  0.66379734396E+03  0.12699999809E+01 0.  1.
       -4   -1    0    0    0  501  0.00000000000E+00  0.00000000000E+00 -0.13562867875E+03  0.13563462464E+03  0.12699999809E+01 0. -1.
    10030    2    1    2    0    0  0.00000000000E+00  0.00000000000E+00  0.52816745031E+03  0.79943196860E+03  0.60010883751E+03 0.  0.
        4    1    3    3  502    0 -0.51978392991E+02  0.27252165562E+03  0.41632892682E+03  0.50030110367E+03  0.12699999809E+01 0.  1.
       -4    1    3    3    0  502  0.51978392991E+02 -0.27252165562E+03  0.11183852349E+03  0.29913086493E+03  0.12699999809E+01 0. -1.
</event>
<event>
 5   0  0.1416315E-03  0.5994513E+03  0.7818609E-02  0.9906545E-01
       -1   -1    0    0    0  501  0.00000000000E+00  0.00000000000E+00  0.52604314771E+03  0.52604314773E+03  0.50400001928E-02 0. -1.
        1   -1    0    0  501    0  0.00000000000E+00  0.00000000000E+00 -0.17077585701E+03  0.17077585708E+03  0.50400001928E-02 0.  1.
    10030    2    1    2    0    0  0.00000000000E+00  0.00000000000E+00  0.35526729070E+03  0.69681900481E+03  0.59945131381E+03 0.  0.
        2    1    3    3  502    0 -0.61641228034E+02  0.25234515262E+03  0.35144579920E+03  0.43702616263E+03  0.25500000920E-02 0. -1.
       -2    1    3    3    0  502  0.61641228034E+02 -0.25234515262E+03  0.38214914996E+01  0.25979284218E+03  0.25500000920E-02 0.  1.
</event>
<event>
 5   0  0.2313168E-03  0.6000048E+03  0.7818609E-02  0.9905396E-01
        2   -1    0    0  501    0  0.00000000000E+00  0.00000000000E+00  0.95183123724E+03  0.95183123724E+03  0.25500000920E-02 0. -1.
       -2   -1    0    0    0  501  0.00000000000E+00  0.00000000000E+00 -0.94556096197E+02  0.94556096231E+02  0.25500000920E-02 0.  1.
    10030    2    1    2    0    0  0.00000000000E+00  0.00000000000E+00  0.85727514104E+03  0.10463873335E+04  0.60000482015E+03 0.  0.
        2    1    3    3  502    0  0.88965054538E+02 -0.24817154599E+03  0.17895472802E+03  0.31863567261E+03  0.25500000920E-02 0.  1.
       -2    1    3    3    0  502 -0.88965054538E+02  0.24817154599E+03  0.67832041301E+03  0.72775166086E+03  0.25500000920E-02 0. -1.
</event>
<event>
 5   0  0.2324616E-03  0.6000584E+03  0.7818609E-02  0.9905285E-01
        2   -1    0    0  501    0  0.00000000000E+00  0.00000000000E+00  0.32664490597E+03  0.32664490598E+03  0.25500000920E-02 0.  1.
       -2   -1    0    0    0  501  0.00000000000E+00  0.00000000000E+00 -0.27558219822E+03  0.27558219823E+03  0.25500000920E-02 0. -1.
    10030    2    1    2    0    0  0.00000000000E+00  0.00000000000E+00  0.51062707756E+02  0.60222710422E+03  0.60005840126E+03 0.  0.
        4    1    3    3  502    0 -0.11791469589E+03 -0.73245299826E+02 -0.24141333162E+03  0.27847936914E+03  0.12699999809E+01 0. -1.
       -4    1    3    3    0  502  0.11791469589E+03  0.73245299826E+02  0.29247603938E+03  0.32374773507E+03  0.12699999809E+01 0.  1.
</event>
<event>
 5   0  0.2406307E-03  0.6001970E+03  0.7818609E-02  0.9904997E-01
       -2   -1    0    0    0  501  0.00000000000E+00  0.00000000000E+00  0.69450973350E+03  0.69450973350E+03  0.25500000920E-02 0. -1.
        2   -1    0    0  501    0  0.00000000000E+00  0.00000000000E+00 -0.12967294074E+03  0.12967294077E+03  0.25500000920E-02 0.  1.
    10030    2    1    2    0    0  0.00000000000E+00  0.00000000000E+00  0.56483679275E+03  0.82418267427E+03  0.60019703275E+03 0.  0.
        5    1    3    3  502    0  0.73578841293E+02  0.28302864094E+03  0.19011845891E+03  0.34883545676E+03  0.46999998093E+01 0. -1.
       -5    1    3    3    0  502 -0.73578841293E+02 -0.28302864094E+03  0.37471833384E+03  0.47534721751E+03  0.46999998093E+01 0.  1.
</event>
<event>
 5   0  0.1392854E-03  0.6002193E+03  0.7818609E-02  0.9904951E-01
        1   -1    0    0  501    0  0.00000000000E+00  0.00000000000E+00  0.13454621724E+04  0.13454621724E+04  0.50400001928E-02 0.  1.
       -1   -1    0    0    0  501  0.00000000000E+00  0.00000000000E+00 -0.66940412908E+02  0.66940413097E+02  0.50400001928E-02 0. -1.
    10030    2    1    2    0    0  0.00000000000E+00  0.00000000000E+00  0.12785217595E+04  0.14124025855E+04  0.60021927164E+03 0.  0.
        4    1    3    3  502    0  0.14339477830E+03 -0.15837172764E+02  0.20015834564E+02  0.14565412805E+03  0.12699999809E+01 0. -1.
       -4    1    3    3    0  502 -0.14339477830E+03  0.15837172764E+02  0.12585059249E+04  0.12667484574E+04  0.12699999809E+01 0.  1.
</event>
<event>
 5   0  0.1392854E-03  0.6001126E+03  0.7818609E-02  0.9905172E-01
       -1   -1    0    0    0  501  0.00000000000E+00  0.00000000000E+00  0.13768673067E+03  0.13768673076E+03  0.50400001928E-02 0.  1.
        1   -1    0    0  501    0  0.00000000000E+00  0.00000000000E+00 -0.65390322712E+03  0.65390322714E+03  0.50400001928E-02 0. -1.
    10030    2    1    2    0    0  0.00000000000E+00  0.00000000000E+00 -0.51621649645E+03  0.79158995790E+03  0.60011264796E+03 0.  0.
        4    1    3    3  502    0 -0.19775647272E+03  0.91125452640E+02 -0.53042719375E+03  0.57338127925E+03  0.12699999809E+01 0. -1.
       -4    1    3    3    0  502  0.19775647272E+03 -0.91125452640E+02  0.14210697302E+02  0.21820867865E+03  0.12699999809E+01 0.  1.
</event>
<event>
 5   0  0.2313168E-03  0.6000550E+03  0.7818609E-02  0.9905292E-01
       -2   -1    0    0    0  501  0.00000000000E+00  0.00000000000E+00  0.45933789740E+02  0.45933789810E+02  0.25500000920E-02 0. -1.
        2   -1    0    0  501    0  0.00000000000E+00  0.00000000000E+00 -0.19597012804E+04  0.19597012804E+04  0.25500000920E-02 0.  1.
    10030    2    1    2    0    0  0.00000000000E+00  0.00000000000E+00 -0.19137674907E+04  0.20056350703E+04  0.60005501961E+03 0.  0.
        2    1    3    3  502    0  0.75933348208E+02  0.17706061419E+02  0.11478605935E+02  0.78810763109E+02  0.25500000920E-02 0. -1.
       -2    1    3    3    0  502 -0.75933348208E+02 -0.17706061419E+02 -0.19252460966E+04  0.19268243071E+04  0.25500000920E-02 0.  1.
</event>
<event>
 5   0  0.2421210E-03  0.5997166E+03  0.7818609E-02  0.9905994E-01
        2   -1    0    0  501    0  0.00000000000E+00  0.00000000000E+00  0.79854942391E+03  0.79854942391E+03  0.25500000920E-02 0.  1.
       -2   -1    0    0    0  501  0.00000000000E+00  0.00000000000E+00 -0.11259790420E+03  0.11259790423E+03  0.25500000920E-02 0. -1.
    10030    2    1    2    0    0  0.00000000000E+00  0.00000000000E+00  0.68595151970E+03  0.91114732815E+03  0.59971657156E+03 0.  0.
        1    1    3    3  502    0 -0.23311396047E+03 -0.29742454401E+02  0.62594146967E+03  0.66860261414E+03  0.50400001928E-02 0.  1.
       -1    1    3    3    0  502  0.23311396047E+03  0.29742454401E+02  0.60010050039E+02  0.24254471401E+03  0.50400001928E-02 0. -1.
</event>
<event>
 5   0  0.2421210E-03  0.5994969E+03  0.7818609E-02  0.9906450E-01
        2   -1    0    0  501    0  0.00000000000E+00  0.00000000000E+00  0.72425235471E+03  0.72425235472E+03  0.25500000920E-02 0. -1.
       -2   -1    0    0    0  501  0.00000000000E+00  0.00000000000E+00 -0.12405779103E+03  0.12405779105E+03  0.25500000920E-02 0.  1.
    10030    2    1    2    0    0  0.00000000000E+00  0.00000000000E+00  0.60019456369E+03  0.84831014577E+03  0.59949694673E+03 0.  0.
        1    1    3    3  502    0 -0.14391225876E+03  0.25064263557E+03  0.18763366033E+03  0.34458505409E+03  0.50400001928E-02 0.  1.
       -1    1    3    3    0  502  0.14391225876E+03 -0.25064263557E+03  0.41256090335E+03  0.50372509168E+03  0.50400001928E-02 0. -1.
</event>
<event>
 5   0  0.9496750E-04  0.5999448E+03  0.7818609E-02  0.9905521E-01
        4   -1    0    0  501    0  0.00000000000E+00  0.00000000000E+00  0.15115245436E+04  0.15115250772E+04  0.12699999809E+01 0.  1.
       -4   -1    0    0    0  501  0.00000000000E+00  0.00000000000E+00 -0.59524256941E+02  0.59537803657E+02  0.12699999809E+01 0. -1.
    10030    2    1    2    0    0  0.00000000000E+00  0.00000000000E+00  0.14520002867E+04  0.15710628808E+04  0.59994478325E+03 0.  0.
        5    1    3    3  502    0  0.18357731487E+03  0.84784464335E+02  0.13060970327E+04  0.13216658370E+04  0.46999998093E+01 0.  1.
       -5    1    3    3    0  502 -0.18357731487E+03 -0.84784464335E+02  0.14590325397E+03  0.24939704378E+03  0.46999998093E+01 0. -1.
</event>
<event>
 5   0  0.2406307E-03  0.5999206E+03  0.7818609E-02  0.9905571E-01
        2   -1    0    0  501    0  0.00000000000E+00  0.00000000000E+00  0.64026344742E+03  0.64026344743E+03  0.25500000920E-02 0.  1.
       -2   -1    0    0    0  501  0.00000000000E+00  0.00000000000E+00 -0.14052995930E+03  0.14052995932E+03  0.25500000920E-02 0. -1.
    10030    2    1    2    0    0  0.00000000000E+00  0.00000000000E+00  0.49973348812E+03  0.78079340675E+03  0.59992064881E+03 0.  0.
        5    1    3    3  502    0  0.15007563936E+03 -0.25751787202E+03  0.29334434065E+03  0.41822379670E+03  0.46999998093E+01 0.  1.
       -5    1    3    3    0  502 -0.15007563936E+03  0.25751787202E+03  0.20638914747E+03  0.36256961005E+03  0.46999998093E+01 0. -1.
</event>
<event>
 5   0  0.1392854E-03  0.6000226E+03  0.7818609E-02  0.9905359E-01
        1   -1    0    0  501    0  0.00000000000E+00  0.00000000000E+00  0.22883619572E+03  0.22883619578E+03  0.50400001928E-02 0. -1.
       -1   -1    0    0    0  501  0.00000000000E+00  0.00000000000E+00 -0.39332400264E+03  0.39332400267E+03  0.50400001928E-02 0.  1.
    10030    2    1    2    0    0  0.00000000000E+00  0.00000000000E+00 -0.16448780691E+03  0.62216019845E+03  0.60002256117E+03 0.  0.
        4    1    3    3  502    0  0.20768206300E+03  0.23138111328E+02  0.14096063693E+03  0.25206889048E+03  0.12699999809E+01 0. -1.
       -4    1    3    3    0  502 -0.20768206300E+03 -0.23138111328E+02 -0.30544844384E+03  0.37009130797E+03  0.12699999809E+01 0.  1.
</event>
<event>
 5   0  0.1423430E-03  0.6007089E+03  0.7818609E-02  0.9903936E-01
        1   -1    0    0  501    0  0.00000000000E+00  0.00000000000E+00  0.15715256540E+03  0.15715256548E+03  0.50400001928E-02 0. -1.
       -1   -1    0    0    0  501  0.00000000000E+00  0.00000000000E+00 -0.57404603517E+03  0.57404603519E+03  0.50400001928E-02 0.  1.
    10030    2    1    2    0    0  0.00000000000E+00  0.00000000000E+00 -0.41689346978E+03  0.73119860067E+03  0.60070893824E+03 0.  0.
        1    1    3    3  502    0  0.94427834036E+02 -0.23291544829E+03 -0.40862986596E+03  0.47973387339E+03  0.50400001928E-02 0.  1.
       -1    1    3    3    0  502 -0.94427834036E+02  0.23291544829E+03 -0.82636038112E+01  0.25146472728E+03  0.50400001928E-02 0. -1.
</event>
<event>
 5   0  0.1423430E-03  0.6000082E+03  0.7818609E-02  0.9905389E-01
        1   -1    0    0  501    0  0.00000000000E+00  0.00000000000E+00  0.48673772720E+03  0.48673772722E+03  0.50400001928E-02 0.  1.
       -1   -1    0    0    0  501  0.00000000000E+00  0.00000000000E+00 -0.18490955560E+03  0.18490955566E+03  0.50400001928E-02 0. -1.
    10030    2    1    2    0    0  0.00000000000E+00  0.00000000000E+00  0.30182817160E+03  0.67164728289E+03  0.60000818948E+03 0.  0.
        1    1    3    3  502    0  0.17152178965E+03  0.14469109531E+02 -0.12413285565E+03  0.21222168911E+03  0.50400001928E-02 0. -1.
       -1    1    3    3    0  502 -0.17152178965E+03 -0.14469109531E+02  0.42596102725E+03  0.45942559377E+03  0.50400001928E-02 0.  1.
</event>
<event>
 5   0  0.9496750E-04  0.5999030E+03  0.7818609E-02  0.9905607E-01
        4   -1    0    0  501    0  0.00000000000E+00  0.00000000000E+00  0.26285588515E+03  0.26285895316E+03  0.12699999809E+01 0.  1.
       -4   -1    0    0    0  501  0.00000000000E+00  0.00000000000E+00 -0.34227600640E+03  0.34227836253E+03  0.12699999809E+01 0. -1.
    10030    2    1    2    0    0  0.00000000000E+00  0.00000000000E+00 -0.79420121252E+02  0.60513731569E+03  0.59990300481E+03 0.  0.
        3    1    3    3  502    0 -0.18091048293E+02 -0.18231319311E+03 -0.27928073288E+03  0.33401066505E+03  0.10100000352E+00 0. -1.
       -3    1    3    3    0  502  0.18091048293E+02  0.18231319311E+03  0.19986061163E+03  0.27112665064E+03  0.10100000352E+00 0.  1.
</event>
<event>
 5   0  0.9496750E-04  0.5998056E+03  0.7818609E-02  0.9905809E-01
       -3   -1    0    0    0  501  0.00000000000E+00  0.00000000000E+00  0.14766242549E+04  0.14766242584E+04  0.10100000352E+00 0. -1.
        3   -1    0    0  501    0  0.00000000000E+00  0.00000000000E+00 -0.60910300049E+02  0.60910383787E+02  0.10100000352E+00 0.  1.
    10030    2    1    2    0    0  0.00000000000E+00  0.00000000000E+00  0.14157139549E+04  0.15375346422E+04  0.59980561337E+03 0.  0.
        4    1    3    3  502    0 -0.16615439272E+03 -0.24781248708E+03  0.63003082316E+03  0.69710742501E+03  0.12699999809E+01 0.  1.
       -4    1    3    3    0  502  0.16615439272E+03  0.24781248708E+03  0.78568313173E+03  0.84042721717E+03  0.12699999809E+01 0. -1.
</event>
<event>
 5   0  0.1423430E-03  0.6004487E+03  0.7818609E-02  0.9904476E-01
        1   -1    0    0  501    0  0.00000000000E+00  0.00000000000E+00  0.77457364829E+03  0.77457364830E+03  0.50400001928E-02 0.  1.
       -1   -1    0    0    0  501  0.00000000000E+00  0.00000000000E+00 -0.11636681271E+03  0.11636681282E+03  0.50400001928E-02 0. -1.
    10030    2    1    2    0    0  0.00000000000E+00  0.00000000000E+00  0.65820683558E+03  0.89094046112E+03  0.60044872126E+03 0.  0.
        1    1    3    3  502    0  0.22949252513E+03  0.14806342194E+03  0.51410230184E+03  0.58214325796E+03  0.50400001928E-02 0.  1.
       -1    1    3    3    0  502 -0.22949252513E+03 -0.14806342194E+03  0.14410453373E+03  0.30879720316E+03  0.50400001928E-02 0. -1.
</event>
<event>
 5   0  0.2346281E-03  0.6000200E+03  0.7818609E-02  0.9905364E-01
       -2   -1    0    0    0  501  0.00000000000E+00  0.00000000000E+00  0.60194094291E+02  0.60194094345E+02  0.25500000920E-02 0. -1.
        2   -1    0    0  501    0  0.00000000000E+00  0.00000000000E+00 -0.14952631977E+04  0.14952631977E+04  0.25500000920E-02 0.  1.
    10030    2    1    2    0    0  0.00000000000E+00  0.00000000000E+00 -0.14350691034E+04  0.15554572921E+04  0.60002004619E+03 0.  0.
        3    1    3    3  502    0 -0.20172876191E+03  0.17160819503E+03 -0.35218773624E+03  0.44065868622E+03  0.10100000352E+00 0.  1.
       -3    1    3    3    0  502  0.20172876191E+03 -0.17160819503E+03 -0.10828813672E+04  0.11147986058E+04  0.10100000352E+00 0. -1.
</event>
<event>
 5   0  0.1423430E-03  0.5989004E+03  0.7818609E-02  0.9907690E-01
        1   -1    0    0  501    0  0.00000000000E+00  0.00000000000E+00  0.52170763266E+03  0.52170763268E+03  0.50400001928E-02 0.  1.
       -1   -1    0    0    0  501  0.00000000000E+00  0.00000000000E+00 -0.17187866283E+03  0.17187866291E+03  0.50400001928E-02 0. -1.
    10030    2    1    2    0    0  0.00000000000E+00  0.00000000000E+00  0.34982896983E+03  0.69358629559E+03  0.59890036008E+03 0.  0.
        1    1    3    3  502    0 -0.81062027415E+02 -0.28695319627E+03  0.14304630201E+03  0.33071956954E+03  0.50400001928E-02 0.  1.
       -1    1    3    3    0  502  0.81062027415E+02  0.28695319627E+03  0.20678266782E+03  0.36286672605E+03  0.50400001928E-02 0. -1.
</event>
<event>
 5   0  0.2324616E-03  0.6001041E+03  0.7818609E-02  0.9905190E-01
       -2   -1    0    0    0  501  0.00000000000E+00  0.00000000000E+00  0.74105476019E+02  0.74105476063E+02  0.25500000920E-02 0.  1.
        2   -1    0    0  501    0  0.00000000000E+00  0.00000000000E+00 -0.12149065765E+04  0.12149065765E+04  0.25500000920E-02 0. -1.
    10030    2    1    2    0    0  0.00000000000E+00  0.00000000000E+00 -0.11408011005E+04  0.12890120525E+04  0.60010409163E+03 0.  0.
        4    1    3    3  502    0 -0.17120104285E+03  0.17406677974E+03 -0.94504051998E+03  0.97606979165E+03  0.12699999809E+01 0. -1.
       -4    1    3    3    0  502  0.17120104285E+03 -0.17406677974E+03 -0.19576058049E+03  0.31294226089E+03  0.12699999809E+01 0.  1.
</event>
<event>
 5   0  0.2346281E-03  0.6005951E+03  0.7818609E-02  0.9904172E-01
       -2   -1    0    0    0  501  0.00000000000E+00  0.00000000000E+00  0.23414441826E+03  0.23414441828E+03  0.25500000920E-02 0. -1.
        2   -1    0    0  501    0  0.00000000000E+00  0.00000000000E+00 -0.38514098669E+03  0.38514098670E+03  0.25500000920E-02 0.  1.
    10030    2    1    2    0    0  0.00000000000E+00  0.00000000000E+00 -0.15099656842E+03  0.61928540497E+03  0.60059507918E+03 0.  0.
        3    1    3    3  502    0  0.14596627072E+03 -0.46336305638E+02 -0.34184948401E+03  0.37458548467E+03  0.10100000352E+00 0.  1.
       -3    1    3    3    0  502 -0.14596627072E+03  0.46336305638E+02  0.19085291558E+03  0.24469992030E+03  0.10100000352E+00 0. -1.
</event>
<event>
 5   0  0.2313168E-03  0.6009960E+03  0.7818609E-02  0.9903342E-01
       -2   -1    0    0    0  501  0.00000000000E+00  0.00000000000E+00  0.50131037937E+03  0.50131037937E+03  0.25500000920E-02 0.  1.
        2   -1    0    0  501    0  0.00000000000E+00  0.00000000000E+00 -0.18012603127E+03  0.18012603129E+03  0.25500000920E-02 0. -1.
    10030    2    1    2    0    0  0.00000000000E+00  0.00000000000E+00  0.32118434810E+03  0.68143641066E+03  0.60099600357E+03 0.  0.
        2    1    3    3  502    0 -0.20623306596E+03 -0.59548635401E+02 -0.77841557070E+02  0.22833621151E+03  0.25500000920E-02 0. -1.
       -2    1    3    3    0  502  0.20623306596E+03  0.59548635401E+02  0.39902590517E+03  0.45310019915E+03  0.25500000920E-02 0.  1.
</event>
<event>
 5   0  0.1418763E-03  0.6004975E+03  0.7818609E-02  0.9904374E-01
        1   -1    0    0  501    0  0.00000000000E+00  0.00000000000E+00  0.31041738908E+03  0.31041738912E+03  0.50400001928E-02 0. -1.
       -1   -1    0    0    0  501  0.00000000000E+00  0.00000000000E+00 -0.29041325157E+03  0.29041325162E+03  0.50400001928E-02 0.  1.
    10030    2    1    2    0    0  0.00000000000E+00  0.00000000000E+00  0.20004137508E+02  0.60083064074E+03  0.60049753816E+03 0.  0.
        5    1    3    3  502    0 -0.17489916565E+03  0.13252373378E+03 -0.19498953119E+03  0.29359030201E+03  0.46999998093E+01 0.  1.
       -5    1    3    3    0  502  0.17489916565E+03 -0.13252373378E+03  0.21499366870E+03  0.30724033873E+03  0.46999998093E+01 0. -1.
</event>
<event>
 5   0  0.1423430E-03  0.6000987E+03  0.7818609E-02  0.9905201E-01
       -1   -1    0    0    0  501  0.00000000000E+00  0.00000000000E+00  0.26287433389E+03  0.26287433394E+03  0.50400001928E-02 0.  1.
        1   -1    0    0  501    0  0.00000000000E+00  0.00000000000E+00 -0.34248160434E+03  0.34248160438E+03  0.50400001928E-02 0. -1.
    10030    2    1    2    0    0  0.00000000000E+00  0.00000000000E+00 -0.79607270450E+02  0.60535593831E+03  0.60009873733E+03 0.  0.
        1    1    3    3  502    0  0.21444009768E+03 -0.13376913507E+03 -0.20293268369E+03  0.32413023791E+03  0.50400001928E-02 0. -1.
       -1    1    3    3    0  502 -0.21444009768E+03  0.13376913507E+03  0.12332541324E+03  0.28122570040E+03  0.50400001928E-02 0.  1.
</event>
<event>
 5   0  0.2324616E-03  0.5999857E+03  0.7818609E-02  0.9905436E-01
        2   -1    0    0  501    0  0.00000000000E+00  0.00000000000E+00  0.20739930366E+04  0.20739930366E+04  0.25500000920E-02 0.  1.
       -2   -1    0    0    0  501  0.00000000000E+00  0.00000000000E+00 -0.43392479828E+02  0.43392479903E+02  0.25500000920E-02 0. -1.
    10030    2    1    2    0    0  0.00000000000E+00  0.00000000000E+00  0.20306005567E+04  0.21173855165E+04  0.59998567011E+03 0.  0.
        4    1    3    3  502    0 -0.15668706601E+03  0.16123132770E+03  0.17162227137E+04  0.17308865918E+04  0.12699999809E+01 0.  1.
       -4    1    3    3    0  502  0.15668706601E+03 -0.16123132770E+03  0.31437784299E+03  0.38649892464E+03  0.12699999809E+01 0. -1.
</event>
<event>
 5   0  0.2324616E-03  0.5992765E+03  0.7818609E-02  0.9906908E-01
       -2   -1    0    0    0  501  0.00000000000E+00  0.00000000000E+00  0.10059821970E+03  0.10059821973E+03  0.25500000920E-02 0. -1.
        2   -1    0    0  501    0  0.00000000000E+00  0.00000000000E+00 -0.89249176407E+03  0.89249176407E+03  0.25500000920E-02 0.  1.
    10030    2    1    2    0    0  0.00000000000E+00  0.00000000000E+00 -0.79189354437E+03  0.99308998380E+03  0.59927650573E+03 0.  0.
        4    1    3    3  502    0  0.60562789450E+02 -0.27636010946E+03 -0.23241127918E+03  0.36614119839E+03  0.12699999809E+01 0. -1.
       -4    1    3    3    0  502 -0.60562789450E+02  0.27636010946E+03 -0.55948226519E+03  0.62694878542E+03  0.12699999809E+01 0.  1.
</event>
<event>
 5   0  0.2406307E-03  0.5997776E+03  0.7818609E-02  0.9905867E-01
        2   -1    0    0  501    0  0.00000000000E+00  0.00000000000E+00  0.40981295491E+03  0.40981295492E+03  0.25500000920E-02 0. -1.
       -2   -1    0    0    0  501  0.00000000000E+00  0.00000000000E+00 -0.21944964355E+03  0.21944964357E+03  0.25500000920E-02 0.  1.
    10030    2    1    2    0    0  0.00000000000E+00  0.00000000000E+00  0.19036331135E+03  0.62926259848E+03  0.59977764842E+03 0.  0.
        5    1    3    3  502    0  0.10420238966E+03  0.40147871299E+02  0.38714461420E+03  0.40295537207E+03  0.46999998093E+01 0. -1.
       -5    1    3    3    0  502 -0.10420238966E+03 -0.40147871299E+02 -0.19678130284E+03  0.22630722641E+03  0.46999998093E+01 0.  1.
</event>
<event>
 5   0  0.2346281E-03  0.6000268E+03  0.7818609E-02  0.9905350E-01
       -2   -1    0    0    0  501  0.00000000000E+00  0.00000000000E+00  0.69166986291E+03  0.69166986292E+03  0.25500000920E-02 0. -1.
        2   -1    0    0  501    0  0.00000000000E+00  0.00000000000E+00 -0.13013150296E+03  0.13013150298E+03  0.25500000920E-02 0.  1.
    10030    2    1    2    0    0  0.00000000000E+00  0.00000000000E+00  0.56153835996E+03  0.82180136590E+03  0.60002679549E+03 0.  0.
        3    1    3    3  502    0 -0.25756540226E+03  0.15340159234E+03  0.29674397710E+03  0.42181629073E+03  0.10100000352E+00 0.  1.
       -3    1    3    3    0  502  0.25756540226E+03 -0.15340159234E+03  0.26479438285E+03  0.39998507518E+03  0.10100000352E+00 0. -1.
</event>
<event>
 5   0  0.9496750E-04  0.5998565E+03  0.7818609E-02  0.9905704E-01
        3   -1    0    0  501    0  0.00000000000E+00  0.00000000000E+00  0.26933730067E+03  0.26933731961E+03  0.10100000352E+00 0.  1.
       -3   -1    0    0    0  501  0.00000000000E+00  0.00000000000E+00 -0.33399362702E+03  0.33399364229E+03  0.10100000352E+00 0. -1.
    10030    2    1    2    0    0  0.00000000000E+00  0.00000000000E+00 -0.64656326346E+02  0.60333096190E+03  0.59985649038E+03 0.  0.
        1    1    3    3  502    0 -0.27250807149E+03 -0.21865264916E+02 -0.15640482076E+03  0.31496223078E+03  0.50400001928E-02 0. -1.
       -1    1    3    3    0  502  0.27250807149E+03  0.21865264916E+02  0.91748494415E+02  0.28836873112E+03  0.50400001928E-02 0.  1.
</event>
<event>
 5   0  0.2324616E-03  0.6004647E+03  0.7818609E-02  0.9904442E-01
        2   -1    0    0  501    0  0.00000000000E+00  0.00000000000E+00  0.70742140461E+03  0.70742140461E+03  0.25500000920E-02 0.  1.
       -2   -1    0    0    0  501  0.00000000000E+00  0.00000000000E+00 -0.12741974239E+03  0.12741974242E+03  0.25500000920E-02 0. -1.
    10030    2    1    2    0    0  0.00000000000E+00  0.00000000000E+00  0.58000166222E+03  0.83484114703E+03  0.60046466391E+03 0.  0.
        4    1    3    3  502    0  0.15805004819E+03 -0.83927501069E+02 -0.45163282362E+02  0.18456700177E+03  0.12699999809E+01 0. -1.
       -4    1    3    3    0  502 -0.15805004819E+03  0.83927501069E+02  0.62516494458E+03  0.65027414526E+03  0.12699999809E+01 0.  1.
</event>
<event>
 5   0  0.9496750E-04  0.6001218E+03  0.7818609E-02  0.9905153E-01
        3   -1    0    0  501    0  0.00000000000E+00  0.00000000000E+00  0.12002183992E+03  0.12002188242E+03  0.10100000352E+00 0. -1.
       -3   -1    0    0    0  501  0.00000000000E+00  0.00000000000E+00 -0.75016780324E+03  0.75016781003E+03  0.10100000352E+00 0.  1.
    10030    2    1    2    0    0  0.00000000000E+00  0.00000000000E+00 -0.63014596331E+03  0.87018969245E+03  0.60012179245E+03 0.  0.
        4    1    3    3  502    0  0.16085033977E+03 -0.14249662442E+03 -0.11409162009E+02  0.21519735512E+03  0.12699999809E+01 0. -1.
       -4    1    3    3    0  502 -0.16085033977E+03  0.14249662442E+03 -0.61873680130E+03  0.65499233733E+03  0.12699999809E+01 0.  1.
</event>
<event>
 5   0  0.1418763E-03  0.5998103E+03  0.7818609E-02  0.9905800E-01
        1   -1    0    0  501    0  0.00000000000E+00  0.00000000000E+00  0.31375175428E+03  0.31375175432E+03  0.50400001928E-02 0.  1.
       -1   -1    0    0    0  501  0.00000000000E+00  0.00000000000E+00 -0.28666965072E+03  0.28666965076E+03  0.50400001928E-02 0. -1.
    10030    2    1    2    0    0  0.00000000000E+00  0.00000000000E+00  0.27082103561E+02  0.60042140509E+03  0.59981032281E+03 0.  0.
        5    1    3    3  502    0  0.63338282341E+02  0.25055586849E+02  0.30586852605E+03  0.31339618005E+03  0.46999998093E+01 0.  1.
       -5    1    3    3    0  502 -0.63338282341E+02 -0.25055586849E+02 -0.27878642249E+03  0.28702522503E+03  0.46999998093E+01 0. -1.
</event>
<event>
 5   0  0.1416315E-03  0.6001533E+03  0.7818609E-02  0.9905088E-01
        1   -1    0    0  501    0  0.00000000000E+00  0.00000000000E+00  0.90995017016E+03  0.90995017018E+03  0.50400001928E-02 0.  1.
       -1   -1    0    0    0  501  0.00000000000E+00  0.00000000000E+00 -0.98957072415E+02  0.98957072544E+02  0.50400001928E-02 0. -1.
    10030    2    1    2    0    0  0.00000000000E+00  0.00000000000E+00  0.81099309775E+03  0.10089072427E+04  0.60015333026E+03 0.  0.
        2    1    3    3  502    0  0.66468864822E+02 -0.20028659839E+03  0.46857496315E+02  0.21616765820E+03  0.25500000920E-02 0. -1.
       -2    1    3    3    0  502 -0.66468864822E+02  0.20028659839E+03  0.76413560143E+03  0.79273958452E+03  0.25500000920E-02 0.  1.
</event>
<event>
 5   0  0.9496750E-04  0.6004564E+03  0.7818609E-02  0.9904460E-01
        3   -1    0    0  501    0  0.00000000000E+00  0.00000000000E+00  0.34319041085E+03  0.34319042571E+03  0.10100000352E+00 0. -1.
       -3   -1    0    0    0  501  0.00000000000E+00  0.00000000000E+00 -0.26264416635E+03  0.26264418577E+03  0.10100000352E+00 0.  1.
    10030    2    1    2    0    0  0.00000000000E+00  0.00000000000E+00  0.80546244494E+02  0.60583461148E+03  0.60045639223E+03 0.  0.
        4    1    3    3  502    0 -0.50508541698E+02 -0.22891290210E+03 -0.14897859479E+03  0.27775612349E+03  0.12699999809E+01 0.  1.
       -4    1    3    3    0  502  0.50508541698E+02  0.22891290210E+03  0.22952483928E+03  0.32807848799E+03  0.12699999809E+01 0. -1.
</event>
<event>
 5   0  0.2324616E-03  0.6012367E+03  0.7818609E-02  0.9902844E-01
       -2   -1    0    0    0  501  0.00000000000E+00  0.00000000000E+00  0.16580734185E+03  0.16580734187E+03  0.25500000920E-02 0.  1.
        2   -1    0    0  501    0  0.00000000000E+00  0.00000000000E+00 -0.54503861806E+03  0.54503861807E+03  0.25500000920E-02 0. -1.
    10030    2    1    2    0    0  0.00000000000E+00  0.00000000000E+00 -0.37923127621E+03  0.71084595994E+03  0.60123674031E+03 0.  0.
        4    1    3    3  502    0 -0.14220001111E+02 -0.20631775702E+03  0.68334668008E+02  0.21780832180E+03  0.12699999809E+01 0.  1.
       -4    1    3    3    0  502  0.14220001111E+02  0.20631775702E+03 -0.44756594422E+03  0.49303763814E+03  0.12699999809E+01 0. -1.
</event>
<event>
 5   0  0.2346281E-03  0.5999060E+03  0.7818609E-02  0.9905601E-01
        2   -1    0    0  501    0  0.00000000000E+00  0.00000000000E+00  0.33895062604E+03  0.33895062605E+03  0.25500000920E-02 0.  1.
       -2   -1    0    0    0  501  0.00000000000E+00  0.00000000000E+00 -0.26544222396E+03  0.26544222397E+03  0.25500000920E-02 0. -1.
    10030    2    1    2    0    0  0.00000000000E+00  0.00000000000E+00  0.73508402075E+02  0.60439285002E+03  0.59990601929E+03 0.  0.
        3    1    3    3  502    0 -0.19586621139E+03  0.11520133096E+03  0.23401667339E+03  0.32618818655E+03  0.10100000352E+00 0.  1.
       -3    1    3    3    0  502  0.19586621139E+03 -0.11520133096E+03 -0.16050827131E+03  0.27820466347E+03  0.10100000352E+00 0. -1.
</event>
<event>
 5   0  0.1418763E-03  0.5997651E+03  0.7818609E-02  0.9905893E-01
       -1   -1    0    0    0  501  0.00000000000E+00  0.00000000000E+00  0.13777469326E+03  0.13777469335E+03  0.50400001928E-02 0. -1.
        1   -1    0    0  501    0  0.00000000000E+00  0.00000000000E+00 -0.65272912241E+03  0.65272912243E+03  0.50400001928E-02 0.  1.
    10030    2    1    2    0    0  0.00000000000E+00  0.00000000000E+00 -0.51495442915E+03  0.79050381578E+03  0.59976513626E+03 0.  0.
        5    1    3    3  502    0  0.21887591509E+03  0.14325912509E+03 -0.64317815222E+02  0.26942292865E+03  0.46999998093E+01 0.  1.
       -5    1    3    3    0  502 -0.21887591509E+03 -0.14325912509E+03 -0.45063661393E+03  0.52108088713E+03  0.46999998093E+01 0. -1.
</event>
<event>
 5   0  0.2313168E-03  0.5999668E+03  0.7818609E-02  0.9905475E-01
       -2   -1    0    0    0  501  0.00000000000E+00  0.00000000000E+00  0.33377762137E+03  0.33377762138E+03  0.25500000920E-02 0. -1.
        2   -1    0    0  501    0  0.00000000000E+00  0.00000000000E+00 -0.26961077206E+03  0.26961077207E+03  0.25500000920E-02 0.  1.
    10030    2    1    2    0    0  0.00000000000E+00  0.00000000000E+00  0.64166849316E+02  0.60338839345E+03  0.59996680642E+03 0.  0.
        2    1    3    3  502    0  0.36726713819E+01  0.29396658388E+03  0.92091127528E+02  0.30807566722E+03  0.25500000920E-02 0. -1.
       -2    1    3    3    0  502 -0.36726713819E+01 -0.29396658388E+03 -0.27924278211E+02  0.29531272623E+03  0.25500000920E-02 0.  1.
</event>
<event>
 5   0  0.9496750E-04  0.5999848E+03  0.7818609E-02  0.9905438E-01
       -3   -1    0    0    0  501  0.00000000000E+00  0.00000000000E+00  0.61234957068E+02  0.61235040361E+02  0.10100000352E+00 0. -1.
        3   -1    0    0  501    0  0.00000000000E+00  0.00000000000E+00 -0.14696732763E+04  0.14696732798E+04  0.10100000352E+00 0.  1.
    10030    2    1    2    0    0  0.00000000000E+00  0.00000000000E+00 -0.14084383193E+04  0.15309083202E+04  0.59998482112E+03 0.  0.
        1    1    3    3  502    0  0.16675143037E+03 -0.24064054295E+03 -0.87117772963E+03  0.91905633509E+03  0.50400001928E-02 0. -1.
       -1    1    3    3    0  502 -0.16675143037E+03  0.24064054295E+03 -0.53726058965E+03  0.61185198509E+03  0.50400001928E-02 0.  1.
</event>
<event>
 5   0  0.2324616E-03  0.5998749E+03  0.7818609E-02  0.9905666E-01
       -2   -1    0    0    0  501  0.00000000000E+00  0.00000000000E+00  0.74752026718E+03  0.74752026718E+03  0.25500000920E-02 0.  1.
        2   -1    0    0  501    0  0.00000000000E+00  0.00000000000E+00 -0.12034788768E+03  0.12034788771E+03  0.25500000920E-02 0. -1.
    10030    2    1    2    0    0  0.00000000000E+00  0.00000000000E+00  0.62717237949E+03  0.86786815489E+03  0.59987493753E+03 0.  0.
        4    1    3    3  502    0  0.27170892250E+03  0.50131951503E+02  0.14473185423E+03  0.31191004096E+03  0.12699999809E+01 0. -1.
       -4    1    3    3    0  502 -0.27170892250E+03 -0.50131951503E+02  0.48244052527E+03  0.55595811393E+03  0.12699999809E+01 0.  1.
</event>
<event>
 5   0  0.1423430E-03  0.6010761E+03  0.7818609E-02  0.9903176E-01
       -1   -1    0    0    0  501  0.00000000000E+00  0.00000000000E+00  0.20969477214E+03  0.20969477220E+03  0.50400001928E-02 0.  1.
        1   -1    0    0  501    0  0.00000000000E+00  0.00000000000E+00 -0.43073612364E+03  0.43073612367E+03  0.50400001928E-02 0. -1.
    10030    2    1    2    0    0  0.00000000000E+00  0.00000000000E+00 -0.22104135150E+03  0.64043089587E+03  0.60107607947E+03 0.  0.
        1    1    3    3  502    0 -0.12703311100E+03  0.32933023687E+02 -0.39859519082E+03  0.41964284994E+03  0.50400001928E-02 0. -1.
       -1    1    3    3    0  502  0.12703311100E+03 -0.32933023687E+02  0.17755383932E+03  0.22078804592E+03  0.50400001928E-02 0.  1.
</event>
<event>
 5   0  0.2313168E-03  0.5999920E+03  0.7818609E-02  0.9905423E-01
        2   -1    0    0  501    0  0.00000000000E+00  0.00000000000E+00  0.12529939772E+04  0.12529939772E+04  0.25500000920E-02 0.  1.
       -2   -1    0    0    0  501  0.00000000000E+00  0.00000000000E+00 -0.71826048111E+02  0.71826048156E+02  0.25500000920E-02 0. -1.
    10030    2    1    2    0    0  0.00000000000E+00  0.00000000000E+00  0.11811679291E+04  0.13248200253E+04  0.59999201901E+03 0.  0.
        2    1    3    3  502    0  0.15465269630E+03 -0.20798473052E+03  0.92415860683E+03  0.95981468794E+03  0.25500000920E-02 0.  1.
       -2    1    3    3    0  502 -0.15465269630E+03  0.20798473052E+03  0.25700932223E+03  0.36500533739E+03  0.25500000920E-02 0. -1.
</event>
<event>
 5   0  0.1418763E-03  0.5999968E+03  0.7818609E-02  0.9905413E-01
       -1   -1    0    0    0  501  0.00000000000E+00  0.00000000000E+00  0.33243913737E+03  0.33243913740E+03  0.50400001928E-02 0.  1.
        1   -1    0    0  501    0  0.00000000000E+00  0.00000000000E+00 -0.27072332212E+03  0.27072332217E+03  0.50400001928E-02 0. -1.
    10030    2    1    2    0    0  0.00000000000E+00  0.00000000000E+00  0.61715815242E+02  0.60316245958E+03  0.59999675898E+03 0.  0.
        5    1    3    3  502    0  0.94152981664E+02  0.18566121531E+03 -0.18624932555E+03  0.27936673405E+03  0.46999998093E+01 0. -1.
       -5    1    3    3    0  502 -0.94152981664E+02 -0.18566121531E+03  0.24796514079E+03  0.32379572553E+03  0.46999998093E+01 0.  1.
</event>
<event>
 5   0  0.9496750E-04  0.6001630E+03  0.7818609E-02  0.9905068E-01
        3   -1    0    0  501    0  0.00000000000E+00  0.00000000000E+00  0.12485357895E+03  0.12485361980E+03  0.10100000352E+00 0.  1.
       -3   -1    0    0    0  501  0.00000000000E+00  0.00000000000E+00 -0.72123593731E+03  0.72123594439E+03  0.10100000352E+00 0. -1.
    10030    2    1    2    0    0  0.00000000000E+00  0.00000000000E+00 -0.59638235836E+03  0.84608956419E+03  0.60016300558E+03 0.  0.
        2    1    3    3  502    0  0.29309297219E+03 -0.47981769226E+02 -0.23766691027E+03  0.38038309737E+03  0.25500000920E-02 0.  1.
       -2    1    3    3    0  502 -0.29309297219E+03  0.47981769226E+02 -0.35871544810E+03  0.46570646682E+03  0.25500000920E-02 0. -1.
</event>
<event>
 5   0  0.1423430E-03  0.5997921E+03  0.7818609E-02  0.9905838E-01
       -1   -1    0    0    0  501  0.00000000000E+00  0.00000000000E+00  0.18838965744E+03  0.18838965750E+03  0.50400001928E-02 0.  1.
        1   -1    0    0  501    0  0.00000000000E+00  0.00000000000E+00 -0.47740216238E+03  0.47740216240E+03  0.50400001928E-02 0. -1.
    10030    2    1    2    0    0  0.00000000000E+00  0.00000000000E+00 -0.28901250494E+03  0.66579181991E+03  0.59979206351E+03 0.  0.
        1    1    3    3  502    0  0.77871655341E+02  0.24866570587E+03  0.20284827868E+02  0.26136201378E+03  0.50400001928E-02 0. -1.
       -1    1    3    3    0  502 -0.77871655341E+02 -0.24866570587E+03 -0.30929733281E+03  0.40442980613E+03  0.50400001928E-02 0.  1.
</event>
<event>
 5   0  0.2406307E-03  0.5999367E+03  0.7818609E-02  0.9905537E-01
        2   -1    0    0  501    0  0.00000000000E+00  0.00000000000E+00  0.55366941798E+03  0.55366941799E+03  0.25500000920E-02 0.  1.
       -2   -1    0    0    0  501  0.00000000000E+00  0.00000000000E+00 -0.16251759886E+03  0.16251759888E+03  0.25500000920E-02 0. -1.
    10030    2    1    2    0    0  0.00000000000E+00  0.00000000000E+00  0.39115181912E+03  0.71618701687E+03  0.59993674461E+03 0.  0.
        5    1    3    3  502    0  0.18840279731E+03 -0.19528355875E+03  0.34811559616E+03  0.44140439581E+03  0.46999998093E+01 0.  1.
       -5    1    3    3    0  502 -0.18840279731E+03  0.19528355875E+03  0.43036222958E+02  0.27478262106E+03  0.46999998093E+01 0. -1.
</event>
<event>
 5   0  0.1418763E-03  0.6002623E+03  0.7818609E-02  0.9904862E-01
       -1   -1    0    0    0  501  0.00000000000E+00  0.00000000000E+00  0.61159949554E+03  0.61159949556E+03  0.50400001928E-02 0.  1.
        1   -1    0    0  501    0  0.00000000000E+00  0.00000000000E+00 -0.14728382151E+03  0.14728382160E+03  0.50400001928E-02 0. -1.
    10030    2    1    2    0    0  0.00000000000E+00  0.00000000000E+00  0.46431567403E+03  0.75888331716E+03  0.60026231259E+03 0.  0.
        5    1    3    3  502    0  0.27551423301E+03  0.55732411316E+02  0.99306419861E+02  0.29815775906E+03  0.46999998093E+01 0. -1.
       -5    1    3    3    0  502 -0.27551423301E+03 -0.55732411316E+02  0.36500925417E+03  0.46072555810E+03  0.46999998093E+01 0.  1.
</event>
<event>
 5   0  0.2346281E-03  0.6009609E+03  0.7818609E-02  0.9903414E-01
       -2   -1    0    0    0  501  0.00000000000E+00  0.00000000000E+00  0.14254211360E+03  0.14254211363E+03  0.25500000920E-02 0. -1.
        2   -1    0    0  501    0  0.00000000000E+00  0.00000000000E+00 -0.63341638868E+03  0.63341638869E+03  0.25500000920E-02 0.  1.
    10030    2    1    2    0    0  0.00000000000E+00  0.00000000000E+00 -0.49087427508E+03  0.77595850231E+03  0.60096093332E+03 0.  0.
        3    1    3    3  502    0  0.25934766962E+03  0.44006238284E+02 -0.57921218540E+02  0.26935597358E+03  0.10100000352E+00 0. -1.
       -3    1    3    3    0  502 -0.25934766962E+03 -0.44006238284E+02 -0.43295305654E+03  0.50660252873E+03  0.10100000352E+00 0.  1.
</event>
<event>
 5   0  0.1423430E-03  0.6000334E+03  0.7818609E-02  0.9905337E-01
        1   -1    0    0  501    0  0.00000000000E+00  0.00000000000E+00  0.12461130710E+03  0.12461130721E+03  0.50400001928E-02 0.  1.
       -1   -1    0    0    0  501  0.00000000000E+00  0.00000000000E+00 -0.72232627470E+03  0.72232627471E+03  0.50400001928E-02 0. -1.
    10030    2    1    2    0    0  0.00000000000E+00  0.00000000000E+00 -0.59771496759E+03  0.84693758192E+03  0.60003340339E+03 0.  0.
        1    1    3    3  502    0 -0.79764611177E+02 -0.17222694910E+03  0.29097749300E+02  0.19201873407E+03  0.50400001928E-02 0.  1.
       -1    1    3    3    0  502  0.79764611177E+02  0.17222694910E+03 -0.62681271689E+03  0.65491884786E+03  0.50400001928E-02 0. -1.
</event>
<event>
 5   0  0.1479385E-03  0.5999813E+03  0.7818609E-02  0.9905445E-01
       -1   -1    0    0    0  501  0.00000000000E+00  0.00000000000E+00  0.41167600824E+03  0.41167600827E+03  0.50400001928E-02 0.  1.
        1   -1    0    0  501    0  0.00000000000E+00  0.00000000000E+00 -0.21860489694E+03  0.21860489700E+03  0.50400001928E-02 0. -1.
    10030    2    1    2    0    0  0.00000000000E+00  0.00000000000E+00  0.19307111131E+03  0.63028090527E+03  0.59998130431E+03 0.  0.
        3    1    3    3  502    0 -0.19418508682E+03 -0.16240731258E+03  0.26563161035E+03  0.36693888556E+03  0.10100000352E+00 0.  1.
       -3    1    3    3    0  502  0.19418508682E+03  0.16240731258E+03 -0.72560499040E+02  0.26334201971E+03  0.10100000352E+00 0. -1.
</event>
<event>
 5   0  0.2346281E-03  0.5999773E+03  0.7818609E-02  0.9905453E-01
       -2   -1    0    0    0  501  0.00000000000E+00  0.00000000000E+00  0.21465348025E+03  0.21465348027E+03  0.25500000920E-02 0.  1.
        2   -1    0    0  501    0  0.00000000000E+00  0.00000000000E+00 -0.41924865014E+03  0.41924865015E+03  0.25500000920E-02 0. -1.
    10030    2    1    2    0    0  0.00000000000E+00  0.00000000000E+00 -0.20459516988E+03  0.63390213042E+03  0.59997727241E+03 0.  0.
        3    1    3    3  502    0  0.31094268727E+02  0.31161620047E+02 -0.41581747082E+03  0.41814121939E+03  0.10100000352E+00 0. -1.
       -3    1    3    3    0  502 -0.31094268727E+02 -0.31161620047E+02  0.21122230094E+03  0.21576091103E+03  0.10100000352E+00 0.  1.
</event>
<event>
 5   0  0.2406307E-03  0.5998648E+03  0.7818609E-02  0.9905687E-01
       -2   -1    0    0    0  501  0.00000000000E+00  0.00000000000E+00  0.15713718677E+03  0.15713718679E+03  0.25500000920E-02 0.  1.
        2   -1    0    0  501    0  0.00000000000E+00  0.00000000000E+00 -0.57248987897E+03  0.57248987898E+03  0.25500000920E-02 0. -1.
    10030    2    1    2    0    0  0.00000000000E+00  0.00000000000E+00 -0.41535269220E+03  0.72962706577E+03  0.59986481493E+03 0.  0.
        5    1    3    3  502    0 -0.21277804687E+03  0.86686440853E+02 -0.44210848614E+03  0.49826804009E+03  0.46999998093E+01 0. -1.
       -5    1    3    3    0  502  0.21277804687E+03 -0.86686440853E+02  0.26755793943E+02  0.23135902568E+03  0.46999998093E+01 0.  1.
</event>
<event>
 5   0  0.2406307E-03  0.5998945E+03  0.7818609E-02  0.9905625E-01
       -2   -1    0    0    0  501  0.00000000000E+00  0.00000000000E+00  0.67533302148E+02  0.67533302196E+02  0.25500000920E-02 0.  1.
        2   -1    0    0  501    0  0.00000000000E+00  0.00000000000E+00 -0.13322073341E+04  0.13322073341E+04  0.25500000920E-02 0. -1.
    10030    2    1    2    0    0  0.00000000000E+00  0.00000000000E+00 -0.12646740319E+04  0.13997406363E+04  0.59989452557E+03 0.  0.
        5    1    3    3  502    0 -0.72726402504E+02 -0.29082689339E+03 -0.65279297294E+03  0.71835239755E+03  0.46999998093E+01 0. -1.
       -5    1    3    3    0  502  0.72726402504E+02  0.29082689339E+03 -0.61188105901E+03  0.68138823875E+03  0.46999998093E+01 0.  1.
</event>
<event>
 5   0  0.1392854E-03  0.5998894E+03  0.7818609E-02  0.9905636E-01
        1   -1    0    0  501    0  0.00000000000E+00  0.00000000000E+00  0.24300680485E+04  0.24300680485E+04  0.50400001928E-02 0. -1.
       -1   -1    0    0    0  501  0.00000000000E+00  0.00000000000E+00 -0.37022341682E+02  0.37022342025E+02  0.50400001928E-02 0.  1.
    10030    2    1    2    0    0  0.00000000000E+00  0.00000000000E+00  0.23930457069E+04  0.24670903906E+04  0.59988935658E+03 0.  0.
        4    1    3    3  502    0 -0.11921985602E+03  0.26516060820E+03  0.89314756498E+03  0.93927509705E+03  0.12699999809E+01 0.  1.
       -4    1    3    3    0  502  0.11921985602E+03 -0.26516060820E+03  0.14998981419E+04  0.15278152935E+04  0.12699999809E+01 0. -1.
</event>
<event>
 5   0  0.1418763E-03  0.5998873E+03  0.7818609E-02  0.9905640E-01
       -1   -1    0    0    0  501  0.00000000000E+00  0.00000000000E+00  0.18173701681E+03  0.18173701688E+03  0.50400001928E-02 0.  1.
        1   -1    0    0  501    0  0.00000000000E+00  0.00000000000E+00 -0.49503500896E+03  0.49503500898E+03  0.50400001928E-02 0. -1.
    10030    2    1    2    0    0  0.00000000000E+00  0.00000000000E+00 -0.31329799215E+03  0.67677202586E+03  0.59988727533E+03 0.  0.
        5    1    3    3  502    0 -0.10166266957E+03  0.27800781933E+03 -0.21099390143E+03  0.36354389340E+03  0.46999998093E+01 0. -1.
       -5    1    3    3    0  502  0.10166266957E+03 -0.27800781933E+03 -0.10230409072E+03  0.31322813246E+03  0.46999998093E+01 0.  1.
</event>
<event>
 5   0  0.1416315E-03  0.5999840E+03  0.7818609E-02  0.9905439E-01
        1   -1    0    0  501    0  0.00000000000E+00  0.00000000000E+00  0.68301119195E+03  0.68301119197E+03  0.50400001928E-02 0. -1.
       -1   -1    0    0    0  501  0.00000000000E+00  0.00000000000E+00 -0.13176241513E+03  0.13176241523E+03  0.50400001928E-02 0.  1.
    10030    2    1    2    0    0  0.00000000000E+00  0.00000000000E+00  0.55124877682E+03  0.81477360720E+03  0.59998401399E+03 0.  0.
        2    1    3    3  502    0 -0.12213297845E+03  0.16420135279E+03  0.57350688841E+03  0.60892421511E+03  0.25500000920E-02 0. -1.
       -2    1    3    3    0  502  0.12213297845E+03 -0.16420135279E+03 -0.22258111594E+02  0.20584939209E+03  0.25500000920E-02 0.  1.
</event>
<event>
 5   0  0.1423430E-03  0.6003374E+03  0.7818609E-02  0.9904706E-01
        1   -1    0    0  501    0  0.00000000000E+00  0.00000000000E+00  0.37898904748E+03  0.37898904751E+03  0.50400001928E-02 0. -1.
       -1   -1    0    0    0  501  0.00000000000E+00  0.00000000000E+00 -0.23774100089E+03  0.23774100094E+03  0.50400001928E-02 0.  1.
    10030    2    1    2    0    0  0.00000000000E+00  0.00000000000E+00  0.14124804659E+03  0.61673004846E+03  0.60033735683E+03 0.  0.
        1    1    3    3  502    0  0.12116523365E+03  0.37986263793E+02 -0.20879043611E+03  0.24437147198E+03  0.50400001928E-02 0.  1.
       -1    1    3    3    0  502 -0.12116523365E+03 -0.37986263793E+02  0.35003848270E+03  0.37235857648E+03  0.50400001928E-02 0. -1.
</event>
<event>
 5   0  0.9496750E-04  0.5994944E+03  0.7818609E-02  0.9906456E-01
        3   -1    0    0  501    0  0.00000000000E+00  0.00000000000E+00  0.18861863374E+03  0.18861866078E+03  0.10100000352E+00 0. -1.
       -3   -1    0    0    0  501  0.00000000000E+00  0.00000000000E+00 -0.47634936733E+03  0.47634937804E+03  0.10100000352E+00 0.  1.
    10030    2    1    2    0    0  0.00000000000E+00  0.00000000000E+00 -0.28773073359E+03  0.66496803882E+03  0.59949438497E+03 0.  0.
        4    1    3    3  502    0 -0.23473700154E+03 -0.13293925428E+03 -0.28879717822E+03  0.39519581004E+03  0.12699999809E+01 0.  1.
       -4    1    3    3    0  502  0.23473700154E+03  0.13293925428E+03  0.10664446323E+01  0.26977222879E+03  0.12699999809E+01 0. -1.
</event>
<event>
 5   0  0.1392854E-03  0.6002910E+03  0.7818609E-02  0.9904802E-01
        1   -1    0    0  501    0  0.00000000000E+00  0.00000000000E+00  0.10100054597E+04  0.10100054597E+04  0.50400001928E-02 0. -1.
       -1   -1    0    0    0  501  0.00000000000E+00  0.00000000000E+00 -0.89194894915E+02  0.89194895058E+02  0.50400001928E-02 0.  1.
    10030    2    1    2    0    0  0.00000000000E+00  0.00000000000E+00  0.92081056480E+03  0.10992003548E+04  0.60029103251E+03 0.  0.
        4    1    3    3  502    0  0.66392326923E+01 -0.64154615026E+02  0.99716121960E+03  0.99924571794E+03  0.12699999809E+01 0. -1.
       -4    1    3    3    0  502 -0.66392326923E+01  0.64154615026E+02 -0.76350654798E+02  0.99954636851E+02  0.12699999809E+01 0.  1.
</event>
<event>
 5   0  0.2346281E-03  0.6004226E+03  0.7818609E-02  0.9904530E-01
       -2   -1    0    0    0  501  0.00000000000E+00  0.00000000000E+00  0.32111532664E+03  0.32111532665E+03  0.25500000920E-02 0. -1.
        2   -1    0    0  501    0  0.00000000000E+00  0.00000000000E+00 -0.28066811191E+03  0.28066811192E+03  0.25500000920E-02 0.  1.
    10030    2    1    2    0    0  0.00000000000E+00  0.00000000000E+00  0.40447214731E+02  0.60178343857E+03  0.60042262595E+03 0.  0.
        3    1    3    3  502    0  0.15549357214E+03 -0.13612806621E+03  0.23847323921E+03  0.31556076658E+03  0.10100000352E+00 0. -1.
       -3    1    3    3    0  502 -0.15549357214E+03  0.13612806621E+03 -0.19802602448E+03  0.28622267198E+03  0.10100000352E+00 0.  1.
</event>
<event>
 5   0  0.9496750E-04  0.5999205E+03  0.7818609E-02  0.9905571E-01
        3   -1    0    0  501    0  0.00000000000E+00  0.00000000000E+00  0.40110282020E+03  0.40110283291E+03  0.10100000352E+00 0. -1.
       -3   -1    0    0    0  501  0.00000000000E+00  0.00000000000E+00 -0.22432189874E+03  0.22432192148E+03  0.10100000352E+00 0.  1.
    10030    2    1    2    0    0  0.00000000000E+00  0.00000000000E+00  0.17678092145E+03  0.62542475439E+03  0.59992051909E+03 0.  0.
        5    1    3    3  502    0 -0.17549961972E+03  0.12871647667E+03  0.30352734478E+03  0.37352240484E+03  0.46999998093E+01 0. -1.
       -5    1    3    3    0  502  0.17549961972E+03 -0.12871647667E+03 -0.12674642333E+03  0.25190234956E+03  0.46999998093E+01 0.  1.
</event>
<event>
 5   0  0.2406307E-03  0.5992438E+03  0.7818609E-02  0.9906976E-01
        2   -1    0    0  501    0  0.00000000000E+00  0.00000000000E+00  0.60935531245E+03  0.60935531246E+03  0.25500000920E-02 0. -1.
       -2   -1    0    0    0  501  0.00000000000E+00  0.00000000000E+00 -0.14732503899E+03  0.14732503901E+03  0.25500000920E-02 0.  1.
    10030    2    1    2    0    0  0.00000000000E+00  0.00000000000E+00  0.46203027347E+03  0.75668035147E+03  0.59924384077E+03 0.  0.
        5    1    3    3  502    0  0.66931740780E+02  0.18144332614E+02  0.59903431620E+03  0.60305329508E+03  0.46999998093E+01 0. -1.
       -5    1    3    3    0  502 -0.66931740780E+02 -0.18144332614E+02 -0.13700404273E+03  0.15362705638E+03  0.46999998093E+01 0.  1.
</event>
<event>
 5   0  0.2406307E-03  0.6004460E+03  0.7818609E-02  0.9904481E-01
       -2   -1    0    0    0  501  0.00000000000E+00  0.00000000000E+00  0.17842678456E+03  0.17842678458E+03  0.25500000920E-02 0. -1.
        2   -1    0    0  501    0  0.00000000000E+00  0.00000000000E+00 -0.50515868026E+03  0.50515868026E+03  0.25500000920E-02 0.  1.
    10030    2    1    2    0    0  0.00000000000E+00  0.00000000000E+00 -0.32673189570E+03  0.68358546484E+03  0.60044596433E+03 0.  0.
        5    1    3    3  502    0 -0.18567870521E+03  0.16804319626E+03  0.25071682073E+02  0.25172559786E+03  0.46999998093E+01 0. -1.
       -5    1    3    3    0  502  0.18567870521E+03 -0.16804319626E+03 -0.35180357777E+03  0.43185986698E+03  0.46999998093E+01 0.  1.
</event>
<event>
 5   0  0.1423430E-03  0.6002537E+03  0.7818609E-02  0.9904880E-01
        1   -1    0    0  501    0  0.00000000000E+00  0.00000000000E+00  0.21606091541E+03  0.21606091546E+03  0.50400001928E-02 0.  1.
       -1   -1    0    0    0  501  0.00000000000E+00  0.00000000000E+00 -0.41690149458E+03  0.41690149461E+03  0.50400001928E-02 0. -1.
    10030    2    1    2    0    0  0.00000000000E+00  0.00000000000E+00 -0.20084057918E+03  0.63296241008E+03  0.60025367498E+03 0.  0.
        1    1    3    3  502    0  0.17052512881E+03 -0.97264284538E+02  0.13896776841E+03  0.24052276667E+03  0.50400001928E-02 0.  1.
       -1    1    3    3    0  502 -0.17052512881E+03  0.97264284538E+02 -0.33980834759E+03  0.39243964341E+03  0.50400001928E-02 0. -1.
</event>
<event>
 5   0  0.2421210E-03  0.6003599E+03  0.7818609E-02  0.9904660E-01
       -2   -1    0    0    0  501  0.00000000000E+00  0.00000000000E+00  0.69458339531E+02  0.69458339578E+02  0.25500000920E-02 0. -1.
        2   -1    0    0  501    0  0.00000000000E+00  0.00000000000E+00 -0.12972955994E+04  0.12972955994E+04  0.25500000920E-02 0.  1.
    10030    2    1    2    0    0  0.00000000000E+00  0.00000000000E+00 -0.12278372598E+04  0.13667539390E+04  0.60035988622E+03 0.  0.
        1    1    3    3  502    0  0.23357308544E+03 -0.36754364571E+02 -0.19290481470E+03  0.30515493953E+03  0.50400001928E-02 0. -1.
       -1    1    3    3    0  502 -0.23357308544E+03  0.36754364571E+02 -0.10349324451E+04  0.10615989994E+04  0.50400001928E-02 0.  1.
</event>
<event>
 5   0  0.2421210E-03  0.5999806E+03  0.7818609E-02  0.9905446E-01
       -2   -1    0    0    0  501  0.00000000000E+00  0.00000000000E+00  0.94498325173E+02  0.94498325208E+02  0.25500000920E-02 0. -1.
        2   -1    0    0  501    0  0.00000000000E+00  0.00000000000E+00 -0.95233616181E+03  0.95233616181E+03  0.25500000920E-02 0.  1.
    10030    2    1    2    0    0  0.00000000000E+00  0.00000000000E+00 -0.85783783664E+03  0.10468344870E+04  0.59998057406E+03 0.  0.
        1    1    3    3  502    0 -0.14310098280E+03 -0.31835617582E+02  0.27743122471E+02  0.14920147015E+03  0.50400001928E-02 0. -1.
       -1    1    3    3    0  502  0.14310098280E+03  0.31835617582E+02 -0.88558095911E+03  0.89763301687E+03  0.50400001928E-02 0.  1.
</event>
<event>
 5   0  0.1423430E-03  0.5999899E+03  0.7818609E-02  0.9905427E-01
       -1   -1    0    0    0  501  0.00000000000E+00  0.00000000000E+00  0.39352812306E+03  0.39352812309E+03  0.50400001928E-02 0.  1.
        1   -1    0    0  501    0  0.00000000000E+00  0.00000000000E+00 -0.22869258469E+03  0.22869258475E+03  0.50400001928E-02 0. -1.
    10030    2    1    2    0    0  0.00000000000E+00  0.00000000000E+00  0.16483553837E+03  0.62222070784E+03  0.59998987871E+03 0.  0.
        1    1    3    3  502    0 -0.32618611276E+02 -0.21852730380E+03 -0.12802665242E+03  0.25536049041E+03  0.50400001928E-02 0. -1.
       -1    1    3    3    0  502  0.32618611276E+02  0.21852730380E+03  0.29286219079E+03  0.36686021743E+03  0.50400001928E-02 0.  1.
</event>
<event>
 5   0  0.2324616E-03  0.6015601E+03  0.7818609E-02  0.9902175E-01
       -2   -1    0    0    0  501  0.00000000000E+00  0.00000000000E+00  0.30446449912E+02  0.30446450019E+02  0.25500000920E-02 0.  1.
        2   -1    0    0  501    0  0.00000000000E+00  0.00000000000E+00 -0.29714018891E+04  0.29714018891E+04  0.25500000920E-02 0. -1.
    10030    2    1    2    0    0  0.00000000000E+00  0.00000000000E+00 -0.29409554392E+04  0.30018483391E+04  0.60156010156E+03 0.  0.
        4    1    3    3  502    0 -0.17241687294E+03 -0.12341719125E+03 -0.40596243138E+03  0.45800271807E+03  0.12699999809E+01 0.  1.
       -4    1    3    3    0  502  0.17241687294E+03  0.12341719125E+03 -0.25349930078E+04  0.25438456210E+04  0.12699999809E+01 0. -1.
</event>
<event>
 5   0  0.1416315E-03  0.6000335E+03  0.7818609E-02  0.9905336E-01
       -1   -1    0    0    0  501  0.00000000000E+00  0.00000000000E+00  0.80503289538E+02  0.80503289695E+02  0.50400001928E-02 0.  1.
        1   -1    0    0  501    0  0.00000000000E+00  0.00000000000E+00 -0.11180917265E+04  0.11180917265E+04  0.50400001928E-02 0. -1.
    10030    2    1    2    0    0  0.00000000000E+00  0.00000000000E+00 -0.10375884370E+04  0.11985950162E+04  0.60003353936E+03 0.  0.
        2    1    3    3  502    0 -0.12791050055E+03  0.13008692295E+03 -0.99455582671E+03  0.10111503331E+04  0.25500000920E-02 0. -1.
       -2    1    3    3    0  502  0.12791050055E+03 -0.13008692295E+03 -0.43032610246E+02  0.18744468310E+03  0.25500000920E-02 0.  1.
</event>
<event>
 5   0  0.2313168E-03  0.5998586E+03  0.7818609E-02  0.9905700E-01
        2   -1    0    0  501    0  0.00000000000E+00  0.00000000000E+00  0.72053697724E+03  0.72053697724E+03  0.25500000920E-02 0.  1.
       -2   -1    0    0    0  501  0.00000000000E+00  0.00000000000E+00 -0.12484797010E+03  0.12484797013E+03  0.25500000920E-02 0. -1.
    10030    2    1    2    0    0  0.00000000000E+00  0.00000000000E+00  0.59568900714E+03  0.84538494737E+03  0.59985858001E+03 0.  0.
        2    1    3    3  502    0 -0.84801296054E+02  0.26328840239E+03  0.13442845642E+03  0.30754357829E+03  0.25500000920E-02 0. -1.
       -2    1    3    3    0  502  0.84801296054E+02 -0.26328840239E+03  0.46126055071E+03  0.53784136908E+03  0.25500000920E-02 0.  1.
</event>
<event>
 5   0  0.1423430E-03  0.5997476E+03  0.7818609E-02  0.9905930E-01
        1   -1    0    0  501    0  0.00000000000E+00  0.00000000000E+00  0.15935649616E+03  0.15935649624E+03  0.50400001928E-02 0.  1.
       -1   -1    0    0    0  501  0.00000000000E+00  0.00000000000E+00 -0.56429638495E+03  0.56429638497E+03  0.50400001928E-02 0. -1.
    10030    2    1    2    0    0  0.00000000000E+00  0.00000000000E+00 -0.40493988878E+03  0.72365288122E+03  0.59974759605E+03 0.  0.
        1    1    3    3  502    0 -0.10486850869E+03  0.17784410837E+03  0.59942748509E+02  0.21498619518E+03  0.50400001928E-02 0.  1.
       -1    1    3    3    0  502  0.10486850869E+03 -0.17784410837E+03 -0.46488263729E+03  0.50866668603E+03  0.50400001928E-02 0. -1.
</event>
<event>
 5   0  0.2313168E-03  0.5990746E+03  0.7818609E-02  0.9907328E-01
       -2   -1    0    0    0  501  0.00000000000E+00  0.00000000000E+00  0.57538852015E+03  0.57538852016E+03  0.25500000920E-02 0.  1.
        2   -1    0    0  501    0  0.00000000000E+00  0.00000000000E+00 -0.15593392028E+03  0.15593392030E+03  0.25500000920E-02 0. -1.
    10030    2    1    2    0    0  0.00000000000E+00  0.00000000000E+00  0.41945459988E+03  0.73132244046E+03  0.59907457846E+03 0.  0.
        2    1    3    3  502    0  0.27115131103E+03  0.27027123089E+02  0.57896327016E+02  0.27857760776E+03  0.25500000920E-02 0. -1.
       -2    1    3    3    0  502 -0.27115131103E+03 -0.27027123089E+02  0.36155827286E+03  0.45274483270E+03  0.25500000920E-02 0.  1.
</event>
<event>
 5   0  0.2406307E-03  0.6000731E+03  0.7818609E-02  0.9905254E-01
       -2   -1    0    0    0  501  0.00000000000E+00  0.00000000000E+00  0.11575883051E+03  0.11575883054E+03  0.25500000920E-02 0.  1.
        2   -1    0    0  501    0  0.00000000000E+00  0.00000000000E+00 -0.77766791578E+03  0.77766791579E+03  0.25500000920E-02 0. -1.
    10030    2    1    2    0    0  0.00000000000E+00  0.00000000000E+00 -0.66190908527E+03  0.89342674633E+03  0.60007309045E+03 0.  0.
        5    1    3    3  502    0  0.17095566173E+03  0.17870941135E+03 -0.58378502528E+03  0.63402676420E+03  0.46999998093E+01 0. -1.
       -5    1    3    3    0  502 -0.17095566173E+03 -0.17870941135E+03 -0.78124059990E+02  0.25939998213E+03  0.46999998093E+01 0.  1.
</event>
<event>
 5   0  0.2406307E-03  0.6003132E+03  0.7818609E-02  0.9904756E-01
       -2   -1    0    0    0  501  0.00000000000E+00  0.00000000000E+00  0.63054968077E+02  0.63054968129E+02  0.25500000920E-02 0. -1.
        2   -1    0    0  501    0  0.00000000000E+00  0.00000000000E+00 -0.14288166696E+04  0.14288166696E+04  0.25500000920E-02 0.  1.
    10030    2    1    2    0    0  0.00000000000E+00  0.00000000000E+00 -0.13657617015E+04  0.14918716377E+04  0.60031321667E+03 0.  0.
        5    1    3    3  502    0  0.23097230599E+03  0.10796843439E+03 -0.10763407653E+04  0.11061360323E+04  0.46999998093E+01 0.  1.
       -5    1    3    3    0  502 -0.23097230599E+03 -0.10796843439E+03 -0.28942093623E+03  0.38573560541E+03  0.46999998093E+01 0. -1.
</event>
<event>
 5   0  0.2406307E-03  0.5999478E+03  0.7818609E-02  0.9905514E-01
       -2   -1    0    0    0  501  0.00000000000E+00  0.00000000000E+00  0.18413147109E+03  0.18413147111E+03  0.25500000920E-02 0. -1.
        2   -1    0    0  501    0  0.00000000000E+00  0.00000000000E+00 -0.48869619072E+03  0.48869619073E+03  0.25500000920E-02 0.  1.
    10030    2    1    2    0    0  0.00000000000E+00  0.00000000000E+00 -0.30456471963E+03  0.67282766184E+03  0.59994782614E+03 0.  0.
        5    1    3    3  502    0  0.24470438270E+03 -0.82617960513E+02  0.18743045901E+02  0.25899682253E+03  0.46999998093E+01 0. -1.
       -5    1    3    3    0  502 -0.24470438270E+03  0.82617960513E+02 -0.32330776553E+03  0.41383083931E+03  0.46999998093E+01 0.  1.
</event>
<event>
 5   0  0.1423430E-03  0.6000383E+03  0.7818609E-02  0.9905327E-01
        1   -1    0    0  501    0  0.00000000000E+00  0.00000000000E+00  0.25048135963E+03  0.25048135968E+03  0.50400001928E-02 0. -1.
       -1   -1    0    0    0  501  0.00000000000E+00  0.00000000000E+00 -0.35935402125E+03  0.35935402129E+03  0.50400001928E-02 0.  1.
    10030    2    1    2    0    0  0.00000000000E+00  0.00000000000E+00 -0.10887266162E+03  0.60983538097E+03  0.60003827831E+03 0.  0.
        1    1    3    3  502    0 -0.28597906567E+03  0.45453300105E+02  0.25340230691E+02  0.29067534434E+03  0.50400001928E-02 0. -1.
       -1    1    3    3    0  502  0.28597906567E+03 -0.45453300105E+02 -0.13421289231E+03  0.31916003663E+03  0.50400001928E-02 0.  1.
</event>
<event>
 5   0  0.9496750E-04  0.6003447E+03  0.7818609E-02  0.9904691E-01
        3   -1    0    0  501    0  0.00000000000E+00  0.00000000000E+00  0.71360827381E+03  0.71360828096E+03  0.10100000352E+00 0. -1.
       -3   -1    0    0    0  501  0.00000000000E+00  0.00000000000E+00 -0.12626452157E+03  0.12626456197E+03  0.10100000352E+00 0.  1.
    10030    2    1    2    0    0  0.00000000000E+00  0.00000000000E+00  0.58734375224E+03  0.83987284293E+03  0.60034465850E+03 0.  0.
        3    1    3    3  502    0  0.76221184578E+02 -0.18623683928E+03  0.60527061902E+03  0.63784509227E+03  0.10100000352E+00 0. -1.
       -3    1    3    3    0  502 -0.76221184578E+02  0.18623683928E+03 -0.17926866781E+02  0.20202775066E+03  0.10100000352E+00 0.  1.
</event>
<event>
 5   0  0.1423430E-03  0.6002345E+03  0.7818609E-02  0.9904920E-01
        1   -1    0    0  501    0  0.00000000000E+00  0.00000000000E+00  0.33672093121E+03  0.33672093125E+03  0.50400001928E-02 0. -1.
       -1   -1    0    0    0  501  0.00000000000E+00  0.00000000000E+00 -0.26749262827E+03  0.26749262831E+03  0.50400001928E-02 0.  1.
    10030    2    1    2    0    0  0.00000000000E+00  0.00000000000E+00  0.69228302942E+02  0.60421355956E+03  0.60023451053E+03 0.  0.
        1    1    3    3  502    0  0.87387774762E+02  0.84242840208E+02  0.31090935316E+03  0.33376354686E+03  0.50400001928E-02 0. -1.
       -1    1    3    3    0  502 -0.87387774762E+02 -0.84242840208E+02 -0.24168105022E+03  0.27045001269E+03  0.50400001928E-02 0.  1.
</event>
<event>
 5   0  0.1479385E-03  0.6004435E+03  0.7818609E-02  0.9904486E-01
       -1   -1    0    0    0  501  0.00000000000E+00  0.00000000000E+00  0.10010622708E+03  0.10010622721E+03  0.50400001928E-02 0.  1.
        1   -1    0    0  501    0  0.00000000000E+00  0.00000000000E+00 -0.90037442070E+03  0.90037442072E+03  0.50400001928E-02 0. -1.
    10030    2    1    2    0    0  0.00000000000E+00  0.00000000000E+00 -0.80026819362E+03  0.10004806479E+04  0.60044345709E+03 0.  0.
        3    1    3    3  502    0  0.27120756830E+03 -0.58798798509E+02 -0.59100531107E+03  0.65291510300E+03  0.10100000352E+00 0. -1.
       -3    1    3    3    0  502 -0.27120756830E+03  0.58798798509E+02 -0.20926288255E+03  0.34756554493E+03  0.10100000352E+00 0.  1.
</event>
<event>
 5   0  0.2421210E-03  0.6000317E+03  0.7818609E-02  0.9905340E-01
       -2   -1    0    0    0  501  0.00000000000E+00  0.00000000000E+00  0.22567794519E+03  0.22567794520E+03  0.25500000920E-02 0. -1.
        2   -1    0    0  501    0  0.00000000000E+00  0.00000000000E+00 -0.39884056429E+03  0.39884056430E+03  0.25500000920E-02 0.  1.
    10030    2    1    2    0    0  0.00000000000E+00  0.00000000000E+00 -0.17316261910E+03  0.62451850950E+03  0.60003172921E+03 0.  0.
        1    1    3    3  502    0 -0.18782910892E+03  0.12630373456E+03  0.11837383593E+03  0.25543056313E+03  0.50400001928E-02 0. -1.
       -1    1    3    3    0  502  0.18782910892E+03 -0.12630373456E+03 -0.29153645504E+03  0.36908794638E+03  0.50400001928E-02 0.  1.
</event>
<event>
 5   0  0.1479385E-03  0.6000379E+03  0.7818609E-02  0.9905327E-01
       -1   -1    0    0    0  501  0.00000000000E+00  0.00000000000E+00  0.60927411980E+03  0.60927411982E+03  0.50400001928E-02 0. -1.
        1   -1    0    0  501    0  0.00000000000E+00  0.00000000000E+00 -0.14773542386E+03  0.14773542395E+03  0.50400001928E-02 0.  1.
    10030    2    1    2    0    0  0.00000000000E+00  0.00000000000E+00  0.46153869594E+03  0.75700954376E+03  0.60003790005E+03 0.  0.
        3    1    3    3  502    0 -0.28302206029E+03 -0.24805963800E+02  0.10914050664E+03  0.30434927770E+03  0.10100000352E+00 0.  1.
       -3    1    3    3    0  502  0.28302206029E+03  0.24805963800E+02  0.35239818930E+03  0.45266026606E+03  0.10100000352E+00 0. -1.
</event>
<event>
 5   0  0.2421210E-03  0.6004047E+03  0.7818609E-02  0.9904567E-01
       -2   -1    0    0    0  501  0.00000000000E+00  0.00000000000E+00  0.15042696610E+03  0.15042696612E+03  0.25500000920E-02 0.  1.
        2   -1    0    0  501    0  0.00000000000E+00  0.00000000000E+00 -0.59910428430E+03  0.59910428430E+03  0.25500000920E-02 0. -1.
    10030    2    1    2    0    0  0.00000000000E+00  0.00000000000E+00 -0.44867731819E+03  0.74953125042E+03  0.60040466312E+03 0.  0.
        1    1    3    3  502    0  0.18609507930E+03  0.77863361437E+02 -0.50188108999E+03  0.54090545395E+03  0.50400001928E-02 0. -1.
       -1    1    3    3    0  502 -0.18609507930E+03 -0.77863361437E+02  0.53203771801E+02  0.20862579647E+03  0.50400001928E-02 0.  1.
</event>
<event>
 5   0  0.2346281E-03  0.5995938E+03  0.7818609E-02  0.9906249E-01
       -2   -1    0    0    0  501  0.00000000000E+00  0.00000000000E+00  0.60169001422E+03  0.60169001422E+03  0.25500000920E-02 0. -1.
        2   -1    0    0  501    0  0.00000000000E+00  0.00000000000E+00 -0.14937621481E+03  0.14937621483E+03  0.25500000920E-02 0.  1.
    10030    2    1    2    0    0  0.00000000000E+00  0.00000000000E+00  0.45231379941E+03  0.75106622905E+03  0.59959378523E+03 0.  0.
        3    1    3    3  502    0 -0.18057468476E+03  0.23785541668E+03  0.19311630114E+03  0.35563511074E+03  0.10100000352E+00 0. -1.
       -3    1    3    3    0  502  0.18057468476E+03 -0.23785541668E+03  0.25919749827E+03  0.39543111832E+03  0.10100000352E+00 0.  1.
</event>
<event>
 5   0  0.2313168E-03  0.5996850E+03  0.7818609E-02  0.9906060E-01
        2   -1    0    0  501    0  0.00000000000E+00  0.00000000000E+00  0.13350655496E+04  0.13350655496E+04  0.25500000920E-02 0. -1.
       -2   -1    0    0    0  501  0.00000000000E+00  0.00000000000E+00 -0.67341665920E+02  0.67341665968E+02  0.25500000920E-02 0.  1.
    10030    2    1    2    0    0  0.00000000000E+00  0.00000000000E+00  0.12677238837E+04  0.14024072156E+04  0.59968504487E+03 0.  0.
        2    1    3    3  502    0 -0.21790469965E+02  0.29311848522E+03  0.77245602797E+03  0.82648749906E+03  0.25500000920E-02 0. -1.
       -2    1    3    3    0  502  0.21790469965E+02 -0.29311848522E+03  0.49526785572E+03  0.57591971652E+03  0.25500000920E-02 0.  1.
</event>
<event>
 5   0  0.1416315E-03  0.5997355E+03  0.7818609E-02  0.9905955E-01
        1   -1    0    0  501    0  0.00000000000E+00  0.00000000000E+00  0.21864058703E+03  0.21864058709E+03  0.50400001928E-02 0.  1.
       -1   -1    0    0    0  501  0.00000000000E+00  0.00000000000E+00 -0.41127160821E+03  0.41127160824E+03  0.50400001928E-02 0. -1.
    10030    2    1    2    0    0  0.00000000000E+00  0.00000000000E+00 -0.19263102119E+03  0.62991219533E+03  0.59973549462E+03 0.  0.
        2    1    3    3  502    0 -0.25204112427E+02 -0.96663059472E+02 -0.39328161102E+03  0.40577015653E+03  0.25500000920E-02 0. -1.
       -2    1    3    3    0  502  0.25204112427E+02  0.96663059472E+02  0.20065058984E+03  0.22414203880E+03  0.25500000920E-02 0.  1.
</event>
<event>
 5   0  0.2406307E-03  0.5998007E+03  0.7818609E-02  0.9905820E-01
       -2   -1    0    0    0  501  0.00000000000E+00  0.00000000000E+00  0.48725518082E+02  0.48725518149E+02  0.25500000920E-02 0.  1.
        2   -1    0    0  501    0  0.00000000000E+00  0.00000000000E+00 -0.18458544319E+04  0.18458544319E+04  0.25500000920E-02 0. -1.
    10030    2    1    2    0    0  0.00000000000E+00  0.00000000000E+00 -0.17971289138E+04  0.18945799500E+04  0.59980067877E+03 0.  0.
        5    1    3    3  502    0  0.18811356845E+03  0.57287995341E+02 -0.16136381107E+04  0.16255825637E+04  0.46999998093E+01 0. -1.
       -5    1    3    3    0  502 -0.18811356845E+03 -0.57287995341E+02 -0.18349080312E+03  0.26899738637E+03  0.46999998093E+01 0.  1.
</event>
<event>
 5   0  0.1418763E-03  0.5985617E+03  0.7818609E-02  0.9908395E-01
       -1   -1    0    0    0  501  0.00000000000E+00  0.00000000000E+00  0.74086296620E+02  0.74086296791E+02  0.50400001928E-02 0. -1.
        1   -1    0    0  501    0  0.00000000000E+00  0.00000000000E+00 -0.12089821909E+04  0.12089821909E+04  0.50400001928E-02 0.  1.
    10030    2    1    2    0    0  0.00000000000E+00  0.00000000000E+00 -0.11348958943E+04  0.12830684877E+04  0.59856165370E+03 0.  0.
        5    1    3    3  502    0  0.11138619004E+03 -0.24161799068E+03 -0.86105499033E+03  0.90123466596E+03  0.46999998093E+01 0.  1.
       -5    1    3    3    0  502 -0.11138619004E+03  0.24161799068E+03 -0.27384090395E+03  0.38183382175E+03  0.46999998093E+01 0. -1.
</event>
<event>
 5   0  0.2406307E-03  0.6000147E+03  0.7818609E-02  0.9905376E-01
       -2   -1    0    0    0  501  0.00000000000E+00  0.00000000000E+00  0.13212965089E+03  0.13212965091E+03  0.25500000920E-02 0. -1.
        2   -1    0    0  501    0  0.00000000000E+00  0.00000000000E+00 -0.68118256188E+03  0.68118256189E+03  0.25500000920E-02 0.  1.
    10030    2    1    2    0    0  0.00000000000E+00  0.00000000000E+00 -0.54905291099E+03  0.81331221280E+03  0.60001471350E+03 0.  0.
        5    1    3    3  502    0 -0.28297224412E+03 -0.11611864221E+02 -0.40853606902E+03  0.49712366271E+03  0.46999998093E+01 0. -1.
       -5    1    3    3    0  502  0.28297224412E+03  0.11611864221E+02 -0.14051684197E+03  0.31618855009E+03  0.46999998093E+01 0.  1.
</event>
<event>
 5   0  0.2421210E-03  0.6000421E+03  0.7818609E-02  0.9905319E-01
       -2   -1    0    0    0  501  0.00000000000E+00  0.00000000000E+00  0.17473483970E+03  0.17473483972E+03  0.25500000920E-02 0. -1.
        2   -1    0    0  501    0  0.00000000000E+00  0.00000000000E+00 -0.51513837093E+03  0.51513837093E+03  0.25500000920E-02 0.  1.
    10030    2    1    2    0    0  0.00000000000E+00  0.00000000000E+00 -0.34040353122E+03  0.68987321065E+03  0.60004206745E+03 0.  0.
        1    1    3    3  502    0  0.42664243100E+02  0.10422691037E+03 -0.48991392635E+03  0.50269189545E+03  0.50400001928E-02 0.  1.
       -1    1    3    3    0  502 -0.42664243100E+02 -0.10422691037E+03  0.14951039513E+03  0.18718131521E+03  0.50400001928E-02 0. -1.
</event>
<event>
 5   0  0.2324616E-03  0.5997164E+03  0.7818609E-02  0.9905995E-01
       -2   -1    0    0    0  501  0.00000000000E+00  0.00000000000E+00  0.84275307825E+02  0.84275307864E+02  0.25500000920E-02 0. -1.
        2   -1    0    0  501    0  0.00000000000E+00  0.00000000000E+00 -0.10669193220E+04  0.10669193220E+04  0.25500000920E-02 0.  1.
    10030    2    1    2    0    0  0.00000000000E+00  0.00000000000E+00 -0.98264401418E+03  0.11511946299E+04  0.59971644736E+03 0.  0.
        4    1    3    3  502    0  0.14425356718E+02 -0.72055594584E+02 -0.10493618089E+04  0.10519324686E+04  0.12699999809E+01 0.  1.
       -4    1    3    3    0  502 -0.14425356718E+02  0.72055594584E+02  0.66717794719E+02  0.99262161267E+02  0.12699999809E+01 0. -1.
</event>
<event>
 5   0  0.9496750E-04  0.6009263E+03  0.7818609E-02  0.9903486E-01
        3   -1    0    0  501    0  0.00000000000E+00  0.00000000000E+00  0.58293672883E+02  0.58293760380E+02  0.10100000352E+00 0.  1.
       -3   -1    0    0    0  501  0.00000000000E+00  0.00000000000E+00 -0.15486761618E+04  0.15486761651E+04  0.10100000352E+00 0. -1.
    10030    2    1    2    0    0  0.00000000000E+00  0.00000000000E+00 -0.14903824889E+04  0.16069699254E+04  0.60092626677E+03 0.  0.
        5    1    3    3  502    0 -0.16539263161E+03  0.16702654988E+03 -0.12455042138E+04  0.12674996755E+04  0.46999998093E+01 0. -1.
       -5    1    3    3    0  502  0.16539263161E+03 -0.16702654988E+03 -0.24487827511E+03  0.33947024991E+03  0.46999998093E+01 0.  1.
</event>
<event>
 5   0  0.1416315E-03  0.5999116E+03  0.7818609E-02  0.9905589E-01
        1   -1    0    0  501    0  0.00000000000E+00  0.00000000000E+00  0.20199968756E+03  0.20199968763E+03  0.50400001928E-02 0. -1.
       -1   -1    0    0    0  501  0.00000000000E+00  0.00000000000E+00 -0.44541403029E+03  0.44541403032E+03  0.50400001928E-02 0.  1.
    10030    2    1    2    0    0  0.00000000000E+00  0.00000000000E+00 -0.24341434272E+03  0.64741371794E+03  0.59991164344E+03 0.  0.
        2    1    3    3  502    0 -0.32576173737E+02 -0.22200371011E+03  0.93119517258E+02  0.24293640917E+03  0.25500000920E-02 0. -1.
       -2    1    3    3    0  502  0.32576173737E+02  0.22200371011E+03 -0.33653385998E+03  0.40447730878E+03  0.25500000920E-02 0.  1.
</event>
<event>
 5   0  0.1416315E-03  0.5999058E+03  0.7818609E-02  0.9905602E-01
       -1   -1    0    0    0  501  0.00000000000E+00  0.00000000000E+00  0.14235730413E+03  0.14235730422E+03  0.50400001928E-02 0.  1.
        1   -1    0    0  501    0  0.00000000000E+00  0.00000000000E+00 -0.63201349934E+03  0.63201349936E+03  0.50400001928E-02 0. -1.
    10030    2    1    2    0    0  0.00000000000E+00  0.00000000000E+00 -0.48965619520E+03  0.77437080358E+03  0.59990578588E+03 0.  0.
        2    1    3    3  502    0 -0.10297238108E+03 -0.28171331465E+03 -0.24799917411E+03  0.38919056166E+03  0.25500000920E-02 0.  1.
       -2    1    3    3    0  502  0.10297238108E+03  0.28171331465E+03 -0.24165702109E+03  0.38518024192E+03  0.25500000920E-02 0. -1.
</event>
<event>
 5   0  0.2406307E-03  0.5997636E+03  0.7818609E-02  0.9905897E-01
       -2   -1    0    0    0  501  0.00000000000E+00  0.00000000000E+00  0.37431641519E+03  0.37431641519E+03  0.25500000920E-02 0. -1.
        2   -1    0    0  501    0  0.00000000000E+00  0.00000000000E+00 -0.24024882726E+03  0.24024882727E+03  0.25500000920E-02 0.  1.
    10030    2    1    2    0    0  0.00000000000E+00  0.00000000000E+00  0.13406758793E+03  0.61456524246E+03  0.59976355267E+03 0.  0.
        5    1    3    3  502    0  0.53754628970E+02  0.23271671862E+03 -0.11871417464E+03  0.26676164739E+03  0.46999998093E+01 0.  1.
       -5    1    3    3    0  502 -0.53754628970E+02 -0.23271671862E+03  0.25278176257E+03  0.34780359507E+03  0.46999998093E+01 0. -1.
</event>
<event>
 5   0  0.2346281E-03  0.5999612E+03  0.7818609E-02  0.9905487E-01
       -2   -1    0    0    0  501  0.00000000000E+00  0.00000000000E+00  0.14183561909E+03  0.14183561912E+03  0.25500000920E-02 0. -1.
        2   -1    0    0  501    0  0.00000000000E+00  0.00000000000E+00 -0.63445523218E+03  0.63445523218E+03  0.25500000920E-02 0.  1.
    10030    2    1    2    0    0  0.00000000000E+00  0.00000000000E+00 -0.49261961308E+03  0.77629085130E+03  0.59996116759E+03 0.  0.
        3    1    3    3  502    0  0.15253261534E+03 -0.23054810302E+03 -0.95584327793E+02  0.29249786404E+03  0.10100000352E+00 0. -1.
       -3    1    3    3    0  502 -0.15253261534E+03  0.23054810302E+03 -0.39703528529E+03  0.48379298726E+03  0.10100000352E+00 0.  1.
</event>
<event>
 5   0  0.1416315E-03  0.5998880E+03  0.7818609E-02  0.9905639E-01
        1   -1    0    0  501    0  0.00000000000E+00  0.00000000000E+00  0.12989177121E+03  0.12989177130E+03  0.50400001928E-02 0. -1.
       -1   -1    0    0    0  501  0.00000000000E+00  0.00000000000E+00 -0.69262582196E+03  0.69262582198E+03  0.50400001928E-02 0.  1.
    10030    2    1    2    0    0  0.00000000000E+00  0.00000000000E+00 -0.56273405075E+03  0.82251759328E+03  0.59988797236E+03 0.  0.
        2    1    3    3  502    0 -0.27053885354E+02 -0.18112084228E+03 -0.60707545552E+03  0.63409564020E+03  0.25500000920E-02 0.  1.
       -2    1    3    3    0  502  0.27053885354E+02  0.18112084228E+03  0.44341404769E+02  0.18842195308E+03  0.25500000920E-02 0. -1.
</event>
<event>
 5   0  0.2324616E-03  0.6000398E+03  0.7818609E-02  0.9905324E-01
       -2   -1    0    0    0  501  0.00000000000E+00  0.00000000000E+00  0.16680015972E+03  0.16680015974E+03  0.25500000920E-02 0.  1.
        2   -1    0    0  501    0  0.00000000000E+00  0.00000000000E+00 -0.53963933454E+03  0.53963933455E+03  0.25500000920E-02 0. -1.
    10030    2    1    2    0    0  0.00000000000E+00  0.00000000000E+00 -0.37283917482E+03  0.70643949429E+03  0.60003975602E+03 0.  0.
        4    1    3    3  502    0  0.72069842147E+02  0.29118127198E+03 -0.19283777001E+03  0.35660708594E+03  0.12699999809E+01 0. -1.
       -4    1    3    3    0  502 -0.72069842147E+02 -0.29118127198E+03 -0.18000140481E+03  0.34983240835E+03  0.12699999809E+01 0.  1.
</event>
<event>
 5   0  0.1416315E-03  0.5995291E+03  0.7818609E-02  0.9906384E-01
       -1   -1    0    0    0  501  0.00000000000E+00  0.00000000000E+00  0.22519058208E+03  0.22519058213E+03  0.50400001928E-02 0. -1.
        1   -1    0    0  501    0  0.00000000000E+00  0.00000000000E+00 -0.39903433518E+03  0.39903433521E+03  0.50400001928E-02 0.  1.
    10030    2    1    2    0    0  0.00000000000E+00  0.00000000000E+00 -0.17384375310E+03  0.62422491735E+03  0.59952906263E+03 0.  0.
        2    1    3    3  502    0  0.29220092666E+03  0.34309038200E+02 -0.14673636924E+03  0.32877051831E+03  0.25500000920E-02 0.  1.
       -2    1    3    3    0  502 -0.29220092666E+03 -0.34309038200E+02 -0.27107383859E+02  0.29545439904E+03  0.25500000920E-02 0. -1.
</event>
<event>
 5   0  0.9496750E-04  0.6000461E+03  0.7818609E-02  0.9905310E-01
       -3   -1    0    0    0  501  0.00000000000E+00  0.00000000000E+00  0.10767682869E+03  0.10767687606E+03  0.10100000352E+00 0. -1.
        3   -1    0    0  501    0  0.00000000000E+00  0.00000000000E+00 -0.83596254774E+03  0.83596255384E+03  0.10100000352E+00 0.  1.
    10030    2    1    2    0    0  0.00000000000E+00  0.00000000000E+00 -0.72828571905E+03  0.94363942991E+03  0.60004606915E+03 0.  0.
        1    1    3    3  502    0  0.61993622680E+02 -0.26271653615E+03 -0.15819296715E+03  0.31287090389E+03  0.50400001928E-02 0. -1.
       -1    1    3    3    0  502 -0.61993622680E+02  0.26271653615E+03 -0.57009275190E+03  0.63076852602E+03  0.50400001928E-02 0.  1.
</event>
<event>
 5   0  0.1479385E-03  0.6002460E+03  0.7818609E-02  0.9904896E-01
       -1   -1    0    0    0  501  0.00000000000E+00  0.00000000000E+00  0.33312131097E+03  0.33312131101E+03  0.50400001928E-02 0.  1.
        1   -1    0    0  501    0  0.00000000000E+00  0.00000000000E+00 -0.27039340861E+03  0.27039340866E+03  0.50400001928E-02 0. -1.
    10030    2    1    2    0    0  0.00000000000E+00  0.00000000000E+00  0.62727902358E+02  0.60351471966E+03  0.60024597218E+03 0.  0.
        3    1    3    3  502    0 -0.82085148142E+02 -0.18002440502E+03 -0.19553517532E+03  0.27817399759E+03  0.10100000352E+00 0. -1.
       -3    1    3    3    0  502  0.82085148142E+02  0.18002440502E+03  0.25826307767E+03  0.32534072207E+03  0.10100000352E+00 0.  1.
</event>
<event>
 5   0  0.2421210E-03  0.5999060E+03  0.7818609E-02  0.9905601E-01
        2   -1    0    0  501    0  0.00000000000E+00  0.00000000000E+00  0.26753907584E+03  0.26753907586E+03  0.25500000920E-02 0.  1.
       -2   -1    0    0    0  501  0.00000000000E+00  0.00000000000E+00 -0.33629401487E+03  0.33629401488E+03  0.25500000920E-02 0. -1.
    10030    2    1    2    0    0  0.00000000000E+00  0.00000000000E+00 -0.68754939025E+02  0.60383309074E+03  0.59990595915E+03 0.  0.
        1    1    3    3  502    0 -0.15269780580E+03  0.10936311356E+03  0.20102286074E+03  0.27511288787E+03  0.50400001928E-02 0.  1.
       -1    1    3    3    0  502  0.15269780580E+03 -0.10936311356E+03 -0.26977779977E+03  0.32872020287E+03  0.50400001928E-02 0. -1.
</event>
<event>
 5   0  0.1416315E-03  0.5999229E+03  0.7818609E-02  0.9905566E-01
        1   -1    0    0  501    0  0.00000000000E+00  0.00000000000E+00  0.49164884730E+03  0.49164884732E+03  0.50400001928E-02 0. -1.
       -1   -1    0    0    0  501  0.00000000000E+00  0.00000000000E+00 -0.18301041357E+03  0.18301041364E+03  0.50400001928E-02 0.  1.
    10030    2    1    2    0    0  0.00000000000E+00  0.00000000000E+00  0.30863843373E+03  0.67465926096E+03  0.59992285806E+03 0.  0.
        2    1    3    3  502    0  0.15150558232E+02  0.62142779054E+02 -0.17525197283E+03  0.18655969123E+03  0.25500000920E-02 0.  1.
       -2    1    3    3    0  502 -0.15150558232E+02 -0.62142779054E+02  0.48389040656E+03  0.48809956973E+03  0.25500000920E-02 0. -1.
</event>
<event>
 5   0  0.2421210E-03  0.6000470E+03  0.7818609E-02  0.9905308E-01
        2   -1    0    0  501    0  0.00000000000E+00  0.00000000000E+00  0.95768539529E+03  0.95768539529E+03  0.25500000920E-02 0.  1.
       -2   -1    0    0    0  501  0.00000000000E+00  0.00000000000E+00 -0.93991315274E+02  0.93991315309E+02  0.25500000920E-02 0. -1.
    10030    2    1    2    0    0  0.00000000000E+00  0.00000000000E+00  0.86369408001E+03  0.10516767106E+04  0.60004703130E+03 0.  0.
        1    1    3    3  502    0  0.39905441738E+02  0.26245472207E+03  0.67683806911E+03  0.72703830521E+03  0.50400001928E-02 0.  1.
       -1    1    3    3    0  502 -0.39905441738E+02 -0.26245472207E+03  0.18685601090E+03  0.32463840539E+03  0.50400001928E-02 0. -1.
</event>
<event>
 5   0  0.9496750E-04  0.5998379E+03  0.7818609E-02  0.9905742E-01
        3   -1    0    0  501    0  0.00000000000E+00  0.00000000000E+00  0.83670885036E+03  0.83670885646E+03  0.10100000352E+00 0. -1.
       -3   -1    0    0    0  501  0.00000000000E+00  0.00000000000E+00 -0.10750616840E+03  0.10750621584E+03  0.10100000352E+00 0.  1.
    10030    2    1    2    0    0  0.00000000000E+00  0.00000000000E+00  0.72920268196E+03  0.94421507230E+03  0.59983793760E+03 0.  0.
        3    1    3    3  502    0  0.76578232131E+00  0.17180520889E+03  0.75157090815E+03  0.77095814180E+03  0.10100000352E+00 0. -1.
       -3    1    3    3    0  502 -0.76578232131E+00 -0.17180520889E+03 -0.22368226189E+02  0.17325693050E+03  0.10100000352E+00 0.  1.
</event>
<event>
 5   0  0.2346281E-03  0.5999412E+03  0.7818609E-02  0.9905528E-01
        2   -1    0    0  501    0  0.00000000000E+00  0.00000000000E+00  0.10379785446E+04  0.10379785446E+04  0.25500000920E-02 0. -1.
       -2   -1    0    0    0  501  0.00000000000E+00  0.00000000000E+00 -0.86689996844E+02  0.86689996882E+02  0.25500000920E-02 0.  1.
    10030    2    1    2    0    0  0.00000000000E+00  0.00000000000E+00  0.95128854771E+03  0.11246685414E+04  0.59994118637E+03 0.  0.
        3    1    3    3  502    0 -0.15919952302E+03  0.16465017854E+03  0.83880142868E+03  0.86950676615E+03  0.10100000352E+00 0. -1.
       -3    1    3    3    0  502  0.15919952302E+03 -0.16465017854E+03  0.11248711903E+03  0.25516177529E+03  0.10100000352E+00 0.  1.
</event>
<event>
 5   0  0.1423430E-03  0.6002633E+03  0.7818609E-02  0.9904860E-01
       -1   -1    0    0    0  501  0.00000000000E+00  0.00000000000E+00  0.18903524936E+03  0.18903524942E+03  0.50400001928E-02 0. -1.
        1   -1    0    0  501    0  0.00000000000E+00  0.00000000000E+00 -0.47651969703E+03  0.47651969706E+03  0.50400001928E-02 0.  1.
    10030    2    1    2    0    0  0.00000000000E+00  0.00000000000E+00 -0.28748444768E+03  0.66555494648E+03  0.60026334149E+03 0.  0.
        1    1    3    3  502    0  0.71268791770E+02  0.15372042135E+03 -0.41841744787E+03  0.45142260613E+03  0.50400001928E-02 0.  1.
       -1    1    3    3    0  502 -0.71268791770E+02 -0.15372042135E+03  0.13093300019E+03  0.21413234035E+03  0.50400001928E-02 0. -1.
</event>
<event>
 5   0  0.1423430E-03  0.5998526E+03  0.7818609E-02  0.9905712E-01
       -1   -1    0    0    0  501  0.00000000000E+00  0.00000000000E+00  0.22845651710E+03  0.22845651715E+03  0.50400001928E-02 0.  1.
        1   -1    0    0  501    0  0.00000000000E+00  0.00000000000E+00 -0.39375453224E+03  0.39375453227E+03  0.50400001928E-02 0. -1.
    10030    2    1    2    0    0  0.00000000000E+00  0.00000000000E+00 -0.16529801514E+03  0.62221104942E+03  0.59985261208E+03 0.  0.
        1    1    3    3  502    0 -0.74493996964E+02 -0.18389685669E+03  0.15065303923E+03  0.24912596761E+03  0.50400001928E-02 0.  1.
       -1    1    3    3    0  502  0.74493996964E+02  0.18389685669E+03 -0.31595105437E+03  0.37308508181E+03  0.50400001928E-02 0. -1.
</event>
<event>
 5   0  0.2421210E-03  0.6004581E+03  0.7818609E-02  0.9904456E-01
       -2   -1    0    0    0  501  0.00000000000E+00  0.00000000000E+00  0.94726582943E+02  0.94726582978E+02  0.25500000920E-02 0.  1.
        2   -1    0    0  501    0  0.00000000000E+00  0.00000000000E+00 -0.95155409069E+03  0.95155409069E+03  0.25500000920E-02 0. -1.
    10030    2    1    2    0    0  0.00000000000E+00  0.00000000000E+00 -0.85682750775E+03  0.10462806737E+04  0.60045805021E+03 0.  0.
        1    1    3    3  502    0 -0.13361642297E+03 -0.93518729150E+02  0.10807708597E+02  0.16345001615E+03  0.50400001928E-02 0.  1.
       -1    1    3    3    0  502  0.13361642297E+03  0.93518729150E+02 -0.86763521634E+03  0.88283065752E+03  0.50400001928E-02 0. -1.
</event>
<event>
 5   0  0.9496750E-04  0.6011244E+03  0.7818609E-02  0.9903076E-01
       -4   -1    0    0    0  501  0.00000000000E+00  0.00000000000E+00  0.51428646418E+02  0.51444324977E+02  0.12699999809E+01 0.  1.
        4   -1    0    0  501    0  0.00000000000E+00  0.00000000000E+00 -0.17562788097E+04  0.17562792689E+04  0.12699999809E+01 0. -1.
    10030    2    1    2    0    0  0.00000000000E+00  0.00000000000E+00 -0.17048501633E+04  0.18077235939E+04  0.60112437361E+03 0.  0.
        5    1    3    3  502    0  0.71388028873E+01  0.18212272606E+03 -0.13385338708E+03  0.22618238014E+03  0.46999998093E+01 0.  1.
       -5    1    3    3    0  502 -0.71388028873E+01 -0.18212272606E+03 -0.15709967762E+04  0.15815412137E+04  0.46999998093E+01 0. -1.
</event>
<event>
 5   0  0.1423430E-03  0.6001884E+03  0.7818609E-02  0.9905015E-01
       -1   -1    0    0    0  501  0.00000000000E+00  0.00000000000E+00  0.22882050782E+03  0.22882050787E+03  0.50400001928E-02 0. -1.
        1   -1    0    0  501    0  0.00000000000E+00  0.00000000000E+00 -0.39356841223E+03  0.39356841227E+03  0.50400001928E-02 0.  1.
    10030    2    1    2    0    0  0.00000000000E+00  0.00000000000E+00 -0.16474790442E+03  0.62238892014E+03  0.60018838368E+03 0.  0.
        1    1    3    3  502    0  0.11242882507E+03 -0.26923160429E+03 -0.15518970093E+03  0.33046897095E+03  0.50400001928E-02 0.  1.
       -1    1    3    3    0  502 -0.11242882507E+03  0.26923160429E+03 -0.95582034850E+01  0.29191994919E+03  0.50400001928E-02 0. -1.
</event>
<event>
 5   0  0.2346281E-03  0.5997347E+03  0.7818609E-02  0.9905957E-01
        2   -1    0    0  501    0  0.00000000000E+00  0.00000000000E+00  0.87006777081E+03  0.87006777081E+03  0.25500000920E-02 0. -1.
       -2   -1    0    0    0  501  0.00000000000E+00  0.00000000000E+00 -0.10334875144E+03  0.10334875147E+03  0.25500000920E-02 0.  1.
    10030    2    1    2    0    0  0.00000000000E+00  0.00000000000E+00  0.76671901937E+03  0.97341652229E+03  0.59973466733E+03 0.  0.
        3    1    3    3  502    0  0.23801122449E+03 -0.11338638921E+03  0.61526439909E+03  0.66936993302E+03  0.10100000352E+00 0. -1.
       -3    1    3    3    0  502 -0.23801122449E+03  0.11338638921E+03  0.15145462028E+03  0.30404658927E+03  0.10100000352E+00 0.  1.
</event>
<event>
 5   0  0.1392854E-03  0.5999426E+03  0.7818609E-02  0.9905525E-01
       -1   -1    0    0    0  501  0.00000000000E+00  0.00000000000E+00  0.11758910736E+03  0.11758910747E+03  0.50400001928E-02 0. -1.
        1   -1    0    0  501    0  0.00000000000E+00  0.00000000000E+00 -0.76523054435E+03  0.76523054436E+03  0.50400001928E-02 0.  1.
    10030    2    1    2    0    0  0.00000000000E+00  0.00000000000E+00 -0.64764143699E+03  0.88281965184E+03  0.59994258622E+03 0.  0.
        4    1    3    3  502    0 -0.19895765931E+03 -0.22013545557E+03 -0.25905109606E+03  0.39389446844E+03  0.12699999809E+01 0.  1.
       -4    1    3    3    0  502  0.19895765931E+03  0.22013545557E+03 -0.38859034093E+03  0.48892518340E+03  0.12699999809E+01 0. -1.
</event>
<event>
 5   0  0.1392854E-03  0.5998990E+03  0.7818609E-02  0.9905616E-01
        1   -1    0    0  501    0  0.00000000000E+00  0.00000000000E+00  0.59177160066E+03  0.59177160068E+03  0.50400001928E-02 0.  1.
       -1   -1    0    0    0  501  0.00000000000E+00  0.00000000000E+00 -0.15203448878E+03  0.15203448886E+03  0.50400001928E-02 0. -1.
    10030    2    1    2    0    0  0.00000000000E+00  0.00000000000E+00  0.43973711188E+03  0.74380608955E+03  0.59989896756E+03 0.  0.
        4    1    3    3  502    0 -0.22712222195E+03  0.11907036821E+03  0.41277269552E+03  0.48594770023E+03  0.12699999809E+01 0.  1.
       -4    1    3    3    0  502  0.22712222195E+03 -0.11907036821E+03  0.26964416360E+02  0.25785838931E+03  0.12699999809E+01 0. -1.
</event>
<event>
 5   0  0.1392854E-03  0.5994012E+03  0.7818609E-02  0.9906649E-01
       -1   -1    0    0    0  501  0.00000000000E+00  0.00000000000E+00  0.89778628376E+02  0.89778628517E+02  0.50400001928E-02 0.  1.
        1   -1    0    0  501    0  0.00000000000E+00  0.00000000000E+00 -0.10004659786E+04  0.10004659786E+04  0.50400001928E-02 0. -1.
    10030    2    1    2    0    0  0.00000000000E+00  0.00000000000E+00 -0.91068735021E+03  0.10902446071E+04  0.59940124584E+03 0.  0.
        4    1    3    3  502    0  0.23855524614E+03  0.45151310974E+02 -0.77492831971E+03  0.81207312475E+03  0.12699999809E+01 0. -1.
       -4    1    3    3    0  502 -0.23855524614E+03 -0.45151310974E+02 -0.13575903050E+03  0.27817148237E+03  0.12699999809E+01 0.  1.
</event>
<event>
 5   0  0.2313168E-03  0.5997484E+03  0.7818609E-02  0.9905928E-01
        2   -1    0    0  501    0  0.00000000000E+00  0.00000000000E+00  0.23572196323E+03  0.23572196324E+03  0.25500000920E-02 0.  1.
       -2   -1    0    0    0  501  0.00000000000E+00  0.00000000000E+00 -0.38148563105E+03  0.38148563106E+03  0.25500000920E-02 0. -1.
    10030    2    1    2    0    0  0.00000000000E+00  0.00000000000E+00 -0.14576366782E+03  0.61720759430E+03  0.59974842026E+03 0.  0.
        2    1    3    3  502    0 -0.15205427423E+03 -0.25459098699E+03 -0.27003005139E+02  0.29776876139E+03  0.25500000920E-02 0.  1.
       -2    1    3    3    0  502  0.15205427423E+03  0.25459098699E+03 -0.11876066268E+03  0.31943883291E+03  0.25500000920E-02 0. -1.
</event>
<event>
 5   0  0.2324616E-03  0.5998450E+03  0.7818609E-02  0.9905728E-01
        2   -1    0    0  501    0  0.00000000000E+00  0.00000000000E+00  0.14317021060E+04  0.14317021060E+04  0.25500000920E-02 0. -1.
       -2   -1    0    0    0  501  0.00000000000E+00  0.00000000000E+00 -0.62829764424E+02  0.62829764476E+02  0.25500000920E-02 0.  1.
    10030    2    1    2    0    0  0.00000000000E+00  0.00000000000E+00  0.13688723415E+04  0.14945318704E+04  0.59984500025E+03 0.  0.
        4    1    3    3  502    0 -0.55637215184E+02  0.28291128754E+03  0.47871366975E+03  0.55884048425E+03  0.12699999809E+01 0.  1.
       -4    1    3    3    0  502  0.55637215184E+02 -0.28291128754E+03  0.89015867177E+03  0.93569138618E+03  0.12699999809E+01 0. -1.
</event>
<event>
 5   0  0.2346281E-03  0.6003554E+03  0.7818609E-02  0.9904669E-01
       -2   -1    0    0    0  501  0.00000000000E+00  0.00000000000E+00  0.12094150028E+03  0.12094150031E+03  0.25500000920E-02 0. -1.
        2   -1    0    0  501    0  0.00000000000E+00  0.00000000000E+00 -0.74504315732E+03  0.74504315733E+03  0.25500000920E-02 0.  1.
    10030    2    1    2    0    0  0.00000000000E+00  0.00000000000E+00 -0.62410165705E+03  0.86598465764E+03  0.60035535222E+03 0.  0.
        3    1    3    3  502    0 -0.16504949770E+03  0.18156045876E+03 -0.56147889623E+03  0.61275125295E+03  0.10100000352E+00 0.  1.
       -3    1    3    3    0  502  0.16504949770E+03 -0.18156045876E+03 -0.62622760816E+02  0.25323340469E+03  0.10100000352E+00 0. -1.
</event>
<event>
 5   0  0.1479385E-03  0.5999141E+03  0.7818609E-02  0.9905584E-01
        1   -1    0    0  501    0  0.00000000000E+00  0.00000000000E+00  0.16432932626E+04  0.16432932626E+04  0.50400001928E-02 0.  1.
       -1   -1    0    0    0  501  0.00000000000E+00  0.00000000000E+00 -0.54752389687E+02  0.54752389919E+02  0.50400001928E-02 0. -1.
    10030    2    1    2    0    0  0.00000000000E+00  0.00000000000E+00  0.15885408729E+04  0.16980456525E+04  0.59991410480E+03 0.  0.
        3    1    3    3  502    0  0.15062675445E+03 -0.96456191633E+02  0.11270601533E+03  0.21141161783E+03  0.10100000352E+00 0. -1.
       -3    1    3    3    0  502 -0.15062675445E+03  0.96456191633E+02  0.14758348575E+04  0.14866340347E+04  0.10100000352E+00 0.  1.
</event>
<event>
 5   0  0.2406307E-03  0.5995925E+03  0.7818609E-02  0.9906252E-01
       -2   -1    0    0    0  501  0.00000000000E+00  0.00000000000E+00  0.34925129414E+03  0.34925129415E+03  0.25500000920E-02 0.  1.
        2   -1    0    0  501    0  0.00000000000E+00  0.00000000000E+00 -0.25734422833E+03  0.25734422835E+03  0.25500000920E-02 0. -1.
    10030    2    1    2    0    0  0.00000000000E+00  0.00000000000E+00  0.91907065803E+02  0.60659552249E+03  0.59959254429E+03 0.  0.
        5    1    3    3  502    0  0.19877634655E+03 -0.21738355923E+03  0.10217294955E+03  0.31181572987E+03  0.46999998093E+01 0.  1.
       -5    1    3    3    0  502 -0.19877634655E+03  0.21738355923E+03 -0.10265883751E+02  0.29477979263E+03  0.46999998093E+01 0. -1.
</event>
<event>
 5   0  0.9496750E-04  0.5998943E+03  0.7818609E-02  0.9905625E-01
        3   -1    0    0  501    0  0.00000000000E+00  0.00000000000E+00  0.66894030435E+03  0.66894031197E+03  0.10100000352E+00 0.  1.
       -3   -1    0    0    0  501  0.00000000000E+00  0.00000000000E+00 -0.13449373607E+03  0.13449377399E+03  0.10100000352E+00 0. -1.
    10030    2    1    2    0    0  0.00000000000E+00  0.00000000000E+00  0.53444656828E+03  0.80343408596E+03  0.59989432081E+03 0.  0.
        4    1    3    3  502    0 -0.16969015596E+03  0.38438953606E+02 -0.59998523684E+02  0.18404819458E+03  0.12699999809E+01 0. -1.
       -4    1    3    3    0  502  0.16969015596E+03 -0.38438953606E+02  0.59444509196E+03  0.61938589138E+03  0.12699999809E+01 0.  1.
</event>
<event>
 5   0  0.2313168E-03  0.6000527E+03  0.7818609E-02  0.9905297E-01
        2   -1    0    0  501    0  0.00000000000E+00  0.00000000000E+00  0.66482853278E+03  0.66482853278E+03  0.25500000920E-02 0. -1.
       -2   -1    0    0    0  501  0.00000000000E+00  0.00000000000E+00 -0.13539704310E+03  0.13539704312E+03  0.25500000920E-02 0.  1.
    10030    2    1    2    0    0  0.00000000000E+00  0.00000000000E+00  0.52943148968E+03  0.80022557590E+03  0.60005272274E+03 0.  0.
        2    1    3    3  502    0 -0.89549495421E+02 -0.45496374005E+02 -0.11230842292E+03  0.15067253911E+03  0.25500000920E-02 0.  1.
       -2    1    3    3    0  502  0.89549495421E+02  0.45496374005E+02  0.64173991260E+03  0.64955303679E+03  0.25500000920E-02 0. -1.
</event>
<event>
 5   0  0.1479385E-03  0.5998981E+03  0.7818609E-02  0.9905618E-01
       -1   -1    0    0    0  501  0.00000000000E+00  0.00000000000E+00  0.90551881047E+02  0.90551881188E+02  0.50400001928E-02 0. -1.
        1   -1    0    0  501    0  0.00000000000E+00  0.00000000000E+00 -0.99356772222E+03  0.99356772223E+03  0.50400001928E-02 0.  1.
    10030    2    1    2    0    0  0.00000000000E+00  0.00000000000E+00 -0.90301584117E+03  0.10841196034E+04  0.59989807894E+03 0.  0.
        3    1    3    3  502    0 -0.27686701544E+03  0.62400656137E+02 -0.62690827982E+03  0.68815927490E+03  0.10100000352E+00 0.  1.
       -3    1    3    3    0  502  0.27686701544E+03 -0.62400656137E+02 -0.27610756136E+03  0.39596032852E+03  0.10100000352E+00 0. -1.
</event>
<event>
 5   0  0.2406307E-03  0.5999754E+03  0.7818609E-02  0.9905457E-01
        2   -1    0    0  501    0  0.00000000000E+00  0.00000000000E+00  0.11016589919E+04  0.11016589919E+04  0.25500000920E-02 0. -1.
       -2   -1    0    0    0  501  0.00000000000E+00  0.00000000000E+00 -0.81688271359E+02  0.81688271398E+02  0.25500000920E-02 0.  1.
    10030    2    1    2    0    0  0.00000000000E+00  0.00000000000E+00  0.10199707205E+04  0.11833472633E+04  0.59997539515E+03 0.  0.
        5    1    3    3  502    0  0.13938419079E+03  0.22089006824E+03  0.21910798912E+03  0.34095568009E+03  0.46999998093E+01 0.  1.
       -5    1    3    3    0  502 -0.13938419079E+03 -0.22089006824E+03  0.80086273138E+03  0.84239158317E+03  0.46999998093E+01 0. -1.
</event>
<event>
 5   0  0.1418763E-03  0.6007386E+03  0.7818609E-02  0.9903875E-01
        1   -1    0    0  501    0  0.00000000000E+00  0.00000000000E+00  0.73113513842E+03  0.73113513844E+03  0.50400001928E-02 0.  1.
       -1   -1    0    0    0  501  0.00000000000E+00  0.00000000000E+00 -0.12339952602E+03  0.12339952613E+03  0.50400001928E-02 0. -1.
    10030    2    1    2    0    0  0.00000000000E+00  0.00000000000E+00  0.60773561240E+03  0.85453466456E+03  0.60073864398E+03 0.  0.
        5    1    3    3  502    0  0.24350985543E+03 -0.12187728268E+03  0.48407062494E+03  0.55542558606E+03  0.46999998093E+01 0.  1.
       -5    1    3    3    0  502 -0.24350985543E+03  0.12187728268E+03  0.12366498746E+03  0.29910907851E+03  0.46999998093E+01 0. -1.
</event>
<event>
 5   0  0.2406307E-03  0.5997025E+03  0.7818609E-02  0.9906023E-01
        2   -1    0    0  501    0  0.00000000000E+00  0.00000000000E+00  0.72470540999E+03  0.72470541000E+03  0.25500000920E-02 0.  1.
       -2   -1    0    0    0  501  0.00000000000E+00  0.00000000000E+00 -0.12406527054E+03  0.12406527057E+03  0.25500000920E-02 0. -1.
    10030    2    1    2    0    0  0.00000000000E+00  0.00000000000E+00  0.60064013945E+03  0.84877068056E+03  0.59970250213E+03 0.  0.
        5    1    3    3  502    0 -0.20454370461E+03 -0.13039588818E+03  0.54970350467E+03  0.60086375144E+03  0.46999998093E+01 0.  1.
       -5    1    3    3    0  502  0.20454370461E+03  0.13039588818E+03  0.50936634787E+02  0.24790692913E+03  0.46999998093E+01 0. -1.
</event>
<event>
 5   0  0.2421210E-03  0.6000284E+03  0.7818609E-02  0.9905347E-01
        2   -1    0    0  501    0  0.00000000000E+00  0.00000000000E+00  0.43669804366E+03  0.43669804367E+03  0.25500000920E-02 0. -1.
       -2   -1    0    0    0  501  0.00000000000E+00  0.00000000000E+00 -0.20611156087E+03  0.20611156089E+03  0.25500000920E-02 0.  1.
    10030    2    1    2    0    0  0.00000000000E+00  0.00000000000E+00  0.23058648279E+03  0.64280960456E+03  0.60002838405E+03 0.  0.
        1    1    3    3  502    0 -0.27762176590E+03 -0.81742132471E+02  0.20000644479E+03  0.35179283550E+03  0.50400001928E-02 0. -1.
       -1    1    3    3    0  502  0.27762176590E+03  0.81742132471E+02  0.30580037999E+02  0.29101676906E+03  0.50400001928E-02 0.  1.
</event>
<event>
 5   0  0.2324616E-03  0.6003838E+03  0.7818609E-02  0.9904610E-01
        2   -1    0    0  501    0  0.00000000000E+00  0.00000000000E+00  0.69022528721E+03  0.69022528722E+03  0.25500000920E-02 0. -1.
       -2   -1    0    0    0  501  0.00000000000E+00  0.00000000000E+00 -0.13055908737E+03  0.13055908740E+03  0.25500000920E-02 0.  1.
    10030    2    1    2    0    0  0.00000000000E+00  0.00000000000E+00  0.55966619984E+03  0.82078437462E+03  0.60038382254E+03 0.  0.
        4    1    3    3  502    0 -0.10870331917E+03  0.20851970859E+03  0.53492333867E+03  0.58432993387E+03  0.12699999809E+01 0. -1.
       -4    1    3    3    0  502  0.10870331917E+03 -0.20851970859E+03  0.24742861176E+02  0.23645444075E+03  0.12699999809E+01 0.  1.
</event>
<event>
 5   0  0.1479385E-03  0.6000259E+03  0.7818609E-02  0.9905352E-01
        1   -1    0    0  501    0  0.00000000000E+00  0.00000000000E+00  0.10704023143E+04  0.10704023143E+04  0.50400001928E-02 0.  1.
       -1   -1    0    0    0  501  0.00000000000E+00  0.00000000000E+00 -0.84087800582E+02  0.84087800733E+02  0.50400001928E-02 0. -1.
    10030    2    1    2    0    0  0.00000000000E+00  0.00000000000E+00  0.98631451372E+03  0.11544901150E+04  0.60002592091E+03 0.  0.
        3    1    3    3  502    0 -0.95064864153E+02  0.16084640541E+03  0.94479638404E+03  0.96309351157E+03  0.10100000352E+00 0.  1.
       -3    1    3    3    0  502  0.95064864153E+02 -0.16084640541E+03  0.41518129676E+02  0.19139660347E+03  0.10100000352E+00 0. -1.
</event>
<event>
 5   0  0.1392854E-03  0.6001708E+03  0.7818609E-02  0.9905052E-01
       -1   -1    0    0    0  501  0.00000000000E+00  0.00000000000E+00  0.12058802242E+03  0.12058802253E+03  0.50400001928E-02 0.  1.
        1   -1    0    0  501    0  0.00000000000E+00  0.00000000000E+00 -0.74676782558E+03  0.74676782560E+03  0.50400001928E-02 0. -1.
    10030    2    1    2    0    0  0.00000000000E+00  0.00000000000E+00 -0.62617980316E+03  0.86735584813E+03  0.60017082684E+03 0.  0.
        4    1    3    3  502    0  0.28458434475E+03  0.22641630606E+02 -0.17946920503E+03  0.33721165633E+03  0.12699999809E+01 0.  1.
       -4    1    3    3    0  502 -0.28458434475E+03 -0.22641630606E+02 -0.44671059813E+03  0.53014419180E+03  0.12699999809E+01 0. -1.
</event>
<event>
 5   0  0.2421210E-03  0.5999383E+03  0.7818609E-02  0.9905534E-01
        2   -1    0    0  501    0  0.00000000000E+00  0.00000000000E+00  0.59835718020E+03  0.59835718020E+03  0.25500000920E-02 0.  1.
       -2   -1    0    0    0  501  0.00000000000E+00  0.00000000000E+00 -0.15038089317E+03  0.15038089319E+03  0.25500000920E-02 0. -1.
    10030    2    1    2    0    0  0.00000000000E+00  0.00000000000E+00  0.44797628703E+03  0.74873807340E+03  0.59993828751E+03 0.  0.
        1    1    3    3  502    0  0.12904695817E+03 -0.76440067774E+02 -0.10022295990E+03  0.18039080656E+03  0.50400001928E-02 0. -1.
       -1    1    3    3    0  502 -0.12904695817E+03  0.76440067774E+02  0.54819924692E+03  0.56834726684E+03  0.50400001928E-02 0.  1.
</event>
<event>
 5   0  0.1392854E-03  0.5976526E+03  0.7818609E-02  0.9910288E-01
        1   -1    0    0  501    0  0.00000000000E+00  0.00000000000E+00  0.59154065598E+03  0.59154065600E+03  0.50400001928E-02 0.  1.
       -1   -1    0    0    0  501  0.00000000000E+00  0.00000000000E+00 -0.15095693992E+03  0.15095694001E+03  0.50400001928E-02 0. -1.
    10030    2    1    2    0    0  0.00000000000E+00  0.00000000000E+00  0.44058371605E+03  0.74249759600E+03  0.59765263257E+03 0.  0.
        4    1    3    3  502    0  0.21180326198E+02 -0.18867717894E+03 -0.66388102756E+02  0.20113845270E+03  0.12699999809E+01 0. -1.
       -4    1    3    3    0  502 -0.21180326198E+02  0.18867717894E+03  0.50697181881E+03  0.54135914330E+03  0.12699999809E+01 0.  1.
</event>
<event>
 5   0  0.2324616E-03  0.5992059E+03  0.7818609E-02  0.9907055E-01
        2   -1    0    0  501    0  0.00000000000E+00  0.00000000000E+00  0.20128923147E+04  0.20128923147E+04  0.25500000920E-02 0. -1.
       -2   -1    0    0    0  501  0.00000000000E+00  0.00000000000E+00 -0.44593502242E+02  0.44593502315E+02  0.25500000920E-02 0.  1.
    10030    2    1    2    0    0  0.00000000000E+00  0.00000000000E+00  0.19682988124E+04  0.20574858170E+04  0.59920586788E+03 0.  0.
        4    1    3    3  502    0  0.26250984020E+03 -0.12357198974E+03  0.72768138364E+03  0.78339215074E+03  0.12699999809E+01 0. -1.
       -4    1    3    3    0  502 -0.26250984020E+03  0.12357198974E+03  0.12406174288E+04  0.12740936663E+04  0.12699999809E+01 0.  1.
</event>
<event>
 5   0  0.2406307E-03  0.6006154E+03  0.7818609E-02  0.9904130E-01
       -2   -1    0    0    0  501  0.00000000000E+00  0.00000000000E+00  0.25964266031E+03  0.25964266032E+03  0.25500000920E-02 0.  1.
        2   -1    0    0  501    0  0.00000000000E+00  0.00000000000E+00 -0.34734164616E+03  0.34734164617E+03  0.25500000920E-02 0. -1.
    10030    2    1    2    0    0  0.00000000000E+00  0.00000000000E+00 -0.87698985849E+02  0.60698430650E+03  0.60061538127E+03 0.  0.
        5    1    3    3  502    0 -0.32419705037E+02  0.11667279077E+03 -0.32153405274E+03  0.34361288458E+03  0.46999998093E+01 0. -1.
       -5    1    3    3    0  502  0.32419705037E+02 -0.11667279077E+03  0.23383506689E+03  0.26337142192E+03  0.46999998093E+01 0.  1.
</event>
<event>
 5   0  0.2406307E-03  0.5999526E+03  0.7818609E-02  0.9905504E-01
        2   -1    0    0  501    0  0.00000000000E+00  0.00000000000E+00  0.10473745104E+04  0.10473745104E+04  0.25500000920E-02 0.  1.
       -2   -1    0    0    0  501  0.00000000000E+00  0.00000000000E+00 -0.85915583692E+02  0.85915583729E+02  0.25500000920E-02 0. -1.
    10030    2    1    2    0    0  0.00000000000E+00  0.00000000000E+00  0.96145892672E+03  0.11332900941E+04  0.59995263956E+03 0.  0.
        5    1    3    3  502    0 -0.19946485793E+02 -0.15593793791E+03  0.96324546324E+03  0.97600123731E+03  0.46999998093E+01 0.  1.
       -5    1    3    3    0  502  0.19946485793E+02  0.15593793791E+03 -0.17865365218E+01  0.15728885684E+03  0.46999998093E+01 0. -1.
</event>
<event>
 5   0  0.1416315E-03  0.6000138E+03  0.7818609E-02  0.9905377E-01
        1   -1    0    0  501    0  0.00000000000E+00  0.00000000000E+00  0.48132142180E+03  0.48132142183E+03  0.50400001928E-02 0. -1.
       -1   -1    0    0    0  501  0.00000000000E+00  0.00000000000E+00 -0.18699383568E+03  0.18699383574E+03  0.50400001928E-02 0.  1.
    10030    2    1    2    0    0  0.00000000000E+00  0.00000000000E+00  0.29432758613E+03  0.66831525757E+03  0.60001379613E+03 0.  0.
        2    1    3    3  502    0  0.21176845179E+03  0.21104627522E+03  0.11948035750E+03  0.32196577970E+03  0.25500000920E-02 0.  1.
       -2    1    3    3    0  502 -0.21176845179E+03 -0.21104627522E+03  0.17484722862E+03  0.34634947787E+03  0.25500000920E-02 0. -1.
</event>
<event>
 5   0  0.1416315E-03  0.6000559E+03  0.7818609E-02  0.9905290E-01
        1   -1    0    0  501    0  0.00000000000E+00  0.00000000000E+00  0.61239427847E+03  0.61239427849E+03  0.50400001928E-02 0. -1.
       -1   -1    0    0    0  501  0.00000000000E+00  0.00000000000E+00 -0.14699154730E+03  0.14699154739E+03  0.50400001928E-02 0.  1.
    10030    2    1    2    0    0  0.00000000000E+00  0.00000000000E+00  0.46540273116E+03  0.75938582588E+03  0.60005593936E+03 0.  0.
        2    1    3    3  502    0  0.19735567862E+03 -0.16918272153E+03  0.42229680935E+03  0.49588975825E+03  0.25500000920E-02 0. -1.
       -2    1    3    3    0  502 -0.19735567862E+03  0.16918272153E+03  0.43105921817E+02  0.26349606762E+03  0.25500000920E-02 0.  1.
</event>
<event>
 5   0  0.9496750E-04  0.5999749E+03  0.7818609E-02  0.9905458E-01
        3   -1    0    0  501    0  0.00000000000E+00  0.00000000000E+00  0.20607821953E+03  0.20607824428E+03  0.10100000352E+00 0.  1.
       -3   -1    0    0    0  501  0.00000000000E+00  0.00000000000E+00 -0.43669082381E+03  0.43669083549E+03  0.10100000352E+00 0. -1.
    10030    2    1    2    0    0  0.00000000000E+00  0.00000000000E+00 -0.23061260428E+03  0.64276907977E+03  0.59997493003E+03 0.  0.
        2    1    3    3  502    0 -0.20649139862E+03  0.51468276993E+01  0.11775904131E+03  0.23776538721E+03  0.25500000920E-02 0.  1.
       -2    1    3    3    0  502  0.20649139862E+03 -0.51468276993E+01 -0.34837164559E+03  0.40500369257E+03  0.25500000920E-02 0. -1.
</event>
<event>
 5   0  0.1423430E-03  0.5998815E+03  0.7818609E-02  0.9905652E-01
       -1   -1    0    0    0  501  0.00000000000E+00  0.00000000000E+00  0.48219636156E+03  0.48219636158E+03  0.50400001928E-02 0.  1.
        1   -1    0    0  501    0  0.00000000000E+00  0.00000000000E+00 -0.18657223655E+03  0.18657223662E+03  0.50400001928E-02 0. -1.
    10030    2    1    2    0    0  0.00000000000E+00  0.00000000000E+00  0.29562412501E+03  0.66876859820E+03  0.59988150051E+03 0.  0.
        1    1    3    3  502    0 -0.29511590187E+03  0.41156517447E+02  0.18606240943E+03  0.35129257705E+03  0.50400001928E-02 0.  1.
       -1    1    3    3    0  502  0.29511590187E+03 -0.41156517447E+02  0.10956171558E+03  0.31747602115E+03  0.50400001928E-02 0. -1.
</event>
<event>
 5   0  0.2406307E-03  0.6001423E+03  0.7818609E-02  0.9905111E-01
        2   -1    0    0  501    0  0.00000000000E+00  0.00000000000E+00  0.10068261003E+04  0.10068261003E+04  0.25500000920E-02 0. -1.
       -2   -1    0    0    0  501  0.00000000000E+00  0.00000000000E+00 -0.89432223397E+02  0.89432223433E+02  0.25500000920E-02 0.  1.
    10030    2    1    2    0    0  0.00000000000E+00  0.00000000000E+00  0.91739387688E+03  0.10962583237E+04  0.60014230560E+03 0.  0.
        5    1    3    3  502    0 -0.10288543488E+02 -0.25735811124E+03  0.73979883215E+03  0.78336674271E+03  0.46999998093E+01 0. -1.
       -5    1    3    3    0  502  0.10288543488E+02  0.25735811124E+03  0.17759504474E+03  0.31289158100E+03  0.46999998093E+01 0.  1.
</event>
<event>
 5   0  0.2324616E-03  0.6002629E+03  0.7818609E-02  0.9904861E-01
       -2   -1    0    0    0  501  0.00000000000E+00  0.00000000000E+00  0.41361561916E+03  0.41361561917E+03  0.25500000920E-02 0.  1.
        2   -1    0    0  501    0  0.00000000000E+00  0.00000000000E+00 -0.21778402952E+03  0.21778402954E+03  0.25500000920E-02 0. -1.
    10030    2    1    2    0    0  0.00000000000E+00  0.00000000000E+00  0.19583158964E+03  0.63139964870E+03  0.60026286315E+03 0.  0.
        4    1    3    3  502    0  0.53604458259E+02  0.22050396967E+03 -0.10869558707E+03  0.25161832631E+03  0.12699999809E+01 0. -1.
       -4    1    3    3    0  502 -0.53604458259E+02 -0.22050396967E+03  0.30452717671E+03  0.37978132240E+03  0.12699999809E+01 0.  1.
</event>
<event>
 5   0  0.2421210E-03  0.5998733E+03  0.7818609E-02  0.9905669E-01
       -2   -1    0    0    0  501  0.00000000000E+00  0.00000000000E+00  0.13663162027E+03  0.13663162029E+03  0.25500000920E-02 0.  1.
        2   -1    0    0  501    0  0.00000000000E+00  0.00000000000E+00 -0.65842724376E+03  0.65842724376E+03  0.25500000920E-02 0. -1.
    10030    2    1    2    0    0  0.00000000000E+00  0.00000000000E+00 -0.52179562349E+03  0.79505886405E+03  0.59987325712E+03 0.  0.
        1    1    3    3  502    0  0.50836783284E+02 -0.64359426620E+02 -0.64327677596E+03  0.64848402050E+03  0.50400001928E-02 0. -1.
       -1    1    3    3    0  502 -0.50836783284E+02  0.64359426620E+02  0.12148115247E+03  0.14657484355E+03  0.50400001928E-02 0.  1.
</event>
<event>
 5   0  0.2421210E-03  0.5999469E+03  0.7818609E-02  0.9905516E-01
        2   -1    0    0  501    0  0.00000000000E+00  0.00000000000E+00  0.23355061318E+04  0.23355061318E+04  0.25500000920E-02 0. -1.
       -2   -1    0    0    0  501  0.00000000000E+00  0.00000000000E+00 -0.38528726428E+02  0.38528726512E+02  0.25500000920E-02 0.  1.
    10030    2    1    2    0    0  0.00000000000E+00  0.00000000000E+00  0.22969774054E+04  0.23740348583E+04  0.59994692073E+03 0.  0.
        1    1    3    3  502    0 -0.12013769319E+03  0.11723966611E+03  0.16472876427E+03  0.23518879743E+03  0.50400001928E-02 0.  1.
       -1    1    3    3    0  502  0.12013769319E+03 -0.11723966611E+03  0.21322486411E+04  0.21388460609E+04  0.50400001928E-02 0. -1.
</event>
<event>
 5   0  0.1416315E-03  0.5999731E+03  0.7818609E-02  0.9905462E-01
        1   -1    0    0  501    0  0.00000000000E+00  0.00000000000E+00  0.60130078825E+03  0.60130078827E+03  0.50400001928E-02 0.  1.
       -1   -1    0    0    0  501  0.00000000000E+00  0.00000000000E+00 -0.14966210688E+03  0.14966210696E+03  0.50400001928E-02 0. -1.
    10030    2    1    2    0    0  0.00000000000E+00  0.00000000000E+00  0.45163868137E+03  0.75096289523E+03  0.59997314232E+03 0.  0.
        2    1    3    3  502    0  0.42393306629E+02  0.35068841995E+02  0.59493182743E+03  0.59747041385E+03  0.25500000920E-02 0.  1.
       -2    1    3    3    0  502 -0.42393306629E+02 -0.35068841995E+02 -0.14329314606E+03  0.15349248138E+03  0.25500000920E-02 0. -1.
</event>
<event>
 5   0  0.1418763E-03  0.5997497E+03  0.7818609E-02  0.9905925E-01
       -1   -1    0    0    0  501  0.00000000000E+00  0.00000000000E+00  0.33558613057E+03  0.33558613060E+03  0.50400001928E-02 0.  1.
        1   -1    0    0  501    0  0.00000000000E+00  0.00000000000E+00 -0.26796377479E+03  0.26796377484E+03  0.50400001928E-02 0. -1.
    10030    2    1    2    0    0  0.00000000000E+00  0.00000000000E+00  0.67622355771E+02  0.60354990544E+03  0.59974970226E+03 0.  0.
        5    1    3    3  502    0  0.14685389196E+01 -0.15005501871E+03 -0.22741824465E+03  0.27250653798E+03  0.46999998093E+01 0. -1.
       -5    1    3    3    0  502 -0.14685389196E+01  0.15005501871E+03  0.29504060042E+03  0.33104336746E+03  0.46999998093E+01 0.  1.
</event>
<event>
 5   0  0.2406307E-03  0.5999873E+03  0.7818609E-02  0.9905432E-01
       -2   -1    0    0    0  501  0.00000000000E+00  0.00000000000E+00  0.80679495030E+03  0.80679495030E+03  0.25500000920E-02 0.  1.
        2   -1    0    0  501    0  0.00000000000E+00  0.00000000000E+00 -0.11154779655E+03  0.11154779658E+03  0.25500000920E-02 0. -1.
    10030    2    1    2    0    0  0.00000000000E+00  0.00000000000E+00  0.69524715375E+03  0.91834274688E+03  0.59998732983E+03 0.  0.
        5    1    3    3  502    0  0.22660433284E+03 -0.37695461598E+02  0.64285013477E+03  0.68267771112E+03  0.46999998093E+01 0.  1.
       -5    1    3    3    0  502 -0.22660433284E+03  0.37695461598E+02  0.52397018979E+02  0.23566503576E+03  0.46999998093E+01 0. -1.
</event>
<event>
 5   0  0.1392854E-03  0.6001598E+03  0.7818609E-02  0.9905074E-01
       -1   -1    0    0    0  501  0.00000000000E+00  0.00000000000E+00  0.14662466343E+03  0.14662466352E+03  0.50400001928E-02 0. -1.
        1   -1    0    0  501    0  0.00000000000E+00  0.00000000000E+00 -0.61413925232E+03  0.61413925234E+03  0.50400001928E-02 0.  1.
    10030    2    1    2    0    0  0.00000000000E+00  0.00000000000E+00 -0.46751458888E+03  0.76076391586E+03  0.60015984942E+03 0.  0.
        4    1    3    3  502    0  0.25867968228E+03  0.83226934887E+02 -0.72395734873E+02  0.28121994247E+03  0.12699999809E+01 0.  1.
       -4    1    3    3    0  502 -0.25867968228E+03 -0.83226934887E+02 -0.39511885401E+03  0.47954397339E+03  0.12699999809E+01 0. -1.
</event>
<event>
 5   0  0.2313168E-03  0.5999632E+03  0.7818609E-02  0.9905482E-01
        2   -1    0    0  501    0  0.00000000000E+00  0.00000000000E+00  0.54519749414E+03  0.54519749414E+03  0.25500000920E-02 0.  1.
       -2   -1    0    0    0  501  0.00000000000E+00  0.00000000000E+00 -0.16505752644E+03  0.16505752646E+03  0.25500000920E-02 0. -1.
    10030    2    1    2    0    0  0.00000000000E+00  0.00000000000E+00  0.38013996769E+03  0.71025502061E+03  0.59996316492E+03 0.  0.
        2    1    3    3  502    0 -0.29545577628E+03 -0.44303247333E+01  0.25130056246E+03  0.38789910571E+03  0.25500000920E-02 0. -1.
       -2    1    3    3    0  502  0.29545577628E+03  0.44303247333E+01  0.12883940524E+03  0.32235591489E+03  0.25500000920E-02 0.  1.
</event>
<event>
 5   0  0.1423430E-03  0.6001720E+03  0.7818609E-02  0.9905049E-01
       -1   -1    0    0    0  501  0.00000000000E+00  0.00000000000E+00  0.11417222107E+03  0.11417222118E+03  0.50400001928E-02 0. -1.
        1   -1    0    0  501    0  0.00000000000E+00  0.00000000000E+00 -0.78873480740E+03  0.78873480742E+03  0.50400001928E-02 0.  1.
    10030    2    1    2    0    0  0.00000000000E+00  0.00000000000E+00 -0.67456258634E+03  0.90290702860E+03  0.60017199152E+03 0.  0.
        1    1    3    3  502    0  0.16267508054E+03 -0.11820276546E+03 -0.67238597867E+03  0.70181050144E+03  0.50400001928E-02 0.  1.
       -1    1    3    3    0  502 -0.16267508054E+03  0.11820276546E+03 -0.21766076635E+01  0.20109652716E+03  0.50400001928E-02 0. -1.
</event>
<event>
 5   0  0.2346281E-03  0.5984281E+03  0.7818609E-02  0.9908673E-01
        2   -1    0    0  501    0  0.00000000000E+00  0.00000000000E+00  0.59504370252E+03  0.59504370252E+03  0.25500000920E-02 0. -1.
       -2   -1    0    0    0  501  0.00000000000E+00  0.00000000000E+00 -0.15045792582E+03  0.15045792584E+03  0.25500000920E-02 0.  1.
    10030    2    1    2    0    0  0.00000000000E+00  0.00000000000E+00  0.44458577670E+03  0.74550162837E+03  0.59842807843E+03 0.  0.
        3    1    3    3  502    0 -0.18610786817E+02 -0.25559661374E+03  0.29891363949E+02  0.25801064742E+03  0.10100000352E+00 0.  1.
       -3    1    3    3    0  502  0.18610786817E+02  0.25559661374E+03  0.41469441275E+03  0.48749098095E+03  0.10100000352E+00 0. -1.
</event>
<event>
 5   0  0.2406307E-03  0.6000499E+03  0.7818609E-02  0.9905302E-01
        2   -1    0    0  501    0  0.00000000000E+00  0.00000000000E+00  0.27787214334E+03  0.27787214335E+03  0.25500000920E-02 0. -1.
       -2   -1    0    0    0  501  0.00000000000E+00  0.00000000000E+00 -0.32394387770E+03  0.32394387771E+03  0.25500000920E-02 0.  1.
    10030    2    1    2    0    0  0.00000000000E+00  0.00000000000E+00 -0.46071734361E+02  0.60181602106E+03  0.60004993000E+03 0.  0.
        5    1    3    3  502    0 -0.25816604172E+03 -0.95606798644E+00  0.13019558025E+03  0.28917745120E+03  0.46999998093E+01 0. -1.
       -5    1    3    3    0  502  0.25816604172E+03  0.95606798644E+00 -0.17626731461E+03  0.31263856986E+03  0.46999998093E+01 0.  1.
</event>
<event>
 5   0  0.1423430E-03  0.6004421E+03  0.7818609E-02  0.9904489E-01
       -1   -1    0    0    0  501  0.00000000000E+00  0.00000000000E+00  0.60921388986E+02  0.60921389194E+02  0.50400001928E-02 0. -1.
        1   -1    0    0  501    0  0.00000000000E+00  0.00000000000E+00 -0.14794917628E+04  0.14794917628E+04  0.50400001928E-02 0.  1.
    10030    2    1    2    0    0  0.00000000000E+00  0.00000000000E+00 -0.14185703738E+04  0.15404131520E+04  0.60044214824E+03 0.  0.
        1    1    3    3  502    0  0.12454446442E+03 -0.68934501431E+02 -0.13874098938E+04  0.13946933364E+04  0.50400001928E-02 0.  1.
       -1    1    3    3    0  502 -0.12454446442E+03  0.68934501431E+02 -0.31160479923E+02  0.14571981553E+03  0.50400001928E-02 0. -1.
</event>
<event>
 5   0  0.1392854E-03  0.6000823E+03  0.7818609E-02  0.9905235E-01
        1   -1    0    0  501    0  0.00000000000E+00  0.00000000000E+00  0.24930190641E+03  0.24930190646E+03  0.50400001928E-02 0. -1.
       -1   -1    0    0    0  501  0.00000000000E+00  0.00000000000E+00 -0.36110716012E+03  0.36110716016E+03  0.50400001928E-02 0.  1.
    10030    2    1    2    0    0  0.00000000000E+00  0.00000000000E+00 -0.11180525371E+03  0.61040906661E+03  0.60008233922E+03 0.  0.
        4    1    3    3  502    0  0.20602353957E+03 -0.13315595905E+03  0.11983291978E+03  0.27301602489E+03  0.12699999809E+01 0. -1.
       -4    1    3    3    0  502 -0.20602353957E+03  0.13315595905E+03 -0.23163817349E+03  0.33739304172E+03  0.12699999809E+01 0.  1.
</event>
<event>
 5   0  0.1418763E-03  0.5997102E+03  0.7818609E-02  0.9906007E-01
       -1   -1    0    0    0  501  0.00000000000E+00  0.00000000000E+00  0.10310117991E+03  0.10310118004E+03  0.50400001928E-02 0.  1.
        1   -1    0    0  501    0  0.00000000000E+00  0.00000000000E+00 -0.87208600221E+03  0.87208600223E+03  0.50400001928E-02 0. -1.
    10030    2    1    2    0    0  0.00000000000E+00  0.00000000000E+00 -0.76898482230E+03  0.97518718226E+03  0.59971024964E+03 0.  0.
        5    1    3    3  502    0  0.11453972083E+03 -0.24213459369E+03 -0.60351809257E+03  0.66030651002E+03  0.46999998093E+01 0. -1.
       -5    1    3    3    0  502 -0.11453972083E+03  0.24213459369E+03 -0.16546672972E+03  0.31488067224E+03  0.46999998093E+01 0.  1.
</event>
<event>
 5   0  0.1418763E-03  0.5999115E+03  0.7818609E-02  0.9905590E-01
        1   -1    0    0  501    0  0.00000000000E+00  0.00000000000E+00  0.40238362031E+03  0.40238362034E+03  0.50400001928E-02 0. -1.
       -1   -1    0    0    0  501  0.00000000000E+00  0.00000000000E+00 -0.22360117203E+03  0.22360117209E+03  0.50400001928E-02 0.  1.
    10030    2    1    2    0    0  0.00000000000E+00  0.00000000000E+00  0.17878244828E+03  0.62598479243E+03  0.59991149059E+03 0.  0.
        5    1    3    3  502    0  0.93666625759E+02  0.17498255806E+03  0.32401712590E+03  0.38000200037E+03  0.46999998093E+01 0. -1.
       -5    1    3    3    0  502 -0.93666625759E+02 -0.17498255806E+03 -0.14523467762E+03  0.24598279206E+03  0.46999998093E+01 0.  1.
</event>
<event>
 5   0  0.2406307E-03  0.6000455E+03  0.7818609E-02  0.9905312E-01
        2   -1    0    0  501    0  0.00000000000E+00  0.00000000000E+00  0.92460644891E+03  0.92460644891E+03  0.25500000920E-02 0.  1.
       -2   -1    0    0    0  501  0.00000000000E+00  0.00000000000E+00 -0.97353463176E+02  0.97353463209E+02  0.25500000920E-02 0. -1.
    10030    2    1    2    0    0  0.00000000000E+00  0.00000000000E+00  0.82725298573E+03  0.10219599121E+04  0.60004546459E+03 0.  0.
        5    1    3    3  502    0  0.17101671049E+03  0.67390806897E+02  0.81739334692E+03  0.83781991485E+03  0.46999998093E+01 0.  1.
       -5    1    3    3    0  502 -0.17101671049E+03 -0.67390806897E+02  0.98596388109E+01  0.18413999728E+03  0.46999998093E+01 0. -1.
</event>
<event>
 5   0  0.2406307E-03  0.6000399E+03  0.7818609E-02  0.9905323E-01
        2   -1    0    0  501    0  0.00000000000E+00  0.00000000000E+00  0.40342367415E+03  0.40342367416E+03  0.25500000920E-02 0.  1.
       -2   -1    0    0    0  501  0.00000000000E+00  0.00000000000E+00 -0.22312022716E+03  0.22312022718E+03  0.25500000920E-02 0. -1.
    10030    2    1    2    0    0  0.00000000000E+00  0.00000000000E+00  0.18030344698E+03  0.62654390133E+03  0.60003993809E+03 0.  0.
        5    1    3    3  502    0 -0.15701278243E+02 -0.25578863662E+03  0.25297379087E+03  0.36012801284E+03  0.46999998093E+01 0.  1.
       -5    1    3    3    0  502  0.15701278243E+02  0.25578863662E+03 -0.72670343892E+02  0.26641588850E+03  0.46999998093E+01 0. -1.
</event>
<event>
 5   0  0.2346281E-03  0.6001944E+03  0.7818609E-02  0.9905003E-01
       -2   -1    0    0    0  501  0.00000000000E+00  0.00000000000E+00  0.32524506468E+03  0.32524506469E+03  0.25500000920E-02 0.  1.
        2   -1    0    0  501    0  0.00000000000E+00  0.00000000000E+00 -0.27689377857E+03  0.27689377858E+03  0.25500000920E-02 0. -1.
    10030    2    1    2    0    0  0.00000000000E+00  0.00000000000E+00  0.48351286115E+02  0.60213884327E+03  0.60019441826E+03 0.  0.
        3    1    3    3  502    0 -0.15209767799E+03  0.20980614781E+03  0.17601324406E+03  0.31326186424E+03  0.10100000352E+00 0.  1.
       -3    1    3    3    0  502  0.15209767799E+03 -0.20980614781E+03 -0.12766195794E+03  0.28887697903E+03  0.10100000352E+00 0. -1.
</event>
<event>
 5   0  0.2406307E-03  0.5998470E+03  0.7818609E-02  0.9905723E-01
        2   -1    0    0  501    0  0.00000000000E+00  0.00000000000E+00  0.40039562600E+03  0.40039562601E+03  0.25500000920E-02 0. -1.
       -2   -1    0    0    0  501  0.00000000000E+00  0.00000000000E+00 -0.22466309114E+03  0.22466309115E+03  0.25500000920E-02 0.  1.
    10030    2    1    2    0    0  0.00000000000E+00  0.00000000000E+00  0.17573253486E+03  0.62505871716E+03  0.59984704391E+03 0.  0.
        5    1    3    3  502    0  0.29769740294E+03 -0.24493484884E+02  0.11559982761E+03  0.32032652819E+03  0.46999998093E+01 0. -1.
       -5    1    3    3    0  502 -0.29769740294E+03  0.24493484884E+02  0.60132707256E+02  0.30473218898E+03  0.46999998093E+01 0.  1.
</event>
<event>
 5   0  0.1416315E-03  0.5999783E+03  0.7818609E-02  0.9905451E-01
        1   -1    0    0  501    0  0.00000000000E+00  0.00000000000E+00  0.12240602741E+04  0.12240602741E+04  0.50400001928E-02 0. -1.
       -1   -1    0    0    0  501  0.00000000000E+00  0.00000000000E+00 -0.73520474636E+02  0.73520474809E+02  0.50400001928E-02 0.  1.
    10030    2    1    2    0    0  0.00000000000E+00  0.00000000000E+00  0.11505397995E+04  0.12975807489E+04  0.59997830779E+03 0.  0.
        2    1    3    3  502    0  0.41625459449E+02 -0.13194190324E+03 -0.40242938740E+00  0.13835283394E+03  0.25500000920E-02 0.  1.
       -2    1    3    3    0  502 -0.41625459449E+02  0.13194190324E+03  0.11509422289E+04  0.11592279150E+04  0.25500000920E-02 0. -1.
</event>
<event>
 5   0  0.2346281E-03  0.5993087E+03  0.7818609E-02  0.9906841E-01
       -2   -1    0    0    0  501  0.00000000000E+00  0.00000000000E+00  0.57766857045E+03  0.57766857046E+03  0.25500000920E-02 0. -1.
        2   -1    0    0  501    0  0.00000000000E+00  0.00000000000E+00 -0.15543989623E+03  0.15543989625E+03  0.25500000920E-02 0.  1.
    10030    2    1    2    0    0  0.00000000000E+00  0.00000000000E+00  0.42222867422E+03  0.73310846670E+03  0.59930874399E+03 0.  0.
        3    1    3    3  502    0  0.20556789071E+03 -0.17269138696E+03  0.48314260131E+02  0.27279067204E+03  0.10100000352E+00 0.  1.
       -3    1    3    3    0  502 -0.20556789071E+03  0.17269138696E+03  0.37391441409E+03  0.46031779466E+03  0.10100000352E+00 0. -1.
</event>
<event>
 5   0  0.2313168E-03  0.5995154E+03  0.7818609E-02  0.9906412E-01
       -2   -1    0    0    0  501  0.00000000000E+00  0.00000000000E+00  0.10296341541E+03  0.10296341545E+03  0.25500000920E-02 0.  1.
        2   -1    0    0  501    0  0.00000000000E+00  0.00000000000E+00 -0.87268563394E+03  0.87268563394E+03  0.25500000920E-02 0. -1.
    10030    2    1    2    0    0  0.00000000000E+00  0.00000000000E+00 -0.76972221852E+03  0.97564904939E+03  0.59951544924E+03 0.  0.
        2    1    3    3  502    0 -0.11263683858E+03  0.44011971911E+02 -0.83122644307E+03  0.83997708942E+03  0.25500000920E-02 0. -1.
       -2    1    3    3    0  502  0.11263683858E+03 -0.44011971911E+02  0.61504224550E+02  0.13567195997E+03  0.25500000920E-02 0.  1.
</event>
<event>
 5   0  0.2346281E-03  0.5999204E+03  0.7818609E-02  0.9905571E-01
       -2   -1    0    0    0  501  0.00000000000E+00  0.00000000000E+00  0.78796176533E+02  0.78796176574E+02  0.25500000920E-02 0. -1.
        2   -1    0    0  501    0  0.00000000000E+00  0.00000000000E+00 -0.11418842291E+04  0.11418842291E+04  0.25500000920E-02 0.  1.
    10030    2    1    2    0    0  0.00000000000E+00  0.00000000000E+00 -0.10630880525E+04  0.12206804057E+04  0.59992036578E+03 0.  0.
        3    1    3    3  502    0 -0.11255226109E+03 -0.25635940893E+03 -0.75057803162E+03  0.80109646721E+03  0.10100000352E+00 0.  1.
       -3    1    3    3    0  502  0.11255226109E+03  0.25635940893E+03 -0.31251002092E+03  0.41958393844E+03  0.10100000352E+00 0. -1.
</event>
<event>
 5   0  0.9496750E-04  0.6000875E+03  0.7818609E-02  0.9905224E-01
        4   -1    0    0  501    0  0.00000000000E+00  0.00000000000E+00  0.19301426039E+03  0.19301843854E+03  0.12699999809E+01 0. -1.
       -4   -1    0    0    0  501  0.00000000000E+00  0.00000000000E+00 -0.46641277978E+03  0.46641450883E+03  0.12699999809E+01 0.  1.
    10030    2    1    2    0    0  0.00000000000E+00  0.00000000000E+00 -0.27339851939E+03  0.65943294736E+03  0.60008754500E+03 0.  0.
        3    1    3    3  502    0 -0.11876663243E+03  0.76591528131E+02 -0.42755255336E+03  0.45030319924E+03  0.10100000352E+00 0.  1.
       -3    1    3    3    0  502  0.11876663243E+03 -0.76591528131E+02  0.15415403397E+03  0.20912974812E+03  0.10100000352E+00 0. -1.
</event>
<event>
 5   0  0.2313168E-03  0.6006387E+03  0.7818609E-02  0.9904082E-01
       -2   -1    0    0    0  501  0.00000000000E+00  0.00000000000E+00  0.13889596727E+03  0.13889596730E+03  0.25500000920E-02 0. -1.
        2   -1    0    0  501    0  0.00000000000E+00  0.00000000000E+00 -0.64934718429E+03  0.64934718430E+03  0.25500000920E-02 0.  1.
    10030    2    1    2    0    0  0.00000000000E+00  0.00000000000E+00 -0.51045121702E+03  0.78824315159E+03  0.60063867764E+03 0.  0.
        2    1    3    3  502    0  0.16193174582E+02  0.13719694202E+03  0.94720781829E+02  0.16750297406E+03  0.25500000920E-02 0. -1.
       -2    1    3    3    0  502 -0.16193174582E+02 -0.13719694202E+03 -0.60517199885E+03  0.62074017753E+03  0.25500000920E-02 0.  1.
</event>
<event>
 5   0  0.1416315E-03  0.6002633E+03  0.7818609E-02  0.9904860E-01
        1   -1    0    0  501    0  0.00000000000E+00  0.00000000000E+00  0.37352426034E+03  0.37352426037E+03  0.50400001928E-02 0. -1.
       -1   -1    0    0    0  501  0.00000000000E+00  0.00000000000E+00 -0.24115972940E+03  0.24115972946E+03  0.50400001928E-02 0.  1.
    10030    2    1    2    0    0  0.00000000000E+00  0.00000000000E+00  0.13236453093E+03  0.61468398983E+03  0.60026330747E+03 0.  0.
        2    1    3    3  502    0  0.16933434285E+03  0.21594581372E+03  0.19064349787E+03  0.33414316904E+03  0.25500000920E-02 0. -1.
       -2    1    3    3    0  502 -0.16933434285E+03 -0.21594581372E+03 -0.58278966938E+02  0.28054082078E+03  0.25500000920E-02 0.  1.
</event>
<event>
 5   0  0.1416315E-03  0.6000327E+03  0.7818609E-02  0.9905338E-01
       -1   -1    0    0    0  501  0.00000000000E+00  0.00000000000E+00  0.60370150886E+02  0.60370151096E+02  0.50400001928E-02 0. -1.
        1   -1    0    0  501    0  0.00000000000E+00  0.00000000000E+00 -0.14909653522E+04  0.14909653522E+04  0.50400001928E-02 0.  1.
    10030    2    1    2    0    0  0.00000000000E+00  0.00000000000E+00 -0.14305952013E+04  0.15513355033E+04  0.60003267727E+03 0.  0.
        2    1    3    3  502    0 -0.85536670595E+02 -0.28203008104E+03 -0.57013804818E+03  0.64180595402E+03  0.25500000920E-02 0.  1.
       -2    1    3    3    0  502  0.85536670595E+02  0.28203008104E+03 -0.86045715313E+03  0.90952954928E+03  0.25500000920E-02 0. -1.
</event>
<event>
 5   0  0.9496750E-04  0.6002220E+03  0.7818609E-02  0.9904945E-01
       -3   -1    0    0    0  501  0.00000000000E+00  0.00000000000E+00  0.45807933463E+03  0.45807934576E+03  0.10100000352E+00 0.  1.
        3   -1    0    0  501    0  0.00000000000E+00  0.00000000000E+00 -0.19661793965E+03  0.19661796559E+03  0.10100000352E+00 0. -1.
    10030    2    1    2    0    0  0.00000000000E+00  0.00000000000E+00  0.26146139498E+03  0.65469731135E+03  0.60022204926E+03 0.  0.
        5    1    3    3  502    0  0.29939718098E+03 -0.57928123069E+01  0.10968418893E+03  0.31894347454E+03  0.46999998093E+01 0. -1.
       -5    1    3    3    0  502 -0.29939718098E+03  0.57928123069E+01  0.15177720605E+03  0.33575383680E+03  0.46999998093E+01 0.  1.
</event>
<event>
 5   0  0.2324616E-03  0.5997815E+03  0.7818609E-02  0.9905859E-01
        2   -1    0    0  501    0  0.00000000000E+00  0.00000000000E+00  0.53877141755E+03  0.53877141756E+03  0.25500000920E-02 0. -1.
       -2   -1    0    0    0  501  0.00000000000E+00  0.00000000000E+00 -0.16692509093E+03  0.16692509095E+03  0.25500000920E-02 0.  1.
    10030    2    1    2    0    0  0.00000000000E+00  0.00000000000E+00  0.37184632662E+03  0.70569650851E+03  0.59978151981E+03 0.  0.
        4    1    3    3  502    0  0.29709478747E+03 -0.39073690728E+02  0.17196240089E+03  0.34549203503E+03  0.12699999809E+01 0. -1.
       -4    1    3    3    0  502 -0.29709478747E+03  0.39073690728E+02  0.19988392573E+03  0.36020447348E+03  0.12699999809E+01 0.  1.
</event>
<event>
 5   0  0.9496750E-04  0.5997941E+03  0.7818609E-02  0.9905833E-01
        3   -1    0    0  501    0  0.00000000000E+00  0.00000000000E+00  0.89103341711E+02  0.89103398953E+02  0.10100000352E+00 0. -1.
       -3   -1    0    0    0  501  0.00000000000E+00  0.00000000000E+00 -0.10093697108E+04  0.10093697158E+04  0.10100000352E+00 0.  1.
    10030    2    1    2    0    0  0.00000000000E+00  0.00000000000E+00 -0.92026636908E+03  0.10984731148E+04  0.59979412624E+03 0.  0.
        3    1    3    3  502    0  0.17144966096E+03  0.17029325078E+02 -0.90968264114E+03  0.92585501130E+03  0.10100000352E+00 0.  1.
       -3    1    3    3    0  502 -0.17144966096E+03 -0.17029325078E+02 -0.10583727938E+02  0.17261810350E+03  0.10100000352E+00 0. -1.
</event>
<event>
 5   0  0.1479385E-03  0.6002496E+03  0.7818609E-02  0.9904888E-01
       -1   -1    0    0    0  501  0.00000000000E+00  0.00000000000E+00  0.76138556421E+03  0.76138556422E+03  0.50400001928E-02 0.  1.
        1   -1    0    0  501    0  0.00000000000E+00  0.00000000000E+00 -0.11830390250E+03  0.11830390261E+03  0.50400001928E-02 0. -1.
    10030    2    1    2    0    0  0.00000000000E+00  0.00000000000E+00  0.64308166171E+03  0.87968946683E+03  0.60024956012E+03 0.  0.
        3    1    3    3  502    0  0.22966536833E+03  0.75054261732E+02  0.60627249457E+02  0.24910840450E+03  0.10100000352E+00 0. -1.
       -3    1    3    3    0  502 -0.22966536833E+03 -0.75054261732E+02  0.58245441225E+03  0.63058106233E+03  0.10100000352E+00 0.  1.
</event>
<event>
 5   0  0.9496750E-04  0.5998380E+03  0.7818609E-02  0.9905742E-01
       -4   -1    0    0    0  501  0.00000000000E+00  0.00000000000E+00  0.33449149092E+03  0.33449390189E+03  0.12699999809E+01 0.  1.
        4   -1    0    0  501    0  0.00000000000E+00  0.00000000000E+00 -0.26891499180E+03  0.26891799069E+03  0.12699999809E+01 0. -1.
    10030    2    1    2    0    0  0.00000000000E+00  0.00000000000E+00  0.65576499119E+02  0.60341189258E+03  0.59983800719E+03 0.  0.
        4    1    3    3  502    0  0.21765523290E+03 -0.43109808042E+02  0.23577638307E+03  0.32376592111E+03  0.12699999809E+01 0.  1.
       -4    1    3    3    0  502 -0.21765523290E+03  0.43109808042E+02 -0.17019988395E+03  0.27964597147E+03  0.12699999809E+01 0. -1.
</event>
<event>
 5   0  0.2421210E-03  0.6001594E+03  0.7818609E-02  0.9905075E-01
       -2   -1    0    0    0  501  0.00000000000E+00  0.00000000000E+00  0.25214101677E+03  0.25214101679E+03  0.25500000920E-02 0. -1.
        2   -1    0    0  501    0  0.00000000000E+00  0.00000000000E+00 -0.35713274766E+03  0.35713274767E+03  0.25500000920E-02 0.  1.
    10030    2    1    2    0    0  0.00000000000E+00  0.00000000000E+00 -0.10499173088E+03  0.60927376445E+03  0.60015935925E+03 0.  0.
        1    1    3    3  502    0 -0.25232887114E+03  0.15802459166E+03 -0.90564461873E+02  0.31119696747E+03  0.50400001928E-02 0. -1.
       -1    1    3    3    0  502  0.25232887114E+03 -0.15802459166E+03 -0.14427269011E+02  0.29807679698E+03  0.50400001928E-02 0.  1.
</event>
<event>
 5   0  0.2346281E-03  0.6012869E+03  0.7818609E-02  0.9902740E-01
       -2   -1    0    0    0  501  0.00000000000E+00  0.00000000000E+00  0.14570240675E+03  0.14570240678E+03  0.25500000920E-02 0.  1.
        2   -1    0    0  501    0  0.00000000000E+00  0.00000000000E+00 -0.62034995245E+03  0.62034995246E+03  0.25500000920E-02 0. -1.
    10030    2    1    2    0    0  0.00000000000E+00  0.00000000000E+00 -0.47464754570E+03  0.76605235923E+03  0.60128689030E+03 0.  0.
        3    1    3    3  502    0 -0.25770678916E+03  0.35934435170E+02 -0.45447531053E+02  0.26413928351E+03  0.10100000352E+00 0.  1.
       -3    1    3    3    0  502  0.25770678916E+03 -0.35934435170E+02 -0.42920001464E+03  0.50191307573E+03  0.10100000352E+00 0. -1.
</event>
<event>
 5   0  0.2313168E-03  0.5997736E+03  0.7818609E-02  0.9905876E-01
       -2   -1    0    0    0  501  0.00000000000E+00  0.00000000000E+00  0.10937988140E+03  0.10937988143E+03  0.25500000920E-02 0. -1.
        2   -1    0    0  501    0  0.00000000000E+00  0.00000000000E+00 -0.82219949141E+03  0.82219949141E+03  0.25500000920E-02 0.  1.
    10030    2    1    2    0    0  0.00000000000E+00  0.00000000000E+00 -0.71281961001E+03  0.93157937285E+03  0.59977356686E+03 0.  0.
        2    1    3    3  502    0  0.51807580555E+02 -0.10535944452E+03  0.72198132700E+02  0.13783036068E+03  0.25500000920E-02 0. -1.
       -2    1    3    3    0  502 -0.51807580555E+02  0.10535944452E+03 -0.78501774271E+03  0.79374901217E+03  0.25500000920E-02 0.  1.
</event>
<event>
 5   0  0.1423430E-03  0.6000224E+03  0.7818609E-02  0.9905360E-01
        1   -1    0    0  501    0  0.00000000000E+00  0.00000000000E+00  0.50943320916E+03  0.50943320919E+03  0.50400001928E-02 0. -1.
       -1   -1    0    0    0  501  0.00000000000E+00  0.00000000000E+00 -0.17668013016E+03  0.17668013023E+03  0.50400001928E-02 0.  1.
    10030    2    1    2    0    0  0.00000000000E+00  0.00000000000E+00  0.33275307900E+03  0.68611333942E+03  0.60002241870E+03 0.  0.
        1    1    3    3  502    0  0.71232939247E+02 -0.14481247996E+03 -0.12281740744E+03  0.20280261729E+03  0.50400001928E-02 0.  1.
       -1    1    3    3    0  502 -0.71232939247E+02  0.14481247996E+03  0.45557048644E+03  0.48331072213E+03  0.50400001928E-02 0. -1.
</event>
<event>
 5   0  0.2324616E-03  0.6000467E+03  0.7818609E-02  0.9905309E-01
       -2   -1    0    0    0  501  0.00000000000E+00  0.00000000000E+00  0.21496888256E+03  0.21496888257E+03  0.25500000920E-02 0. -1.
        2   -1    0    0  501    0  0.00000000000E+00  0.00000000000E+00 -0.41873035920E+03  0.41873035920E+03  0.25500000920E-02 0.  1.
    10030    2    1    2    0    0  0.00000000000E+00  0.00000000000E+00 -0.20376147664E+03  0.63369924178E+03  0.60004665624E+03 0.  0.
        4    1    3    3  502    0  0.27611389285E+03  0.13616785254E+02 -0.22498619641E+03  0.35643330392E+03  0.12699999809E+01 0.  1.
       -4    1    3    3    0  502 -0.27611389285E+03 -0.13616785254E+02  0.21224719771E+02  0.27726593786E+03  0.12699999809E+01 0. -1.
</event>
<event>
 5   0  0.1423430E-03  0.5994447E+03  0.7818609E-02  0.9906559E-01
       -1   -1    0    0    0  501  0.00000000000E+00  0.00000000000E+00  0.12753458891E+03  0.12753458901E+03  0.50400001928E-02 0. -1.
        1   -1    0    0  501    0  0.00000000000E+00  0.00000000000E+00 -0.70438516689E+03  0.70438516690E+03  0.50400001928E-02 0.  1.
    10030    2    1    2    0    0  0.00000000000E+00  0.00000000000E+00 -0.57685057798E+03  0.83191975591E+03  0.59944465213E+03 0.  0.
        1    1    3    3  502    0  0.12671600758E+03  0.23469002181E+03 -0.47819185691E+03  0.54754342746E+03  0.50400001928E-02 0. -1.
       -1    1    3    3    0  502 -0.12671600758E+03 -0.23469002181E+03 -0.98658721065E+02  0.28437632845E+03  0.50400001928E-02 0.  1.
</event>
<event>
 5   0  0.2346281E-03  0.6001053E+03  0.7818609E-02  0.9905188E-01
        2   -1    0    0  501    0  0.00000000000E+00  0.00000000000E+00  0.64092918708E+03  0.64092918708E+03  0.25500000920E-02 0.  1.
       -2   -1    0    0    0  501  0.00000000000E+00  0.00000000000E+00 -0.14047040526E+03  0.14047040528E+03  0.25500000920E-02 0. -1.
    10030    2    1    2    0    0  0.00000000000E+00  0.00000000000E+00  0.50045878182E+03  0.78139959237E+03  0.60010526631E+03 0.  0.
        3    1    3    3  502    0  0.10194971150E+03 -0.90179167870E+02  0.59841884036E+03  0.61370281463E+03  0.10100000352E+00 0.  1.
       -3    1    3    3    0  502 -0.10194971150E+03  0.90179167870E+02 -0.97960058537E+02  0.16769677773E+03  0.10100000352E+00 0. -1.
</event>
<event>
 5   0  0.2346281E-03  0.5999380E+03  0.7818609E-02  0.9905535E-01
        2   -1    0    0  501    0  0.00000000000E+00  0.00000000000E+00  0.16987969071E+03  0.16987969073E+03  0.25500000920E-02 0. -1.
       -2   -1    0    0    0  501  0.00000000000E+00  0.00000000000E+00 -0.52967719709E+03  0.52967719710E+03  0.25500000920E-02 0.  1.
    10030    2    1    2    0    0  0.00000000000E+00  0.00000000000E+00 -0.35979750638E+03  0.69955688783E+03  0.59993799155E+03 0.  0.
        3    1    3    3  502    0 -0.82321800779E+02  0.26565609169E+03 -0.31095012208E+03  0.41718104770E+03  0.10100000352E+00 0.  1.
       -3    1    3    3    0  502  0.82321800779E+02 -0.26565609169E+03 -0.48847384308E+02  0.28237584013E+03  0.10100000352E+00 0. -1.
</event>
<event>
 5   0  0.1392854E-03  0.5998913E+03  0.7818609E-02  0.9905632E-01
        1   -1    0    0  501    0  0.00000000000E+00  0.00000000000E+00  0.11615103668E+04  0.11615103668E+04  0.50400001928E-02 0.  1.
       -1   -1    0    0    0  501  0.00000000000E+00  0.00000000000E+00 -0.77457236856E+02  0.77457237020E+02  0.50400001928E-02 0. -1.
    10030    2    1    2    0    0  0.00000000000E+00  0.00000000000E+00  0.10840531299E+04  0.12389676038E+04  0.59989126914E+03 0.  0.
        4    1    3    3  502    0  0.94342144355E+02 -0.96506693749E+02  0.10952540845E+04  0.11035384473E+04  0.12699999809E+01 0.  1.
       -4    1    3    3    0  502 -0.94342144355E+02  0.96506693749E+02 -0.11200954616E+02  0.13542915648E+03  0.12699999809E+01 0. -1.
</event>
<event>
 5   0  0.1423430E-03  0.6002379E+03  0.7818609E-02  0.9904913E-01
        1   -1    0    0  501    0  0.00000000000E+00  0.00000000000E+00  0.18153870482E+04  0.18153870482E+04  0.50400001928E-02 0. -1.
       -1   -1    0    0    0  501  0.00000000000E+00  0.00000000000E+00 -0.49615523641E+02  0.49615523897E+02  0.50400001928E-02 0.  1.
    10030    2    1    2    0    0  0.00000000000E+00  0.00000000000E+00  0.17657715245E+04  0.18650025721E+04  0.60023788368E+03 0.  0.
        1    1    3    3  502    0 -0.15150652489E+03 -0.86720093066E+02  0.12436508891E+03  0.21433916345E+03  0.50400001928E-02 0.  1.
       -1    1    3    3    0  502  0.15150652489E+03  0.86720093066E+02  0.16414064356E+04  0.16506634086E+04  0.50400001928E-02 0. -1.
</event>
<event>
 5   0  0.2421210E-03  0.5993219E+03  0.7818609E-02  0.9906814E-01
       -2   -1    0    0    0  501  0.00000000000E+00  0.00000000000E+00  0.79429174322E+02  0.79429174363E+02  0.25500000920E-02 0. -1.
        2   -1    0    0  501    0  0.00000000000E+00  0.00000000000E+00 -0.11305252719E+04  0.11305252719E+04  0.25500000920E-02 0.  1.
    10030    2    1    2    0    0  0.00000000000E+00  0.00000000000E+00 -0.10510960975E+04  0.12099544462E+04  0.59932191323E+03 0.  0.
        1    1    3    3  502    0  0.14395384423E+02  0.27984917528E+03 -0.73990914480E+03  0.79119424327E+03  0.50400001928E-02 0.  1.
       -1    1    3    3    0  502 -0.14395384423E+02 -0.27984917528E+03 -0.31118695274E+03  0.41876020296E+03  0.50400001928E-02 0. -1.
</event>
<event>
 5   0  0.1416315E-03  0.5983703E+03  0.7818609E-02  0.9908793E-01
        1   -1    0    0  501    0  0.00000000000E+00  0.00000000000E+00  0.90880070174E+03  0.90880070176E+03  0.50400001928E-02 0.  1.
       -1   -1    0    0    0  501  0.00000000000E+00  0.00000000000E+00 -0.98494357147E+02  0.98494357276E+02  0.50400001928E-02 0. -1.
    10030    2    1    2    0    0  0.00000000000E+00  0.00000000000E+00  0.81030634460E+03  0.10072950590E+04  0.59837025650E+03 0.  0.
        2    1    3    3  502    0  0.96988857002E+02 -0.19905642699E+03  0.74385277727E+03  0.77611033608E+03  0.25500000920E-02 0.  1.
       -2    1    3    3    0  502 -0.96988857002E+02  0.19905642699E+03  0.66453567323E+02  0.23118472295E+03  0.25500000920E-02 0. -1.
</event>
<event>
 5   0  0.2406307E-03  0.6002078E+03  0.7818609E-02  0.9904975E-01
        2   -1    0    0  501    0  0.00000000000E+00  0.00000000000E+00  0.23636930688E+04  0.23636930688E+04  0.25500000920E-02 0.  1.
       -2   -1    0    0    0  501  0.00000000000E+00  0.00000000000E+00 -0.38102384347E+02  0.38102384432E+02  0.25500000920E-02 0. -1.
    10030    2    1    2    0    0  0.00000000000E+00  0.00000000000E+00  0.23255906844E+04  0.24017954532E+04  0.60020777032E+03 0.  0.
        5    1    3    3  502    0 -0.18371500657E+03 -0.13884567177E+03  0.19326334232E+04  0.19463101918E+04  0.46999998093E+01 0. -1.
       -5    1    3    3    0  502  0.18371500657E+03  0.13884567177E+03  0.39295726118E+03  0.45548526137E+03  0.46999998093E+01 0.  1.
</event>
<event>
 5   0  0.1416315E-03  0.5999943E+03  0.7818609E-02  0.9905418E-01
        1   -1    0    0  501    0  0.00000000000E+00  0.00000000000E+00  0.27435467045E+04  0.27435467045E+04  0.50400001928E-02 0. -1.
       -1   -1    0    0    0  501  0.00000000000E+00  0.00000000000E+00 -0.32803628786E+02  0.32803629173E+02  0.50400001928E-02 0.  1.
    10030    2    1    2    0    0  0.00000000000E+00  0.00000000000E+00  0.27107430757E+04  0.27763503337E+04  0.59999429396E+03 0.  0.
        2    1    3    3  502    0 -0.19125506423E+03 -0.20175684184E+03  0.83361528977E+03  0.87874841347E+03  0.25500000920E-02 0. -1.
       -2    1    3    3    0  502  0.19125506423E+03  0.20175684184E+03  0.18771277859E+04  0.18976019202E+04  0.25500000920E-02 0.  1.
</event>
<event>
 5   0  0.1418763E-03  0.5997350E+03  0.7818609E-02  0.9905956E-01
       -1   -1    0    0    0  501  0.00000000000E+00  0.00000000000E+00  0.15278840477E+03  0.15278840485E+03  0.50400001928E-02 0.  1.
        1   -1    0    0  501    0  0.00000000000E+00  0.00000000000E+00 -0.58852964964E+03  0.58852964967E+03  0.50400001928E-02 0. -1.
    10030    2    1    2    0    0  0.00000000000E+00  0.00000000000E+00 -0.43574124488E+03  0.74131805452E+03  0.59973496269E+03 0.  0.
        5    1    3    3  502    0 -0.10419118856E+03  0.19549250150E+03  0.31881893919E+02  0.22385635366E+03  0.46999998093E+01 0.  1.
       -5    1    3    3    0  502  0.10419118856E+03 -0.19549250150E+03 -0.46762313880E+03  0.51746170086E+03  0.46999998093E+01 0. -1.
</event>
<event>
 5   0  0.1423430E-03  0.6002772E+03  0.7818609E-02  0.9904831E-01
       -1   -1    0    0    0  501  0.00000000000E+00  0.00000000000E+00  0.10138158522E+03  0.10138158535E+03  0.50400001928E-02 0.  1.
        1   -1    0    0  501    0  0.00000000000E+00  0.00000000000E+00 -0.88855559581E+03  0.88855559582E+03  0.50400001928E-02 0. -1.
    10030    2    1    2    0    0  0.00000000000E+00  0.00000000000E+00 -0.78717401058E+03  0.98993718117E+03  0.60027718574E+03 0.  0.
        1    1    3    3  502    0 -0.20198402152E+03  0.33458654186E+02 -0.31655192323E+02  0.20716920069E+03  0.50400001928E-02 0.  1.
       -1    1    3    3    0  502  0.20198402152E+03 -0.33458654186E+02 -0.75551881826E+03  0.78276798048E+03  0.50400001928E-02 0. -1.
</event>
<event>
 5   0  0.2406307E-03  0.6010140E+03  0.7818609E-02  0.9903305E-01
        2   -1    0    0  501    0  0.00000000000E+00  0.00000000000E+00  0.38687315675E+03  0.38687315676E+03  0.25500000920E-02 0.  1.
       -2   -1    0    0    0  501  0.00000000000E+00  0.00000000000E+00 -0.23342135820E+03  0.23342135821E+03  0.25500000920E-02 0. -1.
    10030    2    1    2    0    0  0.00000000000E+00  0.00000000000E+00  0.15345179855E+03  0.62029451497E+03  0.60101400218E+03 0.  0.
        5    1    3    3  502    0 -0.19340358909E+03 -0.39925035653E+02 -0.15699728920E+03  0.25232755608E+03  0.46999998093E+01 0. -1.
       -5    1    3    3    0  502  0.19340358909E+03  0.39925035653E+02  0.31044908775E+03  0.36796695888E+03  0.46999998093E+01 0.  1.
</event>
<event>
 5   0  0.1416315E-03  0.5990004E+03  0.7818609E-02  0.9907482E-01
       -1   -1    0    0    0  501  0.00000000000E+00  0.00000000000E+00  0.12151788069E+03  0.12151788080E+03  0.50400001928E-02 0.  1.
        1   -1    0    0  501    0  0.00000000000E+00  0.00000000000E+00 -0.73816593604E+03  0.73816593606E+03  0.50400001928E-02 0. -1.
    10030    2    1    2    0    0  0.00000000000E+00  0.00000000000E+00 -0.61664805535E+03  0.85968381685E+03  0.59900036794E+03 0.  0.
        2    1    3    3  502    0 -0.10510135391E+02 -0.13721459461E+03 -0.69010288369E+03  0.70369048452E+03  0.25500000920E-02 0. -1.
       -2    1    3    3    0  502  0.10510135391E+02  0.13721459461E+03  0.73454828344E+02  0.15599333233E+03  0.25500000920E-02 0.  1.
</event>
<event>
 5   0  0.1479385E-03  0.5999071E+03  0.7818609E-02  0.9905599E-01
        1   -1    0    0  501    0  0.00000000000E+00  0.00000000000E+00  0.30380541542E+03  0.30380541546E+03  0.50400001928E-02 0.  1.
       -1   -1    0    0    0  501  0.00000000000E+00  0.00000000000E+00 -0.29615048637E+03  0.29615048641E+03  0.50400001928E-02 0. -1.
    10030    2    1    2    0    0  0.00000000000E+00  0.00000000000E+00  0.76549290532E+01  0.59995590187E+03  0.59990706468E+03 0.  0.
        3    1    3    3  502    0 -0.80328341691E+01 -0.19844654353E+03  0.22862688881E+03  0.30284620115E+03  0.10100000352E+00 0.  1.
       -3    1    3    3    0  502  0.80328341691E+01  0.19844654353E+03 -0.22097195976E+03  0.29710970072E+03  0.10100000352E+00 0. -1.
</event>
<event>
 5   0  0.2346281E-03  0.6000220E+03  0.7818609E-02  0.9905360E-01
        2   -1    0    0  501    0  0.00000000000E+00  0.00000000000E+00  0.52195340368E+03  0.52195340368E+03  0.25500000920E-02 0. -1.
       -2   -1    0    0    0  501  0.00000000000E+00  0.00000000000E+00 -0.17244183704E+03  0.17244183705E+03  0.25500000920E-02 0.  1.
    10030    2    1    2    0    0  0.00000000000E+00  0.00000000000E+00  0.34951156664E+03  0.69439524074E+03  0.60002201221E+03 0.  0.
        3    1    3    3  502    0  0.46001157437E+02  0.14076924619E+03 -0.12719197041E+03  0.19521755735E+03  0.10100000352E+00 0.  1.
       -3    1    3    3    0  502 -0.46001157437E+02 -0.14076924619E+03  0.47670353705E+03  0.49917768339E+03  0.10100000352E+00 0. -1.
</event>
<event>
 5   0  0.2406307E-03  0.6000559E+03  0.7818609E-02  0.9905290E-01
        2   -1    0    0  501    0  0.00000000000E+00  0.00000000000E+00  0.12977164841E+04  0.12977164841E+04  0.25500000920E-02 0. -1.
       -2   -1    0    0    0  501  0.00000000000E+00  0.00000000000E+00 -0.69365503077E+02  0.69365503124E+02  0.25500000920E-02 0.  1.
    10030    2    1    2    0    0  0.00000000000E+00  0.00000000000E+00  0.12283509810E+04  0.13670819872E+04  0.60005585340E+03 0.  0.
        5    1    3    3  502    0  0.19233979476E+03 -0.18607050526E+03  0.30532372745E+03  0.40603140041E+03  0.46999998093E+01 0.  1.
       -5    1    3    3    0  502 -0.19233979476E+03  0.18607050526E+03  0.92302725353E+03  0.96105058677E+03  0.46999998093E+01 0. -1.
</event>
<event>
 5   0  0.2421210E-03  0.6000079E+03  0.7818609E-02  0.9905390E-01
       -2   -1    0    0    0  501  0.00000000000E+00  0.00000000000E+00  0.58571986744E+02  0.58571986800E+02  0.25500000920E-02 0. -1.
        2   -1    0    0  501    0  0.00000000000E+00  0.00000000000E+00 -0.15366110067E+04  0.15366110067E+04  0.25500000920E-02 0.  1.
    10030    2    1    2    0    0  0.00000000000E+00  0.00000000000E+00 -0.14780390200E+04  0.15951829935E+04  0.60000786515E+03 0.  0.
        1    1    3    3  502    0 -0.10153254876E+03 -0.20939143497E+03 -0.23564590035E+03  0.33118366788E+03  0.50400001928E-02 0. -1.
       -1    1    3    3    0  502  0.10153254876E+03  0.20939143497E+03 -0.12423931196E+04  0.12639993256E+04  0.50400001928E-02 0.  1.
</event>
<event>
 5   0  0.1392854E-03  0.6000455E+03  0.7818609E-02  0.9905312E-01
        1   -1    0    0  501    0  0.00000000000E+00  0.00000000000E+00  0.20868122111E+03  0.20868122117E+03  0.50400001928E-02 0. -1.
       -1   -1    0    0    0  501  0.00000000000E+00  0.00000000000E+00 -0.43134527494E+03  0.43134527497E+03  0.50400001928E-02 0.  1.
    10030    2    1    2    0    0  0.00000000000E+00  0.00000000000E+00 -0.22266405383E+03  0.64002649614E+03  0.60004552736E+03 0.  0.
        4    1    3    3  502    0 -0.18579221653E+03  0.83803294951E+02 -0.34616097391E+03  0.40170981159E+03  0.12699999809E+01 0.  1.
       -4    1    3    3    0  502  0.18579221653E+03 -0.83803294951E+02  0.12349692008E+03  0.23831668456E+03  0.12699999809E+01 0. -1.
</event>
<event>
 5   0  0.1479385E-03  0.5999325E+03  0.7818609E-02  0.9905546E-01
        1   -1    0    0  501    0  0.00000000000E+00  0.00000000000E+00  0.22481441326E+03  0.22481441332E+03  0.50400001928E-02 0. -1.
       -1   -1    0    0    0  501  0.00000000000E+00  0.00000000000E+00 -0.40024011386E+03  0.40024011389E+03  0.50400001928E-02 0.  1.
    10030    2    1    2    0    0  0.00000000000E+00  0.00000000000E+00 -0.17542570060E+03  0.62505452721E+03  0.59993248416E+03 0.  0.
        3    1    3    3  502    0  0.88978483874E+02  0.19597742476E+03  0.12997519790E+03  0.25143166841E+03  0.10100000352E+00 0. -1.
       -3    1    3    3    0  502 -0.88978483874E+02 -0.19597742476E+03 -0.30540089850E+03  0.37362285880E+03  0.10100000352E+00 0.  1.
</event>
<event>
 5   0  0.1423430E-03  0.6001530E+03  0.7818609E-02  0.9905089E-01
        1   -1    0    0  501    0  0.00000000000E+00  0.00000000000E+00  0.11897235997E+03  0.11897236008E+03  0.50400001928E-02 0. -1.
       -1   -1    0    0    0  501  0.00000000000E+00  0.00000000000E+00 -0.75686404213E+03  0.75686404215E+03  0.50400001928E-02 0.  1.
    10030    2    1    2    0    0  0.00000000000E+00  0.00000000000E+00 -0.63789168216E+03  0.87583640222E+03  0.60015298490E+03 0.  0.
        1    1    3    3  502    0 -0.88167675052E+02 -0.19687273043E+03 -0.14525981101E+02  0.21620225499E+03  0.50400001928E-02 0. -1.
       -1    1    3    3    0  502  0.88167675052E+02  0.19687273043E+03 -0.62336570106E+03  0.65963414723E+03  0.50400001928E-02 0.  1.
</event>
<event>
 5   0  0.2313168E-03  0.6002286E+03  0.7818609E-02  0.9904932E-01
       -2   -1    0    0    0  501  0.00000000000E+00  0.00000000000E+00  0.24164321787E+03  0.24164321788E+03  0.25500000920E-02 0.  1.
        2   -1    0    0  501    0  0.00000000000E+00  0.00000000000E+00 -0.37273381739E+03  0.37273381740E+03  0.25500000920E-02 0. -1.
    10030    2    1    2    0    0  0.00000000000E+00  0.00000000000E+00 -0.13109059952E+03  0.61437703529E+03  0.60022861995E+03 0.  0.
        2    1    3    3  502    0 -0.11290476828E+03  0.31206175846E+02  0.21727793080E+03  0.24684207772E+03  0.25500000920E-02 0.  1.
       -2    1    3    3    0  502  0.11290476828E+03 -0.31206175846E+02 -0.34836853032E+03  0.36753495757E+03  0.25500000920E-02 0. -1.
</event>
<event>
 5   0  0.1423430E-03  0.5988891E+03  0.7818609E-02  0.9907714E-01
        1   -1    0    0  501    0  0.00000000000E+00  0.00000000000E+00  0.13598752976E+03  0.13598752985E+03  0.50400001928E-02 0. -1.
       -1   -1    0    0    0  501  0.00000000000E+00  0.00000000000E+00 -0.65937688351E+03  0.65937688353E+03  0.50400001928E-02 0.  1.
    10030    2    1    2    0    0  0.00000000000E+00  0.00000000000E+00 -0.52338935375E+03  0.79536441339E+03  0.59888908360E+03 0.  0.
        1    1    3    3  502    0  0.51343168042E+02  0.21197381260E+03  0.10795324015E+02  0.21837022960E+03  0.50400001928E-02 0. -1.
       -1    1    3    3    0  502 -0.51343168042E+02 -0.21197381260E+03 -0.53418467777E+03  0.57699418378E+03  0.50400001928E-02 0.  1.
</event>
<event>
 5   0  0.9496750E-04  0.6000583E+03  0.7818609E-02  0.9905285E-01
       -4   -1    0    0    0  501  0.00000000000E+00  0.00000000000E+00  0.20401551303E+03  0.20401946588E+03  0.12699999809E+01 0.  1.
        4   -1    0    0  501    0  0.00000000000E+00  0.00000000000E+00 -0.44121952082E+03  0.44122134860E+03  0.12699999809E+01 0. -1.
    10030    2    1    2    0    0  0.00000000000E+00  0.00000000000E+00 -0.23720400779E+03  0.64524081448E+03  0.60005830329E+03 0.  0.
        4    1    3    3  502    0  0.10821740962E+03 -0.20251583825E+03 -0.32625462672E+03  0.39895785096E+03  0.12699999809E+01 0. -1.
       -4    1    3    3    0  502 -0.10821740962E+03  0.20251583825E+03  0.89050618925E+02  0.24628296352E+03  0.12699999809E+01 0.  1.
</event>
<event>
 5   0  0.1392854E-03  0.5997973E+03  0.7818609E-02  0.9905827E-01
       -1   -1    0    0    0  501  0.00000000000E+00  0.00000000000E+00  0.31717859365E+03  0.31717859369E+03  0.50400001928E-02 0.  1.
        1   -1    0    0  501    0  0.00000000000E+00  0.00000000000E+00 -0.28356009368E+03  0.28356009372E+03  0.50400001928E-02 0. -1.
    10030    2    1    2    0    0  0.00000000000E+00  0.00000000000E+00  0.33618499975E+02  0.60073868741E+03  0.59979727159E+03 0.  0.
        4    1    3    3  502    0 -0.22346447163E+03  0.17839657003E+03  0.10737170194E+03  0.30543739385E+03  0.12699999809E+01 0.  1.
       -4    1    3    3    0  502  0.22346447163E+03 -0.17839657003E+03 -0.73753201968E+02  0.29530129357E+03  0.12699999809E+01 0. -1.
</event>
<event>
 5   0  0.2421210E-03  0.6014656E+03  0.7818609E-02  0.9902370E-01
        2   -1    0    0  501    0  0.00000000000E+00  0.00000000000E+00  0.20809999484E+04  0.20809999484E+04  0.25500000920E-02 0.  1.
       -2   -1    0    0    0  501  0.00000000000E+00  0.00000000000E+00 -0.43459976566E+02  0.43459976641E+02  0.25500000920E-02 0. -1.
    10030    2    1    2    0    0  0.00000000000E+00  0.00000000000E+00  0.20375399718E+04  0.21244599250E+04  0.60146557366E+03 0.  0.
        1    1    3    3  502    0  0.71822665035E+02 -0.13527362754E+03  0.19329238227E+04  0.19389821954E+04  0.50400001928E-02 0.  1.
       -1    1    3    3    0  502 -0.71822665035E+02  0.13527362754E+03  0.10461614910E+03  0.18547772965E+03  0.50400001928E-02 0. -1.
</event>
<event>
 5   0  0.2346281E-03  0.6001389E+03  0.7818609E-02  0.9905118E-01
       -2   -1    0    0    0  501  0.00000000000E+00  0.00000000000E+00  0.88431757181E+03  0.88431757181E+03  0.25500000920E-02 0. -1.
        2   -1    0    0  501    0  0.00000000000E+00  0.00000000000E+00 -0.10182052996E+03  0.10182052999E+03  0.25500000920E-02 0.  1.
    10030    2    1    2    0    0  0.00000000000E+00  0.00000000000E+00  0.78249704185E+03  0.98613810180E+03  0.60013893001E+03 0.  0.
        3    1    3    3  502    0 -0.13205102219E+03  0.60830394165E+02  0.82257659775E+03  0.83532633065E+03  0.10100000352E+00 0. -1.
       -3    1    3    3    0  502  0.13205102219E+03 -0.60830394165E+02 -0.40079555897E+02  0.15081177115E+03  0.10100000352E+00 0.  1.
</event>
<event>
 5   0  0.9496750E-04  0.5999437E+03  0.7818609E-02  0.9905523E-01
       -4   -1    0    0    0  501  0.00000000000E+00  0.00000000000E+00  0.35907206874E+03  0.35907431466E+03  0.12699999809E+01 0.  1.
        4   -1    0    0  501    0  0.00000000000E+00  0.00000000000E+00 -0.25059438713E+03  0.25059760526E+03  0.12699999809E+01 0. -1.
    10030    2    1    2    0    0  0.00000000000E+00  0.00000000000E+00  0.10847768160E+03  0.60967191992E+03  0.59994369947E+03 0.  0.
        5    1    3    3  502    0 -0.27275705923E+03  0.97562844160E+02 -0.24778664273E+02  0.29077653640E+03  0.46999998093E+01 0. -1.
       -5    1    3    3    0  502  0.27275705923E+03 -0.97562844160E+02  0.13325634587E+03  0.31889538352E+03  0.46999998093E+01 0.  1.
</event>
<event>
 5   0  0.1418763E-03  0.6002065E+03  0.7818609E-02  0.9904978E-01
        1   -1    0    0  501    0  0.00000000000E+00  0.00000000000E+00  0.15631277063E+03  0.15631277071E+03  0.50400001928E-02 0.  1.
       -1   -1    0    0    0  501  0.00000000000E+00  0.00000000000E+00 -0.57616511189E+03  0.57616511191E+03  0.50400001928E-02 0. -1.
    10030    2    1    2    0    0  0.00000000000E+00  0.00000000000E+00 -0.41985234126E+03  0.73247788262E+03  0.60020651451E+03 0.  0.
        5    1    3    3  502    0 -0.18268582078E+03 -0.20919890957E+03 -0.71309553283E+02  0.28678464963E+03  0.46999998093E+01 0.  1.
       -5    1    3    3    0  502  0.18268582078E+03  0.20919890957E+03 -0.34854278798E+03  0.44569323298E+03  0.46999998093E+01 0. -1.
</event>
<event>
 5   0  0.1418763E-03  0.5982281E+03  0.7818609E-02  0.9909089E-01
       -1   -1    0    0    0  501  0.00000000000E+00  0.00000000000E+00  0.66581365805E+03  0.66581365807E+03  0.50400001928E-02 0.  1.
        1   -1    0    0  501    0  0.00000000000E+00  0.00000000000E+00 -0.13437577938E+03  0.13437577947E+03  0.50400001928E-02 0. -1.
    10030    2    1    2    0    0  0.00000000000E+00  0.00000000000E+00  0.53143787867E+03  0.80018943754E+03  0.59822814801E+03 0.  0.
        5    1    3    3  502    0 -0.14056393103E+03 -0.19017314714E+03  0.20813730321E+02  0.23744335317E+03  0.46999998093E+01 0. -1.
       -5    1    3    3    0  502  0.14056393103E+03  0.19017314714E+03  0.51062414835E+03  0.56274608437E+03  0.46999998093E+01 0.  1.
</event>
<event>
 5   0  0.2406307E-03  0.5996312E+03  0.7818609E-02  0.9906171E-01
       -2   -1    0    0    0  501  0.00000000000E+00  0.00000000000E+00  0.39407813616E+03  0.39407813617E+03  0.25500000920E-02 0.  1.
        2   -1    0    0  501    0  0.00000000000E+00  0.00000000000E+00 -0.22810044969E+03  0.22810044970E+03  0.25500000920E-02 0. -1.
    10030    2    1    2    0    0  0.00000000000E+00  0.00000000000E+00  0.16597768648E+03  0.62217858587E+03  0.59963122026E+03 0.  0.
        5    1    3    3  502    0  0.23542564447E+03 -0.96900918536E+02  0.24721961004E+03  0.35490089838E+03  0.46999998093E+01 0.  1.
       -5    1    3    3    0  502 -0.23542564447E+03  0.96900918536E+02 -0.81241923560E+02  0.26727768749E+03  0.46999998093E+01 0. -1.
</event>
<event>
 5   0  0.2421210E-03  0.6029376E+03  0.7818609E-02  0.9899330E-01
       -2   -1    0    0    0  501  0.00000000000E+00  0.00000000000E+00  0.22523832360E+03  0.22523832362E+03  0.25500000920E-02 0. -1.
        2   -1    0    0  501    0  0.00000000000E+00  0.00000000000E+00 -0.40349902040E+03  0.40349902041E+03  0.25500000920E-02 0.  1.
    10030    2    1    2    0    0  0.00000000000E+00  0.00000000000E+00 -0.17826069680E+03  0.62873734402E+03  0.60293761845E+03 0.  0.
        1    1    3    3  502    0 -0.25770674264E+03 -0.13377996317E+03 -0.45832934277E+01  0.29039774508E+03  0.50400001928E-02 0. -1.
       -1    1    3    3    0  502  0.25770674264E+03  0.13377996317E+03 -0.17367740337E+03  0.33833959894E+03  0.50400001928E-02 0.  1.
</event>
<event>
 5   0  0.1418763E-03  0.5998386E+03  0.7818609E-02  0.9905741E-01
        1   -1    0    0  501    0  0.00000000000E+00  0.00000000000E+00  0.86487396589E+02  0.86487396736E+02  0.50400001928E-02 0. -1.
       -1   -1    0    0    0  501  0.00000000000E+00  0.00000000000E+00 -0.10400543508E+04  0.10400543508E+04  0.50400001928E-02 0.  1.
    10030    2    1    2    0    0  0.00000000000E+00  0.00000000000E+00 -0.95356695420E+03  0.11265417475E+04  0.59983862230E+03 0.  0.
        5    1    3    3  502    0  0.27882613998E+03 -0.15069546751E+01 -0.68408086804E+03  0.73873879773E+03  0.46999998093E+01 0.  1.
       -5    1    3    3    0  502 -0.27882613998E+03  0.15069546751E+01 -0.26948608616E+03  0.38780294981E+03  0.46999998093E+01 0. -1.
</event>
<event>
 5   0  0.1416315E-03  0.5999194E+03  0.7818609E-02  0.9905573E-01
        1   -1    0    0  501    0  0.00000000000E+00  0.00000000000E+00  0.11197675940E+04  0.11197675940E+04  0.50400001928E-02 0.  1.
       -1   -1    0    0    0  501  0.00000000000E+00  0.00000000000E+00 -0.80352235904E+02  0.80352236062E+02  0.50400001928E-02 0. -1.
    10030    2    1    2    0    0  0.00000000000E+00  0.00000000000E+00  0.10394153581E+04  0.12001198301E+04  0.59991942784E+03 0.  0.
        2    1    3    3  502    0 -0.21836352560E+03  0.48998904512E+02  0.12015295738E+03  0.25400837610E+03  0.25500000920E-02 0. -1.
       -2    1    3    3    0  502  0.21836352560E+03 -0.48998904512E+02  0.91926240074E+03  0.94611145399E+03  0.25500000920E-02 0.  1.
</event>
<event>
 5   0  0.2324616E-03  0.5998155E+03  0.7818609E-02  0.9905789E-01
        2   -1    0    0  501    0  0.00000000000E+00  0.00000000000E+00  0.73748646699E+03  0.73748646699E+03  0.25500000920E-02 0. -1.
       -2   -1    0    0    0  501  0.00000000000E+00  0.00000000000E+00 -0.12196108882E+03  0.12196108885E+03  0.25500000920E-02 0.  1.
    10030    2    1    2    0    0  0.00000000000E+00  0.00000000000E+00  0.61552537816E+03  0.85944755584E+03  0.59981548003E+03 0.  0.
        4    1    3    3  502    0 -0.43755837032E+02 -0.11928717016E+03 -0.81485911180E+02  0.15094889486E+03  0.12699999809E+01 0.  1.
       -4    1    3    3    0  502  0.43755837032E+02  0.11928717016E+03  0.69701128934E+03  0.70849866098E+03  0.12699999809E+01 0. -1.
</event>
<event>
 5   0  0.2421210E-03  0.5998072E+03  0.7818609E-02  0.9905806E-01
        2   -1    0    0  501    0  0.00000000000E+00  0.00000000000E+00  0.43970538901E+03  0.43970538902E+03  0.25500000920E-02 0. -1.
       -2   -1    0    0    0  501  0.00000000000E+00  0.00000000000E+00 -0.20455096271E+03  0.20455096273E+03  0.25500000920E-02 0.  1.
    10030    2    1    2    0    0  0.00000000000E+00  0.00000000000E+00  0.23515442630E+03  0.64425635175E+03  0.59980717115E+03 0.  0.
        1    1    3    3  502    0  0.72500764995E+02  0.13639610840E+03  0.39369114490E+03  0.42291012864E+03  0.50400001928E-02 0. -1.
       -1    1    3    3    0  502 -0.72500764995E+02 -0.13639610840E+03 -0.15853671860E+03  0.22134622310E+03  0.50400001928E-02 0.  1.
</event>
<event>
 5   0  0.2406307E-03  0.5994029E+03  0.7818609E-02  0.9906646E-01
        2   -1    0    0  501    0  0.00000000000E+00  0.00000000000E+00  0.14294230847E+04  0.14294230847E+04  0.25500000920E-02 0. -1.
       -2   -1    0    0    0  501  0.00000000000E+00  0.00000000000E+00 -0.62837206572E+02  0.62837206623E+02  0.25500000920E-02 0.  1.
    10030    2    1    2    0    0  0.00000000000E+00  0.00000000000E+00  0.13665858781E+04  0.14922602913E+04  0.59940288184E+03 0.  0.
        5    1    3    3  502    0  0.98112259016E+02 -0.13316756816E+03  0.13053848939E+04  0.13158310787E+04  0.46999998093E+01 0. -1.
       -5    1    3    3    0  502 -0.98112259016E+02  0.13316756816E+03  0.61200984211E+02  0.17642921256E+03  0.46999998093E+01 0.  1.
</event>
<event>
 5   0  0.2406307E-03  0.6000114E+03  0.7818609E-02  0.9905382E-01
       -2   -1    0    0    0  501  0.00000000000E+00  0.00000000000E+00  0.15741384592E+03  0.15741384594E+03  0.25500000920E-02 0. -1.
        2   -1    0    0  501    0  0.00000000000E+00  0.00000000000E+00 -0.57176300180E+03  0.57176300180E+03  0.25500000920E-02 0.  1.
    10030    2    1    2    0    0  0.00000000000E+00  0.00000000000E+00 -0.41434915588E+03  0.72917684774E+03  0.60001137681E+03 0.  0.
        5    1    3    3  502    0  0.88143736712E+02 -0.82049765222E+02 -0.54105340060E+03  0.55431250626E+03  0.46999998093E+01 0.  1.
       -5    1    3    3    0  502 -0.88143736712E+02  0.82049765222E+02  0.12670424472E+03  0.17486434148E+03  0.46999998093E+01 0. -1.
</event>
<event>
 5   0  0.2406307E-03  0.6010764E+03  0.7818609E-02  0.9903175E-01
        2   -1    0    0  501    0  0.00000000000E+00  0.00000000000E+00  0.15574418511E+04  0.15574418511E+04  0.25500000920E-02 0.  1.
       -2   -1    0    0    0  501  0.00000000000E+00  0.00000000000E+00 -0.57994592333E+02  0.57994592389E+02  0.25500000920E-02 0. -1.
    10030    2    1    2    0    0  0.00000000000E+00  0.00000000000E+00  0.14994472588E+04  0.16154364435E+04  0.60107638545E+03 0.  0.
        5    1    3    3  502    0  0.17749379078E+03  0.55225331845E+02  0.13842824205E+04  0.13967153585E+04  0.46999998093E+01 0.  1.
       -5    1    3    3    0  502 -0.17749379078E+03 -0.55225331845E+02  0.11516483830E+03  0.21872108499E+03  0.46999998093E+01 0. -1.
</event>
<event>
 5   0  0.1418763E-03  0.6000191E+03  0.7818609E-02  0.9905366E-01
        1   -1    0    0  501    0  0.00000000000E+00  0.00000000000E+00  0.21555968788E+03  0.21555968794E+03  0.50400001928E-02 0.  1.
       -1   -1    0    0    0  501  0.00000000000E+00  0.00000000000E+00 -0.41754436611E+03  0.41754436614E+03  0.50400001928E-02 0. -1.
    10030    2    1    2    0    0  0.00000000000E+00  0.00000000000E+00 -0.20198467822E+03  0.63310405408E+03  0.60001911057E+03 0.  0.
        5    1    3    3  502    0 -0.17901911477E+03 -0.13074050033E+03 -0.31423168791E+03  0.38458362623E+03  0.46999998093E+01 0. -1.
       -5    1    3    3    0  502  0.17901911477E+03  0.13074050033E+03  0.11224700969E+03  0.24852042785E+03  0.46999998093E+01 0.  1.
</event>
<event>
 5   0  0.2421210E-03  0.6000165E+03  0.7818609E-02  0.9905372E-01
       -2   -1    0    0    0  501  0.00000000000E+00  0.00000000000E+00  0.49908431733E+02  0.49908431798E+02  0.25500000920E-02 0. -1.
        2   -1    0    0  501    0  0.00000000000E+00  0.00000000000E+00 -0.18034014785E+04  0.18034014785E+04  0.25500000920E-02 0.  1.
    10030    2    1    2    0    0  0.00000000000E+00  0.00000000000E+00 -0.17534930468E+04  0.18533099103E+04  0.60001646524E+03 0.  0.
        1    1    3    3  502    0  0.11546070853E+03 -0.22256189312E+03 -0.13855962513E+04  0.14080986979E+04  0.50400001928E-02 0.  1.
       -1    1    3    3    0  502 -0.11546070853E+03  0.22256189312E+03 -0.36789679553E+03  0.44521121242E+03  0.50400001928E-02 0. -1.
</event>
<event>
 5   0  0.9496750E-04  0.5999945E+03  0.7818609E-02  0.9905417E-01
       -4   -1    0    0    0  501  0.00000000000E+00  0.00000000000E+00  0.33636853492E+03  0.33637093243E+03  0.12699999809E+01 0. -1.
        4   -1    0    0  501    0  0.00000000000E+00  0.00000000000E+00 -0.26755394736E+03  0.26755696150E+03  0.12699999809E+01 0.  1.
    10030    2    1    2    0    0  0.00000000000E+00  0.00000000000E+00  0.68814587561E+02  0.60392789392E+03  0.59999454464E+03 0.  0.
        5    1    3    3  502    0 -0.24249543185E+03  0.10522045179E+03  0.17711436390E+03  0.31822470966E+03  0.46999998093E+01 0. -1.
       -5    1    3    3    0  502  0.24249543185E+03 -0.10522045179E+03 -0.10829977634E+03  0.28570318426E+03  0.46999998093E+01 0.  1.
</event>
<event>
 5   0  0.1416315E-03  0.5996605E+03  0.7818609E-02  0.9906111E-01
        1   -1    0    0  501    0  0.00000000000E+00  0.00000000000E+00  0.14998425378E+03  0.14998425387E+03  0.50400001928E-02 0. -1.
       -1   -1    0    0    0  501  0.00000000000E+00  0.00000000000E+00 -0.59938417525E+03  0.59938417527E+03  0.50400001928E-02 0.  1.
    10030    2    1    2    0    0  0.00000000000E+00  0.00000000000E+00 -0.44939992147E+03  0.74936842914E+03  0.59966053161E+03 0.  0.
        2    1    3    3  502    0 -0.22589138718E+03  0.18959394201E+03 -0.15710986709E+03  0.33415010398E+03  0.25500000920E-02 0. -1.
       -2    1    3    3    0  502  0.22589138718E+03 -0.18959394201E+03 -0.29229005438E+03  0.41521832516E+03  0.25500000920E-02 0.  1.
</event>
<event>
 5   0  0.1423430E-03  0.6000906E+03  0.7818609E-02  0.9905218E-01
        1   -1    0    0  501    0  0.00000000000E+00  0.00000000000E+00  0.10479879601E+04  0.10479879601E+04  0.50400001928E-02 0. -1.
       -1   -1    0    0    0  501  0.00000000000E+00  0.00000000000E+00 -0.85904780329E+02  0.85904780476E+02  0.50400001928E-02 0.  1.
    10030    2    1    2    0    0  0.00000000000E+00  0.00000000000E+00  0.96208317975E+03  0.11338927406E+04  0.60009057846E+03 0.  0.
        1    1    3    3  502    0 -0.22537408278E+03 -0.19085047938E+03  0.38088204981E+03  0.48196319212E+03  0.50400001928E-02 0. -1.
       -1    1    3    3    0  502  0.22537408278E+03  0.19085047938E+03  0.58120112994E+03  0.65192954844E+03  0.50400001928E-02 0.  1.
</event>
<event>
 5   0  0.2421210E-03  0.6003594E+03  0.7818609E-02  0.9904661E-01
       -2   -1    0    0    0  501  0.00000000000E+00  0.00000000000E+00  0.69635561395E+02  0.69635561441E+02  0.25500000920E-02 0.  1.
        2   -1    0    0  501    0  0.00000000000E+00  0.00000000000E+00 -0.12939918123E+04  0.12939918123E+04  0.25500000920E-02 0. -1.
    10030    2    1    2    0    0  0.00000000000E+00  0.00000000000E+00 -0.12243562509E+04  0.13636273737E+04  0.60035938012E+03 0.  0.
        1    1    3    3  502    0 -0.77813263836E+02 -0.67222253796E+02 -0.12527400575E+04  0.12569532160E+04  0.50400001928E-02 0. -1.
       -1    1    3    3    0  502  0.77813263836E+02  0.67222253796E+02  0.28383806599E+02  0.10667415777E+03  0.50400001928E-02 0.  1.
</event>
<event>
 5   0  0.1392854E-03  0.6013065E+03  0.7818609E-02  0.9902699E-01
        1   -1    0    0  501    0  0.00000000000E+00  0.00000000000E+00  0.34281583086E+03  0.34281583089E+03  0.50400001928E-02 0.  1.
       -1   -1    0    0    0  501  0.00000000000E+00  0.00000000000E+00 -0.26367619276E+03  0.26367619280E+03  0.50400001928E-02 0. -1.
    10030    2    1    2    0    0  0.00000000000E+00  0.00000000000E+00  0.79139638098E+02  0.60649202370E+03  0.60130648798E+03 0.  0.
        4    1    3    3  502    0  0.21419052181E+03 -0.30614821866E+01  0.25234834210E+03  0.33101095294E+03  0.12699999809E+01 0.  1.
       -4    1    3    3    0  502 -0.21419052181E+03  0.30614821866E+01 -0.17320870400E+03  0.27548107076E+03  0.12699999809E+01 0. -1.
</event>
<event>
 5   0  0.1392854E-03  0.5998983E+03  0.7818609E-02  0.9905617E-01
       -1   -1    0    0    0  501  0.00000000000E+00  0.00000000000E+00  0.23514037423E+03  0.23514037429E+03  0.50400001928E-02 0. -1.
        1   -1    0    0  501    0  0.00000000000E+00  0.00000000000E+00 -0.38262040742E+03  0.38262040745E+03  0.50400001928E-02 0.  1.
    10030    2    1    2    0    0  0.00000000000E+00  0.00000000000E+00 -0.14748003319E+03  0.61776078174E+03  0.59989834411E+03 0.  0.
        4    1    3    3  502    0  0.18078870888E+03  0.48845820859E+01  0.17267453871E+03  0.25005304561E+03  0.12699999809E+01 0. -1.
       -4    1    3    3    0  502 -0.18078870888E+03 -0.48845820859E+01 -0.32015457190E+03  0.36770773613E+03  0.12699999809E+01 0.  1.
</event>
<event>
 5   0  0.1479385E-03  0.5999094E+03  0.7818609E-02  0.9905594E-01
       -1   -1    0    0    0  501  0.00000000000E+00  0.00000000000E+00  0.31124143088E+03  0.31124143092E+03  0.50400001928E-02 0. -1.
        1   -1    0    0  501    0  0.00000000000E+00  0.00000000000E+00 -0.28907731030E+03  0.28907731034E+03  0.50400001928E-02 0.  1.
    10030    2    1    2    0    0  0.00000000000E+00  0.00000000000E+00  0.22164120582E+02  0.60031874127E+03  0.59990944556E+03 0.  0.
        3    1    3    3  502    0  0.15350136923E+03 -0.11930464474E+03  0.23965978757E+03  0.30859859460E+03  0.10100000352E+00 0. -1.
       -3    1    3    3    0  502 -0.15350136923E+03  0.11930464474E+03 -0.21749566699E+03  0.29172014667E+03  0.10100000352E+00 0.  1.
</event>
<event>
 5   0  0.2313168E-03  0.5999372E+03  0.7818609E-02  0.9905536E-01
        2   -1    0    0  501    0  0.00000000000E+00  0.00000000000E+00  0.17960649213E+04  0.17960649213E+04  0.25500000920E-02 0. -1.
       -2   -1    0    0    0  501  0.00000000000E+00  0.00000000000E+00 -0.50099065946E+02  0.50099066011E+02  0.25500000920E-02 0.  1.
    10030    2    1    2    0    0  0.00000000000E+00  0.00000000000E+00  0.17459658554E+04  0.18461639873E+04  0.59993724672E+03 0.  0.
        2    1    3    3  502    0 -0.65868655599E+02  0.29125385555E+03  0.78520342977E+03  0.84006661301E+03  0.25500000920E-02 0. -1.
       -2    1    3    3    0  502  0.65868655599E+02 -0.29125385555E+03  0.96076242562E+03  0.10060973743E+04  0.25500000920E-02 0.  1.
</event>
<event>
 5   0  0.2324616E-03  0.5999214E+03  0.7818609E-02  0.9905569E-01
        2   -1    0    0  501    0  0.00000000000E+00  0.00000000000E+00  0.18872198956E+04  0.18872198956E+04  0.25500000920E-02 0. -1.
       -2   -1    0    0    0  501  0.00000000000E+00  0.00000000000E+00 -0.47676708681E+02  0.47676708749E+02  0.25500000920E-02 0.  1.
    10030    2    1    2    0    0  0.00000000000E+00  0.00000000000E+00  0.18395431869E+04  0.19348966043E+04  0.59992143901E+03 0.  0.
        4    1    3    3  502    0  0.72560037748E+02 -0.25964677837E+03  0.13439062114E+04  0.13706811907E+04  0.12699999809E+01 0. -1.
       -4    1    3    3    0  502 -0.72560037748E+02  0.25964677837E+03  0.49563697549E+03  0.56421541362E+03  0.12699999809E+01 0.  1.
</event>
<event>
 5   0  0.2406307E-03  0.6000752E+03  0.7818609E-02  0.9905250E-01
       -2   -1    0    0    0  501  0.00000000000E+00  0.00000000000E+00  0.32178026555E+03  0.32178026556E+03  0.25500000920E-02 0.  1.
        2   -1    0    0  501    0  0.00000000000E+00  0.00000000000E+00 -0.27976404124E+03  0.27976404125E+03  0.25500000920E-02 0. -1.
    10030    2    1    2    0    0  0.00000000000E+00  0.00000000000E+00  0.42016224312E+02  0.60154430682E+03  0.60007515359E+03 0.  0.
        5    1    3    3  502    0 -0.25900291764E+03  0.88997615825E+02  0.14377168984E+03  0.30934685349E+03  0.46999998093E+01 0. -1.
       -5    1    3    3    0  502  0.25900291764E+03 -0.88997615825E+02 -0.10175546553E+03  0.29219745333E+03  0.46999998093E+01 0.  1.
</event>
<event>
 5   0  0.2346281E-03  0.5997101E+03  0.7818609E-02  0.9906008E-01
       -2   -1    0    0    0  501  0.00000000000E+00  0.00000000000E+00  0.12055348123E+03  0.12055348126E+03  0.25500000920E-02 0. -1.
        2   -1    0    0  501    0  0.00000000000E+00  0.00000000000E+00 -0.74583542321E+03  0.74583542321E+03  0.25500000920E-02 0.  1.
    10030    2    1    2    0    0  0.00000000000E+00  0.00000000000E+00 -0.62528194197E+03  0.86638890447E+03  0.59971011900E+03 0.  0.
        3    1    3    3  502    0  0.26273331317E+02 -0.23358814912E+03 -0.43684734621E+02  0.23908592094E+03  0.10100000352E+00 0. -1.
       -3    1    3    3    0  502 -0.26273331317E+02  0.23358814912E+03 -0.58159720735E+03  0.62730298353E+03  0.10100000352E+00 0.  1.
</event>
<event>
 5   0  0.2406307E-03  0.5999793E+03  0.7818609E-02  0.9905449E-01
       -2   -1    0    0    0  501  0.00000000000E+00  0.00000000000E+00  0.51102226130E+03  0.51102226131E+03  0.25500000920E-02 0.  1.
        2   -1    0    0  501    0  0.00000000000E+00  0.00000000000E+00 -0.17610544006E+03  0.17610544007E+03  0.25500000920E-02 0. -1.
    10030    2    1    2    0    0  0.00000000000E+00  0.00000000000E+00  0.33491682124E+03  0.68712770138E+03  0.59997933369E+03 0.  0.
        5    1    3    3  502    0 -0.18329024335E+02  0.22280480310E+03 -0.61574227345E+02  0.23192974990E+03  0.46999998093E+01 0. -1.
       -5    1    3    3    0  502  0.18329024335E+02 -0.22280480310E+03  0.39649104859E+03  0.45519795148E+03  0.46999998093E+01 0.  1.
</event>
<event>
 5   0  0.2313168E-03  0.6001201E+03  0.7818609E-02  0.9905157E-01
       -2   -1    0    0    0  501  0.00000000000E+00  0.00000000000E+00  0.76854432540E+02  0.76854432583E+02  0.25500000920E-02 0. -1.
        2   -1    0    0  501    0  0.00000000000E+00  0.00000000000E+00 -0.11715139628E+04  0.11715139628E+04  0.25500000920E-02 0.  1.
    10030    2    1    2    0    0  0.00000000000E+00  0.00000000000E+00 -0.10946595303E+04  0.12483683954E+04  0.60012012416E+03 0.  0.
        2    1    3    3  502    0 -0.16536341192E+02 -0.17444889067E+03 -0.40639700285E+02  0.17988177028E+03  0.25500000920E-02 0. -1.
       -2    1    3    3    0  502  0.16536341192E+02  0.17444889067E+03 -0.10540198300E+04  0.10684866251E+04  0.25500000920E-02 0.  1.
</event>
<event>
 5   0  0.1423430E-03  0.6000522E+03  0.7818609E-02  0.9905298E-01
        1   -1    0    0  501    0  0.00000000000E+00  0.00000000000E+00  0.82657946322E+03  0.82657946323E+03  0.50400001928E-02 0.  1.
       -1   -1    0    0    0  501  0.00000000000E+00  0.00000000000E+00 -0.10890138980E+03  0.10890138992E+03  0.50400001928E-02 0. -1.
    10030    2    1    2    0    0  0.00000000000E+00  0.00000000000E+00  0.71767807341E+03  0.93548085315E+03  0.60005217236E+03 0.  0.
        1    1    3    3  502    0 -0.29117274013E+02 -0.29362295009E+03  0.44356314725E+03  0.53273869588E+03  0.50400001928E-02 0.  1.
       -1    1    3    3    0  502  0.29117274013E+02  0.29362295009E+03  0.27411492616E+03  0.40274215727E+03  0.50400001928E-02 0. -1.
</event>
<event>
 5   0  0.1392854E-03  0.5998804E+03  0.7818609E-02  0.9905654E-01
       -1   -1    0    0    0  501  0.00000000000E+00  0.00000000000E+00  0.19942038158E+03  0.19942038164E+03  0.50400001928E-02 0. -1.
        1   -1    0    0  501    0  0.00000000000E+00  0.00000000000E+00 -0.45112807512E+03  0.45112807515E+03  0.50400001928E-02 0.  1.
    10030    2    1    2    0    0  0.00000000000E+00  0.00000000000E+00 -0.25170769354E+03  0.65054845679E+03  0.59988043112E+03 0.  0.
        4    1    3    3  502    0 -0.57587310560E+02  0.19650382798E+03  0.11182055189E+03  0.23331416903E+03  0.12699999809E+01 0. -1.
       -4    1    3    3    0  502  0.57587310560E+02 -0.19650382798E+03 -0.36352824544E+03  0.41723428775E+03  0.12699999809E+01 0.  1.
</event>
<event>
 5   0  0.2324616E-03  0.6003735E+03  0.7818609E-02  0.9904631E-01
       -2   -1    0    0    0  501  0.00000000000E+00  0.00000000000E+00  0.78091444428E+03  0.78091444428E+03  0.25500000920E-02 0.  1.
        2   -1    0    0  501    0  0.00000000000E+00  0.00000000000E+00 -0.11539303314E+03  0.11539303317E+03  0.25500000920E-02 0. -1.
    10030    2    1    2    0    0  0.00000000000E+00  0.00000000000E+00  0.66552141113E+03  0.89630747745E+03  0.60037350496E+03 0.  0.
        4    1    3    3  502    0  0.24877878349E+03 -0.64147447733E+02  0.56454623781E+03  0.62025788645E+03  0.12699999809E+01 0.  1.
       -4    1    3    3    0  502 -0.24877878349E+03  0.64147447733E+02  0.10097517332E+03  0.27604959101E+03  0.12699999809E+01 0. -1.
</event>
<event>
 5   0  0.2324616E-03  0.6001382E+03  0.7818609E-02  0.9905119E-01
       -2   -1    0    0    0  501  0.00000000000E+00  0.00000000000E+00  0.21870811962E+03  0.21870811963E+03  0.25500000920E-02 0. -1.
        2   -1    0    0  501    0  0.00000000000E+00  0.00000000000E+00 -0.41169695543E+03  0.41169695543E+03  0.25500000920E-02 0.  1.
    10030    2    1    2    0    0  0.00000000000E+00  0.00000000000E+00 -0.19298883581E+03  0.63040507506E+03  0.60013820735E+03 0.  0.
        4    1    3    3  502    0 -0.11330598556E+03  0.73034697219E+02 -0.37809582203E+03  0.40141048428E+03  0.12699999809E+01 0.  1.
       -4    1    3    3    0  502  0.11330598556E+03 -0.73034697219E+02  0.18510698622E+03  0.22899459078E+03  0.12699999809E+01 0. -1.
</event>
<event>
 5   0  0.1416315E-03  0.6002173E+03  0.7818609E-02  0.9904955E-01
       -1   -1    0    0    0  501  0.00000000000E+00  0.00000000000E+00  0.16317799397E+03  0.16317799405E+03  0.50400001928E-02 0. -1.
        1   -1    0    0  501    0  0.00000000000E+00  0.00000000000E+00 -0.55194452116E+03  0.55194452118E+03  0.50400001928E-02 0.  1.
    10030    2    1    2    0    0  0.00000000000E+00  0.00000000000E+00 -0.38876652718E+03  0.71512251524E+03  0.60021729327E+03 0.  0.
        2    1    3    3  502    0  0.76995607075E+02  0.10723934413E+03 -0.51549020914E+03  0.53212663546E+03  0.25500000920E-02 0.  1.
       -2    1    3    3    0  502 -0.76995607075E+02 -0.10723934413E+03  0.12672368196E+03  0.18299587977E+03  0.25500000920E-02 0. -1.
</event>
<event>
 5   0  0.9496750E-04  0.6000469E+03  0.7818609E-02  0.9905309E-01
       -4   -1    0    0    0  501  0.00000000000E+00  0.00000000000E+00  0.63299005635E+02  0.63311744679E+02  0.12699999809E+01 0.  1.
        4   -1    0    0  501    0  0.00000000000E+00  0.00000000000E+00 -0.14218892990E+04  0.14218898662E+04  0.12699999809E+01 0. -1.
    10030    2    1    2    0    0  0.00000000000E+00  0.00000000000E+00 -0.13585902934E+04  0.14852016109E+04  0.60004686454E+03 0.  0.
        1    1    3    3  502    0  0.57812949186E+02 -0.20539637591E+03 -0.15725679643E+03  0.26506547942E+03  0.50400001928E-02 0.  1.
       -1    1    3    3    0  502 -0.57812949186E+02  0.20539637591E+03 -0.12013334970E+04  0.12201361315E+04  0.50400001928E-02 0. -1.
</event>
<event>
 5   0  0.2313168E-03  0.5998462E+03  0.7818609E-02  0.9905725E-01
       -2   -1    0    0    0  501  0.00000000000E+00  0.00000000000E+00  0.68751580727E+02  0.68751580774E+02  0.25500000920E-02 0.  1.
        2   -1    0    0  501    0  0.00000000000E+00  0.00000000000E+00 -0.13083897945E+04  0.13083897946E+04  0.25500000920E-02 0. -1.
    10030    2    1    2    0    0  0.00000000000E+00  0.00000000000E+00 -0.12396382138E+04  0.13771413753E+04  0.59984620234E+03 0.  0.
        2    1    3    3  502    0  0.68678516691E+02 -0.19414948865E+03 -0.11922886536E+03  0.23796278058E+03  0.25500000920E-02 0.  1.
       -2    1    3    3    0  502 -0.68678516691E+02  0.19414948865E+03 -0.11204093485E+04  0.11391785947E+04  0.25500000920E-02 0. -1.
</event>
<event>
 5   0  0.2346281E-03  0.5997751E+03  0.7818609E-02  0.9905873E-01
        2   -1    0    0  501    0  0.00000000000E+00  0.00000000000E+00  0.14382953328E+04  0.14382953328E+04  0.25500000920E-02 0. -1.
       -2   -1    0    0    0  501  0.00000000000E+00  0.00000000000E+00 -0.62527166266E+02  0.62527166318E+02  0.25500000920E-02 0.  1.
    10030    2    1    2    0    0  0.00000000000E+00  0.00000000000E+00  0.13757681665E+04  0.15008224991E+04  0.59977506268E+03 0.  0.
        3    1    3    3  502    0  0.11579875503E+03  0.27658706804E+03  0.67594532129E+03  0.73946727138E+03  0.10100000352E+00 0.  1.
       -3    1    3    3    0  502 -0.11579875503E+03 -0.27658706804E+03  0.69982284522E+03  0.76135522771E+03  0.10100000352E+00 0. -1.
</event>
<event>
 5   0  0.9496750E-04  0.5998411E+03  0.7818609E-02  0.9905736E-01
       -3   -1    0    0    0  501  0.00000000000E+00  0.00000000000E+00  0.58645620911E+03  0.58645621781E+03  0.10100000352E+00 0.  1.
        3   -1    0    0  501    0  0.00000000000E+00  0.00000000000E+00 -0.15338282692E+03  0.15338286017E+03  0.10100000352E+00 0. -1.
    10030    2    1    2    0    0  0.00000000000E+00  0.00000000000E+00  0.43307338219E+03  0.73983907798E+03  0.59984106807E+03 0.  0.
        3    1    3    3  502    0 -0.16947566548E+02 -0.27156897740E+03  0.60936662431E+02  0.27883725814E+03  0.10100000352E+00 0. -1.
       -3    1    3    3    0  502  0.16947566548E+02  0.27156897740E+03  0.37213671976E+03  0.46100181984E+03  0.10100000352E+00 0.  1.
</event>
<event>
 5   0  0.9496750E-04  0.6001609E+03  0.7818609E-02  0.9905072E-01
       -3   -1    0    0    0  501  0.00000000000E+00  0.00000000000E+00  0.34124453490E+03  0.34124454985E+03  0.10100000352E+00 0. -1.
        3   -1    0    0  501    0  0.00000000000E+00  0.00000000000E+00 -0.26388194635E+03  0.26388196568E+03  0.10100000352E+00 0.  1.
    10030    2    1    2    0    0  0.00000000000E+00  0.00000000000E+00  0.77362588555E+02  0.60512651552E+03  0.60016091982E+03 0.  0.
        4    1    3    3  502    0  0.23620851596E+03 -0.95462717345E+02 -0.12118360827E+03  0.28212527932E+03  0.12699999809E+01 0.  1.
       -4    1    3    3    0  502 -0.23620851596E+03  0.95462717345E+02  0.19854619683E+03  0.32300123621E+03  0.12699999809E+01 0. -1.
</event>
<event>
 5   0  0.2313168E-03  0.5998733E+03  0.7818609E-02  0.9905669E-01
        2   -1    0    0  501    0  0.00000000000E+00  0.00000000000E+00  0.11158184881E+04  0.11158184881E+04  0.25500000920E-02 0.  1.
       -2   -1    0    0    0  501  0.00000000000E+00  0.00000000000E+00 -0.80624228430E+02  0.80624228471E+02  0.25500000920E-02 0. -1.
    10030    2    1    2    0    0  0.00000000000E+00  0.00000000000E+00  0.10351942597E+04  0.11964427166E+04  0.59987333562E+03 0.  0.
        2    1    3    3  502    0 -0.11653336616E+03  0.10570123692E+03  0.10269126153E+04  0.10388947475E+04  0.25500000920E-02 0.  1.
       -2    1    3    3    0  502  0.11653336616E+03 -0.10570123692E+03  0.82816443516E+01  0.15754796906E+03  0.25500000920E-02 0. -1.
</event>
<event>
 5   0  0.2421210E-03  0.6006840E+03  0.7818609E-02  0.9903988E-01
       -2   -1    0    0    0  501  0.00000000000E+00  0.00000000000E+00  0.76773345761E+02  0.76773345803E+02  0.25500000920E-02 0. -1.
        2   -1    0    0  501    0  0.00000000000E+00  0.00000000000E+00 -0.11749560172E+04  0.11749560172E+04  0.25500000920E-02 0.  1.
    10030    2    1    2    0    0  0.00000000000E+00  0.00000000000E+00 -0.10981826715E+04  0.12517293630E+04  0.60068395881E+03 0.  0.
        1    1    3    3  502    0  0.15328429467E+03 -0.25397962340E+03 -0.45127106438E+03  0.54004379236E+03  0.50400001928E-02 0. -1.
       -1    1    3    3    0  502 -0.15328429467E+03  0.25397962340E+03 -0.64691160708E+03  0.71168557067E+03  0.50400001928E-02 0.  1.
</event>
<event>
 5   0  0.1479385E-03  0.6002108E+03  0.7818609E-02  0.9904969E-01
       -1   -1    0    0    0  501  0.00000000000E+00  0.00000000000E+00  0.14289718348E+03  0.14289718357E+03  0.50400001928E-02 0. -1.
        1   -1    0    0  501    0  0.00000000000E+00  0.00000000000E+00 -0.63026606586E+03  0.63026606588E+03  0.50400001928E-02 0.  1.
    10030    2    1    2    0    0  0.00000000000E+00  0.00000000000E+00 -0.48736888238E+03  0.77316324946E+03  0.60021078197E+03 0.  0.
        3    1    3    3  502    0 -0.12397608119E+03  0.25376697930E+03 -0.11297984567E+03  0.30419106531E+03  0.10100000352E+00 0. -1.
       -3    1    3    3    0  502  0.12397608119E+03 -0.25376697930E+03 -0.37438903671E+03  0.46897218414E+03  0.10100000352E+00 0.  1.
</event>
<event>
 5   0  0.2406307E-03  0.6001463E+03  0.7818609E-02  0.9905103E-01
        2   -1    0    0  501    0  0.00000000000E+00  0.00000000000E+00  0.93004914368E+03  0.93004914369E+03  0.25500000920E-02 0.  1.
       -2   -1    0    0    0  501  0.00000000000E+00  0.00000000000E+00 -0.96816269320E+02  0.96816269354E+02  0.25500000920E-02 0. -1.
    10030    2    1    2    0    0  0.00000000000E+00  0.00000000000E+00  0.83323287436E+03  0.10268654130E+04  0.60014627682E+03 0.  0.
        5    1    3    3  502    0  0.26014721874E+02 -0.23671932875E+03  0.10434148152E+03  0.26004238331E+03  0.46999998093E+01 0. -1.
       -5    1    3    3    0  502 -0.26014721874E+02  0.23671932875E+03  0.72889139285E+03  0.76682302973E+03  0.46999998093E+01 0.  1.
</event>
<event>
 5   0  0.2324616E-03  0.6004438E+03  0.7818609E-02  0.9904486E-01
        2   -1    0    0  501    0  0.00000000000E+00  0.00000000000E+00  0.63575272182E+03  0.63575272183E+03  0.25500000920E-02 0. -1.
       -2   -1    0    0    0  501  0.00000000000E+00  0.00000000000E+00 -0.14177395084E+03  0.14177395086E+03  0.25500000920E-02 0.  1.
    10030    2    1    2    0    0  0.00000000000E+00  0.00000000000E+00  0.49397877098E+03  0.77752667269E+03  0.60044375303E+03 0.  0.
        4    1    3    3  502    0 -0.24339801911E+02  0.33480693006E+02  0.63203639050E+03  0.63339165970E+03  0.12699999809E+01 0. -1.
       -4    1    3    3    0  502  0.24339801911E+02 -0.33480693006E+02 -0.13805761952E+03  0.14413501299E+03  0.12699999809E+01 0.  1.
</event>
<event>
 5   0  0.2313168E-03  0.5999711E+03  0.7818609E-02  0.9905466E-01
        2   -1    0    0  501    0  0.00000000000E+00  0.00000000000E+00  0.19592337980E+03  0.19592337982E+03  0.25500000920E-02 0. -1.
       -2   -1    0    0    0  501  0.00000000000E+00  0.00000000000E+00 -0.45931906679E+03  0.45931906679E+03  0.25500000920E-02 0.  1.
    10030    2    1    2    0    0  0.00000000000E+00  0.00000000000E+00 -0.26339568698E+03  0.65524244661E+03  0.59997114591E+03 0.  0.
        2    1    3    3  502    0  0.25429866696E+03  0.15082701120E+02 -0.30470907319E+03  0.39716862815E+03  0.25500000920E-02 0.  1.
       -2    1    3    3    0  502 -0.25429866696E+03 -0.15082701120E+02  0.41313386210E+02  0.25807381847E+03  0.25500000920E-02 0. -1.
</event>
<event>
 5   0  0.1479385E-03  0.6000247E+03  0.7818609E-02  0.9905355E-01
        1   -1    0    0  501    0  0.00000000000E+00  0.00000000000E+00  0.76077714088E+03  0.76077714090E+03  0.50400001928E-02 0. -1.
       -1   -1    0    0    0  501  0.00000000000E+00  0.00000000000E+00 -0.11830983770E+03  0.11830983781E+03  0.50400001928E-02 0.  1.
    10030    2    1    2    0    0  0.00000000000E+00  0.00000000000E+00  0.64246730318E+03  0.87908697870E+03  0.60002473321E+03 0.  0.
        3    1    3    3  502    0 -0.41163863301E+02  0.17206050427E+03 -0.33752830288E+02  0.18010703630E+03  0.10100000352E+00 0.  1.
       -3    1    3    3    0  502  0.41163863301E+02 -0.17206050427E+03  0.67622013347E+03  0.69897994240E+03  0.10100000352E+00 0. -1.
</event>
<event>
 5   0  0.1418763E-03  0.5997800E+03  0.7818609E-02  0.9905863E-01
        1   -1    0    0  501    0  0.00000000000E+00  0.00000000000E+00  0.34891233609E+03  0.34891233613E+03  0.50400001928E-02 0. -1.
       -1   -1    0    0    0  501  0.00000000000E+00  0.00000000000E+00 -0.25775533214E+03  0.25775533219E+03  0.50400001928E-02 0.  1.
    10030    2    1    2    0    0  0.00000000000E+00  0.00000000000E+00  0.91157003955E+02  0.60666766832E+03  0.59978001001E+03 0.  0.
        5    1    3    3  502    0 -0.18065778606E+03  0.34137654046E+02 -0.19401571273E+03  0.26733275495E+03  0.46999998093E+01 0.  1.
       -5    1    3    3    0  502  0.18065778606E+03 -0.34137654046E+02  0.28517271668E+03  0.33933491336E+03  0.46999998093E+01 0. -1.
</event>
<event>
 5   0  0.2421210E-03  0.6011028E+03  0.7818609E-02  0.9903121E-01
        2   -1    0    0  501    0  0.00000000000E+00  0.00000000000E+00  0.67955252472E+03  0.67955252473E+03  0.25500000920E-02 0.  1.
       -2   -1    0    0    0  501  0.00000000000E+00  0.00000000000E+00 -0.13292740354E+03  0.13292740357E+03  0.25500000920E-02 0. -1.
    10030    2    1    2    0    0  0.00000000000E+00  0.00000000000E+00  0.54662512118E+03  0.81247992829E+03  0.60110282879E+03 0.  0.
        1    1    3    3  502    0 -0.18346109429E+03  0.41594612116E+02  0.59013820113E+03  0.61939581960E+03  0.50400001928E-02 0.  1.
       -1    1    3    3    0  502  0.18346109429E+03 -0.41594612116E+02 -0.43513079955E+02  0.19308410869E+03  0.50400001928E-02 0. -1.
</event>
<event>
 5   0  0.2406307E-03  0.6000163E+03  0.7818609E-02  0.9905372E-01
        2   -1    0    0  501    0  0.00000000000E+00  0.00000000000E+00  0.16814402686E+04  0.16814402686E+04  0.25500000920E-02 0. -1.
       -2   -1    0    0    0  501  0.00000000000E+00  0.00000000000E+00 -0.53528453241E+02  0.53528453301E+02  0.25500000920E-02 0.  1.
    10030    2    1    2    0    0  0.00000000000E+00  0.00000000000E+00  0.16279118154E+04  0.17349687219E+04  0.60001632261E+03 0.  0.
        5    1    3    3  502    0 -0.13265499771E+03  0.43279079105E+01  0.36101974326E+02  0.13762820116E+03  0.46999998093E+01 0.  1.
       -5    1    3    3    0  502  0.13265499771E+03 -0.43279079105E+01  0.15918098411E+04  0.15973405208E+04  0.46999998093E+01 0. -1.
</event>
<event>
 5   0  0.2406307E-03  0.6000405E+03  0.7818609E-02  0.9905322E-01
        2   -1    0    0  501    0  0.00000000000E+00  0.00000000000E+00  0.10505658667E+04  0.10505658667E+04  0.25500000920E-02 0.  1.
       -2   -1    0    0    0  501  0.00000000000E+00  0.00000000000E+00 -0.85679679618E+02  0.85679679655E+02  0.25500000920E-02 0. -1.
    10030    2    1    2    0    0  0.00000000000E+00  0.00000000000E+00  0.96488618713E+03  0.11362455464E+04  0.60004048831E+03 0.  0.
        5    1    3    3  502    0  0.28974164180E+03  0.50309964990E+02  0.37027545879E+03  0.47287135349E+03  0.46999998093E+01 0. -1.
       -5    1    3    3    0  502 -0.28974164180E+03 -0.50309964990E+02  0.59461072834E+03  0.66337419291E+03  0.46999998093E+01 0.  1.
</event>
<event>
 5   0  0.1392854E-03  0.6000586E+03  0.7818609E-02  0.9905284E-01
        1   -1    0    0  501    0  0.00000000000E+00  0.00000000000E+00  0.51398997543E+03  0.51398997545E+03  0.50400001928E-02 0. -1.
       -1   -1    0    0    0  501  0.00000000000E+00  0.00000000000E+00 -0.17513489257E+03  0.17513489264E+03  0.50400001928E-02 0.  1.
    10030    2    1    2    0    0  0.00000000000E+00  0.00000000000E+00  0.33885508286E+03  0.68912486810E+03  0.60005859435E+03 0.  0.
        4    1    3    3  502    0 -0.14431126461E+03 -0.19834355135E+03  0.36784362456E+03  0.44212718813E+03  0.12699999809E+01 0. -1.
       -4    1    3    3    0  502  0.14431126461E+03  0.19834355135E+03 -0.28988541706E+02  0.24699767996E+03  0.12699999809E+01 0.  1.
</event>
<event>
 5   0  0.1392854E-03  0.5991163E+03  0.7818609E-02  0.9907241E-01
       -1   -1    0    0    0  501  0.00000000000E+00  0.00000000000E+00  0.43151193692E+02  0.43151193986E+02  0.50400001928E-02 0.  1.
        1   -1    0    0  501    0  0.00000000000E+00  0.00000000000E+00 -0.20795503248E+04  0.20795503248E+04  0.50400001928E-02 0. -1.
    10030    2    1    2    0    0  0.00000000000E+00  0.00000000000E+00 -0.20363991311E+04  0.21227015188E+04  0.59911627978E+03 0.  0.
        4    1    3    3  502    0 -0.11367393106E+03 -0.27673770285E+03 -0.10716923516E+04  0.11126686965E+04  0.12699999809E+01 0. -1.
       -4    1    3    3    0  502  0.11367393106E+03  0.27673770285E+03 -0.96470677943E+03  0.10100328222E+04  0.12699999809E+01 0.  1.
</event>
<event>
 5   0  0.1416315E-03  0.5998717E+03  0.7818609E-02  0.9905672E-01
        1   -1    0    0  501    0  0.00000000000E+00  0.00000000000E+00  0.26510707744E+03  0.26510707749E+03  0.50400001928E-02 0.  1.
       -1   -1    0    0    0  501  0.00000000000E+00  0.00000000000E+00 -0.33934031739E+03  0.33934031743E+03  0.50400001928E-02 0. -1.
    10030    2    1    2    0    0  0.00000000000E+00  0.00000000000E+00 -0.74233239952E+02  0.60444739491E+03  0.59987171904E+03 0.  0.
        2    1    3    3  502    0  0.11967842162E+03  0.24276330814E+03  0.93115404457E+02  0.28622967515E+03  0.25500000920E-02 0.  1.
       -2    1    3    3    0  502 -0.11967842162E+03 -0.24276330814E+03 -0.16734864441E+03  0.31821771977E+03  0.25500000920E-02 0. -1.
</event>
<event>
 5   0  0.2421210E-03  0.5999963E+03  0.7818609E-02  0.9905414E-01
        2   -1    0    0  501    0  0.00000000000E+00  0.00000000000E+00  0.58560693323E+03  0.58560693323E+03  0.25500000920E-02 0.  1.
       -2   -1    0    0    0  501  0.00000000000E+00  0.00000000000E+00 -0.15368482505E+03  0.15368482507E+03  0.25500000920E-02 0. -1.
    10030    2    1    2    0    0  0.00000000000E+00  0.00000000000E+00  0.43192210817E+03  0.73929175830E+03  0.59999633029E+03 0.  0.
        1    1    3    3  502    0  0.25933956166E+02  0.29805746574E+02 -0.15046521049E+03  0.15556584524E+03  0.50400001928E-02 0. -1.
       -1    1    3    3    0  502 -0.25933956166E+02 -0.29805746574E+02  0.58238731867E+03  0.58372591306E+03  0.50400001928E-02 0.  1.
</event>
<event>
 5   0  0.2406307E-03  0.5999371E+03  0.7818609E-02  0.9905536E-01
       -2   -1    0    0    0  501  0.00000000000E+00  0.00000000000E+00  0.11900580951E+03  0.11900580953E+03  0.25500000920E-02 0.  1.
        2   -1    0    0  501    0  0.00000000000E+00  0.00000000000E+00 -0.75610714345E+03  0.75610714346E+03  0.25500000920E-02 0. -1.
    10030    2    1    2    0    0  0.00000000000E+00  0.00000000000E+00 -0.63710133395E+03  0.87511295299E+03  0.59993713902E+03 0.  0.
        5    1    3    3  502    0  0.18774846770E+03  0.17360394495E+02  0.21693330972E+02  0.18985141829E+03  0.46999998093E+01 0.  1.
       -5    1    3    3    0  502 -0.18774846770E+03 -0.17360394495E+02 -0.65879466492E+03  0.68526153470E+03  0.46999998093E+01 0. -1.
</event>
<event>
 5   0  0.2346281E-03  0.6001418E+03  0.7818609E-02  0.9905112E-01
       -2   -1    0    0    0  501  0.00000000000E+00  0.00000000000E+00  0.49291008779E+02  0.49291008845E+02  0.25500000920E-02 0.  1.
        2   -1    0    0  501    0  0.00000000000E+00  0.00000000000E+00 -0.18267542016E+04  0.18267542016E+04  0.25500000920E-02 0. -1.
    10030    2    1    2    0    0  0.00000000000E+00  0.00000000000E+00 -0.17774631928E+04  0.18760452104E+04  0.60014184140E+03 0.  0.
        3    1    3    3  502    0  0.32193498563E+02 -0.97270379718E+02 -0.17703786134E+04  0.17733410256E+04  0.10100000352E+00 0. -1.
       -3    1    3    3    0  502 -0.32193498563E+02  0.97270379718E+02 -0.70845794391E+01  0.10270418486E+03  0.10100000352E+00 0.  1.
</event>
<event>
 5   0  0.1392854E-03  0.5998581E+03  0.7818609E-02  0.9905700E-01
       -1   -1    0    0    0  501  0.00000000000E+00  0.00000000000E+00  0.88218209534E+02  0.88218209678E+02  0.50400001928E-02 0. -1.
        1   -1    0    0  501    0  0.00000000000E+00  0.00000000000E+00 -0.10197151757E+04  0.10197151757E+04  0.50400001928E-02 0.  1.
    10030    2    1    2    0    0  0.00000000000E+00  0.00000000000E+00 -0.93149696620E+03  0.11079333854E+04  0.59985814031E+03 0.  0.
        4    1    3    3  502    0  0.19849936928E+03 -0.21792019207E+03 -0.36350074072E+03  0.46800172128E+03  0.12699999809E+01 0. -1.
       -4    1    3    3    0  502 -0.19849936928E+03  0.21792019207E+03 -0.56799622547E+03  0.63993166414E+03  0.12699999809E+01 0.  1.
</event>
<event>
 5   0  0.2421210E-03  0.5999050E+03  0.7818609E-02  0.9905603E-01
        2   -1    0    0  501    0  0.00000000000E+00  0.00000000000E+00  0.14183201983E+03  0.14183201985E+03  0.25500000920E-02 0. -1.
       -2   -1    0    0    0  501  0.00000000000E+00  0.00000000000E+00 -0.63435259714E+03  0.63435259714E+03  0.25500000920E-02 0.  1.
    10030    2    1    2    0    0  0.00000000000E+00  0.00000000000E+00 -0.49252057731E+03  0.77618461700E+03  0.59990502630E+03 0.  0.
        1    1    3    3  502    0 -0.12103536677E+02  0.24567769407E+03 -0.24157471418E+02  0.24715907512E+03  0.50400001928E-02 0. -1.
       -1    1    3    3    0  502  0.12103536677E+02 -0.24567769407E+03 -0.46836310589E+03  0.52902554187E+03  0.50400001928E-02 0.  1.
</event>
<event>
 5   0  0.1392854E-03  0.5998937E+03  0.7818609E-02  0.9905627E-01
        1   -1    0    0  501    0  0.00000000000E+00  0.00000000000E+00  0.48601991116E+03  0.48601991118E+03  0.50400001928E-02 0. -1.
       -1   -1    0    0    0  501  0.00000000000E+00  0.00000000000E+00 -0.18511196677E+03  0.18511196684E+03  0.50400001928E-02 0.  1.
    10030    2    1    2    0    0  0.00000000000E+00  0.00000000000E+00  0.30090794438E+03  0.67113187803E+03  0.59989366284E+03 0.  0.
        4    1    3    3  502    0 -0.15216311166E+03  0.20110223315E+03  0.33212889447E+03  0.41702150564E+03  0.12699999809E+01 0. -1.
       -4    1    3    3    0  502  0.15216311166E+03 -0.20110223315E+03 -0.31220950089E+02  0.25411037238E+03  0.12699999809E+01 0.  1.
</event>
<event>
 5   0  0.2346281E-03  0.5998988E+03  0.7818609E-02  0.9905616E-01
        2   -1    0    0  501    0  0.00000000000E+00  0.00000000000E+00  0.17363045138E+04  0.17363045138E+04  0.25500000920E-02 0.  1.
       -2   -1    0    0    0  501  0.00000000000E+00  0.00000000000E+00 -0.51816735595E+02  0.51816735658E+02  0.25500000920E-02 0. -1.
    10030    2    1    2    0    0  0.00000000000E+00  0.00000000000E+00  0.16844877782E+04  0.17881212495E+04  0.59989876467E+03 0.  0.
        3    1    3    3  502    0  0.19459376670E+03 -0.11728714487E+03  0.25855355164E+03  0.34419900879E+03  0.10100000352E+00 0. -1.
       -3    1    3    3    0  502 -0.19459376670E+03  0.11728714487E+03  0.14259342266E+04  0.14439222407E+04  0.10100000352E+00 0.  1.
</event>
<event>
 5   0  0.2324616E-03  0.5998555E+03  0.7818609E-02  0.9905706E-01
        2   -1    0    0  501    0  0.00000000000E+00  0.00000000000E+00  0.10633659048E+04  0.10633659048E+04  0.25500000920E-02 0. -1.
       -2   -1    0    0    0  501  0.00000000000E+00  0.00000000000E+00 -0.84596139452E+02  0.84596139491E+02  0.25500000920E-02 0.  1.
    10030    2    1    2    0    0  0.00000000000E+00  0.00000000000E+00  0.97876976530E+03  0.11479620442E+04  0.59985548390E+03 0.  0.
        4    1    3    3  502    0 -0.25118663519E+02  0.73921589865E+02  0.10435733943E+04  0.10464905116E+04  0.12699999809E+01 0. -1.
       -4    1    3    3    0  502  0.25118663519E+02 -0.73921589865E+02 -0.64803628995E+02  0.10147153264E+03  0.12699999809E+01 0.  1.
</event>
<event>
 5   0  0.1423430E-03  0.6012090E+03  0.7818609E-02  0.9902901E-01
       -1   -1    0    0    0  501  0.00000000000E+00  0.00000000000E+00  0.19164995717E+03  0.19164995723E+03  0.50400001928E-02 0.  1.
        1   -1    0    0  501    0  0.00000000000E+00  0.00000000000E+00 -0.47150054254E+03  0.47150054257E+03  0.50400001928E-02 0. -1.
    10030    2    1    2    0    0  0.00000000000E+00  0.00000000000E+00 -0.27985058537E+03  0.66315049980E+03  0.60120897802E+03 0.  0.
        1    1    3    3  502    0 -0.10949559590E+03 -0.27992434417E+03 -0.13549463176E+03  0.32970550381E+03  0.50400001928E-02 0.  1.
       -1    1    3    3    0  502  0.10949559590E+03  0.27992434417E+03 -0.14435595361E+03  0.33344499599E+03  0.50400001928E-02 0. -1.
</event>
<event>
 5   0  0.2421210E-03  0.5996983E+03  0.7818609E-02  0.9906032E-01
       -2   -1    0    0    0  501  0.00000000000E+00  0.00000000000E+00  0.64866356603E+02  0.64866356653E+02  0.25500000920E-02 0. -1.
        2   -1    0    0  501    0  0.00000000000E+00  0.00000000000E+00 -0.13860730656E+04  0.13860730656E+04  0.25500000920E-02 0.  1.
    10030    2    1    2    0    0  0.00000000000E+00  0.00000000000E+00 -0.13212067090E+04  0.14509394222E+04  0.59969829010E+03 0.  0.
        1    1    3    3  502    0 -0.53341281215E+02 -0.22946681977E+03 -0.11094042692E+04  0.11341420308E+04  0.50400001928E-02 0.  1.
       -1    1    3    3    0  502  0.53341281215E+02  0.22946681977E+03 -0.21180243980E+03  0.31679739138E+03  0.50400001928E-02 0. -1.
</event>
<event>
 5   0  0.1479385E-03  0.5996842E+03  0.7818609E-02  0.9906062E-01
        1   -1    0    0  501    0  0.00000000000E+00  0.00000000000E+00  0.33423369906E+03  0.33423369910E+03  0.50400001928E-02 0.  1.
       -1   -1    0    0    0  501  0.00000000000E+00  0.00000000000E+00 -0.26898924606E+03  0.26898924610E+03  0.50400001928E-02 0. -1.
    10030    2    1    2    0    0  0.00000000000E+00  0.00000000000E+00  0.65244453007E+02  0.60322294521E+03  0.59968415268E+03 0.  0.
        3    1    3    3  502    0  0.25062808614E+03 -0.25763801204E+02 -0.13090106479E+03  0.28392483157E+03  0.10100000352E+00 0. -1.
       -3    1    3    3    0  502 -0.25062808614E+03  0.25763801204E+02  0.19614551780E+03  0.31929811364E+03  0.10100000352E+00 0.  1.
</event>
<event>
 5   0  0.1418763E-03  0.6000104E+03  0.7818609E-02  0.9905384E-01
       -1   -1    0    0    0  501  0.00000000000E+00  0.00000000000E+00  0.41839443654E+03  0.41839443657E+03  0.50400001928E-02 0. -1.
        1   -1    0    0  501    0  0.00000000000E+00  0.00000000000E+00 -0.21511547865E+03  0.21511547871E+03  0.50400001928E-02 0.  1.
    10030    2    1    2    0    0  0.00000000000E+00  0.00000000000E+00  0.20327895789E+03  0.63350991528E+03  0.60001039827E+03 0.  0.
        5    1    3    3  502    0 -0.14691076998E+03  0.18487795852E+03 -0.93670512651E+02  0.25408441279E+03  0.46999998093E+01 0.  1.
       -5    1    3    3    0  502  0.14691076998E+03 -0.18487795852E+03  0.29694947054E+03  0.37942550249E+03  0.46999998093E+01 0. -1.
</event>
<event>
 5   0  0.1392854E-03  0.6001812E+03  0.7818609E-02  0.9905030E-01
        1   -1    0    0  501    0  0.00000000000E+00  0.00000000000E+00  0.76126850698E+03  0.76126850700E+03  0.50400001928E-02 0.  1.
       -1   -1    0    0    0  501  0.00000000000E+00  0.00000000000E+00 -0.11829514002E+03  0.11829514013E+03  0.50400001928E-02 0. -1.
    10030    2    1    2    0    0  0.00000000000E+00  0.00000000000E+00  0.64297336695E+03  0.87956364713E+03  0.60018118826E+03 0.  0.
        4    1    3    3  502    0 -0.26510412091E+03 -0.44105724669E+02  0.51715791180E+03  0.58282023688E+03  0.12699999809E+01 0. -1.
       -4    1    3    3    0  502  0.26510412091E+03  0.44105724669E+02  0.12581545515E+03  0.29674341025E+03  0.12699999809E+01 0.  1.
</event>
<event>
 5   0  0.1479385E-03  0.5998816E+03  0.7818609E-02  0.9905652E-01
       -1   -1    0    0    0  501  0.00000000000E+00  0.00000000000E+00  0.22054660369E+03  0.22054660375E+03  0.50400001928E-02 0. -1.
        1   -1    0    0  501    0  0.00000000000E+00  0.00000000000E+00 -0.40791596048E+03  0.40791596051E+03  0.50400001928E-02 0.  1.
    10030    2    1    2    0    0  0.00000000000E+00  0.00000000000E+00 -0.18736935679E+03  0.62846256425E+03  0.59988158732E+03 0.  0.
        3    1    3    3  502    0  0.17485239790E+03  0.28828391633E+02  0.15983666930E+03  0.23864661798E+03  0.10100000352E+00 0. -1.
       -3    1    3    3    0  502 -0.17485239790E+03 -0.28828391633E+02 -0.34720602609E+03  0.38981594628E+03  0.10100000352E+00 0.  1.
</event>
<event>
 5   0  0.1479385E-03  0.6002724E+03  0.7818609E-02  0.9904841E-01
       -1   -1    0    0    0  501  0.00000000000E+00  0.00000000000E+00  0.20262560176E+03  0.20262560182E+03  0.50400001928E-02 0. -1.
        1   -1    0    0  501    0  0.00000000000E+00  0.00000000000E+00 -0.44457234664E+03  0.44457234667E+03  0.50400001928E-02 0.  1.
    10030    2    1    2    0    0  0.00000000000E+00  0.00000000000E+00 -0.24194674488E+03  0.64719794849E+03  0.60027240248E+03 0.  0.
        3    1    3    3  502    0  0.63166243343E+01  0.93008320165E+02  0.18662051348E+03  0.20860890109E+03  0.10100000352E+00 0. -1.
       -3    1    3    3    0  502 -0.63166243343E+01 -0.93008320165E+02 -0.42856725835E+03  0.43858904740E+03  0.10100000352E+00 0.  1.
</event>
<event>
 5   0  0.1392854E-03  0.5999487E+03  0.7818609E-02  0.9905512E-01
        1   -1    0    0  501    0  0.00000000000E+00  0.00000000000E+00  0.74216455723E+03  0.74216455725E+03  0.50400001928E-02 0.  1.
       -1   -1    0    0    0  501  0.00000000000E+00  0.00000000000E+00 -0.12124618678E+03  0.12124618688E+03  0.50400001928E-02 0. -1.
    10030    2    1    2    0    0  0.00000000000E+00  0.00000000000E+00  0.62091837045E+03  0.86341074413E+03  0.59994873974E+03 0.  0.
        4    1    3    3  502    0 -0.43341226224E+02  0.47895646278E+02 -0.11111465928E+03  0.12853223421E+03  0.12699999809E+01 0. -1.
       -4    1    3    3    0  502  0.43341226224E+02 -0.47895646278E+02  0.73203302974E+03  0.73487850992E+03  0.12699999809E+01 0.  1.
</event>
<event>
 5   0  0.1479385E-03  0.6004013E+03  0.7818609E-02  0.9904574E-01
       -1   -1    0    0    0  501  0.00000000000E+00  0.00000000000E+00  0.26405939206E+03  0.26405939211E+03  0.50400001928E-02 0.  1.
        1   -1    0    0  501    0  0.00000000000E+00  0.00000000000E+00 -0.34128843055E+03  0.34128843059E+03  0.50400001928E-02 0. -1.
    10030    2    1    2    0    0  0.00000000000E+00  0.00000000000E+00 -0.77229038491E+02  0.60534782270E+03  0.60040125088E+03 0.  0.
        3    1    3    3  502    0 -0.32653627691E+02 -0.18575642257E+03 -0.27409536578E+03  0.33271607666E+03  0.10100000352E+00 0. -1.
       -3    1    3    3    0  502  0.32653627691E+02  0.18575642257E+03  0.19686632728E+03  0.27263174604E+03  0.10100000352E+00 0.  1.
</event>
<event>
 5   0  0.1423430E-03  0.6000566E+03  0.7818609E-02  0.9905289E-01
        1   -1    0    0  501    0  0.00000000000E+00  0.00000000000E+00  0.37689467604E+03  0.37689467608E+03  0.50400001928E-02 0.  1.
       -1   -1    0    0    0  501  0.00000000000E+00  0.00000000000E+00 -0.23883858530E+03  0.23883858535E+03  0.50400001928E-02 0. -1.
    10030    2    1    2    0    0  0.00000000000E+00  0.00000000000E+00  0.13805609074E+03  0.61573326143E+03  0.60005663486E+03 0.  0.
        1    1    3    3  502    0  0.16923922317E+03  0.18203024371E+03 -0.10341005637E+03  0.26920357365E+03  0.50400001928E-02 0. -1.
       -1    1    3    3    0  502 -0.16923922317E+03 -0.18203024371E+03  0.24146614711E+03  0.34652968778E+03  0.50400001928E-02 0.  1.
</event>
<event>
 5   0  0.1479385E-03  0.5998226E+03  0.7818609E-02  0.9905774E-01
        1   -1    0    0  501    0  0.00000000000E+00  0.00000000000E+00  0.11126481054E+04  0.11126481054E+04  0.50400001928E-02 0. -1.
       -1   -1    0    0    0  501  0.00000000000E+00  0.00000000000E+00 -0.80840285293E+02  0.80840285450E+02  0.50400001928E-02 0.  1.
    10030    2    1    2    0    0  0.00000000000E+00  0.00000000000E+00  0.10318078201E+04  0.11934883908E+04  0.59982260834E+03 0.  0.
        3    1    3    3  502    0  0.65460749432E+02 -0.17161651261E+03  0.98764098405E+03  0.10045755625E+04  0.10100000352E+00 0. -1.
       -3    1    3    3    0  502 -0.65460749432E+02  0.17161651261E+03  0.44166836017E+02  0.18891282836E+03  0.10100000352E+00 0.  1.
</event>
<event>
 5   0  0.2346281E-03  0.6005664E+03  0.7818609E-02  0.9904232E-01
        2   -1    0    0  501    0  0.00000000000E+00  0.00000000000E+00  0.13026950661E+04  0.13026950661E+04  0.25500000920E-02 0.  1.
       -2   -1    0    0    0  501  0.00000000000E+00  0.00000000000E+00 -0.69218052074E+02  0.69218052121E+02  0.25500000920E-02 0. -1.
    10030    2    1    2    0    0  0.00000000000E+00  0.00000000000E+00  0.12334770140E+04  0.13719131182E+04  0.60056644912E+03 0.  0.
        3    1    3    3  502    0 -0.15373463917E+03  0.22285185505E+03  0.91346617458E+03  0.95274222688E+03  0.10100000352E+00 0.  1.
       -3    1    3    3    0  502  0.15373463917E+03 -0.22285185505E+03  0.32001083940E+03  0.41917089130E+03  0.10100000352E+00 0. -1.
</event>
<event>
 5   0  0.2313168E-03  0.6000138E+03  0.7818609E-02  0.9905377E-01
        2   -1    0    0  501    0  0.00000000000E+00  0.00000000000E+00  0.23778022939E+04  0.23778022939E+04  0.25500000920E-02 0. -1.
       -2   -1    0    0    0  501  0.00000000000E+00  0.00000000000E+00 -0.37851823265E+02  0.37851823351E+02  0.25500000920E-02 0.  1.
    10030    2    1    2    0    0  0.00000000000E+00  0.00000000000E+00  0.23399504707E+04  0.24156541173E+04  0.60001384082E+03 0.  0.
        2    1    3    3  502    0  0.54774844870E+02 -0.54002279172E+02  0.25219314990E+01  0.76960314002E+02  0.25500000920E-02 0.  1.
       -2    1    3    3    0  502 -0.54774844870E+02  0.54002279172E+02  0.23374285392E+04  0.23386938033E+04  0.25500000920E-02 0. -1.
</event>
<event>
 5   0  0.1418763E-03  0.5991688E+03  0.7818609E-02  0.9907132E-01
       -1   -1    0    0    0  501  0.00000000000E+00  0.00000000000E+00  0.24172950460E+03  0.24172950465E+03  0.50400001928E-02 0. -1.
        1   -1    0    0  501    0  0.00000000000E+00  0.00000000000E+00 -0.37128617661E+03  0.37128617664E+03  0.50400001928E-02 0.  1.
    10030    2    1    2    0    0  0.00000000000E+00  0.00000000000E+00 -0.12955667201E+03  0.61301568130E+03  0.59916883618E+03 0.  0.
        5    1    3    3  502    0  0.44066925629E+02  0.18011017240E+03 -0.30547499337E+03  0.35737743313E+03  0.46999998093E+01 0.  1.
       -5    1    3    3    0  502 -0.44066925629E+02 -0.18011017240E+03  0.17591832136E+03  0.25563824817E+03  0.46999998093E+01 0. -1.
</event>
<event>
 5   0  0.2346281E-03  0.5999568E+03  0.7818609E-02  0.9905496E-01
        2   -1    0    0  501    0  0.00000000000E+00  0.00000000000E+00  0.15883679576E+04  0.15883679576E+04  0.25500000920E-02 0.  1.
       -2   -1    0    0    0  501  0.00000000000E+00  0.00000000000E+00 -0.56653773505E+02  0.56653773563E+02  0.25500000920E-02 0. -1.
    10030    2    1    2    0    0  0.00000000000E+00  0.00000000000E+00  0.15317141841E+04  0.16450217311E+04  0.59995679364E+03 0.  0.
        3    1    3    3  502    0  0.18318110159E+03 -0.23516660702E+03  0.67375293673E+03  0.73675075771E+03  0.10100000352E+00 0. -1.
       -3    1    3    3    0  502 -0.18318110159E+03  0.23516660702E+03  0.85796124733E+03  0.90827097342E+03  0.10100000352E+00 0.  1.
</event>
<event>
 5   0  0.2421210E-03  0.6000622E+03  0.7818609E-02  0.9905277E-01
        2   -1    0    0  501    0  0.00000000000E+00  0.00000000000E+00  0.12358056148E+04  0.12358056148E+04  0.25500000920E-02 0. -1.
       -2   -1    0    0    0  501  0.00000000000E+00  0.00000000000E+00 -0.72842079975E+02  0.72842080020E+02  0.25500000920E-02 0.  1.
    10030    2    1    2    0    0  0.00000000000E+00  0.00000000000E+00  0.11629635348E+04  0.13086476948E+04  0.60006216831E+03 0.  0.
        1    1    3    3  502    0  0.11615852879E+03  0.13174137980E+03  0.50991415917E+02  0.18288991083E+03  0.50400001928E-02 0.  1.
       -1    1    3    3    0  502 -0.11615852879E+03 -0.13174137980E+03  0.11119721189E+04  0.11257577840E+04  0.50400001928E-02 0. -1.
</event>
<event>
 5   0  0.2324616E-03  0.6002044E+03  0.7818609E-02  0.9904982E-01
        2   -1    0    0  501    0  0.00000000000E+00  0.00000000000E+00  0.54598758434E+03  0.54598758434E+03  0.25500000920E-02 0.  1.
       -2   -1    0    0    0  501  0.00000000000E+00  0.00000000000E+00 -0.16495123111E+03  0.16495123113E+03  0.25500000920E-02 0. -1.
    10030    2    1    2    0    0  0.00000000000E+00  0.00000000000E+00  0.38103635323E+03  0.71093881547E+03  0.60020437925E+03 0.  0.
        4    1    3    3  502    0  0.45777400702E+02 -0.28737623876E+02 -0.15913508413E+03  0.16806846624E+03  0.12699999809E+01 0. -1.
       -4    1    3    3    0  502 -0.45777400702E+02  0.28737623876E+02  0.54017143736E+03  0.54287034924E+03  0.12699999809E+01 0.  1.
</event>
<event>
 5   0  0.2313168E-03  0.6003020E+03  0.7818609E-02  0.9904780E-01
       -2   -1    0    0    0  501  0.00000000000E+00  0.00000000000E+00  0.21386573174E+03  0.21386573175E+03  0.25500000920E-02 0.  1.
        2   -1    0    0  501    0  0.00000000000E+00  0.00000000000E+00 -0.42124845418E+03  0.42124845419E+03  0.25500000920E-02 0. -1.
    10030    2    1    2    0    0  0.00000000000E+00  0.00000000000E+00 -0.20738272244E+03  0.63511418594E+03  0.60030195370E+03 0.  0.
        2    1    3    3  502    0 -0.21784222185E+03 -0.19652474895E+03 -0.36666150350E+02  0.29567146829E+03  0.25500000920E-02 0.  1.
       -2    1    3    3    0  502  0.21784222185E+03  0.19652474895E+03 -0.17071657209E+03  0.33944271765E+03  0.25500000920E-02 0. -1.
</event>
<event>
 5   0  0.1418763E-03  0.6001407E+03  0.7818609E-02  0.9905114E-01
        1   -1    0    0  501    0  0.00000000000E+00  0.00000000000E+00  0.56973103598E+03  0.56973103600E+03  0.50400001928E-02 0. -1.
       -1   -1    0    0    0  501  0.00000000000E+00  0.00000000000E+00 -0.15804335691E+03  0.15804335699E+03  0.50400001928E-02 0.  1.
    10030    2    1    2    0    0  0.00000000000E+00  0.00000000000E+00  0.41168767907E+03  0.72777439299E+03  0.60014066851E+03 0.  0.
        5    1    3    3  502    0  0.56758582254E+02 -0.19530149942E+03  0.47333626102E+03  0.51520240521E+03  0.46999998093E+01 0. -1.
       -5    1    3    3    0  502 -0.56758582254E+02  0.19530149942E+03 -0.61648581955E+02  0.21257198779E+03  0.46999998093E+01 0.  1.
</event>
<event>
 5   0  0.2313168E-03  0.6017760E+03  0.7818609E-02  0.9901728E-01
        2   -1    0    0  501    0  0.00000000000E+00  0.00000000000E+00  0.45753565960E+03  0.45753565961E+03  0.25500000920E-02 0.  1.
       -2   -1    0    0    0  501  0.00000000000E+00  0.00000000000E+00 -0.19787221225E+03  0.19787221227E+03  0.25500000920E-02 0. -1.
    10030    2    1    2    0    0  0.00000000000E+00  0.00000000000E+00  0.25966344735E+03  0.65540787188E+03  0.60177601533E+03 0.  0.
        2    1    3    3  502    0 -0.44335931550E+02 -0.16982809855E+03 -0.13633864911E+03  0.22225095079E+03  0.25500000920E-02 0.  1.
       -2    1    3    3    0  502  0.44335931550E+02  0.16982809855E+03  0.39600209645E+03  0.43315692108E+03  0.25500000920E-02 0. -1.
</event>
<event>
 5   0  0.1418763E-03  0.5998099E+03  0.7818609E-02  0.9905801E-01
       -1   -1    0    0    0  501  0.00000000000E+00  0.00000000000E+00  0.41688711186E+03  0.41688711189E+03  0.50400001928E-02 0. -1.
        1   -1    0    0  501    0  0.00000000000E+00  0.00000000000E+00 -0.21574898962E+03  0.21574898968E+03  0.50400001928E-02 0.  1.
    10030    2    1    2    0    0  0.00000000000E+00  0.00000000000E+00  0.20113812224E+03  0.63263610157E+03  0.59980988054E+03 0.  0.
        5    1    3    3  502    0  0.23517011602E+03  0.53671092587E+02 -0.87324437301E+02  0.25657984527E+03  0.46999998093E+01 0.  1.
       -5    1    3    3    0  502 -0.23517011602E+03 -0.53671092587E+02  0.28846255954E+03  0.37605625630E+03  0.46999998093E+01 0. -1.
</event>
<event>
 5   0  0.1416315E-03  0.6002659E+03  0.7818609E-02  0.9904855E-01
        1   -1    0    0  501    0  0.00000000000E+00  0.00000000000E+00  0.28570233764E+04  0.28570233764E+04  0.50400001928E-02 0.  1.
       -1   -1    0    0    0  501  0.00000000000E+00  0.00000000000E+00 -0.31529246432E+02  0.31529246835E+02  0.50400001928E-02 0. -1.
    10030    2    1    2    0    0  0.00000000000E+00  0.00000000000E+00  0.28254941300E+04  0.28885526233E+04  0.60026592335E+03 0.  0.
        2    1    3    3  502    0 -0.15976344519E+03  0.23824140270E+03  0.18376459669E+04  0.18598994661E+04  0.25500000920E-02 0.  1.
       -2    1    3    3    0  502  0.15976344519E+03 -0.23824140270E+03  0.98784816308E+03  0.10286531571E+04  0.25500000920E-02 0. -1.
</event>
<event>
 5   0  0.1416315E-03  0.6001818E+03  0.7818609E-02  0.9905029E-01
       -1   -1    0    0    0  501  0.00000000000E+00  0.00000000000E+00  0.12750230141E+03  0.12750230151E+03  0.50400001928E-02 0. -1.
        1   -1    0    0  501    0  0.00000000000E+00  0.00000000000E+00 -0.70629742377E+03  0.70629742379E+03  0.50400001928E-02 0.  1.
    10030    2    1    2    0    0  0.00000000000E+00  0.00000000000E+00 -0.57879512236E+03  0.83379972530E+03  0.60018179599E+03 0.  0.
        2    1    3    3  502    0 -0.29938973964E+03 -0.17848832154E+01 -0.26102343646E+03  0.39720352012E+03  0.25500000920E-02 0.  1.
       -2    1    3    3    0  502  0.29938973964E+03  0.17848832154E+01 -0.31777168590E+03  0.43659620518E+03  0.25500000920E-02 0. -1.
</event>
<event>
 5   0  0.1416315E-03  0.6000451E+03  0.7818609E-02  0.9905313E-01
       -1   -1    0    0    0  501  0.00000000000E+00  0.00000000000E+00  0.16816247452E+03  0.16816247459E+03  0.50400001928E-02 0.  1.
        1   -1    0    0  501    0  0.00000000000E+00  0.00000000000E+00 -0.53527708726E+03  0.53527708728E+03  0.50400001928E-02 0. -1.
    10030    2    1    2    0    0  0.00000000000E+00  0.00000000000E+00 -0.36711461274E+03  0.70343956188E+03  0.60004506358E+03 0.  0.
        2    1    3    3  502    0 -0.21558967942E+03 -0.20443070022E+03 -0.23249618935E+03  0.37726025385E+03  0.25500000920E-02 0. -1.
       -2    1    3    3    0  502  0.21558967942E+03  0.20443070022E+03 -0.13461842339E+03  0.32617930803E+03  0.25500000920E-02 0.  1.
</event>
<event>
 5   0  0.2421210E-03  0.5997063E+03  0.7818609E-02  0.9906016E-01
       -2   -1    0    0    0  501  0.00000000000E+00  0.00000000000E+00  0.32064270531E+03  0.32064270532E+03  0.25500000920E-02 0. -1.
        2   -1    0    0  501    0  0.00000000000E+00  0.00000000000E+00 -0.28041150348E+03  0.28041150349E+03  0.25500000920E-02 0.  1.
    10030    2    1    2    0    0  0.00000000000E+00  0.00000000000E+00  0.40231201834E+02  0.60105420881E+03  0.59970627171E+03 0.  0.
        1    1    3    3  502    0 -0.13698982040E+03 -0.24439172052E+03  0.12721259484E+03  0.30769557726E+03  0.50400001928E-02 0.  1.
       -1    1    3    3    0  502  0.13698982040E+03  0.24439172052E+03 -0.86981393007E+02  0.29335863155E+03  0.50400001928E-02 0. -1.
</event>
<event>
 5   0  0.2324616E-03  0.6001773E+03  0.7818609E-02  0.9905038E-01
        2   -1    0    0  501    0  0.00000000000E+00  0.00000000000E+00  0.16622995339E+04  0.16622995339E+04  0.25500000920E-02 0.  1.
       -2   -1    0    0    0  501  0.00000000000E+00  0.00000000000E+00 -0.54173862623E+02  0.54173862683E+02  0.25500000920E-02 0. -1.
    10030    2    1    2    0    0  0.00000000000E+00  0.00000000000E+00  0.16081256713E+04  0.17164733966E+04  0.60017726262E+03 0.  0.
        4    1    3    3  502    0 -0.14969169565E+02 -0.10454452589E+03  0.73952415978E+00  0.10562099094E+03  0.12699999809E+01 0. -1.
       -4    1    3    3    0  502  0.14969169565E+02  0.10454452589E+03  0.16073861471E+04  0.16108524057E+04  0.12699999809E+01 0.  1.
</event>
<event>
 5   0  0.9496750E-04  0.6002006E+03  0.7818609E-02  0.9904990E-01
        3   -1    0    0  501    0  0.00000000000E+00  0.00000000000E+00  0.13597790477E+03  0.13597794228E+03  0.10100000352E+00 0. -1.
       -3   -1    0    0    0  501  0.00000000000E+00  0.00000000000E+00 -0.66231477764E+03  0.66231478534E+03  0.10100000352E+00 0.  1.
    10030    2    1    2    0    0  0.00000000000E+00  0.00000000000E+00 -0.52633687286E+03  0.79829272762E+03  0.60020061249E+03 0.  0.
        3    1    3    3  502    0 -0.10178839612E+02  0.16514954984E+03 -0.59616354764E+03  0.61869941678E+03  0.10100000352E+00 0.  1.
       -3    1    3    3    0  502  0.10178839612E+02 -0.16514954984E+03  0.69826674775E+02  0.17959331084E+03  0.10100000352E+00 0. -1.
</event>
<event>
 5   0  0.1479385E-03  0.6000312E+03  0.7818609E-02  0.9905341E-01
        1   -1    0    0  501    0  0.00000000000E+00  0.00000000000E+00  0.11423070638E+04  0.11423070638E+04  0.50400001928E-02 0.  1.
       -1   -1    0    0    0  501  0.00000000000E+00  0.00000000000E+00 -0.78796104508E+02  0.78796104669E+02  0.50400001928E-02 0. -1.
    10030    2    1    2    0    0  0.00000000000E+00  0.00000000000E+00  0.10635109593E+04  0.12211031685E+04  0.60003115548E+03 0.  0.
        3    1    3    3  502    0 -0.20099485591E+03  0.12435887002E+03  0.15570697054E+03  0.28303485921E+03  0.10100000352E+00 0. -1.
       -3    1    3    3    0  502  0.20099485591E+03 -0.12435887002E+03  0.90780398877E+03  0.93806830928E+03  0.10100000352E+00 0.  1.
</event>
<event>
 5   0  0.2346281E-03  0.6001827E+03  0.7818609E-02  0.9905027E-01
       -2   -1    0    0    0  501  0.00000000000E+00  0.00000000000E+00  0.12472702498E+03  0.12472702501E+03  0.25500000920E-02 0. -1.
        2   -1    0    0  501    0  0.00000000000E+00  0.00000000000E+00 -0.72201523476E+03  0.72201523476E+03  0.25500000920E-02 0.  1.
    10030    2    1    2    0    0  0.00000000000E+00  0.00000000000E+00 -0.59728820977E+03  0.84674225977E+03  0.60018267965E+03 0.  0.
        3    1    3    3  502    0  0.84543568505E+02 -0.27751356348E+03 -0.40694974499E+03  0.49976944489E+03  0.10100000352E+00 0.  1.
       -3    1    3    3    0  502 -0.84543568505E+02  0.27751356348E+03 -0.19033846478E+03  0.34697281489E+03  0.10100000352E+00 0. -1.
</event>
<event>
 5   0  0.1479385E-03  0.5992897E+03  0.7818609E-02  0.9906881E-01
        1   -1    0    0  501    0  0.00000000000E+00  0.00000000000E+00  0.40900144879E+03  0.40900144882E+03  0.50400001928E-02 0. -1.
       -1   -1    0    0    0  501  0.00000000000E+00  0.00000000000E+00 -0.21952739301E+03  0.21952739307E+03  0.50400001928E-02 0.  1.
    10030    2    1    2    0    0  0.00000000000E+00  0.00000000000E+00  0.18947405578E+03  0.62852884189E+03  0.59928965224E+03 0.  0.
        3    1    3    3  502    0  0.17882247357E+03  0.23938167868E+03  0.11832772210E+03  0.32137598721E+03  0.10100000352E+00 0. -1.
       -3    1    3    3    0  502 -0.17882247357E+03 -0.23938167868E+03  0.71146333678E+02  0.30715285468E+03  0.10100000352E+00 0.  1.
</event>
<event>
 5   0  0.1416315E-03  0.6000119E+03  0.7818609E-02  0.9905381E-01
       -1   -1    0    0    0  501  0.00000000000E+00  0.00000000000E+00  0.18590177728E+03  0.18590177734E+03  0.50400001928E-02 0. -1.
        1   -1    0    0  501    0  0.00000000000E+00  0.00000000000E+00 -0.48414582058E+03  0.48414582061E+03  0.50400001928E-02 0.  1.
    10030    2    1    2    0    0  0.00000000000E+00  0.00000000000E+00 -0.29824404331E+03  0.67004759795E+03  0.60001189501E+03 0.  0.
        2    1    3    3  502    0  0.13255149366E+03 -0.21924883016E+02 -0.44867259531E+03  0.46835637794E+03  0.25500000920E-02 0.  1.
       -2    1    3    3    0  502 -0.13255149366E+03  0.21924883016E+02  0.15042855200E+03  0.20169122001E+03  0.25500000920E-02 0. -1.
</event>
<event>
 5   0  0.2313168E-03  0.6000843E+03  0.7818609E-02  0.9905231E-01
       -2   -1    0    0    0  501  0.00000000000E+00  0.00000000000E+00  0.32271740774E+03  0.32271740775E+03  0.25500000920E-02 0.  1.
        2   -1    0    0  501    0  0.00000000000E+00  0.00000000000E+00 -0.27896009164E+03  0.27896009165E+03  0.25500000920E-02 0. -1.
    10030    2    1    2    0    0  0.00000000000E+00  0.00000000000E+00  0.43757316103E+02  0.60167749939E+03  0.60008425289E+03 0.  0.
        2    1    3    3  502    0 -0.24251802815E+03  0.17537925504E+03  0.43204839829E+02  0.30238970761E+03  0.25500000920E-02 0.  1.
       -2    1    3    3    0  502  0.24251802815E+03 -0.17537925504E+03  0.55247627335E+00  0.29928779179E+03  0.25500000920E-02 0. -1.
</event>
<event>
 5   0  0.1418763E-03  0.5970591E+03  0.7818609E-02  0.9911526E-01
        1   -1    0    0  501    0  0.00000000000E+00  0.00000000000E+00  0.21455245524E+03  0.21455245529E+03  0.50400001928E-02 0. -1.
       -1   -1    0    0    0  501  0.00000000000E+00  0.00000000000E+00 -0.41537579491E+03  0.41537579494E+03  0.50400001928E-02 0.  1.
    10030    2    1    2    0    0  0.00000000000E+00  0.00000000000E+00 -0.20082333967E+03  0.62992825023E+03  0.59705911490E+03 0.  0.
        5    1    3    3  502    0 -0.18208472226E+03  0.17145977925E+03  0.71482467858E+02  0.26016367000E+03  0.46999998093E+01 0. -1.
       -5    1    3    3    0  502  0.18208472226E+03 -0.17145977925E+03 -0.27230580753E+03  0.36976458023E+03  0.46999998093E+01 0.  1.
</event>
<event>
 5   0  0.1392854E-03  0.5996812E+03  0.7818609E-02  0.9906068E-01
        1   -1    0    0  501    0  0.00000000000E+00  0.00000000000E+00  0.69411254972E+03  0.69411254974E+03  0.50400001928E-02 0.  1.
       -1   -1    0    0    0  501  0.00000000000E+00  0.00000000000E+00 -0.12952421351E+03  0.12952421361E+03  0.50400001928E-02 0. -1.
    10030    2    1    2    0    0  0.00000000000E+00  0.00000000000E+00  0.56458833621E+03  0.82363676335E+03  0.59968118910E+03 0.  0.
        4    1    3    3  502    0 -0.23288307744E+03 -0.17817897627E+03  0.19629669538E+03  0.35286864533E+03  0.12699999809E+01 0. -1.
       -4    1    3    3    0  502  0.23288307744E+03  0.17817897627E+03  0.36829164083E+03  0.47076811802E+03  0.12699999809E+01 0.  1.
</event>
<event>
 5   0  0.2324616E-03  0.5997860E+03  0.7818609E-02  0.9905850E-01
        2   -1    0    0  501    0  0.00000000000E+00  0.00000000000E+00  0.51816737580E+03  0.51816737580E+03  0.25500000920E-02 0. -1.
       -2   -1    0    0    0  501  0.00000000000E+00  0.00000000000E+00 -0.17356515246E+03  0.17356515247E+03  0.25500000920E-02 0.  1.
    10030    2    1    2    0    0  0.00000000000E+00  0.00000000000E+00  0.34460222334E+03  0.69173252828E+03  0.59978596044E+03 0.  0.
        4    1    3    3  502    0  0.42805393160E+02  0.41271265127E+02  0.51129758037E+03  0.51474503164E+03  0.12699999809E+01 0. -1.
       -4    1    3    3    0  502 -0.42805393160E+02 -0.41271265127E+02 -0.16669535703E+03  0.17698749663E+03  0.12699999809E+01 0.  1.
</event>
<event>
 5   0  0.1423430E-03  0.5993197E+03  0.7818609E-02  0.9906818E-01
       -1   -1    0    0    0  501  0.00000000000E+00  0.00000000000E+00  0.57070696587E+02  0.57070696810E+02  0.50400001928E-02 0. -1.
        1   -1    0    0  501    0  0.00000000000E+00  0.00000000000E+00 -0.15734174153E+04  0.15734174153E+04  0.50400001928E-02 0.  1.
    10030    2    1    2    0    0  0.00000000000E+00  0.00000000000E+00 -0.15163467187E+04  0.16304881121E+04  0.59931970800E+03 0.  0.
        1    1    3    3  502    0  0.48727063330E+02  0.14606941219E+03 -0.14575513027E+04  0.14656624440E+04  0.50400001928E-02 0.  1.
       -1    1    3    3    0  502 -0.48727063330E+02 -0.14606941219E+03 -0.58795415993E+02  0.16482566805E+03  0.50400001928E-02 0. -1.
</event>
<event>
 5   0  0.2324616E-03  0.5998515E+03  0.7818609E-02  0.9905714E-01
        2   -1    0    0  501    0  0.00000000000E+00  0.00000000000E+00  0.81584295871E+03  0.81584295872E+03  0.25500000920E-02 0.  1.
       -2   -1    0    0    0  501  0.00000000000E+00  0.00000000000E+00 -0.11026074325E+03  0.11026074328E+03  0.25500000920E-02 0. -1.
    10030    2    1    2    0    0  0.00000000000E+00  0.00000000000E+00  0.70558221547E+03  0.92610370199E+03  0.59985148501E+03 0.  0.
        4    1    3    3  502    0 -0.41441598286E+02 -0.55990814157E+02  0.80317659656E+03  0.80619267890E+03  0.12699999809E+01 0.  1.
       -4    1    3    3    0  502  0.41441598286E+02  0.55990814157E+02 -0.97594381099E+02  0.11991102310E+03  0.12699999809E+01 0. -1.
</event>
<event>
 5   0  0.2406307E-03  0.6001300E+03  0.7818609E-02  0.9905136E-01
       -2   -1    0    0    0  501  0.00000000000E+00  0.00000000000E+00  0.18441502556E+03  0.18441502558E+03  0.25500000920E-02 0. -1.
        2   -1    0    0  501    0  0.00000000000E+00  0.00000000000E+00 -0.48824107659E+03  0.48824107659E+03  0.25500000920E-02 0.  1.
    10030    2    1    2    0    0  0.00000000000E+00  0.00000000000E+00 -0.30382605103E+03  0.67265610217E+03  0.60012995468E+03 0.  0.
        5    1    3    3  502    0  0.20936356255E+03  0.13257130021E+01  0.88957880831E+02  0.22753121412E+03  0.46999998093E+01 0. -1.
       -5    1    3    3    0  502 -0.20936356255E+03 -0.13257130021E+01 -0.39278393186E+03  0.44512488805E+03  0.46999998093E+01 0.  1.
</event>
<event>
 5   0  0.1392854E-03  0.6001886E+03  0.7818609E-02  0.9905015E-01
        1   -1    0    0  501    0  0.00000000000E+00  0.00000000000E+00  0.43292034605E+03  0.43292034608E+03  0.50400001928E-02 0. -1.
       -1   -1    0    0    0  501  0.00000000000E+00  0.00000000000E+00 -0.20802118372E+03  0.20802118378E+03  0.50400001928E-02 0.  1.
    10030    2    1    2    0    0  0.00000000000E+00  0.00000000000E+00  0.22489916233E+03  0.64094152986E+03  0.60018864658E+03 0.  0.
        4    1    3    3  502    0 -0.29464365842E+03  0.38268090167E+02  0.15744934902E+03  0.33626067653E+03  0.12699999809E+01 0. -1.
       -4    1    3    3    0  502  0.29464365842E+03 -0.38268090167E+02  0.67449813314E+02  0.30468085333E+03  0.12699999809E+01 0.  1.
</event>
<event>
 5   0  0.2406307E-03  0.5954685E+03  0.7818609E-02  0.9914852E-01
        2   -1    0    0  501    0  0.00000000000E+00  0.00000000000E+00  0.16620902162E+04  0.16620902162E+04  0.25500000920E-02 0.  1.
       -2   -1    0    0    0  501  0.00000000000E+00  0.00000000000E+00 -0.53333850708E+02  0.53333850769E+02  0.25500000920E-02 0. -1.
    10030    2    1    2    0    0  0.00000000000E+00  0.00000000000E+00  0.16087563655E+04  0.17154240670E+04  0.59546845931E+03 0.  0.
        5    1    3    3  502    0 -0.18050823339E+03 -0.20758942535E+03  0.11321692670E+04  0.11651205650E+04  0.46999998093E+01 0.  1.
       -5    1    3    3    0  502  0.18050823339E+03  0.20758942535E+03  0.47658709852E+03  0.55030350200E+03  0.46999998093E+01 0. -1.
</event>
<event>
 5   0  0.9496750E-04  0.6001014E+03  0.7818609E-02  0.9905196E-01
        4   -1    0    0  501    0  0.00000000000E+00  0.00000000000E+00  0.35169291144E+03  0.35169520448E+03  0.12699999809E+01 0. -1.
       -4   -1    0    0    0  501  0.00000000000E+00  0.00000000000E+00 -0.25598687688E+03  0.25599002722E+03  0.12699999809E+01 0.  1.
    10030    2    1    2    0    0  0.00000000000E+00  0.00000000000E+00  0.95706034556E+02  0.60768523170E+03  0.60010140457E+03 0.  0.
        1    1    3    3  502    0 -0.17499376721E+03  0.20697174434E+03 -0.82499450012E+02  0.28331304381E+03  0.50400001928E-02 0.  1.
       -1    1    3    3    0  502  0.17499376721E+03 -0.20697174434E+03  0.17820548457E+03  0.32437218788E+03  0.50400001928E-02 0. -1.
</event>
<event>
 5   0  0.9496750E-04  0.5998615E+03  0.7818609E-02  0.9905694E-01
       -3   -1    0    0    0  501  0.00000000000E+00  0.00000000000E+00  0.13074335527E+04  0.13074335566E+04  0.10100000352E+00 0.  1.
        3   -1    0    0  501    0  0.00000000000E+00  0.00000000000E+00 -0.68805325745E+02  0.68805399874E+02  0.10100000352E+00 0. -1.
    10030    2    1    2    0    0  0.00000000000E+00  0.00000000000E+00  0.12386282269E+04  0.13762389565E+04  0.59986146793E+03 0.  0.
        3    1    3    3  502    0 -0.29719592792E+03  0.31074058099E+02  0.56004315623E+03  0.63477504968E+03  0.10100000352E+00 0. -1.
       -3    1    3    3    0  502  0.29719592792E+03 -0.31074058099E+02  0.67858507072E+03  0.74146390678E+03  0.10100000352E+00 0.  1.
</event>
<event>
 5   0  0.2313168E-03  0.5998910E+03  0.7818609E-02  0.9905632E-01
        2   -1    0    0  501    0  0.00000000000E+00  0.00000000000E+00  0.91568445784E+03  0.91568445785E+03  0.25500000920E-02 0.  1.
       -2   -1    0    0    0  501  0.00000000000E+00  0.00000000000E+00 -0.98251428762E+02  0.98251428795E+02  0.25500000920E-02 0. -1.
    10030    2    1    2    0    0  0.00000000000E+00  0.00000000000E+00  0.81743302908E+03  0.10139358866E+04  0.59989101109E+03 0.  0.
        2    1    3    3  502    0  0.42019166607E+02 -0.21122366607E+03  0.76158505147E+03  0.79144983297E+03  0.25500000920E-02 0.  1.
       -2    1    3    3    0  502 -0.42019166607E+02  0.21122366607E+03  0.55847977606E+02  0.22248605367E+03  0.25500000920E-02 0. -1.
</event>
<event>
 5   0  0.1479385E-03  0.5998722E+03  0.7818609E-02  0.9905671E-01
       -1   -1    0    0    0  501  0.00000000000E+00  0.00000000000E+00  0.79184708357E+03  0.79184708358E+03  0.50400001928E-02 0.  1.
        1   -1    0    0  501    0  0.00000000000E+00  0.00000000000E+00 -0.11360989618E+03  0.11360989629E+03  0.50400001928E-02 0. -1.
    10030    2    1    2    0    0  0.00000000000E+00  0.00000000000E+00  0.67823718739E+03  0.90545697987E+03  0.59987220309E+03 0.  0.
        3    1    3    3  502    0 -0.11641248415E+02  0.26041054995E+03  0.11517245122E+03  0.28498048514E+03  0.10100000352E+00 0. -1.
       -3    1    3    3    0  502  0.11641248415E+02 -0.26041054995E+03  0.56306473617E+03  0.62047649473E+03  0.10100000352E+00 0.  1.
</event>
</LesHouchesEvents>
