<LesHouchesEvents version="3.0">
<header>
<!--
#*********************************************************************
#                                                                    *
#                        MadGraph5_aMC@NLO                           *
#                                                                    *
#                           Going Beyond                             *
#                                                                    *
#                   http://madgraph.hep.uiuc.edu                     *
#                   http://madgraph.phys.ucl.ac.be                   *
#                   http://amcatnlo.cern.ch                          *
#                                                                    *
#                     The MadGraph5_aMC@NLO team                     *
#                                                                    *
#....................................................................*
#                                                                    *
# This file contains all the information necessary to reproduce      *
# the events generated:                                              *
#                                                                    *
# 1. software version                                                *
# 2. proc_card          : code generation info including model       *
# 3. param_card         : model primary parameters in the LH format  *
# 4. run_card           : running parameters (collider and cuts)     *
# 5. pythia_card        : present only if pythia has been run        *
# 6. pgs_card           : present only if pgs has been run           *
# 7. delphes_cards      : present only if delphes has been run       *
#                                                                    *
#                                                                    *
#*********************************************************************
-->
<MGVersion>
#5.2.2.3
</MGVersion>
<MG5ProcCard>
#************************************************************
#*                     MadGraph5_aMC@NLO                    *
#*                                                          *
#*                *                       *                 *
#*                  *        * *        *                   *
#*                    * * * * 5 * * * *                     *
#*                  *        * *        *                   *
#*                *                       *                 *
#*                                                          *
#*                                                          *
#*         VERSION 2.2.3                 2015-02-10         *
#*                                                          *
#*    The MadGraph5_aMC@NLO Development Team - Find us at   *
#*    https://server06.fynu.ucl.ac.be/projects/madgraph     *
#*                                                          *
#************************************************************
#*                                                          *
#*               Command File for MadGraph5_aMC@NLO         *
#*                                                          *
#*     run as ./bin/mg5_aMC  filename                       *
#*                                                          *
#************************************************************
set group_subprocesses Auto
set ignore_six_quark_processes False
set loop_optimized_output True
set gauge unitary
set complex_mass_scheme False
import model sm
define p = g u c d s u~ c~ d~ s~
define j = g u c d s u~ c~ d~ s~
define l+ = e+ mu+
define l- = e- mu-
define vl = ve vm vt
define vl~ = ve~ vm~ vt~
import model Zprime_UFO
generate p p > zph, zph > j j
add process p p > zph, zph > b b~
output Dijet_signal
</MG5ProcCard>
<MGProcCard>
#*********************************************************************
#                        MadGraph/MadEvent                           *
#                   http://madgraph.hep.uiuc.edu                     *
#                                                                    *
#                          proc_card.dat                             *
#*********************************************************************
#                                                                    *
#            This Files is generated by MADGRAPH 5                   *
#                                                                    *
# WARNING: This Files is generated for MADEVENT (compatibility issue)*
#          This files is NOT a valid MG4 proc_card.dat               *
#          Running this in MG4 will NEVER reproduce the result of MG5*
#                                                                    *
#*********************************************************************
#*********************************************************************
# Process(es) requested : mg2 input                                  *
#*********************************************************************
# Begin PROCESS # This is TAG. Do not modify this line
p p > zph , zph > j j           #Process
# Be carefull the coupling are here in MG5 convention
          
end_coup           # End the couplings input

done               # this tells MG there are no more procs
# End PROCESS  # This is TAG. Do not modify this line
#*********************************************************************
# Model information                                                  *
#*********************************************************************
# Begin MODEL  # This is TAG. Do not modify this line
Zprime_UFO
# End   MODEL  # This is TAG. Do not modify this line
#*********************************************************************
# Start multiparticle definitions                                    *
#*********************************************************************
# Begin MULTIPARTICLES # This is TAG. Do not modify this line

# End  MULTIPARTICLES # This is TAG. Do not modify this line
</MGProcCard>
<MGRunCard>
#*********************************************************************
#                       MadGraph5_aMC@NLO                            *
#                                                                    *
#                     run_card.dat MadEvent                          *
#                                                                    *
#  This file is used to set the parameters of the run.               *
#                                                                    *
#  Some notation/conventions:                                        *
#                                                                    *
#   Lines starting with a '# ' are info or comments                  *
#                                                                    *
#   mind the format:   value    = variable     ! comment             *
#*********************************************************************
#
#*******************                                                 
# Running parameters
#*******************                                                 
#                                                                    
#*********************************************************************
# Tag name for the run (one word)                                    *
#*********************************************************************
  tag_1     = run_tag ! name of the run 
#*********************************************************************
# Run to generate the grid pack                                      *
#*********************************************************************
  .false.     = gridpack  !True = setting up the grid pack
#*********************************************************************
# Number of events and rnd seed                                      *
# Warning: Do not generate more than 1M events in a single run       *
# If you want to run Pythia, avoid more than 50k events in a run.    *
#*********************************************************************
  2000 = nevents ! Number of unweighted events requested 
 777 = iseed   ! rnd seed (0=assigned automatically=default))
#*********************************************************************
# Collider type and energy                                           *
# lpp: 0=No PDF, 1=proton, -1=antiproton, 2=photon from proton,      *
#                                         3=photon from electron     *
#*********************************************************************
        1     = lpp1    ! beam 1 type 
        1     = lpp2    ! beam 2 type
     4000     = ebeam1  ! beam 1 total energy in GeV
     4000     = ebeam2  ! beam 2 total energy in GeV
#*********************************************************************
# Beam polarization from -100 (left-handed) to 100 (right-handed)    *
#*********************************************************************
        0     = polbeam1 ! beam polarization for beam 1
        0     = polbeam2 ! beam polarization for beam 2
#*********************************************************************
# PDF CHOICE: this automatically fixes also alpha_s and its evol.    *
#*********************************************************************
 'nn23lo1'    = pdlabel     ! PDF set                                     
 230000    = lhaid     ! if pdlabel=lhapdf, this is the lhapdf number
#*********************************************************************
# Renormalization and factorization scales                           *
#*********************************************************************
 F        = fixed_ren_scale  ! if .true. use fixed ren scale
 F        = fixed_fac_scale  ! if .true. use fixed fac scale
 91.1880  = scale            ! fixed ren scale
 91.1880  = dsqrt_q2fact1    ! fixed fact scale for pdf1
 91.1880  = dsqrt_q2fact2    ! fixed fact scale for pdf2
 1        = scalefact        ! scale factor for event-by-event scales
#*********************************************************************
# Matching - Warning! ickkw > 1 is still beta
#*********************************************************************
 0        = ickkw            ! 0 no matching, 1 MLM, 2 CKKW matching
 1        = highestmult      ! for ickkw=2, highest mult group
 1        = ktscheme         ! for ickkw=1, 1 Durham kT, 2 Pythia pTE
 1        = alpsfact         ! scale factor for QCD emission vx
 F        = chcluster        ! cluster only according to channel diag
 T        = pdfwgt           ! for ickkw=1, perform pdf reweighting
 5        = asrwgtflavor     ! highest quark flavor for a_s reweight
 T        = clusinfo         ! include clustering tag in output
 3.0      = lhe_version       ! Change the way clustering information pass to shower.        
#*********************************************************************
#**********************************************************
#
#**********************************************************
# Automatic ptj and mjj cuts if xqcut > 0
# (turn off for VBF and single top processes)
#**********************************************************
   T  = auto_ptj_mjj  ! Automatic setting of ptj and mjj
#**********************************************************
#                                                                    
#**********************************
# BW cutoff (M+/-bwcutoff*Gamma)
#**********************************
  15  = bwcutoff      ! (M+/-bwcutoff*Gamma)
#**********************************************************
# Apply pt/E/eta/dr/mij cuts on decay products or not
# (note that etmiss/ptll/ptheavy/ht/sorted cuts always apply)
#**********************************************************
   T  = cut_decays    ! Cut decay products 
#*************************************************************
# Number of helicities to sum per event (0 = all helicities)
# 0 gives more stable result, but longer run time (needed for
# long decay chains e.g.).
# Use >=2 if most helicities contribute, e.g. pure QCD.
#*************************************************************
   0  = nhel          ! Number of helicities used per event
#*******************                                                 
# Standard Cuts
#*******************                                                 
#                                                                    
#*********************************************************************
# Minimum and maximum pt's (for max, -1 means no cut)                *
#*********************************************************************
 20  = ptj       ! minimum pt for the jets 
  0  = ptb       ! minimum pt for the b 
 10  = pta       ! minimum pt for the photons 
 10  = ptl       ! minimum pt for the charged leptons 
  0  = misset    ! minimum missing Et (sum of neutrino's momenta)
  0  = ptheavy   ! minimum pt for one heavy final state
 1.0 = ptonium   ! minimum pt for the quarkonium states
 -1  = ptjmax    ! maximum pt for the jets
 -1  = ptbmax    ! maximum pt for the b
 -1  = ptamax    ! maximum pt for the photons
 -1  = ptlmax    ! maximum pt for the charged leptons
 -1  = missetmax ! maximum missing Et (sum of neutrino's momenta)
#*********************************************************************
# Minimum and maximum E's (in the center of mass frame)              *
#*********************************************************************
  0  = ej     ! minimum E for the jets 
  0  = eb     ! minimum E for the b 
  0  = ea     ! minimum E for the photons 
  0  = el     ! minimum E for the charged leptons 
 -1   = ejmax ! maximum E for the jets
 -1   = ebmax ! maximum E for the b
 -1   = eamax ! maximum E for the photons
 -1   = elmax ! maximum E for the charged leptons
#*********************************************************************
# Maximum and minimum absolute rapidity (for max, -1 means no cut)   *
#*********************************************************************
   5  = etaj    ! max rap for the jets 
  -1  = etab    ! max rap for the b
 2.5  = etaa    ! max rap for the photons 
 2.5  = etal    ! max rap for the charged leptons 
 0.6  = etaonium ! max rap for the quarkonium states
   0  = etajmin ! min rap for the jets
   0  = etabmin ! min rap for the b
   0  = etaamin ! min rap for the photons
   0  = etalmin ! main rap for the charged leptons
#*********************************************************************
# Minimum and maximum DeltaR distance                                *
#*********************************************************************
 0.4 = drjj    ! min distance between jets 
 0   = drbb    ! min distance between b's 
 0.4 = drll    ! min distance between leptons 
 0.4 = draa    ! min distance between gammas 
 0   = drbj    ! min distance between b and jet 
 0.4 = draj    ! min distance between gamma and jet 
 0.4 = drjl    ! min distance between jet and lepton 
 0   = drab    ! min distance between gamma and b 
 0   = drbl    ! min distance between b and lepton 
 0.4 = dral    ! min distance between gamma and lepton 
 -1  = drjjmax ! max distance between jets
 -1  = drbbmax ! max distance between b's
 -1  = drllmax ! max distance between leptons
 -1  = draamax ! max distance between gammas
 -1  = drbjmax ! max distance between b and jet
 -1  = drajmax ! max distance between gamma and jet
 -1  = drjlmax ! max distance between jet and lepton
 -1  = drabmax ! max distance between gamma and b
 -1  = drblmax ! max distance between b and lepton
 -1  = dralmax ! maxdistance between gamma and lepton
#*********************************************************************
# Minimum and maximum invariant mass for pairs                       *
# WARNING: for four lepton final state mmll cut require to have      *
#          different lepton masses for each flavor!                  *           
#*********************************************************************
 0   = mmjj    ! min invariant mass of a jet pair 
 0   = mmbb    ! min invariant mass of a b pair 
 0   = mmaa    ! min invariant mass of gamma gamma pair
 0   = mmll    ! min invariant mass of l+l- (same flavour) lepton pair
 -1  = mmjjmax ! max invariant mass of a jet pair
 -1  = mmbbmax ! max invariant mass of a b pair
 -1  = mmaamax ! max invariant mass of gamma gamma pair
 -1  = mmllmax ! max invariant mass of l+l- (same flavour) lepton pair
#*********************************************************************
# Minimum and maximum invariant mass for all letpons                 *
#*********************************************************************
 0   = mmnl    ! min invariant mass for all letpons (l+- and vl) 
 -1  = mmnlmax ! max invariant mass for all letpons (l+- and vl) 
#*********************************************************************
# Minimum and maximum pt for 4-momenta sum of leptons                *
#*********************************************************************
 0   = ptllmin  ! Minimum pt for 4-momenta sum of leptons(l and vl)
 -1  = ptllmax  ! Maximum pt for 4-momenta sum of leptons(l and vl)
#*********************************************************************
# Inclusive cuts                                                     *
#*********************************************************************
 0  = xptj ! minimum pt for at least one jet  
 0  = xptb ! minimum pt for at least one b 
 0  = xpta ! minimum pt for at least one photon 
 0  = xptl ! minimum pt for at least one charged lepton 
#*********************************************************************
# Control the pt's of the jets sorted by pt                          *
#*********************************************************************
 0   = ptj1min ! minimum pt for the leading jet in pt
 0   = ptj2min ! minimum pt for the second jet in pt
 0   = ptj3min ! minimum pt for the third jet in pt
 0   = ptj4min ! minimum pt for the fourth jet in pt
 -1  = ptj1max ! maximum pt for the leading jet in pt 
 -1  = ptj2max ! maximum pt for the second jet in pt
 -1  = ptj3max ! maximum pt for the third jet in pt
 -1  = ptj4max ! maximum pt for the fourth jet in pt
 0   = cutuse  ! reject event if fails any (0) / all (1) jet pt cuts
#*********************************************************************
# Control the pt's of leptons sorted by pt                           *
#*********************************************************************
 0   = ptl1min ! minimum pt for the leading lepton in pt
 0   = ptl2min ! minimum pt for the second lepton in pt
 0   = ptl3min ! minimum pt for the third lepton in pt
 0   = ptl4min ! minimum pt for the fourth lepton in pt
 -1  = ptl1max ! maximum pt for the leading lepton in pt 
 -1  = ptl2max ! maximum pt for the second lepton in pt
 -1  = ptl3max ! maximum pt for the third lepton in pt
 -1  = ptl4max ! maximum pt for the fourth lepton in pt
#*********************************************************************
# Control the Ht(k)=Sum of k leading jets                            *
#*********************************************************************
 0   = htjmin ! minimum jet HT=Sum(jet pt)
 -1  = htjmax ! maximum jet HT=Sum(jet pt)
 0   = ihtmin  !inclusive Ht for all partons (including b)
 -1  = ihtmax  !inclusive Ht for all partons (including b)
 0   = ht2min ! minimum Ht for the two leading jets
 0   = ht3min ! minimum Ht for the three leading jets
 0   = ht4min ! minimum Ht for the four leading jets
 -1  = ht2max ! maximum Ht for the two leading jets
 -1  = ht3max ! maximum Ht for the three leading jets
 -1  = ht4max ! maximum Ht for the four leading jets
#***********************************************************************
# Photon-isolation cuts, according to hep-ph/9801442                   *
# When ptgmin=0, all the other parameters are ignored                  *
# When ptgmin>0, pta and draj are not going to be used                 *
#***********************************************************************
   0 = ptgmin ! Min photon transverse momentum
 0.4 = R0gamma ! Radius of isolation code
 1.0 = xn ! n parameter of eq.(3.4) in hep-ph/9801442
 1.0 = epsgamma ! epsilon_gamma parameter of eq.(3.4) in hep-ph/9801442
 .true. = isoEM ! isolate photons from EM energy (photons and leptons)
#*********************************************************************
# WBF cuts                                                           *
#*********************************************************************
 0   = xetamin ! minimum rapidity for two jets in the WBF case  
 0   = deltaeta ! minimum rapidity for two jets in the WBF case 
#*********************************************************************
# KT DURHAM CUT                                                      *
#*********************************************************************
 -1    =  ktdurham        
 0.4  =  dparameter 
#*********************************************************************
# maximal pdg code for quark to be considered as a light jet         *
# (otherwise b cuts are applied)                                     *
#*********************************************************************
 4 = maxjetflavor    ! Maximum jet pdg code
#*********************************************************************
# Jet measure cuts                                                   *
#*********************************************************************
 0   = xqcut   ! minimum kt jet measure between partons
#*********************************************************************
#
#*********************************************************************
# Store info for systematics studies                                 *
# WARNING: If use_syst is T, matched Pythia output is                *
#          meaningful ONLY if plotted taking matchscale              *
#          reweighting into account!                                 *
#*********************************************************************
   F  = use_syst      ! Enable systematics studies
#
#**************************************
# Parameter of the systematics study
#  will be used by SysCalc (if installed)
#**************************************                                  
#
0.5 1 2 = sys_scalefact  # factorization/renormalization scale factor
0.5 1 2 = sys_alpsfact  # \alpha_s emission scale factors
30 50 = sys_matchscale # variation of merging scale
# PDF sets and number of members (0 or none for all members).
CT10nlo.LHgrid = sys_pdf # matching scales
# MSTW2008nlo68cl.LHgrid 1  = sys_pdf
</MGRunCard>
<slha>
######################################################################
## PARAM_CARD AUTOMATICALY GENERATED BY MG5 FOLLOWING UFO MODEL   ####
######################################################################
##                                                                  ##
##  Width set on Auto will be computed following the information    ##
##        present in the decay.py files of the model.               ##
##        See  arXiv:1402.1178 for more details.                    ##
##                                                                  ##
######################################################################

###################################
## INFORMATION FOR CKMBLOCK
###################################
Block ckmblock 
    1 2.277360e-01 # cabi 

###################################
## INFORMATION FOR FRBLOCK
###################################
Block frblock 
    1 2.000000e-01 # gz 

###################################
## INFORMATION FOR MASS
###################################
Block mass 
    1 5.040000e-03 # MD 
    2 2.550000e-03 # MU 
    3 1.010000e-01 # MS 
    4 1.270000e+00 # MC 
    5 4.700000e+00 # MB 
    6 1.720000e+02 # MT 
   11 5.110000e-04 # Me 
   13 1.056600e-01 # MM 
   15 1.777000e+00 # MTA 
   23 9.118760e+01 # MZ 
   25 1.200000e+02 # MH 
  10030 3.600000e+03 # MZph 
  10031 3.000000e+02 # MZpl 
## Dependent parameters, given by model restrictions.
## Those values should be edited following the 
## analytical expression. MG5 ignores those values 
## but they are important for interfacing the output of MG5
## to external program such as Pythia.
  12 0.000000 # ve : 0.0 
  14 0.000000 # vm : 0.0 
  16 0.000000 # vt : 0.0 
  21 0.000000 # g : 0.0 
  22 0.000000 # a : 0.0 
  24 79.824360 # w+ : cmath.sqrt(MZ__exp__2/2. + cmath.sqrt(MZ__exp__4/4. - (aEW*cmath.pi*MZ__exp__2)/(Gf*sqrt__2))) 

###################################
## INFORMATION FOR SMINPUTS
###################################
Block sminputs 
    1 1.279000e+02 # aEWM1 
    2 1.166370e-05 # Gf 
    3 1.184000e-01 # aS 

###################################
## INFORMATION FOR YUKAWA
###################################
Block yukawa 
    1 5.040000e-03 # ymdo 
    2 2.550000e-03 # ymup 
    3 1.010000e-01 # yms 
    4 1.270000e+00 # ymc 
    5 4.700000e+00 # ymb 
    6 1.720000e+02 # ymt 
   11 5.110000e-04 # yme 
   13 1.056600e-01 # ymm 
   15 1.777000e+00 # ymtau 

###################################
## INFORMATION FOR DECAY
###################################
DECAY   6 1.508336e+00 # WT 
DECAY  23 2.495200e+00 # WZ 
DECAY  24 2.085000e+00 # WW 
DECAY  25 5.753088e-03 # WH 
## Dependent parameters, given by model restrictions.
## Those values should be edited following the 
## analytical expression. MG5 ignores those values 
## but they are important for interfacing the output of MG5
## to external program such as Pythia.
DECAY  1 0.000000 # d : 0.0 
DECAY  2 0.000000 # u : 0.0 
DECAY  3 0.000000 # s : 0.0 
DECAY  4 0.000000 # c : 0.0 
DECAY  5 0.000000 # b : 0.0 
DECAY  11 0.000000 # e- : 0.0 
DECAY  12 0.000000 # ve : 0.0 
DECAY  13 0.000000 # mu- : 0.0 
DECAY  14 0.000000 # vm : 0.0 
DECAY  15 0.000000 # ta- : 0.0 
DECAY  16 0.000000 # vt : 0.0 
DECAY  21 0.000000 # g : 0.0 
DECAY  22 0.000000 # a : 0.0 
DECAY  10030 0.308725 # zph : (gz__exp__2*MZph*(5 + cmath.sqrt(1 - (4*MT__exp__2)/MZph__exp__2)))/(144.*cmath.pi) 
DECAY  10031 0.132629 # zpl : (5*gz__exp__2*MZpl)/(144.*cmath.pi) 
#===========================================================
# QUANTUM NUMBERS OF NEW STATE(S) (NON SM PDG CODE)
#===========================================================

Block QNUMBERS 10030  # zph 
        1 0  # 3 times electric charge
        2 3  # number of spin states (2S+1)
        3 1  # colour rep (1: singlet, 3: triplet, 8: octet)
        4 0  # Particle/Antiparticle distinction (0=own anti)
Block QNUMBERS 10031  # zpl 
        1 0  # 3 times electric charge
        2 3  # number of spin states (2S+1)
        3 1  # colour rep (1: singlet, 3: triplet, 8: octet)
        4 0  # Particle/Antiparticle distinction (0=own anti)
</slha>
## END BANNER##
<MGGenerationInfo>
#  Number of Events        :         3874
#  Integrated weight (pb)  :  0.64196E-05
#  Max wgt                 :  0.26081E-08
#  Average wgt             :  0.16571E-08
</MGGenerationInfo>
</header>
<init>
     2212     2212  0.40000000000E+04  0.40000000000E+04 0 0  247000  247000 2   1
  0.64161985914E-05  0.15679687753E-07  0.26080700000E-08   0
</init>
<event>
 5   0  0.2494592E-08  0.3600491E+04  0.7818609E-02  0.8090379E-01
       -2   -1    0    0    0  501  0.00000000000E+00  0.00000000000E+00  0.21445838958E+04  0.21445838958E+04  0.25500000920E-02 0. -1.
        2   -1    0    0  501    0  0.00000000000E+00  0.00000000000E+00 -0.15111947224E+04  0.15111947224E+04  0.25500000920E-02 0.  1.
    10030    2    1    2    0    0  0.00000000000E+00  0.00000000000E+00  0.63338917337E+03  0.36557786182E+04  0.36004910027E+04 0.  0.
        1    1    3    3  502    0  0.10412733313E+04 -0.95289296545E+02 -0.11712616942E+04  0.15700904933E+04  0.50400001928E-02 0.  1.
       -1    1    3    3    0  502 -0.10412733313E+04  0.95289296545E+02  0.18046508676E+04  0.20856881250E+04  0.50400001928E-02 0. -1.
</event>
<event>
 5   0  0.2494592E-08  0.3600208E+04  0.7818609E-02  0.8090444E-01
        2   -1    0    0  501    0  0.00000000000E+00  0.00000000000E+00  0.18199538233E+04  0.18199538233E+04  0.25500000920E-02 0. -1.
       -2   -1    0    0    0  501  0.00000000000E+00  0.00000000000E+00 -0.17804705127E+04  0.17804705127E+04  0.25500000920E-02 0.  1.
    10030    2    1    2    0    0  0.00000000000E+00  0.00000000000E+00  0.39483310626E+02  0.36004243360E+04  0.36002078367E+04 0.  0.
        1    1    3    3  502    0 -0.29401042766E+03 -0.68170085904E+03  0.16597231695E+04  0.18181966869E+04  0.50400001928E-02 0. -1.
       -1    1    3    3    0  502  0.29401042766E+03  0.68170085904E+03 -0.16202398589E+04  0.17822276491E+04  0.50400001928E-02 0.  1.
</event>
<event>
 5   0  0.2608070E-08  0.3599918E+04  0.7818609E-02  0.8090511E-01
        2   -1    0    0  501    0  0.00000000000E+00  0.00000000000E+00  0.21440203794E+04  0.21440203794E+04  0.25500000920E-02 0. -1.
       -2   -1    0    0    0  501  0.00000000000E+00  0.00000000000E+00 -0.15111105841E+04  0.15111105841E+04  0.25500000920E-02 0.  1.
    10030    2    1    2    0    0  0.00000000000E+00  0.00000000000E+00  0.63290979530E+03  0.36551309635E+04  0.35999177145E+04 0.  0.
        3    1    3    3  502    0 -0.75918521867E+03 -0.13114289676E+04 -0.66985729309E+03  0.16567790851E+04  0.10100000352E+00 0.  1.
       -3    1    3    3    0  502  0.75918521867E+03  0.13114289676E+04  0.13027670884E+04  0.19983518785E+04  0.10100000352E+00 0. -1.
</event>
<event>
 5   0  0.2494592E-08  0.3599202E+04  0.7818609E-02  0.8090674E-01
       -2   -1    0    0    0  501  0.00000000000E+00  0.00000000000E+00  0.13953866577E+04  0.13953866577E+04  0.25500000920E-02 0. -1.
        2   -1    0    0  501    0  0.00000000000E+00  0.00000000000E+00 -0.23209083572E+04  0.23209083572E+04  0.25500000920E-02 0.  1.
    10030    2    1    2    0    0  0.00000000000E+00  0.00000000000E+00 -0.92552169947E+03  0.37162950149E+04  0.35992024424E+04 0.  0.
        1    1    3    3  502    0  0.23627888958E+03 -0.11401089352E+04  0.95406412769E+03  0.15052954718E+04  0.50400001928E-02 0. -1.
       -1    1    3    3    0  502 -0.23627888958E+03  0.11401089352E+04 -0.18795858272E+04  0.22109995431E+04  0.50400001928E-02 0.  1.
</event>
<event>
 5   0  0.2608070E-08  0.3600238E+04  0.7818609E-02  0.8090437E-01
       -2   -1    0    0    0  501  0.00000000000E+00  0.00000000000E+00  0.10757617445E+04  0.10757617445E+04  0.25500000920E-02 0. -1.
        2   -1    0    0  501    0  0.00000000000E+00  0.00000000000E+00 -0.30122168621E+04  0.30122168621E+04  0.25500000920E-02 0.  1.
    10030    2    1    2    0    0  0.00000000000E+00  0.00000000000E+00 -0.19364551176E+04  0.40879786065E+04  0.36002375845E+04 0.  0.
        3    1    3    3  502    0  0.14887553615E+04 -0.78248817461E+03 -0.23962133199E+03  0.16988521603E+04  0.10100000352E+00 0. -1.
       -3    1    3    3    0  502 -0.14887553615E+04  0.78248817461E+03 -0.16968337856E+04  0.23891264462E+04  0.10100000352E+00 0.  1.
</event>
<event>
 5   0  0.8024500E-09  0.3599744E+04  0.7818609E-02  0.8090550E-01
        1   -1    0    0  501    0  0.00000000000E+00  0.00000000000E+00  0.16271601765E+04  0.16271601765E+04  0.50400001928E-02 0.  1.
       -1   -1    0    0    0  501  0.00000000000E+00  0.00000000000E+00 -0.19909163987E+04  0.19909163988E+04  0.50400001928E-02 0. -1.
    10030    2    1    2    0    0  0.00000000000E+00  0.00000000000E+00 -0.36375622223E+03  0.36180765753E+04  0.35997443681E+04 0.  0.
        1    1    3    3  502    0  0.64899692292E+03  0.98695678057E+03 -0.15468291426E+04  0.19462685039E+04  0.50400001928E-02 0. -1.
       -1    1    3    3    0  502 -0.64899692292E+03 -0.98695678057E+03  0.11830729204E+04  0.16718080714E+04  0.50400001928E-02 0.  1.
</event>
<event>
 5   0  0.8247570E-09  0.3599810E+04  0.7818609E-02  0.8090535E-01
       -1   -1    0    0    0  501  0.00000000000E+00  0.00000000000E+00  0.20857600284E+04  0.20857600284E+04  0.50400001928E-02 0. -1.
        1   -1    0    0  501    0  0.00000000000E+00  0.00000000000E+00 -0.15532266136E+04  0.15532266136E+04  0.50400001928E-02 0.  1.
    10030    2    1    2    0    0  0.00000000000E+00  0.00000000000E+00  0.53253341482E+03  0.36389866420E+04  0.35998099870E+04 0.  0.
        3    1    3    3  502    0 -0.14613118892E+03 -0.52374435403E+03 -0.14682139259E+04  0.15656674663E+04  0.10100000352E+00 0.  1.
       -3    1    3    3    0  502  0.14613118892E+03  0.52374435403E+03  0.20007473407E+04  0.20733191757E+04  0.10100000352E+00 0. -1.
</event>
<event>
 5   0  0.2494592E-08  0.3604712E+04  0.7818609E-02  0.8089413E-01
        2   -1    0    0  501    0  0.00000000000E+00  0.00000000000E+00  0.24591673452E+04  0.24591673452E+04  0.25500000920E-02 0.  1.
       -2   -1    0    0    0  501  0.00000000000E+00  0.00000000000E+00 -0.13209701753E+04  0.13209701753E+04  0.25500000920E-02 0. -1.
    10030    2    1    2    0    0  0.00000000000E+00  0.00000000000E+00  0.11381971699E+04  0.37801375205E+04  0.36047117605E+04 0.  0.
        1    1    3    3  502    0 -0.17436990174E+03 -0.39000635032E+02  0.24498566773E+04  0.24563639086E+04  0.50400001928E-02 0.  1.
       -1    1    3    3    0  502  0.17436990174E+03  0.39000635032E+02 -0.13116595074E+04  0.13237736119E+04  0.50400001928E-02 0. -1.
</event>
<event>
 5   0  0.8063410E-09  0.3598686E+04  0.7818609E-02  0.8090793E-01
        1   -1    0    0  501    0  0.00000000000E+00  0.00000000000E+00  0.17585513566E+04  0.17585513566E+04  0.50400001928E-02 0.  1.
       -1   -1    0    0    0  501  0.00000000000E+00  0.00000000000E+00 -0.18410808456E+04  0.18410808456E+04  0.50400001928E-02 0. -1.
    10030    2    1    2    0    0  0.00000000000E+00  0.00000000000E+00 -0.82529489010E+02  0.35996322021E+04  0.35986859927E+04 0.  0.
        2    1    3    3  502    0 -0.10989050340E+04  0.14246368816E+04 -0.19982392296E+02  0.17993281563E+04  0.25500000920E-02 0.  1.
       -2    1    3    3    0  502  0.10989050340E+04 -0.14246368816E+04 -0.62547096715E+02  0.18003040458E+04  0.25500000920E-02 0. -1.
</event>
<event>
 5   0  0.2494592E-08  0.3600251E+04  0.7818609E-02  0.8090434E-01
       -2   -1    0    0    0  501  0.00000000000E+00  0.00000000000E+00  0.13679752139E+04  0.13679752139E+04  0.25500000920E-02 0. -1.
        2   -1    0    0  501    0  0.00000000000E+00  0.00000000000E+00 -0.23687948691E+04  0.23687948691E+04  0.25500000920E-02 0.  1.
    10030    2    1    2    0    0  0.00000000000E+00  0.00000000000E+00 -0.10008196552E+04  0.37367700830E+04  0.36002514733E+04 0.  0.
        1    1    3    3  502    0  0.15981428500E+03  0.16841415723E+04  0.13820931209E+03  0.16973435878E+04  0.50400001928E-02 0. -1.
       -1    1    3    3    0  502 -0.15981428500E+03 -0.16841415723E+04 -0.11390289673E+04  0.20394264952E+04  0.50400001928E-02 0.  1.
</event>
<event>
 5   0  0.8063410E-09  0.3600544E+04  0.7818609E-02  0.8090367E-01
       -1   -1    0    0    0  501  0.00000000000E+00  0.00000000000E+00  0.16652998307E+04  0.16652998307E+04  0.50400001928E-02 0.  1.
        1   -1    0    0  501    0  0.00000000000E+00  0.00000000000E+00 -0.19461839842E+04  0.19461839843E+04  0.50400001928E-02 0. -1.
    10030    2    1    2    0    0  0.00000000000E+00  0.00000000000E+00 -0.28088415357E+03  0.36114838149E+04  0.36005443252E+04 0.  0.
        2    1    3    3  502    0  0.89427102792E+03  0.42407768329E+03  0.13679278564E+04  0.16884280183E+04  0.25500000920E-02 0.  1.
       -2    1    3    3    0  502 -0.89427102792E+03 -0.42407768329E+03 -0.16488120099E+04  0.19230557966E+04  0.25500000920E-02 0. -1.
</event>
<event>
 5   0  0.2482243E-08  0.3596771E+04  0.7818609E-02  0.8091232E-01
       -2   -1    0    0    0  501  0.00000000000E+00  0.00000000000E+00  0.16892449273E+04  0.16892449273E+04  0.25500000920E-02 0.  1.
        2   -1    0    0  501    0  0.00000000000E+00  0.00000000000E+00 -0.19145775039E+04  0.19145775039E+04  0.25500000920E-02 0. -1.
    10030    2    1    2    0    0  0.00000000000E+00  0.00000000000E+00 -0.22533257652E+03  0.36038224312E+04  0.35967709610E+04 0.  0.
        5    1    3    3  502    0  0.11518600252E+04 -0.40642123423E+03  0.12098488934E+04  0.17192196405E+04  0.46999998093E+01 0.  1.
       -5    1    3    3    0  502 -0.11518600252E+04  0.40642123423E+03 -0.14351814699E+04  0.18846027908E+04  0.46999998093E+01 0. -1.
</event>
<event>
 5   0  0.8024500E-09  0.3601585E+04  0.7818609E-02  0.8090129E-01
        1   -1    0    0  501    0  0.00000000000E+00  0.00000000000E+00  0.17173964669E+04  0.17173964669E+04  0.50400001928E-02 0.  1.
       -1   -1    0    0    0  501  0.00000000000E+00  0.00000000000E+00 -0.18882384064E+04  0.18882384064E+04  0.50400001928E-02 0. -1.
    10030    2    1    2    0    0  0.00000000000E+00  0.00000000000E+00 -0.17084193952E+03  0.36056348734E+04  0.36015851887E+04 0.  0.
        5    1    3    3  502    0 -0.12570365544E+04  0.55553219616E+03  0.10795347206E+04  0.17476195876E+04  0.46999998093E+01 0.  1.
       -5    1    3    3    0  502  0.12570365544E+04 -0.55553219616E+03 -0.12503766601E+04  0.18580152858E+04  0.46999998093E+01 0. -1.
</event>
<event>
 5   0  0.8024500E-09  0.3608301E+04  0.7818609E-02  0.8088593E-01
       -1   -1    0    0    0  501  0.00000000000E+00  0.00000000000E+00  0.26639818543E+04  0.26639818543E+04  0.50400001928E-02 0. -1.
        1   -1    0    0  501    0  0.00000000000E+00  0.00000000000E+00 -0.12218398854E+04  0.12218398854E+04  0.50400001928E-02 0.  1.
    10030    2    1    2    0    0  0.00000000000E+00  0.00000000000E+00  0.14421419689E+04  0.38858217397E+04  0.36083011424E+04 0.  0.
        1    1    3    3  502    0  0.22166454269E+02  0.48515464902E+03 -0.11501209470E+04  0.12484568787E+04  0.50400001928E-02 0.  1.
       -1    1    3    3    0  502 -0.22166454269E+02 -0.48515464902E+03  0.25922629159E+04  0.26373648611E+04  0.50400001928E-02 0. -1.
</event>
<event>
 5   0  0.8247570E-09  0.3600240E+04  0.7818609E-02  0.8090437E-01
       -1   -1    0    0    0  501  0.00000000000E+00  0.00000000000E+00  0.13102725239E+04  0.13102725239E+04  0.50400001928E-02 0.  1.
        1   -1    0    0  501    0  0.00000000000E+00  0.00000000000E+00 -0.24730974942E+04  0.24730974942E+04  0.50400001928E-02 0. -1.
    10030    2    1    2    0    0  0.00000000000E+00  0.00000000000E+00 -0.11628249703E+04  0.37833700180E+04  0.36002398228E+04 0.  0.
        3    1    3    3  502    0 -0.83438825924E+03 -0.11708136045E+04 -0.17197597352E+04  0.22415579004E+04  0.10100000352E+00 0. -1.
       -3    1    3    3    0  502  0.83438825924E+03  0.11708136045E+04  0.55693476489E+03  0.15418121177E+04  0.10100000352E+00 0.  1.
</event>
<event>
 5   0  0.8247570E-09  0.3599373E+04  0.7818609E-02  0.8090635E-01
        1   -1    0    0  501    0  0.00000000000E+00  0.00000000000E+00  0.12125122033E+04  0.12125122033E+04  0.50400001928E-02 0. -1.
       -1   -1    0    0    0  501  0.00000000000E+00  0.00000000000E+00 -0.26712070206E+04  0.26712070206E+04  0.50400001928E-02 0.  1.
    10030    2    1    2    0    0  0.00000000000E+00  0.00000000000E+00 -0.14586948173E+04  0.38837192239E+04  0.35993727842E+04 0.  0.
        3    1    3    3  502    0 -0.15113131029E+04 -0.43813119674E+03 -0.16717557211E+04  0.22958208645E+04  0.10100000352E+00 0.  1.
       -3    1    3    3    0  502  0.15113131029E+04  0.43813119674E+03  0.21306090383E+03  0.15878983593E+04  0.10100000352E+00 0. -1.
</event>
<event>
 5   0  0.2494592E-08  0.3600563E+04  0.7818609E-02  0.8090363E-01
       -2   -1    0    0    0  501  0.00000000000E+00  0.00000000000E+00  0.13074029512E+04  0.13074029512E+04  0.25500000920E-02 0. -1.
        2   -1    0    0  501    0  0.00000000000E+00  0.00000000000E+00 -0.24789707196E+04  0.24789707196E+04  0.25500000920E-02 0.  1.
    10030    2    1    2    0    0  0.00000000000E+00  0.00000000000E+00 -0.11715677683E+04  0.37863736708E+04  0.36005630864E+04 0.  0.
        1    1    3    3  502    0 -0.49546400994E+03 -0.13770134653E+02 -0.24058035001E+04  0.24563315499E+04  0.50400001928E-02 0.  1.
       -1    1    3    3    0  502  0.49546400994E+03  0.13770134653E+02  0.12342357318E+04  0.13300421209E+04  0.50400001928E-02 0. -1.
</event>
<event>
 5   0  0.8146881E-09  0.3597858E+04  0.7818609E-02  0.8090982E-01
       -1   -1    0    0    0  501  0.00000000000E+00  0.00000000000E+00  0.19940061035E+04  0.19940061035E+04  0.50400001928E-02 0. -1.
        1   -1    0    0  501    0  0.00000000000E+00  0.00000000000E+00 -0.16229368946E+04  0.16229368946E+04  0.50400001928E-02 0.  1.
    10030    2    1    2    0    0  0.00000000000E+00  0.00000000000E+00  0.37106920886E+03  0.36169429981E+04  0.35978582926E+04 0.  0.
        4    1    3    3  502    0  0.24267450208E+03 -0.33724179484E+03 -0.15740415916E+04  0.16279531588E+04  0.12699999809E+01 0.  1.
       -4    1    3    3    0  502 -0.24267450208E+03  0.33724179484E+03  0.19451108005E+04  0.19889898394E+04  0.12699999809E+01 0. -1.
</event>
<event>
 5   0  0.8024500E-09  0.3600031E+04  0.7818609E-02  0.8090485E-01
        1   -1    0    0  501    0  0.00000000000E+00  0.00000000000E+00  0.24238650802E+04  0.24238650802E+04  0.50400001928E-02 0. -1.
       -1   -1    0    0    0  501  0.00000000000E+00  0.00000000000E+00 -0.13367310280E+04  0.13367310280E+04  0.50400001928E-02 0.  1.
    10030    2    1    2    0    0  0.00000000000E+00  0.00000000000E+00  0.10871340522E+04  0.37605961083E+04  0.36000309224E+04 0.  0.
        1    1    3    3  502    0  0.48666451801E+03 -0.13154106940E+04 -0.63498557689E+03  0.15395955086E+04  0.50400001928E-02 0.  1.
       -1    1    3    3    0  502 -0.48666451801E+03  0.13154106940E+04  0.17221196291E+04  0.22210005997E+04  0.50400001928E-02 0. -1.
</event>
<event>
 5   0  0.2476968E-08  0.3595193E+04  0.7818609E-02  0.8091594E-01
       -2   -1    0    0    0  501  0.00000000000E+00  0.00000000000E+00  0.26974254102E+04  0.26974254102E+04  0.25500000920E-02 0.  1.
        2   -1    0    0  501    0  0.00000000000E+00  0.00000000000E+00 -0.11979397412E+04  0.11979397412E+04  0.25500000920E-02 0. -1.
    10030    2    1    2    0    0  0.00000000000E+00  0.00000000000E+00  0.14994856690E+04  0.38953651513E+04  0.35951929560E+04 0.  0.
        2    1    3    3  502    0  0.34114788736E+02  0.60148277597E+03 -0.10853008781E+04  0.12412990552E+04  0.25500000920E-02 0. -1.
       -2    1    3    3    0  502 -0.34114788736E+02 -0.60148277597E+03  0.25847865471E+04  0.26540660961E+04  0.25500000920E-02 0.  1.
</event>
<event>
 5   0  0.8247570E-09  0.3600482E+04  0.7818609E-02  0.8090381E-01
       -1   -1    0    0    0  501  0.00000000000E+00  0.00000000000E+00  0.14382509290E+04  0.14382509291E+04  0.50400001928E-02 0.  1.
        1   -1    0    0  501    0  0.00000000000E+00  0.00000000000E+00 -0.22533401168E+04  0.22533401168E+04  0.50400001928E-02 0. -1.
    10030    2    1    2    0    0  0.00000000000E+00  0.00000000000E+00 -0.81508918779E+03  0.36915910459E+04  0.36004824769E+04 0.  0.
        3    1    3    3  502    0  0.12154763254E+04 -0.12441634691E+04 -0.88355880141E+03  0.19508976399E+04  0.10100000352E+00 0. -1.
       -3    1    3    3    0  502 -0.12154763254E+04  0.12441634691E+04  0.68469613615E+02  0.17406934060E+04  0.10100000352E+00 0.  1.
</event>
<event>
 5   0  0.2608070E-08  0.3595098E+04  0.7818609E-02  0.8091615E-01
        2   -1    0    0  501    0  0.00000000000E+00  0.00000000000E+00  0.22252928755E+04  0.22252928755E+04  0.25500000920E-02 0. -1.
       -2   -1    0    0    0  501  0.00000000000E+00  0.00000000000E+00 -0.14520258068E+04  0.14520258068E+04  0.25500000920E-02 0.  1.
    10030    2    1    2    0    0  0.00000000000E+00  0.00000000000E+00  0.77326706872E+03  0.36773186823E+04  0.35950981532E+04 0.  0.
        3    1    3    3  502    0 -0.11515466242E+04 -0.29037695485E+03  0.17668657109E+04  0.21288947495E+04  0.10100000352E+00 0. -1.
       -3    1    3    3    0  502  0.11515466242E+04  0.29037695485E+03 -0.99359864220E+03  0.15484239328E+04  0.10100000352E+00 0.  1.
</event>
<event>
 5   0  0.8024500E-09  0.3603170E+04  0.7818609E-02  0.8089766E-01
       -1   -1    0    0    0  501  0.00000000000E+00  0.00000000000E+00  0.13847515245E+04  0.13847515245E+04  0.50400001928E-02 0.  1.
        1   -1    0    0  501    0  0.00000000000E+00  0.00000000000E+00 -0.23438921316E+04  0.23438921316E+04  0.50400001928E-02 0. -1.
    10030    2    1    2    0    0  0.00000000000E+00  0.00000000000E+00 -0.95914060710E+03  0.37286436561E+04  0.36031698280E+04 0.  0.
        1    1    3    3  502    0 -0.82159280950E+03 -0.74444441745E+03 -0.19490541853E+04  0.22423256794E+04  0.50400001928E-02 0. -1.
       -1    1    3    3    0  502  0.82159280950E+03  0.74444441745E+03  0.98991357822E+03  0.14863179766E+04  0.50400001928E-02 0.  1.
</event>
<event>
 5   0  0.2476968E-08  0.3600356E+04  0.7818609E-02  0.8090410E-01
       -2   -1    0    0    0  501  0.00000000000E+00  0.00000000000E+00  0.15945965821E+04  0.15945965821E+04  0.25500000920E-02 0.  1.
        2   -1    0    0  501    0  0.00000000000E+00  0.00000000000E+00 -0.20322637968E+04  0.20322637968E+04  0.25500000920E-02 0. -1.
    10030    2    1    2    0    0  0.00000000000E+00  0.00000000000E+00 -0.43766721470E+03  0.36268603788E+04  0.36003560403E+04 0.  0.
        2    1    3    3  502    0 -0.11894546404E+04 -0.72452484209E+03 -0.13678010699E+04  0.19520805196E+04  0.25500000920E-02 0. -1.
       -2    1    3    3    0  502  0.11894546404E+04  0.72452484209E+03  0.93013385520E+03  0.16747798592E+04  0.25500000920E-02 0.  1.
</event>
<event>
 5   0  0.8063410E-09  0.3586426E+04  0.7818609E-02  0.8093608E-01
        1   -1    0    0  501    0  0.00000000000E+00  0.00000000000E+00  0.14067499232E+04  0.14067499232E+04  0.50400001928E-02 0. -1.
       -1   -1    0    0    0  501  0.00000000000E+00  0.00000000000E+00 -0.22858450314E+04  0.22858450314E+04  0.50400001928E-02 0.  1.
    10030    2    1    2    0    0  0.00000000000E+00  0.00000000000E+00 -0.87909510819E+03  0.36925949546E+04  0.35864256983E+04 0.  0.
        2    1    3    3  502    0 -0.10339252494E+04 -0.14377048494E+04 -0.73006291658E+03  0.19154603931E+04  0.25500000920E-02 0.  1.
       -2    1    3    3    0  502  0.10339252494E+04  0.14377048494E+04 -0.14903219161E+03  0.17771345615E+04  0.25500000920E-02 0. -1.
</event>
<event>
 5   0  0.2608070E-08  0.3599739E+04  0.7818609E-02  0.8090551E-01
       -2   -1    0    0    0  501  0.00000000000E+00  0.00000000000E+00  0.20679265336E+04  0.20679265336E+04  0.25500000920E-02 0. -1.
        2   -1    0    0  501    0  0.00000000000E+00  0.00000000000E+00 -0.15665596067E+04  0.15665596067E+04  0.25500000920E-02 0.  1.
    10030    2    1    2    0    0  0.00000000000E+00  0.00000000000E+00  0.50136692694E+03  0.36344861403E+04  0.35997389779E+04 0.  0.
        3    1    3    3  502    0 -0.72288584404E+03  0.13236343042E+04  0.12424885099E+04  0.19540597284E+04  0.10100000352E+00 0.  1.
       -3    1    3    3    0  502  0.72288584404E+03 -0.13236343042E+04 -0.74112158297E+03  0.16804264119E+04  0.10100000352E+00 0. -1.
</event>
<event>
 5   0  0.2482243E-08  0.3599037E+04  0.7818609E-02  0.8090712E-01
       -2   -1    0    0    0  501  0.00000000000E+00  0.00000000000E+00  0.16778489652E+04  0.16778489652E+04  0.25500000920E-02 0.  1.
        2   -1    0    0  501    0  0.00000000000E+00  0.00000000000E+00 -0.19300113076E+04  0.19300113076E+04  0.25500000920E-02 0. -1.
    10030    2    1    2    0    0  0.00000000000E+00  0.00000000000E+00 -0.25216234247E+03  0.36078602728E+04  0.35990373575E+04 0.  0.
        5    1    3    3  502    0  0.10014135835E+04  0.11680268785E+04 -0.10617123772E+04  0.18693237322E+04  0.46999998093E+01 0. -1.
       -5    1    3    3    0  502 -0.10014135835E+04 -0.11680268785E+04  0.80955003472E+03  0.17385365405E+04  0.46999998093E+01 0.  1.
</event>
<event>
 5   0  0.8063410E-09  0.3597560E+04  0.7818609E-02  0.8091051E-01
        1   -1    0    0  501    0  0.00000000000E+00  0.00000000000E+00  0.12450699971E+04  0.12450699971E+04  0.50400001928E-02 0. -1.
       -1   -1    0    0    0  501  0.00000000000E+00  0.00000000000E+00 -0.25987373578E+04  0.25987373578E+04  0.50400001928E-02 0.  1.
    10030    2    1    2    0    0  0.00000000000E+00  0.00000000000E+00 -0.13536673607E+04  0.38438073549E+04  0.35975602369E+04 0.  0.
        2    1    3    3  502    0 -0.13448709153E+04 -0.58634518317E+03  0.43513901846E+03  0.15303020675E+04  0.25500000920E-02 0. -1.
       -2    1    3    3    0  502  0.13448709153E+04  0.58634518317E+03 -0.17888063792E+04  0.23135052874E+04  0.25500000920E-02 0.  1.
</event>
<event>
 5   0  0.2608070E-08  0.3602971E+04  0.7818609E-02  0.8089811E-01
       -2   -1    0    0    0  501  0.00000000000E+00  0.00000000000E+00  0.11056445543E+04  0.11056445543E+04  0.25500000920E-02 0. -1.
        2   -1    0    0  501    0  0.00000000000E+00  0.00000000000E+00 -0.29352562224E+04  0.29352562224E+04  0.25500000920E-02 0.  1.
    10030    2    1    2    0    0  0.00000000000E+00  0.00000000000E+00 -0.18296116681E+04  0.40409007767E+04  0.36029710283E+04 0.  0.
        3    1    3    3  502    0 -0.34016279842E+03  0.10978865608E+04  0.64098800799E+03  0.13160285963E+04  0.10100000352E+00 0. -1.
       -3    1    3    3    0  502  0.34016279842E+03 -0.10978865608E+04 -0.24705996761E+04  0.27248721804E+04  0.10100000352E+00 0.  1.
</event>
<event>
 5   0  0.2494592E-08  0.3599019E+04  0.7818609E-02  0.8090716E-01
        2   -1    0    0  501    0  0.00000000000E+00  0.00000000000E+00  0.30547288933E+04  0.30547288933E+04  0.25500000920E-02 0.  1.
       -2   -1    0    0    0  501  0.00000000000E+00  0.00000000000E+00 -0.10600725606E+04  0.10600725606E+04  0.25500000920E-02 0. -1.
    10030    2    1    2    0    0  0.00000000000E+00  0.00000000000E+00  0.19946563328E+04  0.41148014539E+04  0.35990189106E+04 0.  0.
        1    1    3    3  502    0  0.37063221536E+03 -0.13128872350E+04  0.23390490600E+04  0.27078019935E+04  0.50400001928E-02 0.  1.
       -1    1    3    3    0  502 -0.37063221536E+03  0.13128872350E+04 -0.34439272721E+03  0.14069994604E+04  0.50400001928E-02 0. -1.
</event>
<event>
 5   0  0.8024500E-09  0.3601100E+04  0.7818609E-02  0.8090240E-01
        1   -1    0    0  501    0  0.00000000000E+00  0.00000000000E+00  0.17318543635E+04  0.17318543635E+04  0.50400001928E-02 0.  1.
       -1   -1    0    0    0  501  0.00000000000E+00  0.00000000000E+00 -0.18719710100E+04  0.18719710100E+04  0.50400001928E-02 0. -1.
    10030    2    1    2    0    0  0.00000000000E+00  0.00000000000E+00 -0.14011664651E+03  0.36038253735E+04  0.36011004773E+04 0.  0.
        5    1    3    3  502    0  0.96653277760E+03 -0.22357335398E+03 -0.15737892087E+04  0.18603777085E+04  0.46999998093E+01 0. -1.
       -5    1    3    3    0  502 -0.96653277760E+03  0.22357335398E+03  0.14336725622E+04  0.17434476650E+04  0.46999998093E+01 0.  1.
</event>
<event>
 5   0  0.2608070E-08  0.3594363E+04  0.7818609E-02  0.8091784E-01
       -2   -1    0    0    0  501  0.00000000000E+00  0.00000000000E+00  0.15956804677E+04  0.15956804677E+04  0.25500000920E-02 0. -1.
        2   -1    0    0  501    0  0.00000000000E+00  0.00000000000E+00 -0.20241278725E+04  0.20241278725E+04  0.25500000920E-02 0.  1.
    10030    2    1    2    0    0  0.00000000000E+00  0.00000000000E+00 -0.42844740476E+03  0.36198083402E+04  0.35943629813E+04 0.  0.
        3    1    3    3  502    0  0.32885875903E+03  0.87368138080E+03 -0.17608017089E+04  0.19929600866E+04  0.10100000352E+00 0.  1.
       -3    1    3    3    0  502 -0.32885875903E+03 -0.87368138080E+03  0.13323543041E+04  0.16268482536E+04  0.10100000352E+00 0. -1.
</event>
<event>
 5   0  0.8146881E-09  0.3599971E+04  0.7818609E-02  0.8090498E-01
        1   -1    0    0  501    0  0.00000000000E+00  0.00000000000E+00  0.24522517037E+04  0.24522517037E+04  0.50400001928E-02 0. -1.
       -1   -1    0    0    0  501  0.00000000000E+00  0.00000000000E+00 -0.13212130658E+04  0.13212130658E+04  0.50400001928E-02 0.  1.
    10030    2    1    2    0    0  0.00000000000E+00  0.00000000000E+00  0.11310386379E+04  0.37734647696E+04  0.35999705508E+04 0.  0.
        4    1    3    3  502    0  0.57221691103E+03  0.15988498371E+04  0.11911004863E+04  0.20742408192E+04  0.12699999809E+01 0. -1.
       -4    1    3    3    0  502 -0.57221691103E+03 -0.15988498371E+04 -0.60061848342E+02  0.16992239503E+04  0.12699999809E+01 0.  1.
</event>
<event>
 5   0  0.8024500E-09  0.3598839E+04  0.7818609E-02  0.8090758E-01
       -1   -1    0    0    0  501  0.00000000000E+00  0.00000000000E+00  0.14067838606E+04  0.14067838606E+04  0.50400001928E-02 0.  1.
        1   -1    0    0  501    0  0.00000000000E+00  0.00000000000E+00 -0.23016407978E+04  0.23016407978E+04  0.50400001928E-02 0. -1.
    10030    2    1    2    0    0  0.00000000000E+00  0.00000000000E+00 -0.89485693725E+03  0.37084246584E+04  0.35988393280E+04 0.  0.
        1    1    3    3  502    0  0.73124182692E+03  0.16400839728E+04 -0.32849701741E+03  0.18255137189E+04  0.50400001928E-02 0. -1.
       -1    1    3    3    0  502 -0.73124182692E+03 -0.16400839728E+04 -0.56635991984E+03  0.18829109395E+04  0.50400001928E-02 0.  1.
</event>
<event>
 5   0  0.8247570E-09  0.3600543E+04  0.7818609E-02  0.8090367E-01
       -1   -1    0    0    0  501  0.00000000000E+00  0.00000000000E+00  0.32460886752E+04  0.32460886752E+04  0.50400001928E-02 0. -1.
        1   -1    0    0  501    0  0.00000000000E+00  0.00000000000E+00 -0.99842568357E+03  0.99842568358E+03  0.50400001928E-02 0.  1.
    10030    2    1    2    0    0  0.00000000000E+00  0.00000000000E+00  0.22476629917E+04  0.42445143588E+04  0.36005434615E+04 0.  0.
        3    1    3    3  502    0 -0.11995700158E+04  0.57066151214E+03 -0.30853918932E+03  0.13637518930E+04  0.10100000352E+00 0.  1.
       -3    1    3    3    0  502  0.11995700158E+04 -0.57066151214E+03  0.25562021810E+04  0.28807624658E+04  0.10100000352E+00 0. -1.
</event>
<event>
 5   0  0.2590795E-08  0.3602862E+04  0.7818609E-02  0.8089837E-01
       -2   -1    0    0    0  501  0.00000000000E+00  0.00000000000E+00  0.24886795683E+04  0.24886795683E+04  0.25500000920E-02 0. -1.
        2   -1    0    0  501    0  0.00000000000E+00  0.00000000000E+00 -0.13039658045E+04  0.13039658045E+04  0.25500000920E-02 0.  1.
    10030    2    1    2    0    0  0.00000000000E+00  0.00000000000E+00  0.11847137639E+04  0.37926453728E+04  0.36028616711E+04 0.  0.
        4    1    3    3  502    0  0.39382788559E+03  0.14492445523E+04 -0.45490546059E+03  0.15691879322E+04  0.12699999809E+01 0.  1.
       -4    1    3    3    0  502 -0.39382788559E+03 -0.14492445523E+04  0.16396192245E+04  0.22234574405E+04  0.12699999809E+01 0. -1.
</event>
<event>
 5   0  0.2590795E-08  0.3606058E+04  0.7818609E-02  0.8089105E-01
       -2   -1    0    0    0  501  0.00000000000E+00  0.00000000000E+00  0.18030478703E+04  0.18030478703E+04  0.25500000920E-02 0.  1.
        2   -1    0    0  501    0  0.00000000000E+00  0.00000000000E+00 -0.18030103168E+04  0.18030103168E+04  0.25500000920E-02 0. -1.
    10030    2    1    2    0    0  0.00000000000E+00  0.00000000000E+00  0.37553519544E-01  0.36060581870E+04  0.36060581868E+04 0.  0.
        4    1    3    3  502    0 -0.11350905322E+04  0.22720042929E+03  0.13823580070E+04  0.18030434892E+04  0.12699999809E+01 0.  1.
       -4    1    3    3    0  502  0.11350905322E+04 -0.22720042929E+03 -0.13823204535E+04  0.18030146978E+04  0.12699999809E+01 0. -1.
</event>
<event>
 5   0  0.8063410E-09  0.3600721E+04  0.7818609E-02  0.8090327E-01
        1   -1    0    0  501    0  0.00000000000E+00  0.00000000000E+00  0.18213176990E+04  0.18213176990E+04  0.50400001928E-02 0.  1.
       -1   -1    0    0    0  501  0.00000000000E+00  0.00000000000E+00 -0.17796445585E+04  0.17796445585E+04  0.50400001928E-02 0. -1.
    10030    2    1    2    0    0  0.00000000000E+00  0.00000000000E+00  0.41673140476E+02  0.36009622575E+04  0.36007211124E+04 0.  0.
        2    1    3    3  502    0 -0.87711189304E+03 -0.10316828014E+04 -0.11656675390E+04  0.17867499789E+04  0.25500000920E-02 0. -1.
       -2    1    3    3    0  502  0.87711189304E+03  0.10316828014E+04  0.12073406794E+04  0.18142122786E+04  0.25500000920E-02 0.  1.
</event>
<event>
 5   0  0.8024500E-09  0.3599227E+04  0.7818609E-02  0.8090669E-01
       -1   -1    0    0    0  501  0.00000000000E+00  0.00000000000E+00  0.28764682580E+04  0.28764682580E+04  0.50400001928E-02 0. -1.
        1   -1    0    0  501    0  0.00000000000E+00  0.00000000000E+00 -0.11258978302E+04  0.11258978302E+04  0.50400001928E-02 0.  1.
    10030    2    1    2    0    0  0.00000000000E+00  0.00000000000E+00  0.17505704278E+04  0.40023660883E+04  0.35992273451E+04 0.  0.
        5    1    3    3  502    0  0.78492175320E+02 -0.43987411546E+03 -0.10632262799E+04  0.11533093563E+04  0.46999998093E+01 0.  1.
       -5    1    3    3    0  502 -0.78492175320E+02  0.43987411546E+03  0.28137967078E+04  0.28490567319E+04  0.46999998093E+01 0. -1.
</event>
<event>
 5   0  0.8024500E-09  0.3600699E+04  0.7818609E-02  0.8090332E-01
       -1   -1    0    0    0  501  0.00000000000E+00  0.00000000000E+00  0.12036534872E+04  0.12036534872E+04  0.50400001928E-02 0. -1.
        1   -1    0    0  501    0  0.00000000000E+00  0.00000000000E+00 -0.26928494798E+04  0.26928494798E+04  0.50400001928E-02 0.  1.
    10030    2    1    2    0    0  0.00000000000E+00  0.00000000000E+00 -0.14891959927E+04  0.38965029670E+04  0.36006986360E+04 0.  0.
        5    1    3    3  502    0 -0.12801024193E+04  0.12627440583E+04 -0.64750046362E+03  0.19111419887E+04  0.46999998093E+01 0.  1.
       -5    1    3    3    0  502  0.12801024193E+04 -0.12627440583E+04 -0.84169552903E+03  0.19853609783E+04  0.46999998093E+01 0. -1.
</event>
<event>
 5   0  0.2476968E-08  0.3598059E+04  0.7818609E-02  0.8090936E-01
       -2   -1    0    0    0  501  0.00000000000E+00  0.00000000000E+00  0.19208233099E+04  0.19208233099E+04  0.25500000920E-02 0. -1.
        2   -1    0    0  501    0  0.00000000000E+00  0.00000000000E+00 -0.16849585155E+04  0.16849585155E+04  0.25500000920E-02 0.  1.
    10030    2    1    2    0    0  0.00000000000E+00  0.00000000000E+00  0.23586479443E+03  0.36057818254E+04  0.35980592507E+04 0.  0.
        2    1    3    3  502    0 -0.46227226375E+03 -0.16503390644E+04 -0.43022690732E+03  0.17670342004E+04  0.25500000920E-02 0.  1.
       -2    1    3    3    0  502  0.46227226375E+03  0.16503390644E+04  0.66609170175E+03  0.18387476250E+04  0.25500000920E-02 0. -1.
</event>
<event>
 5   0  0.2608070E-08  0.3598665E+04  0.7818609E-02  0.8090798E-01
       -2   -1    0    0    0  501  0.00000000000E+00  0.00000000000E+00  0.19728995973E+04  0.19728995973E+04  0.25500000920E-02 0.  1.
        2   -1    0    0  501    0  0.00000000000E+00  0.00000000000E+00 -0.16410349957E+04  0.16410349957E+04  0.25500000920E-02 0. -1.
    10030    2    1    2    0    0  0.00000000000E+00  0.00000000000E+00  0.33186460165E+03  0.36139345930E+04  0.35986649092E+04 0.  0.
        3    1    3    3  502    0 -0.97176074216E+03  0.13152112727E+04  0.91978228482E+03  0.18761927122E+04  0.10100000352E+00 0.  1.
       -3    1    3    3    0  502  0.97176074216E+03 -0.13152112727E+04 -0.58791768317E+03  0.17377418808E+04  0.10100000352E+00 0. -1.
</event>
<event>
 5   0  0.2494592E-08  0.3607001E+04  0.7818609E-02  0.8088890E-01
        2   -1    0    0  501    0  0.00000000000E+00  0.00000000000E+00  0.10463893801E+04  0.10463893801E+04  0.25500000920E-02 0.  1.
       -2   -1    0    0    0  501  0.00000000000E+00  0.00000000000E+00 -0.31084160603E+04  0.31084160603E+04  0.25500000920E-02 0. -1.
    10030    2    1    2    0    0  0.00000000000E+00  0.00000000000E+00 -0.20620266802E+04  0.41548054405E+04  0.36070007234E+04 0.  0.
        1    1    3    3  502    0 -0.21164016675E+03 -0.29463486100E+03 -0.30659561197E+04  0.30873432251E+04  0.50400001928E-02 0. -1.
       -1    1    3    3    0  502  0.21164016675E+03  0.29463486100E+03  0.10039294396E+04  0.10674622153E+04  0.50400001928E-02 0.  1.
</event>
<event>
 5   0  0.2476968E-08  0.3601417E+04  0.7818609E-02  0.8090167E-01
       -2   -1    0    0    0  501  0.00000000000E+00  0.00000000000E+00  0.16983019919E+04  0.16983019919E+04  0.25500000920E-02 0.  1.
        2   -1    0    0  501    0  0.00000000000E+00  0.00000000000E+00 -0.19092895729E+04  0.19092895729E+04  0.25500000920E-02 0. -1.
    10030    2    1    2    0    0  0.00000000000E+00  0.00000000000E+00 -0.21098758096E+03  0.36075915648E+04  0.36014165461E+04 0.  0.
        2    1    3    3  502    0 -0.35358183426E+02 -0.54812292831E+03 -0.18233281350E+04  0.19042621756E+04  0.25500000920E-02 0. -1.
       -2    1    3    3    0  502  0.35358183426E+02  0.54812292831E+03  0.16123405540E+04  0.17033293891E+04  0.25500000920E-02 0.  1.
</event>
<event>
 5   0  0.2608070E-08  0.3599056E+04  0.7818609E-02  0.8090708E-01
       -2   -1    0    0    0  501  0.00000000000E+00  0.00000000000E+00  0.15743719799E+04  0.15743719799E+04  0.25500000920E-02 0.  1.
        2   -1    0    0  501    0  0.00000000000E+00  0.00000000000E+00 -0.20568840608E+04  0.20568840608E+04  0.25500000920E-02 0. -1.
    10030    2    1    2    0    0  0.00000000000E+00  0.00000000000E+00 -0.48251208097E+03  0.36312560407E+04  0.35990557824E+04 0.  0.
        3    1    3    3  502    0  0.37300330256E+03  0.23400440849E+03  0.15191787481E+04  0.15817059164E+04  0.10100000352E+00 0.  1.
       -3    1    3    3    0  502 -0.37300330256E+03 -0.23400440849E+03 -0.20016908291E+04  0.20495501244E+04  0.10100000352E+00 0. -1.
</event>
<event>
 5   0  0.8024500E-09  0.3605263E+04  0.7818609E-02  0.8089287E-01
       -1   -1    0    0    0  501  0.00000000000E+00  0.00000000000E+00  0.15816652627E+04  0.15816652627E+04  0.50400001928E-02 0.  1.
        1   -1    0    0  501    0  0.00000000000E+00  0.00000000000E+00 -0.20544672187E+04  0.20544672188E+04  0.50400001928E-02 0. -1.
    10030    2    1    2    0    0  0.00000000000E+00  0.00000000000E+00 -0.47280195605E+03  0.36361324814E+04  0.36052625054E+04 0.  0.
        5    1    3    3  502    0 -0.86349307961E+03  0.12238347266E+04 -0.12480176020E+04  0.19496055400E+04  0.46999998093E+01 0. -1.
       -5    1    3    3    0  502  0.86349307961E+03 -0.12238347266E+04  0.77521564599E+03  0.16865269415E+04  0.46999998093E+01 0.  1.
</event>
<event>
 5   0  0.2482243E-08  0.3604291E+04  0.7818609E-02  0.8089510E-01
        2   -1    0    0  501    0  0.00000000000E+00  0.00000000000E+00  0.23540107450E+04  0.23540107450E+04  0.25500000920E-02 0.  1.
       -2   -1    0    0    0  501  0.00000000000E+00  0.00000000000E+00 -0.13796573072E+04  0.13796573072E+04  0.25500000920E-02 0. -1.
    10030    2    1    2    0    0  0.00000000000E+00  0.00000000000E+00  0.97435343780E+03  0.37336680523E+04  0.36042908460E+04 0.  0.
        5    1    3    3  502    0  0.15357477178E+04  0.12314235387E+03  0.14556258071E+04  0.21195645006E+04  0.46999998093E+01 0.  1.
       -5    1    3    3    0  502 -0.15357477178E+04 -0.12314235387E+03 -0.48127236932E+03  0.16141035516E+04  0.46999998093E+01 0. -1.
</event>
<event>
 5   0  0.8024500E-09  0.3599198E+04  0.7818609E-02  0.8090675E-01
       -1   -1    0    0    0  501  0.00000000000E+00  0.00000000000E+00  0.27151843498E+04  0.27151843498E+04  0.50400001928E-02 0.  1.
        1   -1    0    0  501    0  0.00000000000E+00  0.00000000000E+00 -0.11927575360E+04  0.11927575361E+04  0.50400001928E-02 0. -1.
    10030    2    1    2    0    0  0.00000000000E+00  0.00000000000E+00  0.15224268138E+04  0.39079418859E+04  0.35991980190E+04 0.  0.
        5    1    3    3  502    0  0.27717468496E+03 -0.16315585501E+04  0.15287658640E+04  0.22529882968E+04  0.46999998093E+01 0.  1.
       -5    1    3    3    0  502 -0.27717468496E+03  0.16315585501E+04 -0.63390502485E+01  0.16549535891E+04  0.46999998093E+01 0. -1.
</event>
<event>
 5   0  0.8247570E-09  0.3599465E+04  0.7818609E-02  0.8090614E-01
       -1   -1    0    0    0  501  0.00000000000E+00  0.00000000000E+00  0.25763340568E+04  0.25763340568E+04  0.50400001928E-02 0. -1.
        1   -1    0    0  501    0  0.00000000000E+00  0.00000000000E+00 -0.12572273689E+04  0.12572273689E+04  0.50400001928E-02 0.  1.
    10030    2    1    2    0    0  0.00000000000E+00  0.00000000000E+00  0.13191066879E+04  0.38335614257E+04  0.35994653424E+04 0.  0.
        3    1    3    3  502    0 -0.17194440916E+04 -0.45880224305E+03  0.94543218348E+03  0.20151499960E+04  0.10100000352E+00 0.  1.
       -3    1    3    3    0  502  0.17194440916E+04  0.45880224305E+03  0.37367450439E+03  0.18184114298E+04  0.10100000352E+00 0. -1.
</event>
<event>
 5   0  0.2608070E-08  0.3594987E+04  0.7818609E-02  0.8091641E-01
       -2   -1    0    0    0  501  0.00000000000E+00  0.00000000000E+00  0.18179345579E+04  0.18179345579E+04  0.25500000920E-02 0. -1.
        2   -1    0    0  501    0  0.00000000000E+00  0.00000000000E+00 -0.17772823774E+04  0.17772823774E+04  0.25500000920E-02 0.  1.
    10030    2    1    2    0    0  0.00000000000E+00  0.00000000000E+00  0.40652180482E+02  0.35952169354E+04  0.35949870949E+04 0.  0.
        3    1    3    3  502    0  0.14586320802E+04  0.68651792714E+03 -0.77475218048E+03  0.17886182827E+04  0.10100000352E+00 0.  1.
       -3    1    3    3    0  502 -0.14586320802E+04 -0.68651792714E+03  0.81540436096E+03  0.18065986527E+04  0.10100000352E+00 0. -1.
</event>
<event>
 5   0  0.8024500E-09  0.3598576E+04  0.7818609E-02  0.8090818E-01
       -1   -1    0    0    0  501  0.00000000000E+00  0.00000000000E+00  0.11904065602E+04  0.11904065602E+04  0.50400001928E-02 0. -1.
        1   -1    0    0  501    0  0.00000000000E+00  0.00000000000E+00 -0.27196067314E+04  0.27196067314E+04  0.50400001928E-02 0.  1.
    10030    2    1    2    0    0  0.00000000000E+00  0.00000000000E+00 -0.15292001712E+04  0.39100132915E+04  0.35985762152E+04 0.  0.
        1    1    3    3  502    0 -0.17595588179E+04 -0.22844840664E+03 -0.44008543839E+03  0.18280894675E+04  0.50400001928E-02 0. -1.
       -1    1    3    3    0  502  0.17595588179E+04  0.22844840664E+03 -0.10891147328E+04  0.20819238241E+04  0.50400001928E-02 0.  1.
</event>
<event>
 5   0  0.8247570E-09  0.3602799E+04  0.7818609E-02  0.8089851E-01
       -1   -1    0    0    0  501  0.00000000000E+00  0.00000000000E+00  0.15383110283E+04  0.15383110283E+04  0.50400001928E-02 0. -1.
        1   -1    0    0  501    0  0.00000000000E+00  0.00000000000E+00 -0.21094820024E+04  0.21094820024E+04  0.50400001928E-02 0.  1.
    10030    2    1    2    0    0  0.00000000000E+00  0.00000000000E+00 -0.57117097417E+03  0.36477930307E+04  0.36027985946E+04 0.  0.
        3    1    3    3  502    0 -0.29067426780E+03  0.16810508128E+04  0.30009882408E+03  0.17321901395E+04  0.10100000352E+00 0. -1.
       -3    1    3    3    0  502  0.29067426780E+03 -0.16810508128E+04 -0.87126979825E+03  0.19156028912E+04  0.10100000352E+00 0.  1.
</event>
<event>
 5   0  0.8146881E-09  0.3600379E+04  0.7818609E-02  0.8090405E-01
        1   -1    0    0  501    0  0.00000000000E+00  0.00000000000E+00  0.20048760116E+04  0.20048760116E+04  0.50400001928E-02 0.  1.
       -1   -1    0    0    0  501  0.00000000000E+00  0.00000000000E+00 -0.16164002219E+04  0.16164002219E+04  0.50400001928E-02 0. -1.
    10030    2    1    2    0    0  0.00000000000E+00  0.00000000000E+00  0.38847578969E+03  0.36212762335E+04  0.36003788857E+04 0.  0.
        4    1    3    3  502    0 -0.97554916645E+03 -0.16982322828E+03 -0.13178656562E+04  0.16484257962E+04  0.12699999809E+01 0. -1.
       -4    1    3    3    0  502  0.97554916645E+03  0.16982322828E+03  0.17063414459E+04  0.19728504373E+04  0.12699999809E+01 0.  1.
</event>
<event>
 5   0  0.8024500E-09  0.3600920E+04  0.7818609E-02  0.8090281E-01
        1   -1    0    0  501    0  0.00000000000E+00  0.00000000000E+00  0.17671227180E+04  0.17671227180E+04  0.50400001928E-02 0.  1.
       -1   -1    0    0    0  501  0.00000000000E+00  0.00000000000E+00 -0.18344262081E+04  0.18344262081E+04  0.50400001928E-02 0. -1.
    10030    2    1    2    0    0  0.00000000000E+00  0.00000000000E+00 -0.67303490085E+02  0.36015489261E+04  0.36009200085E+04 0.  0.
        5    1    3    3  502    0 -0.31411706688E+03  0.72891631650E+03 -0.16499926623E+04  0.18309796296E+04  0.46999998093E+01 0. -1.
       -5    1    3    3    0  502  0.31411706688E+03 -0.72891631650E+03  0.15826891722E+04  0.17705692966E+04  0.46999998093E+01 0.  1.
</event>
<event>
 5   0  0.2590795E-08  0.3600192E+04  0.7818609E-02  0.8090448E-01
       -2   -1    0    0    0  501  0.00000000000E+00  0.00000000000E+00  0.14090774539E+04  0.14090774539E+04  0.25500000920E-02 0.  1.
        2   -1    0    0  501    0  0.00000000000E+00  0.00000000000E+00 -0.22996227026E+04  0.22996227026E+04  0.25500000920E-02 0. -1.
    10030    2    1    2    0    0  0.00000000000E+00  0.00000000000E+00 -0.89054524869E+03  0.37087001565E+04  0.36001924964E+04 0.  0.
        4    1    3    3  502    0 -0.98484055572E+03 -0.13571194227E+04  0.22918226389E+03  0.16923977578E+04  0.12699999809E+01 0.  1.
       -4    1    3    3    0  502  0.98484055572E+03  0.13571194227E+04 -0.11197275126E+04  0.20163023987E+04  0.12699999809E+01 0. -1.
</event>
<event>
 5   0  0.2494592E-08  0.3598177E+04  0.7818609E-02  0.8090909E-01
       -2   -1    0    0    0  501  0.00000000000E+00  0.00000000000E+00  0.28278705618E+04  0.28278705618E+04  0.25500000920E-02 0. -1.
        2   -1    0    0  501    0  0.00000000000E+00  0.00000000000E+00 -0.11445784752E+04  0.11445784752E+04  0.25500000920E-02 0.  1.
    10030    2    1    2    0    0  0.00000000000E+00  0.00000000000E+00  0.16832920867E+04  0.39724490370E+04  0.35981771917E+04 0.  0.
        1    1    3    3  502    0 -0.65193474362E+03  0.16687795900E+04  0.10226359823E+04  0.20629174928E+04  0.50400001928E-02 0. -1.
       -1    1    3    3    0  502  0.65193474362E+03 -0.16687795900E+04  0.66065610440E+03  0.19095315442E+04  0.50400001928E-02 0.  1.
</event>
<event>
 5   0  0.8146881E-09  0.3609899E+04  0.7818609E-02  0.8088228E-01
       -1   -1    0    0    0  501  0.00000000000E+00  0.00000000000E+00  0.27627945626E+04  0.27627945626E+04  0.50400001928E-02 0. -1.
        1   -1    0    0  501    0  0.00000000000E+00  0.00000000000E+00 -0.11791835443E+04  0.11791835443E+04  0.50400001928E-02 0.  1.
    10030    2    1    2    0    0  0.00000000000E+00  0.00000000000E+00  0.15836110182E+04  0.39419781069E+04  0.36098985496E+04 0.  0.
        4    1    3    3  502    0  0.69933798723E+03  0.45544799063E+03  0.25394468100E+04  0.26730690613E+04  0.12699999809E+01 0. -1.
       -4    1    3    3    0  502 -0.69933798723E+03 -0.45544799063E+03 -0.95583579174E+03  0.12689090457E+04  0.12699999809E+01 0.  1.
</event>
<event>
 5   0  0.2476968E-08  0.3600025E+04  0.7818609E-02  0.8090486E-01
       -2   -1    0    0    0  501  0.00000000000E+00  0.00000000000E+00  0.19276981293E+04  0.19276981293E+04  0.25500000920E-02 0. -1.
        2   -1    0    0  501    0  0.00000000000E+00  0.00000000000E+00 -0.16807843814E+04  0.16807843814E+04  0.25500000920E-02 0.  1.
    10030    2    1    2    0    0  0.00000000000E+00  0.00000000000E+00  0.24691374794E+03  0.36084825107E+04  0.36000249486E+04 0.  0.
        2    1    3    3  502    0  0.12361303701E+04  0.96942498974E+03 -0.75738053023E+03  0.17439691426E+04  0.25500000920E-02 0.  1.
       -2    1    3    3    0  502 -0.12361303701E+04 -0.96942498974E+03  0.10042942782E+04  0.18645133681E+04  0.25500000920E-02 0. -1.
</event>
<event>
 5   0  0.8024500E-09  0.3589010E+04  0.7818609E-02  0.8093014E-01
        1   -1    0    0  501    0  0.00000000000E+00  0.00000000000E+00  0.15435988971E+04  0.15435988971E+04  0.50400001928E-02 0. -1.
       -1   -1    0    0    0  501  0.00000000000E+00  0.00000000000E+00 -0.20861953394E+04  0.20861953394E+04  0.50400001928E-02 0.  1.
    10030    2    1    2    0    0  0.00000000000E+00  0.00000000000E+00 -0.54259644231E+03  0.36297942365E+04  0.35890103510E+04 0.  0.
        5    1    3    3  502    0 -0.12913433197E+04 -0.54336177606E+03 -0.14053868211E+04  0.19844253062E+04  0.46999998093E+01 0.  1.
       -5    1    3    3    0  502  0.12913433197E+04  0.54336177606E+03  0.86279037877E+03  0.16453689303E+04  0.46999998093E+01 0. -1.
</event>
<event>
 5   0  0.2476968E-08  0.3599213E+04  0.7818609E-02  0.8090672E-01
       -2   -1    0    0    0  501  0.00000000000E+00  0.00000000000E+00  0.19667743014E+04  0.19667743014E+04  0.25500000920E-02 0.  1.
        2   -1    0    0  501    0  0.00000000000E+00  0.00000000000E+00 -0.16466470227E+04  0.16466470227E+04  0.25500000920E-02 0. -1.
    10030    2    1    2    0    0  0.00000000000E+00  0.00000000000E+00  0.32012727869E+03  0.36134213242E+04  0.35992127183E+04 0.  0.
        2    1    3    3  502    0  0.16541788574E+04  0.14424719306E+03 -0.53655461174E+03  0.17449944975E+04  0.25500000920E-02 0. -1.
       -2    1    3    3    0  502 -0.16541788574E+04 -0.14424719306E+03  0.85668189043E+03  0.18684268266E+04  0.25500000920E-02 0.  1.
</event>
<event>
 5   0  0.8146881E-09  0.3599212E+04  0.7818609E-02  0.8090672E-01
       -1   -1    0    0    0  501  0.00000000000E+00  0.00000000000E+00  0.22710016720E+04  0.22710016720E+04  0.50400001928E-02 0.  1.
        1   -1    0    0  501    0  0.00000000000E+00  0.00000000000E+00 -0.14260590623E+04  0.14260590623E+04  0.50400001928E-02 0. -1.
    10030    2    1    2    0    0  0.00000000000E+00  0.00000000000E+00  0.84494260972E+03  0.36970607343E+04  0.35992124221E+04 0.  0.
        4    1    3    3  502    0 -0.17062331773E+04  0.51879652053E+03  0.17466724193E+03  0.17918961308E+04  0.12699999809E+01 0. -1.
       -4    1    3    3    0  502  0.17062331773E+04 -0.51879652053E+03  0.67027536779E+03  0.19051646036E+04  0.12699999809E+01 0.  1.
</event>
<event>
 5   0  0.8146881E-09  0.3600891E+04  0.7818609E-02  0.8090288E-01
       -1   -1    0    0    0  501  0.00000000000E+00  0.00000000000E+00  0.15821196405E+04  0.15821196405E+04  0.50400001928E-02 0. -1.
        1   -1    0    0  501    0  0.00000000000E+00  0.00000000000E+00 -0.20488997906E+04  0.20488997906E+04  0.50400001928E-02 0.  1.
    10030    2    1    2    0    0  0.00000000000E+00  0.00000000000E+00 -0.46678015004E+03  0.36310194311E+04  0.36008913342E+04 0.  0.
        4    1    3    3  502    0 -0.73540998500E+02 -0.94432413302E+03  0.13105794847E+04  0.16170270700E+04  0.12699999809E+01 0. -1.
       -4    1    3    3    0  502  0.73540998500E+02  0.94432413302E+03 -0.17773596347E+04  0.20139923611E+04  0.12699999809E+01 0.  1.
</event>
<event>
 5   0  0.8146881E-09  0.3599193E+04  0.7818609E-02  0.8090677E-01
        1   -1    0    0  501    0  0.00000000000E+00  0.00000000000E+00  0.19838599226E+04  0.19838599227E+04  0.50400001928E-02 0.  1.
       -1   -1    0    0    0  501  0.00000000000E+00  0.00000000000E+00 -0.16324479573E+04  0.16324479573E+04  0.50400001928E-02 0. -1.
    10030    2    1    2    0    0  0.00000000000E+00  0.00000000000E+00  0.35141196538E+03  0.36163078799E+04  0.35991932864E+04 0.  0.
        4    1    3    3  502    0  0.10101265650E+04 -0.76951569061E+03 -0.11055188807E+04  0.16836518892E+04  0.12699999809E+01 0. -1.
       -4    1    3    3    0  502 -0.10101265650E+04  0.76951569061E+03  0.14569308461E+04  0.19326559908E+04  0.12699999809E+01 0.  1.
</event>
<event>
 5   0  0.2476968E-08  0.3588100E+04  0.7818609E-02  0.8093223E-01
       -2   -1    0    0    0  501  0.00000000000E+00  0.00000000000E+00  0.20563310528E+04  0.20563310529E+04  0.25500000920E-02 0. -1.
        2   -1    0    0  501    0  0.00000000000E+00  0.00000000000E+00 -0.15652226285E+04  0.15652226285E+04  0.25500000920E-02 0.  1.
    10030    2    1    2    0    0  0.00000000000E+00  0.00000000000E+00  0.49110842439E+03  0.36215536813E+04  0.35881002748E+04 0.  0.
        2    1    3    3  502    0 -0.13568514308E+04 -0.25244588373E+03  0.14024701077E+04  0.19676628605E+04  0.25500000920E-02 0. -1.
       -2    1    3    3    0  502  0.13568514308E+04  0.25244588373E+03 -0.91136168334E+03  0.16538908208E+04  0.25500000920E-02 0.  1.
</event>
<event>
 5   0  0.8024500E-09  0.3599934E+04  0.7818609E-02  0.8090507E-01
       -3   -1    0    0    0  501  0.00000000000E+00  0.00000000000E+00  0.16613924582E+04  0.16613924612E+04  0.10100000352E+00 0. -1.
        3   -1    0    0  501    0  0.00000000000E+00  0.00000000000E+00 -0.19500996476E+04  0.19500996502E+04  0.10100000352E+00 0.  1.
    10030    2    1    2    0    0  0.00000000000E+00  0.00000000000E+00 -0.28870718948E+03  0.36114921115E+04  0.35999338091E+04 0.  0.
        3    1    3    3  502    0 -0.31853595415E+03 -0.95406381259E+01 -0.19215731789E+04  0.19478192087E+04  0.10100000352E+00 0.  1.
       -3    1    3    3    0  502  0.31853595415E+03  0.95406381259E+01  0.16328659894E+04  0.16636729028E+04  0.10100000352E+00 0. -1.
</event>
<event>
 5   0  0.2482243E-08  0.3602008E+04  0.7818609E-02  0.8090032E-01
       -2   -1    0    0    0  501  0.00000000000E+00  0.00000000000E+00  0.15536888359E+04  0.15536888359E+04  0.25500000920E-02 0. -1.
        2   -1    0    0  501    0  0.00000000000E+00  0.00000000000E+00 -0.20876863111E+04  0.20876863111E+04  0.25500000920E-02 0.  1.
    10030    2    1    2    0    0  0.00000000000E+00  0.00000000000E+00 -0.53399747514E+03  0.36413751470E+04  0.36020077259E+04 0.  0.
        5    1    3    3  502    0 -0.44950451861E+03  0.17403434082E+03 -0.20212598274E+04  0.20779450531E+04  0.46999998093E+01 0.  1.
       -5    1    3    3    0  502  0.44950451861E+03 -0.17403434082E+03  0.14872623522E+04  0.15634300939E+04  0.46999998093E+01 0. -1.
</event>
<event>
 5   0  0.2482243E-08  0.3598957E+04  0.7818609E-02  0.8090731E-01
       -2   -1    0    0    0  501  0.00000000000E+00  0.00000000000E+00  0.15105950752E+04  0.15105950752E+04  0.25500000920E-02 0. -1.
        2   -1    0    0  501    0  0.00000000000E+00  0.00000000000E+00 -0.21436071637E+04  0.21436071637E+04  0.25500000920E-02 0.  1.
    10030    2    1    2    0    0  0.00000000000E+00  0.00000000000E+00 -0.63301208849E+03  0.36542022388E+04  0.35989567513E+04 0.  0.
        5    1    3    3  502    0  0.61956285741E+02 -0.17636956582E+04  0.40515445746E+02  0.17652548109E+04  0.46999998093E+01 0.  1.
       -5    1    3    3    0  502 -0.61956285741E+02  0.17636956582E+04 -0.67352753423E+03  0.18889474279E+04  0.46999998093E+01 0. -1.
</event>
<event>
 5   0  0.2590795E-08  0.3600804E+04  0.7818609E-02  0.8090308E-01
       -2   -1    0    0    0  501  0.00000000000E+00  0.00000000000E+00  0.14360703843E+04  0.14360703843E+04  0.25500000920E-02 0. -1.
        2   -1    0    0  501    0  0.00000000000E+00  0.00000000000E+00 -0.22571641913E+04  0.22571641913E+04  0.25500000920E-02 0.  1.
    10030    2    1    2    0    0  0.00000000000E+00  0.00000000000E+00 -0.82109380703E+03  0.36932345756E+04  0.36008036035E+04 0.  0.
        4    1    3    3  502    0  0.11043340868E+03 -0.12141695153E+04  0.94823952651E+03  0.15445267761E+04  0.12699999809E+01 0. -1.
       -4    1    3    3    0  502 -0.11043340868E+03  0.12141695153E+04 -0.17693333335E+04  0.21487077995E+04  0.12699999809E+01 0.  1.
</event>
<event>
 5   0  0.8146881E-09  0.3623964E+04  0.7818609E-02  0.8085024E-01
       -1   -1    0    0    0  501  0.00000000000E+00  0.00000000000E+00  0.13884423021E+04  0.13884423021E+04  0.50400001928E-02 0.  1.
        1   -1    0    0  501    0  0.00000000000E+00  0.00000000000E+00 -0.23647215414E+04  0.23647215414E+04  0.50400001928E-02 0. -1.
    10030    2    1    2    0    0  0.00000000000E+00  0.00000000000E+00 -0.97627923930E+03  0.37531638435E+04  0.36239643600E+04 0.  0.
        4    1    3    3  502    0 -0.11443046307E+04  0.15917859731E+03 -0.19337943422E+04  0.22526280395E+04  0.12699999809E+01 0. -1.
       -4    1    3    3    0  502  0.11443046307E+04 -0.15917859731E+03  0.95751510288E+03  0.15005358039E+04  0.12699999809E+01 0.  1.
</event>
<event>
 5   0  0.8063410E-09  0.3600590E+04  0.7818609E-02  0.8090356E-01
        1   -1    0    0  501    0  0.00000000000E+00  0.00000000000E+00  0.10756894090E+04  0.10756894090E+04  0.50400001928E-02 0.  1.
       -1   -1    0    0    0  501  0.00000000000E+00  0.00000000000E+00 -0.30130099590E+04  0.30130099590E+04  0.50400001928E-02 0. -1.
    10030    2    1    2    0    0  0.00000000000E+00  0.00000000000E+00 -0.19373205500E+04  0.40886993681E+04  0.36005904528E+04 0.  0.
        2    1    3    3  502    0 -0.10299698432E+04 -0.14689691309E+04 -0.79887655754E+03  0.19639022226E+04  0.25500000920E-02 0.  1.
       -2    1    3    3    0  502  0.10299698432E+04  0.14689691309E+04 -0.11384439925E+04  0.21247971455E+04  0.25500000920E-02 0. -1.
</event>
<event>
 5   0  0.2476968E-08  0.3599511E+04  0.7818609E-02  0.8090604E-01
        2   -1    0    0  501    0  0.00000000000E+00  0.00000000000E+00  0.20240156891E+04  0.20240156891E+04  0.25500000920E-02 0.  1.
       -2   -1    0    0    0  501  0.00000000000E+00  0.00000000000E+00 -0.16003436745E+04  0.16003436745E+04  0.25500000920E-02 0. -1.
    10030    2    1    2    0    0  0.00000000000E+00  0.00000000000E+00  0.42367201461E+03  0.36243593635E+04  0.35995114696E+04 0.  0.
        2    1    3    3  502    0  0.11377377825E+04  0.65274984036E+03 -0.10289820764E+04  0.16671333868E+04  0.25500000920E-02 0. -1.
       -2    1    3    3    0  502 -0.11377377825E+04 -0.65274984036E+03  0.14526540910E+04  0.19572259767E+04  0.25500000920E-02 0.  1.
</event>
<event>
 5   0  0.8063410E-09  0.3599619E+04  0.7818609E-02  0.8090579E-01
        1   -1    0    0  501    0  0.00000000000E+00  0.00000000000E+00  0.23448426191E+04  0.23448426191E+04  0.50400001928E-02 0. -1.
       -1   -1    0    0    0  501  0.00000000000E+00  0.00000000000E+00 -0.13814634068E+04  0.13814634068E+04  0.50400001928E-02 0.  1.
    10030    2    1    2    0    0  0.00000000000E+00  0.00000000000E+00  0.96337921229E+03  0.37263060259E+04  0.35996190204E+04 0.  0.
        2    1    3    3  502    0  0.10425379098E+03  0.17572792948E+04  0.93781747395E+02  0.17628653917E+04  0.25500000920E-02 0. -1.
       -2    1    3    3    0  502 -0.10425379098E+03 -0.17572792948E+04  0.86959746489E+03  0.19634406342E+04  0.25500000920E-02 0.  1.
</event>
<event>
 5   0  0.2608070E-08  0.3599628E+04  0.7818609E-02  0.8090577E-01
       -2   -1    0    0    0  501  0.00000000000E+00  0.00000000000E+00  0.16514513767E+04  0.16514513767E+04  0.25500000920E-02 0.  1.
        2   -1    0    0  501    0  0.00000000000E+00  0.00000000000E+00 -0.19615057148E+04  0.19615057148E+04  0.25500000920E-02 0. -1.
    10030    2    1    2    0    0  0.00000000000E+00  0.00000000000E+00 -0.31005433803E+03  0.36129570915E+04  0.35996284881E+04 0.  0.
        3    1    3    3  502    0 -0.10857710609E+04  0.10511419297E+04 -0.11361604389E+04  0.18906767853E+04  0.10100000352E+00 0.  1.
       -3    1    3    3    0  502  0.10857710609E+04 -0.10511419297E+04  0.82610610091E+03  0.17222803062E+04  0.10100000352E+00 0. -1.
</event>
<event>
 5   0  0.2482243E-08  0.3597947E+04  0.7818609E-02  0.8090962E-01
        2   -1    0    0  501    0  0.00000000000E+00  0.00000000000E+00  0.14676887673E+04  0.14676887673E+04  0.25500000920E-02 0.  1.
       -2   -1    0    0    0  501  0.00000000000E+00  0.00000000000E+00 -0.22050353145E+04  0.22050353145E+04  0.25500000920E-02 0. -1.
    10030    2    1    2    0    0  0.00000000000E+00  0.00000000000E+00 -0.73734654721E+03  0.36727240817E+04  0.35979469493E+04 0.  0.
        5    1    3    3  502    0 -0.40392090092E+03 -0.12040037762E+04 -0.16693235400E+04  0.20974842928E+04  0.46999998093E+01 0. -1.
       -5    1    3    3    0  502  0.40392090092E+03  0.12040037762E+04  0.93197699280E+03  0.15752397889E+04  0.46999998093E+01 0.  1.
</event>
<event>
 5   0  0.8024500E-09  0.3599621E+04  0.7818609E-02  0.8090579E-01
        1   -1    0    0  501    0  0.00000000000E+00  0.00000000000E+00  0.20846713473E+04  0.20846713473E+04  0.50400001928E-02 0.  1.
       -1   -1    0    0    0  501  0.00000000000E+00  0.00000000000E+00 -0.15538741960E+04  0.15538741960E+04  0.50400001928E-02 0. -1.
    10030    2    1    2    0    0  0.00000000000E+00  0.00000000000E+00  0.53079715130E+03  0.36385455433E+04  0.35996205432E+04 0.  0.
        5    1    3    3  502    0 -0.54621958045E+03 -0.16725921657E+04 -0.11734429827E+03  0.17634375967E+04  0.46999998093E+01 0. -1.
       -5    1    3    3    0  502  0.54621958045E+03  0.16725921657E+04  0.64814144958E+03  0.18751079467E+04  0.46999998093E+01 0.  1.
</event>
<event>
 5   0  0.8247570E-09  0.3599233E+04  0.7818609E-02  0.8090667E-01
        1   -1    0    0  501    0  0.00000000000E+00  0.00000000000E+00  0.22405434408E+04  0.22405434408E+04  0.50400001928E-02 0. -1.
       -1   -1    0    0    0  501  0.00000000000E+00  0.00000000000E+00 -0.14454614436E+04  0.14454614436E+04  0.50400001928E-02 0.  1.
    10030    2    1    2    0    0  0.00000000000E+00  0.00000000000E+00  0.79508199728E+03  0.36860048844E+04  0.35992327829E+04 0.  0.
        3    1    3    3  502    0 -0.10143664542E+04  0.14346663745E+04  0.79603928477E+03  0.19289596840E+04  0.10100000352E+00 0. -1.
       -3    1    3    3    0  502  0.10143664542E+04 -0.14346663745E+04 -0.95728749391E+00  0.17570452004E+04  0.10100000352E+00 0.  1.
</event>
<event>
 5   0  0.2608070E-08  0.3600134E+04  0.7818609E-02  0.8090461E-01
       -2   -1    0    0    0  501  0.00000000000E+00  0.00000000000E+00  0.14629268592E+04  0.14629268592E+04  0.25500000920E-02 0. -1.
        2   -1    0    0  501    0  0.00000000000E+00  0.00000000000E+00 -0.22149032168E+04  0.22149032168E+04  0.25500000920E-02 0.  1.
    10030    2    1    2    0    0  0.00000000000E+00  0.00000000000E+00 -0.75197635770E+03  0.36778300760E+04  0.36001341121E+04 0.  0.
        3    1    3    3  502    0 -0.49378508177E+03  0.54195712340E+03  0.13034805224E+04  0.14955275702E+04  0.10100000352E+00 0. -1.
       -3    1    3    3    0  502  0.49378508177E+03 -0.54195712340E+03 -0.20554568801E+04  0.21823025058E+04  0.10100000352E+00 0.  1.
</event>
<event>
 5   0  0.2494592E-08  0.3598583E+04  0.7818609E-02  0.8090816E-01
       -2   -1    0    0    0  501  0.00000000000E+00  0.00000000000E+00  0.23022718984E+04  0.23022718984E+04  0.25500000920E-02 0.  1.
        2   -1    0    0  501    0  0.00000000000E+00  0.00000000000E+00 -0.14061976325E+04  0.14061976325E+04  0.25500000920E-02 0. -1.
    10030    2    1    2    0    0  0.00000000000E+00  0.00000000000E+00  0.89607426596E+03  0.37084695309E+04  0.35985826615E+04 0.  0.
        1    1    3    3  502    0 -0.50567977955E+03  0.65323308282E+03 -0.11992173813E+04  0.14562100905E+04  0.50400001928E-02 0. -1.
       -1    1    3    3    0  502  0.50567977955E+03 -0.65323308282E+03  0.20952916473E+04  0.22522594404E+04  0.50400001928E-02 0.  1.
</event>
<event>
 5   0  0.2494592E-08  0.3600953E+04  0.7818609E-02  0.8090273E-01
       -2   -1    0    0    0  501  0.00000000000E+00  0.00000000000E+00  0.20639665216E+04  0.20639665216E+04  0.25500000920E-02 0. -1.
        2   -1    0    0  501    0  0.00000000000E+00  0.00000000000E+00 -0.15706241288E+04  0.15706241288E+04  0.25500000920E-02 0.  1.
    10030    2    1    2    0    0  0.00000000000E+00  0.00000000000E+00  0.49334239284E+03  0.36345906504E+04  0.36009529960E+04 0.  0.
        1    1    3    3  502    0 -0.11504736261E+04  0.50160238384E+03  0.15496683334E+04  0.19941580828E+04  0.50400001928E-02 0. -1.
       -1    1    3    3    0  502  0.11504736261E+04 -0.50160238384E+03 -0.10563259405E+04  0.16404325675E+04  0.50400001928E-02 0.  1.
</event>
<event>
 5   0  0.2476968E-08  0.3605014E+04  0.7818609E-02  0.8089344E-01
        2   -1    0    0  501    0  0.00000000000E+00  0.00000000000E+00  0.20588532137E+04  0.20588532137E+04  0.25500000920E-02 0.  1.
       -2   -1    0    0    0  501  0.00000000000E+00  0.00000000000E+00 -0.15780785794E+04  0.15780785794E+04  0.25500000920E-02 0. -1.
    10030    2    1    2    0    0  0.00000000000E+00  0.00000000000E+00  0.48077463427E+03  0.36369317931E+04  0.36050143715E+04 0.  0.
        2    1    3    3  502    0 -0.13732338528E+04  0.56241066894E+03 -0.79188005630E+03  0.16820080257E+04  0.25500000920E-02 0. -1.
       -2    1    3    3    0  502  0.13732338528E+04 -0.56241066894E+03  0.12726546906E+04  0.19549237674E+04  0.25500000920E-02 0.  1.
</event>
<event>
 5   0  0.8024500E-09  0.3596982E+04  0.7818609E-02  0.8091183E-01
        1   -1    0    0  501    0  0.00000000000E+00  0.00000000000E+00  0.16477598866E+04  0.16477598866E+04  0.50400001928E-02 0.  1.
       -1   -1    0    0    0  501  0.00000000000E+00  0.00000000000E+00 -0.19630099116E+04  0.19630099116E+04  0.50400001928E-02 0. -1.
    10030    2    1    2    0    0  0.00000000000E+00  0.00000000000E+00 -0.31525002505E+03  0.36107697982E+04  0.35969815064E+04 0.  0.
        1    1    3    3  502    0  0.47894606784E+03  0.24776276908E+03  0.15647005598E+04  0.16550116518E+04  0.50400001928E-02 0.  1.
       -1    1    3    3    0  502 -0.47894606784E+03 -0.24776276908E+03 -0.18799505849E+04  0.19557581464E+04  0.50400001928E-02 0. -1.
</event>
<event>
 5   0  0.2494592E-08  0.3599770E+04  0.7818609E-02  0.8090544E-01
        2   -1    0    0  501    0  0.00000000000E+00  0.00000000000E+00  0.18064050034E+04  0.18064050034E+04  0.25500000920E-02 0. -1.
       -2   -1    0    0    0  501  0.00000000000E+00  0.00000000000E+00 -0.17933884553E+04  0.17933884553E+04  0.25500000920E-02 0.  1.
    10030    2    1    2    0    0  0.00000000000E+00  0.00000000000E+00  0.13016548016E+02  0.35997934587E+04  0.35997699253E+04 0.  0.
        1    1    3    3  502    0 -0.16019004555E+04 -0.24080332904E+03 -0.77804421887E+03  0.17970598540E+04  0.50400001928E-02 0.  1.
       -1    1    3    3    0  502  0.16019004555E+04  0.24080332904E+03  0.79106076688E+03  0.18027336047E+04  0.50400001928E-02 0. -1.
</event>
<event>
 5   0  0.2590795E-08  0.3599730E+04  0.7818609E-02  0.8090554E-01
        2   -1    0    0  501    0  0.00000000000E+00  0.00000000000E+00  0.17765624532E+04  0.17765624532E+04  0.25500000920E-02 0.  1.
       -2   -1    0    0    0  501  0.00000000000E+00  0.00000000000E+00 -0.18234732530E+04  0.18234732530E+04  0.25500000920E-02 0. -1.
    10030    2    1    2    0    0  0.00000000000E+00  0.00000000000E+00 -0.46910799821E+02  0.36000357062E+04  0.35997300542E+04 0.  0.
        4    1    3    3  502    0 -0.81203201577E+03 -0.12011255546E+04  0.10431312461E+04  0.17861195375E+04  0.12699999809E+01 0.  1.
       -4    1    3    3    0  502  0.81203201577E+03  0.12011255546E+04 -0.10900420459E+04  0.18139161688E+04  0.12699999809E+01 0. -1.
</event>
<event>
 5   0  0.2608070E-08  0.3598595E+04  0.7818609E-02  0.8090813E-01
       -2   -1    0    0    0  501  0.00000000000E+00  0.00000000000E+00  0.11947204387E+04  0.11947204387E+04  0.25500000920E-02 0.  1.
        2   -1    0    0  501    0  0.00000000000E+00  0.00000000000E+00 -0.27098158189E+04  0.27098158189E+04  0.25500000920E-02 0. -1.
    10030    2    1    2    0    0  0.00000000000E+00  0.00000000000E+00 -0.15150953802E+04  0.39045362576E+04  0.35985954727E+04 0.  0.
        3    1    3    3  502    0  0.14677700821E+04  0.18033181925E+03  0.35458320371E+03  0.15207228010E+04  0.10100000352E+00 0.  1.
       -3    1    3    3    0  502 -0.14677700821E+04 -0.18033181925E+03 -0.18696785839E+04  0.23838134566E+04  0.10100000352E+00 0. -1.
</event>
<event>
 5   0  0.8024500E-09  0.3597545E+04  0.7818609E-02  0.8091054E-01
       -1   -1    0    0    0  501  0.00000000000E+00  0.00000000000E+00  0.11465415689E+04  0.11465415689E+04  0.50400001928E-02 0. -1.
        1   -1    0    0  501    0  0.00000000000E+00  0.00000000000E+00 -0.28220361761E+04  0.28220361761E+04  0.50400001928E-02 0.  1.
    10030    2    1    2    0    0  0.00000000000E+00  0.00000000000E+00 -0.16754946072E+04  0.39685777451E+04  0.35975445987E+04 0.  0.
        5    1    3    3  502    0 -0.14929011082E+04 -0.73334898159E+03 -0.15932178843E+04  0.23032411434E+04  0.46999998093E+01 0.  1.
       -5    1    3    3    0  502  0.14929011082E+04  0.73334898159E+03 -0.82276722926E+02  0.16653366017E+04  0.46999998093E+01 0. -1.
</event>
<event>
 5   0  0.8063410E-09  0.3599438E+04  0.7818609E-02  0.8090620E-01
        1   -1    0    0  501    0  0.00000000000E+00  0.00000000000E+00  0.18411133442E+04  0.18411133442E+04  0.50400001928E-02 0. -1.
       -1   -1    0    0    0  501  0.00000000000E+00  0.00000000000E+00 -0.17592553117E+04  0.17592553117E+04  0.50400001928E-02 0.  1.
    10030    2    1    2    0    0  0.00000000000E+00  0.00000000000E+00  0.81858032497E+02  0.36003686559E+04  0.35994379729E+04 0.  0.
        2    1    3    3  502    0 -0.92384378522E+03 -0.14491876734E+04  0.57525453737E+03  0.18123327605E+04  0.25500000920E-02 0.  1.
       -2    1    3    3    0  502  0.92384378522E+03  0.14491876734E+04 -0.49339650487E+03  0.17880358954E+04  0.25500000920E-02 0. -1.
</event>
<event>
 5   0  0.2494592E-08  0.3598442E+04  0.7818609E-02  0.8090849E-01
       -2   -1    0    0    0  501  0.00000000000E+00  0.00000000000E+00  0.15408652291E+04  0.15408652291E+04  0.25500000920E-02 0. -1.
        2   -1    0    0  501    0  0.00000000000E+00  0.00000000000E+00 -0.21008952423E+04  0.21008952423E+04  0.25500000920E-02 0.  1.
    10030    2    1    2    0    0  0.00000000000E+00  0.00000000000E+00 -0.56003001313E+03  0.36417604714E+04  0.35984421234E+04 0.  0.
        1    1    3    3  502    0 -0.21410189720E+03  0.17525309224E+03 -0.20792363273E+04  0.20975645338E+04  0.50400001928E-02 0.  1.
       -1    1    3    3    0  502  0.21410189720E+03 -0.17525309224E+03  0.15192063142E+04  0.15441959376E+04  0.50400001928E-02 0. -1.
</event>
<event>
 5   0  0.2590795E-08  0.3596397E+04  0.7818609E-02  0.8091318E-01
        2   -1    0    0  501    0  0.00000000000E+00  0.00000000000E+00  0.23299774234E+04  0.23299774234E+04  0.25500000920E-02 0. -1.
       -2   -1    0    0    0  501  0.00000000000E+00  0.00000000000E+00 -0.13877891877E+04  0.13877891877E+04  0.25500000920E-02 0.  1.
    10030    2    1    2    0    0  0.00000000000E+00  0.00000000000E+00  0.94218823574E+03  0.37177666111E+04  0.35963967944E+04 0.  0.
        4    1    3    3  502    0  0.13900182103E+03 -0.58738357677E+03 -0.12799336434E+04  0.14151228628E+04  0.12699999809E+01 0.  1.
       -4    1    3    3    0  502 -0.13900182103E+03  0.58738357677E+03  0.22221218791E+04  0.23026437482E+04  0.12699999809E+01 0. -1.
</event>
<event>
 5   0  0.2608070E-08  0.3600349E+04  0.7818609E-02  0.8090412E-01
       -2   -1    0    0    0  501  0.00000000000E+00  0.00000000000E+00  0.14636384475E+04  0.14636384475E+04  0.25500000920E-02 0. -1.
        2   -1    0    0  501    0  0.00000000000E+00  0.00000000000E+00 -0.22140908213E+04  0.22140908213E+04  0.25500000920E-02 0.  1.
    10030    2    1    2    0    0  0.00000000000E+00  0.00000000000E+00 -0.75045237376E+03  0.36777292687E+04  0.36003491232E+04 0.  0.
        3    1    3    3  502    0 -0.12978907943E+04 -0.12193288815E+04 -0.64422027651E+03  0.18937537353E+04  0.10100000352E+00 0.  1.
       -3    1    3    3    0  502  0.12978907943E+04  0.12193288815E+04 -0.10623209725E+03  0.17839755334E+04  0.10100000352E+00 0. -1.
</event>
<event>
 5   0  0.8247570E-09  0.3596032E+04  0.7818609E-02  0.8091401E-01
        1   -1    0    0  501    0  0.00000000000E+00  0.00000000000E+00  0.30826212648E+04  0.30826212648E+04  0.50400001928E-02 0. -1.
       -1   -1    0    0    0  501  0.00000000000E+00  0.00000000000E+00 -0.10487375405E+04  0.10487375405E+04  0.50400001928E-02 0.  1.
    10030    2    1    2    0    0  0.00000000000E+00  0.00000000000E+00  0.20338837243E+04  0.41313588053E+04  0.35960315035E+04 0.  0.
        3    1    3    3  502    0  0.61558278370E+03  0.90223717814E+03 -0.62392155877E+03  0.12578760714E+04  0.10100000352E+00 0.  1.
       -3    1    3    3    0  502 -0.61558278370E+03 -0.90223717814E+03  0.26578052831E+04  0.28734827339E+04  0.10100000352E+00 0. -1.
</event>
<event>
 5   0  0.2476968E-08  0.3601023E+04  0.7818609E-02  0.8090257E-01
       -2   -1    0    0    0  501  0.00000000000E+00  0.00000000000E+00  0.99606800605E+03  0.99606800605E+03  0.25500000920E-02 0. -1.
        2   -1    0    0  501    0  0.00000000000E+00  0.00000000000E+00 -0.32546384493E+04  0.32546384493E+04  0.25500000920E-02 0.  1.
    10030    2    1    2    0    0  0.00000000000E+00  0.00000000000E+00 -0.22585704432E+04  0.42507064553E+04  0.36010227606E+04 0.  0.
        2    1    3    3  502    0  0.62459312504E+02  0.15281922538E+03  0.98711498982E+03  0.10008251019E+04  0.25500000920E-02 0. -1.
       -2    1    3    3    0  502 -0.62459312504E+02 -0.15281922538E+03 -0.32456854330E+04  0.32498813535E+04  0.25500000920E-02 0.  1.
</event>
<event>
 5   0  0.8024500E-09  0.3599885E+04  0.7818609E-02  0.8090518E-01
        1   -1    0    0  501    0  0.00000000000E+00  0.00000000000E+00  0.19272621881E+04  0.19272621881E+04  0.50400001928E-02 0. -1.
       -1   -1    0    0    0  501  0.00000000000E+00  0.00000000000E+00 -0.16810336511E+04  0.16810336511E+04  0.50400001928E-02 0.  1.
    10030    2    1    2    0    0  0.00000000000E+00  0.00000000000E+00  0.24622853700E+03  0.36082958391E+04  0.35998847718E+04 0.  0.
        1    1    3    3  502    0  0.78820988620E+03  0.10967861176E+04 -0.10694462767E+04  0.17227681072E+04  0.50400001928E-02 0.  1.
       -1    1    3    3    0  502 -0.78820988620E+03 -0.10967861176E+04  0.13156748137E+04  0.18855277319E+04  0.50400001928E-02 0. -1.
</event>
<event>
 5   0  0.8063410E-09  0.3604779E+04  0.7818609E-02  0.8089398E-01
        1   -1    0    0  501    0  0.00000000000E+00  0.00000000000E+00  0.17768724482E+04  0.17768724482E+04  0.50400001928E-02 0. -1.
       -1   -1    0    0    0  501  0.00000000000E+00  0.00000000000E+00 -0.18282727563E+04  0.18282727564E+04  0.50400001928E-02 0.  1.
    10030    2    1    2    0    0  0.00000000000E+00  0.00000000000E+00 -0.51400308111E+02  0.36051452046E+04  0.36047787664E+04 0.  0.
        2    1    3    3  502    0  0.20893552770E+03  0.66962585361E+03 -0.16861564483E+04  0.18262465351E+04  0.25500000920E-02 0.  1.
       -2    1    3    3    0  502 -0.20893552770E+03 -0.66962585361E+03  0.16347561402E+04  0.17788986695E+04  0.25500000920E-02 0. -1.
</event>
<event>
 5   0  0.2482243E-08  0.3600070E+04  0.7818609E-02  0.8090476E-01
       -2   -1    0    0    0  501  0.00000000000E+00  0.00000000000E+00  0.14090742863E+04  0.14090742863E+04  0.25500000920E-02 0.  1.
        2   -1    0    0  501    0  0.00000000000E+00  0.00000000000E+00 -0.22994707751E+04  0.22994707751E+04  0.25500000920E-02 0. -1.
    10030    2    1    2    0    0  0.00000000000E+00  0.00000000000E+00 -0.89039648880E+03  0.37085450615E+04  0.36000695224E+04 0.  0.
        5    1    3    3  502    0  0.75245173124E+03 -0.81296120967E+03 -0.19067561219E+04  0.22051826534E+04  0.46999998093E+01 0. -1.
       -5    1    3    3    0  502 -0.75245173124E+03  0.81296120967E+03  0.10163596331E+04  0.15033624081E+04  0.46999998093E+01 0.  1.
</event>
<event>
 5   0  0.8024500E-09  0.3600193E+04  0.7818609E-02  0.8090447E-01
       -1   -1    0    0    0  501  0.00000000000E+00  0.00000000000E+00  0.33859426075E+04  0.33859426075E+04  0.50400001928E-02 0. -1.
        1   -1    0    0  501    0  0.00000000000E+00  0.00000000000E+00 -0.95700014637E+03  0.95700014638E+03  0.50400001928E-02 0.  1.
    10030    2    1    2    0    0  0.00000000000E+00  0.00000000000E+00  0.24289424612E+04  0.43429427539E+04  0.36001930898E+04 0.  0.
        1    1    3    3  502    0 -0.12388767198E+04  0.20507528913E+03  0.27703172128E+04  0.30416325979E+04  0.50400001928E-02 0. -1.
       -1    1    3    3    0  502  0.12388767198E+04 -0.20507528913E+03 -0.34137475168E+03  0.13013101560E+04  0.50400001928E-02 0.  1.
</event>
<event>
 5   0  0.2590795E-08  0.3600096E+04  0.7818609E-02  0.8090470E-01
        2   -1    0    0  501    0  0.00000000000E+00  0.00000000000E+00  0.25523349968E+04  0.25523349968E+04  0.25500000920E-02 0. -1.
       -2   -1    0    0    0  501  0.00000000000E+00  0.00000000000E+00 -0.12694937881E+04  0.12694937881E+04  0.25500000920E-02 0.  1.
    10030    2    1    2    0    0  0.00000000000E+00  0.00000000000E+00  0.12828412087E+04  0.38218287849E+04  0.36000963451E+04 0.  0.
        4    1    3    3  502    0  0.82477957789E+03  0.12476172279E+03  0.23347642435E+04  0.24793048471E+04  0.12699999809E+01 0. -1.
       -4    1    3    3    0  502 -0.82477957789E+03 -0.12476172279E+03 -0.10519230347E+04  0.13425239377E+04  0.12699999809E+01 0.  1.
</event>
<event>
 5   0  0.8024500E-09  0.3593593E+04  0.7818609E-02  0.8091961E-01
        3   -1    0    0  501    0  0.00000000000E+00  0.00000000000E+00  0.20858534987E+04  0.20858535011E+04  0.10100000352E+00 0.  1.
       -3   -1    0    0    0  501  0.00000000000E+00  0.00000000000E+00 -0.15477972079E+04  0.15477972112E+04  0.10100000352E+00 0. -1.
    10030    2    1    2    0    0  0.00000000000E+00  0.00000000000E+00  0.53805629076E+03  0.36336507124E+04  0.35935933169E+04 0.  0.
        5    1    3    3  502    0 -0.17237491179E+03 -0.17590570419E+04 -0.57779402542E+02  0.17684330172E+04  0.46999998093E+01 0.  1.
       -5    1    3    3    0  502  0.17237491179E+03  0.17590570419E+04  0.59583569331E+03  0.18652176952E+04  0.46999998093E+01 0. -1.
</event>
<event>
 5   0  0.2608070E-08  0.3596321E+04  0.7818609E-02  0.8091335E-01
        2   -1    0    0  501    0  0.00000000000E+00  0.00000000000E+00  0.21184080193E+04  0.21184080193E+04  0.25500000920E-02 0. -1.
       -2   -1    0    0    0  501  0.00000000000E+00  0.00000000000E+00 -0.15263257300E+04  0.15263257300E+04  0.25500000920E-02 0.  1.
    10030    2    1    2    0    0  0.00000000000E+00  0.00000000000E+00  0.59208228925E+03  0.36447337494E+04  0.35963207124E+04 0.  0.
        3    1    3    3  502    0  0.12884442205E+04 -0.14652086024E+03 -0.96645074249E+03  0.16172766985E+04  0.10100000352E+00 0.  1.
       -3    1    3    3    0  502 -0.12884442205E+04  0.14652086024E+03  0.15585330317E+04  0.20274570508E+04  0.10100000352E+00 0. -1.
</event>
<event>
 5   0  0.2608070E-08  0.3599553E+04  0.7818609E-02  0.8090594E-01
        2   -1    0    0  501    0  0.00000000000E+00  0.00000000000E+00  0.16765763290E+04  0.16765763290E+04  0.25500000920E-02 0. -1.
       -2   -1    0    0    0  501  0.00000000000E+00  0.00000000000E+00 -0.19320295057E+04  0.19320295057E+04  0.25500000920E-02 0.  1.
    10030    2    1    2    0    0  0.00000000000E+00  0.00000000000E+00 -0.25545317671E+03  0.36086058347E+04  0.35995527146E+04 0.  0.
        3    1    3    3  502    0 -0.35031071945E+03  0.41617163781E+03 -0.18476400174E+04  0.19260555745E+04  0.10100000352E+00 0.  1.
       -3    1    3    3    0  502  0.35031071945E+03 -0.41617163781E+03  0.15921868406E+04  0.16825502602E+04  0.10100000352E+00 0. -1.
</event>
<event>
 5   0  0.8247570E-09  0.3600226E+04  0.7818609E-02  0.8090440E-01
        1   -1    0    0  501    0  0.00000000000E+00  0.00000000000E+00  0.19084031684E+04  0.19084031684E+04  0.50400001928E-02 0.  1.
       -1   -1    0    0    0  501  0.00000000000E+00  0.00000000000E+00 -0.16979680880E+04  0.16979680880E+04  0.50400001928E-02 0. -1.
    10030    2    1    2    0    0  0.00000000000E+00  0.00000000000E+00  0.21043508038E+03  0.36063712564E+04  0.36002264812E+04 0.  0.
        3    1    3    3  502    0 -0.57592310053E+03  0.11798829987E+04 -0.11283860245E+04  0.17312037254E+04  0.10100000352E+00 0. -1.
       -3    1    3    3    0  502  0.57592310053E+03 -0.11798829987E+04  0.13388211048E+04  0.18751675310E+04  0.10100000352E+00 0.  1.
</event>
<event>
 5   0  0.2476968E-08  0.3601981E+04  0.7818609E-02  0.8090038E-01
        2   -1    0    0  501    0  0.00000000000E+00  0.00000000000E+00  0.13371542635E+04  0.13371542635E+04  0.25500000920E-02 0.  1.
       -2   -1    0    0    0  501  0.00000000000E+00  0.00000000000E+00 -0.24257235258E+04  0.24257235258E+04  0.25500000920E-02 0. -1.
    10030    2    1    2    0    0  0.00000000000E+00  0.00000000000E+00 -0.10885692624E+04  0.37628777893E+04  0.36019808742E+04 0.  0.
        2    1    3    3  502    0  0.44463193229E+03 -0.14365909104E+04 -0.15795487491E+04  0.21809321975E+04  0.25500000920E-02 0. -1.
       -2    1    3    3    0  502 -0.44463193229E+03  0.14365909104E+04  0.49097948677E+03  0.15819455918E+04  0.25500000920E-02 0.  1.
</event>
<event>
 5   0  0.2590795E-08  0.3599762E+04  0.7818609E-02  0.8090546E-01
       -2   -1    0    0    0  501  0.00000000000E+00  0.00000000000E+00  0.14519593477E+04  0.14519593477E+04  0.25500000920E-02 0.  1.
        2   -1    0    0  501    0  0.00000000000E+00  0.00000000000E+00 -0.22311724341E+04  0.22311724341E+04  0.25500000920E-02 0. -1.
    10030    2    1    2    0    0  0.00000000000E+00  0.00000000000E+00 -0.77921308646E+03  0.36831317818E+04  0.35997620321E+04 0.  0.
        4    1    3    3  502    0 -0.10918328672E+04  0.15311678199E+03  0.10660252807E+04  0.15336085781E+04  0.12699999809E+01 0.  1.
       -4    1    3    3    0  502  0.10918328672E+04 -0.15311678199E+03 -0.18452383671E+04  0.21495232037E+04  0.12699999809E+01 0. -1.
</event>
<event>
 5   0  0.2590795E-08  0.3599309E+04  0.7818609E-02  0.8090650E-01
        2   -1    0    0  501    0  0.00000000000E+00  0.00000000000E+00  0.29778013479E+04  0.29778013479E+04  0.25500000920E-02 0. -1.
       -2   -1    0    0    0  501  0.00000000000E+00  0.00000000000E+00 -0.10876336061E+04  0.10876336061E+04  0.25500000920E-02 0.  1.
    10030    2    1    2    0    0  0.00000000000E+00  0.00000000000E+00  0.18901677418E+04  0.40654349540E+04  0.35993092773E+04 0.  0.
        4    1    3    3  502    0 -0.12867838262E+04 -0.12571819071E+04  0.88933345526E+03  0.20067970925E+04  0.12699999809E+01 0. -1.
       -4    1    3    3    0  502  0.12867838262E+04  0.12571819071E+04  0.10008342865E+04  0.20586378615E+04  0.12699999809E+01 0.  1.
</event>
<event>
 5   0  0.8146881E-09  0.3599963E+04  0.7818609E-02  0.8090500E-01
       -1   -1    0    0    0  501  0.00000000000E+00  0.00000000000E+00  0.20215106484E+04  0.20215106484E+04  0.50400001928E-02 0. -1.
        1   -1    0    0  501    0  0.00000000000E+00  0.00000000000E+00 -0.16027288897E+04  0.16027288897E+04  0.50400001928E-02 0.  1.
    10030    2    1    2    0    0  0.00000000000E+00  0.00000000000E+00  0.41878175871E+03  0.36242395382E+04  0.35999630649E+04 0.  0.
        4    1    3    3  502    0  0.15049675639E+04 -0.94958076775E+03 -0.63176266543E+02  0.17806245692E+04  0.12699999809E+01 0. -1.
       -4    1    3    3    0  502 -0.15049675639E+04  0.94958076775E+03  0.48195802525E+03  0.18436149690E+04  0.12699999809E+01 0.  1.
</event>
<event>
 5   0  0.8024500E-09  0.3599967E+04  0.7818609E-02  0.8090499E-01
        1   -1    0    0  501    0  0.00000000000E+00  0.00000000000E+00  0.27434894909E+04  0.27434894909E+04  0.50400001928E-02 0. -1.
       -1   -1    0    0    0  501  0.00000000000E+00  0.00000000000E+00 -0.11809561093E+04  0.11809561093E+04  0.50400001928E-02 0.  1.
    10030    2    1    2    0    0  0.00000000000E+00  0.00000000000E+00  0.15625333817E+04  0.39244456002E+04  0.35999670415E+04 0.  0.
        5    1    3    3  502    0  0.10021613137E+04 -0.65178517601E+03  0.22482025286E+04  0.25462890476E+04  0.46999998093E+01 0. -1.
       -5    1    3    3    0  502 -0.10021613137E+04  0.65178517601E+03 -0.68566914699E+03  0.13781565526E+04  0.46999998093E+01 0.  1.
</event>
<event>
 5   0  0.8024500E-09  0.3614149E+04  0.7818609E-02  0.8087258E-01
        1   -1    0    0  501    0  0.00000000000E+00  0.00000000000E+00  0.17266452884E+04  0.17266452884E+04  0.50400001928E-02 0. -1.
       -1   -1    0    0    0  501  0.00000000000E+00  0.00000000000E+00 -0.18912504353E+04  0.18912504353E+04  0.50400001928E-02 0.  1.
    10030    2    1    2    0    0  0.00000000000E+00  0.00000000000E+00 -0.16460514695E+03  0.36178957237E+04  0.36141492239E+04 0.  0.
        1    1    3    3  502    0 -0.14146788755E+04  0.70207961471E+03 -0.96144217451E+03  0.18489465003E+04  0.50400001928E-02 0.  1.
       -1    1    3    3    0  502  0.14146788755E+04 -0.70207961471E+03  0.79683702756E+03  0.17689492233E+04  0.50400001928E-02 0. -1.
</event>
<event>
 5   0  0.8146881E-09  0.3600332E+04  0.7818609E-02  0.8090416E-01
        1   -1    0    0  501    0  0.00000000000E+00  0.00000000000E+00  0.25135602533E+04  0.25135602533E+04  0.50400001928E-02 0. -1.
       -1   -1    0    0    0  501  0.00000000000E+00  0.00000000000E+00 -0.12892461443E+04  0.12892461443E+04  0.50400001928E-02 0.  1.
    10030    2    1    2    0    0  0.00000000000E+00  0.00000000000E+00  0.12243141090E+04  0.38028063976E+04  0.36003321319E+04 0.  0.
        4    1    3    3  502    0  0.49387435206E+03  0.23666826000E+03  0.24234345049E+04  0.24845442546E+04  0.12699999809E+01 0. -1.
       -4    1    3    3    0  502 -0.49387435206E+03 -0.23666826000E+03 -0.11991203959E+04  0.13182621430E+04  0.12699999809E+01 0.  1.
</event>
<event>
 5   0  0.8024500E-09  0.3599112E+04  0.7818609E-02  0.8090695E-01
       -1   -1    0    0    0  501  0.00000000000E+00  0.00000000000E+00  0.28594198150E+04  0.28594198150E+04  0.50400001928E-02 0. -1.
        1   -1    0    0  501    0  0.00000000000E+00  0.00000000000E+00 -0.11325381424E+04  0.11325381424E+04  0.50400001928E-02 0.  1.
    10030    2    1    2    0    0  0.00000000000E+00  0.00000000000E+00  0.17268816725E+04  0.39919579574E+04  0.35991121159E+04 0.  0.
        1    1    3    3  502    0  0.88732402909E+03 -0.14991450860E+04  0.36294205735E+03  0.17794681392E+04  0.50400001928E-02 0. -1.
       -1    1    3    3    0  502 -0.88732402909E+03  0.14991450860E+04  0.13639396152E+04  0.22124898182E+04  0.50400001928E-02 0.  1.
</event>
<event>
 5   0  0.2476968E-08  0.3598971E+04  0.7818609E-02  0.8090727E-01
        2   -1    0    0  501    0  0.00000000000E+00  0.00000000000E+00  0.27685560369E+04  0.27685560369E+04  0.25500000920E-02 0. -1.
       -2   -1    0    0    0  501  0.00000000000E+00  0.00000000000E+00 -0.11696160854E+04  0.11696160854E+04  0.25500000920E-02 0.  1.
    10030    2    1    2    0    0  0.00000000000E+00  0.00000000000E+00  0.15989399515E+04  0.39381721223E+04  0.35989707829E+04 0.  0.
        2    1    3    3  502    0 -0.16885261530E+04  0.26908979327E+03  0.14132432998E+04  0.22182845874E+04  0.25500000920E-02 0. -1.
       -2    1    3    3    0  502  0.16885261530E+04 -0.26908979327E+03  0.18569665173E+03  0.17198875349E+04  0.25500000920E-02 0.  1.
</event>
<event>
 5   0  0.8146881E-09  0.3601326E+04  0.7818609E-02  0.8090188E-01
        1   -1    0    0  501    0  0.00000000000E+00  0.00000000000E+00  0.24320900618E+04  0.24320900618E+04  0.50400001928E-02 0.  1.
       -1   -1    0    0    0  501  0.00000000000E+00  0.00000000000E+00 -0.13331689590E+04  0.13331689590E+04  0.50400001928E-02 0. -1.
    10030    2    1    2    0    0  0.00000000000E+00  0.00000000000E+00  0.10989211028E+04  0.37652590208E+04  0.36013258536E+04 0.  0.
        4    1    3    3  502    0 -0.16421335296E+03 -0.89511160295E+03 -0.10750351707E+04  0.14085073795E+04  0.12699999809E+01 0. -1.
       -4    1    3    3    0  502  0.16421335296E+03  0.89511160295E+03  0.21739562735E+04  0.23567516413E+04  0.12699999809E+01 0.  1.
</event>
<event>
 5   0  0.2476968E-08  0.3601739E+04  0.7818609E-02  0.8090093E-01
        2   -1    0    0  501    0  0.00000000000E+00  0.00000000000E+00  0.10676621373E+04  0.10676621373E+04  0.25500000920E-02 0.  1.
       -2   -1    0    0    0  501  0.00000000000E+00  0.00000000000E+00 -0.30376005740E+04  0.30376005740E+04  0.25500000920E-02 0. -1.
    10030    2    1    2    0    0  0.00000000000E+00  0.00000000000E+00 -0.19699384368E+04  0.41052627113E+04  0.36017390917E+04 0.  0.
        2    1    3    3  502    0 -0.14472774506E+04 -0.10018321013E+04 -0.55116849908E+03  0.18444691086E+04  0.25500000920E-02 0.  1.
       -2    1    3    3    0  502  0.14472774506E+04  0.10018321013E+04 -0.14187699377E+04  0.22607936027E+04  0.25500000920E-02 0. -1.
</event>
<event>
 5   0  0.8024500E-09  0.3600825E+04  0.7818609E-02  0.8090303E-01
        1   -1    0    0  501    0  0.00000000000E+00  0.00000000000E+00  0.25916689114E+04  0.25916689114E+04  0.50400001928E-02 0. -1.
       -1   -1    0    0    0  501  0.00000000000E+00  0.00000000000E+00 -0.12507325522E+04  0.12507325522E+04  0.50400001928E-02 0.  1.
    10030    2    1    2    0    0  0.00000000000E+00  0.00000000000E+00  0.13409363592E+04  0.38424014635E+04  0.36008247232E+04 0.  0.
        1    1    3    3  502    0  0.27533358868E+03 -0.85652012534E+02 -0.12259328619E+04  0.12593872455E+04  0.50400001928E-02 0.  1.
       -1    1    3    3    0  502 -0.27533358868E+03  0.85652012534E+02  0.25668692211E+04  0.25830142180E+04  0.50400001928E-02 0. -1.
</event>
<event>
 5   0  0.8247570E-09  0.3602509E+04  0.7818609E-02  0.8089917E-01
       -1   -1    0    0    0  501  0.00000000000E+00  0.00000000000E+00  0.17716692030E+04  0.17716692030E+04  0.50400001928E-02 0. -1.
        1   -1    0    0  501    0  0.00000000000E+00  0.00000000000E+00 -0.18313341757E+04  0.18313341757E+04  0.50400001928E-02 0.  1.
    10030    2    1    2    0    0  0.00000000000E+00  0.00000000000E+00 -0.59664972755E+02  0.36030033787E+04  0.36025093251E+04 0.  0.
        3    1    3    3  502    0 -0.17837238801E+02 -0.41393470424E+03  0.17233649165E+04  0.17724691117E+04  0.10100000352E+00 0. -1.
       -3    1    3    3    0  502  0.17837238801E+02  0.41393470424E+03 -0.17830298892E+04  0.18305342670E+04  0.10100000352E+00 0.  1.
</event>
<event>
 5   0  0.2476968E-08  0.3600425E+04  0.7818609E-02  0.8090394E-01
       -2   -1    0    0    0  501  0.00000000000E+00  0.00000000000E+00  0.21824419883E+04  0.21824419883E+04  0.25500000920E-02 0. -1.
        2   -1    0    0  501    0  0.00000000000E+00  0.00000000000E+00 -0.14849260451E+04  0.14849260451E+04  0.25500000920E-02 0.  1.
    10030    2    1    2    0    0  0.00000000000E+00  0.00000000000E+00  0.69751594319E+03  0.36673680335E+04  0.36004249474E+04 0.  0.
        2    1    3    3  502    0 -0.99651315826E+03  0.14990721605E+04  0.32577445391E+03  0.18293126611E+04  0.25500000920E-02 0.  1.
       -2    1    3    3    0  502  0.99651315826E+03 -0.14990721605E+04  0.37174148928E+03  0.18380553724E+04  0.25500000920E-02 0. -1.
</event>
<event>
 5   0  0.2494592E-08  0.3601294E+04  0.7818609E-02  0.8090195E-01
        2   -1    0    0  501    0  0.00000000000E+00  0.00000000000E+00  0.30003984553E+04  0.30003984553E+04  0.25500000920E-02 0.  1.
       -2   -1    0    0    0  501  0.00000000000E+00  0.00000000000E+00 -0.10806332896E+04  0.10806332896E+04  0.25500000920E-02 0. -1.
    10030    2    1    2    0    0  0.00000000000E+00  0.00000000000E+00  0.19197651657E+04  0.40810317449E+04  0.36012944634E+04 0.  0.
        1    1    3    3  502    0  0.95950611841E+03  0.14940546227E+04  0.12988613514E+04  0.21999754583E+04  0.50400001928E-02 0.  1.
       -1    1    3    3    0  502 -0.95950611841E+03 -0.14940546227E+04  0.62090381429E+03  0.18810562866E+04  0.50400001928E-02 0. -1.
</event>
<event>
 5   0  0.2482243E-08  0.3601327E+04  0.7818609E-02  0.8090188E-01
       -2   -1    0    0    0  501  0.00000000000E+00  0.00000000000E+00  0.13840353892E+04  0.13840353892E+04  0.25500000920E-02 0.  1.
        2   -1    0    0  501    0  0.00000000000E+00  0.00000000000E+00 -0.23427069976E+04  0.23427069976E+04  0.25500000920E-02 0. -1.
    10030    2    1    2    0    0  0.00000000000E+00  0.00000000000E+00 -0.95867160841E+03  0.37267423869E+04  0.36013271950E+04 0.  0.
        5    1    3    3  502    0  0.91568928857E+03  0.15080571598E+04 -0.10673562859E+03  0.17675230847E+04  0.46999998093E+01 0.  1.
       -5    1    3    3    0  502 -0.91568928857E+03 -0.15080571598E+04 -0.85193597982E+03  0.19592193022E+04  0.46999998093E+01 0. -1.
</event>
<event>
 5   0  0.8146881E-09  0.3600728E+04  0.7818609E-02  0.8090325E-01
       -1   -1    0    0    0  501  0.00000000000E+00  0.00000000000E+00  0.19046360638E+04  0.19046360638E+04  0.50400001928E-02 0.  1.
        1   -1    0    0  501    0  0.00000000000E+00  0.00000000000E+00 -0.17018004137E+04  0.17018004137E+04  0.50400001928E-02 0. -1.
    10030    2    1    2    0    0  0.00000000000E+00  0.00000000000E+00  0.20283565012E+03  0.36064364776E+04  0.36007279494E+04 0.  0.
        4    1    3    3  502    0  0.98415044299E+02 -0.53800192482E+03 -0.16165791421E+04  0.17065934864E+04  0.12699999809E+01 0. -1.
       -4    1    3    3    0  502 -0.98415044299E+02  0.53800192482E+03  0.18194147923E+04  0.18998429912E+04  0.12699999809E+01 0.  1.
</event>
<event>
 5   0  0.8024500E-09  0.3599697E+04  0.7818609E-02  0.8090561E-01
        1   -1    0    0  501    0  0.00000000000E+00  0.00000000000E+00  0.13384009889E+04  0.13384009889E+04  0.50400001928E-02 0. -1.
       -1   -1    0    0    0  501  0.00000000000E+00  0.00000000000E+00 -0.24203917746E+04  0.24203917746E+04  0.50400001928E-02 0.  1.
    10030    2    1    2    0    0  0.00000000000E+00  0.00000000000E+00 -0.10819907857E+04  0.37587927634E+04  0.35996970675E+04 0.  0.
        1    1    3    3  502    0  0.32021159382E+03 -0.88021678279E+03  0.10638567737E+04  0.14174301692E+04  0.50400001928E-02 0. -1.
       -1    1    3    3    0  502 -0.32021159382E+03  0.88021678279E+03 -0.21458475594E+04  0.23413625942E+04  0.50400001928E-02 0.  1.
</event>
<event>
 5   0  0.8024500E-09  0.3600063E+04  0.7818609E-02  0.8090477E-01
        1   -1    0    0  501    0  0.00000000000E+00  0.00000000000E+00  0.23956386145E+04  0.23956386145E+04  0.50400001928E-02 0.  1.
       -1   -1    0    0    0  501  0.00000000000E+00  0.00000000000E+00 -0.13525047553E+04  0.13525047553E+04  0.50400001928E-02 0. -1.
    10030    2    1    2    0    0  0.00000000000E+00  0.00000000000E+00  0.10431338591E+04  0.37481433698E+04  0.36000625650E+04 0.  0.
        5    1    3    3  502    0  0.81826670681E+03  0.16023238194E+04  0.57942715437E+03  0.18901745800E+04  0.46999998093E+01 0. -1.
       -5    1    3    3    0  502 -0.81826670681E+03 -0.16023238194E+04  0.46370670478E+03  0.18579687898E+04  0.46999998093E+01 0.  1.
</event>
<event>
 5   0  0.2608070E-08  0.3599422E+04  0.7818609E-02  0.8090624E-01
        2   -1    0    0  501    0  0.00000000000E+00  0.00000000000E+00  0.21630716469E+04  0.21630716469E+04  0.25500000920E-02 0. -1.
       -2   -1    0    0    0  501  0.00000000000E+00  0.00000000000E+00 -0.14973887034E+04  0.14973887034E+04  0.25500000920E-02 0.  1.
    10030    2    1    2    0    0  0.00000000000E+00  0.00000000000E+00  0.66568294358E+03  0.36604603503E+04  0.35994216473E+04 0.  0.
        3    1    3    3  502    0 -0.16493007776E+04  0.58055512135E+03 -0.10067581468E+03  0.17513917134E+04  0.10100000352E+00 0.  1.
       -3    1    3    3    0  502  0.16493007776E+04 -0.58055512135E+03  0.76635875826E+03  0.19090686369E+04  0.10100000352E+00 0. -1.
</event>
<event>
 5   0  0.2476968E-08  0.3599151E+04  0.7818609E-02  0.8090686E-01
       -2   -1    0    0    0  501  0.00000000000E+00  0.00000000000E+00  0.12868491153E+04  0.12868491153E+04  0.25500000920E-02 0.  1.
        2   -1    0    0  501    0  0.00000000000E+00  0.00000000000E+00 -0.25165908111E+04  0.25165908111E+04  0.25500000920E-02 0. -1.
    10030    2    1    2    0    0  0.00000000000E+00  0.00000000000E+00 -0.12297416958E+04  0.38034399265E+04  0.35991513772E+04 0.  0.
        2    1    3    3  502    0  0.43527778288E+03  0.96568603314E+02 -0.24572983627E+04  0.24974201663E+04  0.25500000920E-02 0. -1.
       -2    1    3    3    0  502 -0.43527778288E+03 -0.96568603314E+02  0.12275566669E+04  0.13060197602E+04  0.25500000920E-02 0.  1.
</event>
<event>
 5   0  0.8063410E-09  0.3600264E+04  0.7818609E-02  0.8090431E-01
       -1   -1    0    0    0  501  0.00000000000E+00  0.00000000000E+00  0.18788940876E+04  0.18788940876E+04  0.50400001928E-02 0.  1.
        1   -1    0    0  501    0  0.00000000000E+00  0.00000000000E+00 -0.17246716842E+04  0.17246716842E+04  0.50400001928E-02 0. -1.
    10030    2    1    2    0    0  0.00000000000E+00  0.00000000000E+00  0.15422240340E+03  0.36035657719E+04  0.36002641184E+04 0.  0.
        2    1    3    3  502    0 -0.17686441704E+04 -0.33516255090E+03  0.70836984580E+02  0.18015143672E+04  0.25500000920E-02 0.  1.
       -2    1    3    3    0  502  0.17686441704E+04  0.33516255090E+03  0.83385418815E+02  0.18020514046E+04  0.25500000920E-02 0. -1.
</event>
<event>
 5   0  0.8063410E-09  0.3600722E+04  0.7818609E-02  0.8090326E-01
        1   -1    0    0  501    0  0.00000000000E+00  0.00000000000E+00  0.16296815606E+04  0.16296815606E+04  0.50400001928E-02 0. -1.
       -1   -1    0    0    0  501  0.00000000000E+00  0.00000000000E+00 -0.19889155829E+04  0.19889155829E+04  0.50400001928E-02 0.  1.
    10030    2    1    2    0    0  0.00000000000E+00  0.00000000000E+00 -0.35923402235E+03  0.36185971435E+04  0.36007216227E+04 0.  0.
        2    1    3    3  502    0 -0.15453722532E+04 -0.75452096416E+03 -0.71501105733E+03  0.18624494888E+04  0.25500000920E-02 0.  1.
       -2    1    3    3    0  502  0.15453722532E+04  0.75452096416E+03  0.35577703498E+03  0.17561476547E+04  0.25500000920E-02 0. -1.
</event>
<event>
 5   0  0.2590795E-08  0.3598481E+04  0.7818609E-02  0.8090840E-01
        2   -1    0    0  501    0  0.00000000000E+00  0.00000000000E+00  0.18987671659E+04  0.18987671659E+04  0.25500000920E-02 0.  1.
       -2   -1    0    0    0  501  0.00000000000E+00  0.00000000000E+00 -0.17049307836E+04  0.17049307836E+04  0.25500000920E-02 0. -1.
    10030    2    1    2    0    0  0.00000000000E+00  0.00000000000E+00  0.19383638230E+03  0.36036979495E+04  0.35984811196E+04 0.  0.
        4    1    3    3  502    0  0.17474914065E+03  0.10731687083E+04  0.15325363370E+04  0.18790682733E+04  0.12699999809E+01 0.  1.
       -4    1    3    3    0  502 -0.17474914065E+03 -0.10731687083E+04 -0.13386999547E+04  0.17246296763E+04  0.12699999809E+01 0. -1.
</event>
<event>
 5   0  0.8247570E-09  0.3597655E+04  0.7818609E-02  0.8091029E-01
       -1   -1    0    0    0  501  0.00000000000E+00  0.00000000000E+00  0.20122338760E+04  0.20122338760E+04  0.50400001928E-02 0. -1.
        1   -1    0    0  501    0  0.00000000000E+00  0.00000000000E+00 -0.16080541513E+04  0.16080541513E+04  0.50400001928E-02 0.  1.
    10030    2    1    2    0    0  0.00000000000E+00  0.00000000000E+00  0.40417972473E+03  0.36202880272E+04  0.35976553685E+04 0.  0.
        3    1    3    3  502    0  0.13069224617E+04 -0.11458631006E+04  0.66839737925E+03  0.18622039719E+04  0.10100000352E+00 0. -1.
       -3    1    3    3    0  502 -0.13069224617E+04  0.11458631006E+04 -0.26421765452E+03  0.17580840553E+04  0.10100000352E+00 0.  1.
</event>
<event>
 5   0  0.2494592E-08  0.3602961E+04  0.7818609E-02  0.8089814E-01
       -2   -1    0    0    0  501  0.00000000000E+00  0.00000000000E+00  0.11356413151E+04  0.11356413151E+04  0.25500000920E-02 0. -1.
        2   -1    0    0  501    0  0.00000000000E+00  0.00000000000E+00 -0.28577079768E+04  0.28577079768E+04  0.25500000920E-02 0.  1.
    10030    2    1    2    0    0  0.00000000000E+00  0.00000000000E+00 -0.17220666617E+04  0.39933492919E+04  0.36029605854E+04 0.  0.
        1    1    3    3  502    0 -0.96775055238E+03  0.55116234960E+03  0.70837545116E+03  0.13198927407E+04  0.50400001928E-02 0. -1.
       -1    1    3    3    0  502  0.96775055238E+03 -0.55116234960E+03 -0.24304421128E+04  0.26734565512E+04  0.50400001928E-02 0.  1.
</event>
<event>
 5   0  0.8063410E-09  0.3595758E+04  0.7818609E-02  0.8091464E-01
       -1   -1    0    0    0  501  0.00000000000E+00  0.00000000000E+00  0.15447333353E+04  0.15447333353E+04  0.50400001928E-02 0. -1.
        1   -1    0    0  501    0  0.00000000000E+00  0.00000000000E+00 -0.20925087664E+04  0.20925087664E+04  0.50400001928E-02 0.  1.
    10030    2    1    2    0    0  0.00000000000E+00  0.00000000000E+00 -0.54777543105E+03  0.36372421017E+04  0.35957575257E+04 0.  0.
        2    1    3    3  502    0 -0.55318845856E+03 -0.16753870227E+04 -0.62345962493E+03  0.18712672311E+04  0.25500000920E-02 0.  1.
       -2    1    3    3    0  502  0.55318845856E+03  0.16753870227E+04  0.75684193880E+02  0.17659748706E+04  0.25500000920E-02 0. -1.
</event>
<event>
 5   0  0.8146881E-09  0.3597590E+04  0.7818609E-02  0.8091044E-01
        1   -1    0    0  501    0  0.00000000000E+00  0.00000000000E+00  0.12731932044E+04  0.12731932045E+04  0.50400001928E-02 0. -1.
       -1   -1    0    0    0  501  0.00000000000E+00  0.00000000000E+00 -0.25413772868E+04  0.25413772868E+04  0.50400001928E-02 0.  1.
    10030    2    1    2    0    0  0.00000000000E+00  0.00000000000E+00 -0.12681840824E+04  0.38145704913E+04  0.35975904667E+04 0.  0.
        4    1    3    3  502    0 -0.68826641980E+03 -0.28700417593E+03 -0.23697627522E+04  0.24843226796E+04  0.12699999809E+01 0.  1.
       -4    1    3    3    0  502  0.68826641980E+03  0.28700417593E+03  0.11015786699E+04  0.13302478117E+04  0.12699999809E+01 0. -1.
</event>
<event>
 5   0  0.2590795E-08  0.3599334E+04  0.7818609E-02  0.8090644E-01
        2   -1    0    0  501    0  0.00000000000E+00  0.00000000000E+00  0.27247524272E+04  0.27247524272E+04  0.25500000920E-02 0.  1.
       -2   -1    0    0    0  501  0.00000000000E+00  0.00000000000E+00 -0.11886591341E+04  0.11886591341E+04  0.25500000920E-02 0. -1.
    10030    2    1    2    0    0  0.00000000000E+00  0.00000000000E+00  0.15360932931E+04  0.39134115613E+04  0.35993343056E+04 0.  0.
        4    1    3    3  502    0 -0.18441014266E+03 -0.10579450937E+04 -0.80211062382E+03  0.13403872529E+04  0.12699999809E+01 0. -1.
       -4    1    3    3    0  502  0.18441014266E+03  0.10579450937E+04  0.23382039169E+04  0.25730243085E+04  0.12699999809E+01 0.  1.
</event>
<event>
 5   0  0.2476968E-08  0.3590498E+04  0.7818609E-02  0.8092672E-01
       -2   -1    0    0    0  501  0.00000000000E+00  0.00000000000E+00  0.15559289742E+04  0.15559289742E+04  0.25500000920E-02 0.  1.
        2   -1    0    0  501    0  0.00000000000E+00  0.00000000000E+00 -0.20713792599E+04  0.20713792599E+04  0.25500000920E-02 0. -1.
    10030    2    1    2    0    0  0.00000000000E+00  0.00000000000E+00 -0.51545028574E+03  0.36273082341E+04  0.35904980195E+04 0.  0.
        2    1    3    3  502    0 -0.52101019826E+03 -0.95058844073E+03  0.11879767015E+04  0.16082159848E+04  0.25500000920E-02 0.  1.
       -2    1    3    3    0  502  0.52101019826E+03  0.95058844073E+03 -0.17034269872E+04  0.20190922493E+04  0.25500000920E-02 0. -1.
</event>
<event>
 5   0  0.8024500E-09  0.3598946E+04  0.7818609E-02  0.8090733E-01
        1   -1    0    0  501    0  0.00000000000E+00  0.00000000000E+00  0.25062859655E+04  0.25062859655E+04  0.50400001928E-02 0.  1.
       -1   -1    0    0    0  501  0.00000000000E+00  0.00000000000E+00 -0.12919924930E+04  0.12919924930E+04  0.50400001928E-02 0. -1.
    10030    2    1    2    0    0  0.00000000000E+00  0.00000000000E+00  0.12142934726E+04  0.37982784585E+04  0.35989457638E+04 0.  0.
        5    1    3    3  502    0 -0.21435256117E+03 -0.54043497570E+03  0.24044247360E+04  0.24737213636E+04  0.46999998093E+01 0.  1.
       -5    1    3    3    0  502  0.21435256117E+03  0.54043497570E+03 -0.11901312635E+04  0.13245570949E+04  0.46999998093E+01 0. -1.
</event>
<event>
 5   0  0.2482243E-08  0.3598928E+04  0.7818609E-02  0.8090737E-01
        2   -1    0    0  501    0  0.00000000000E+00  0.00000000000E+00  0.19432895073E+04  0.19432895073E+04  0.25500000920E-02 0. -1.
       -2   -1    0    0    0  501  0.00000000000E+00  0.00000000000E+00 -0.16662830875E+04  0.16662830875E+04  0.25500000920E-02 0.  1.
    10030    2    1    2    0    0  0.00000000000E+00  0.00000000000E+00  0.27700641976E+03  0.36095725948E+04  0.35989278627E+04 0.  0.
        5    1    3    3  502    0  0.21029136066E+03 -0.83504354188E+03  0.17232171381E+04  0.19264006770E+04  0.46999998093E+01 0. -1.
       -5    1    3    3    0  502 -0.21029136066E+03  0.83504354188E+03 -0.14462107183E+04  0.16831719179E+04  0.46999998093E+01 0.  1.
</event>
<event>
 5   0  0.2476968E-08  0.3597869E+04  0.7818609E-02  0.8090980E-01
        2   -1    0    0  501    0  0.00000000000E+00  0.00000000000E+00  0.16152590516E+04  0.16152590516E+04  0.25500000920E-02 0. -1.
       -2   -1    0    0    0  501  0.00000000000E+00  0.00000000000E+00 -0.20034960058E+04  0.20034960058E+04  0.25500000920E-02 0.  1.
    10030    2    1    2    0    0  0.00000000000E+00  0.00000000000E+00 -0.38823695418E+03  0.36187550573E+04  0.35978688459E+04 0.  0.
        2    1    3    3  502    0 -0.13506174183E+04  0.21612211531E+03 -0.13693573187E+04  0.19354626439E+04  0.25500000920E-02 0.  1.
       -2    1    3    3    0  502  0.13506174183E+04 -0.21612211531E+03  0.98112036457E+03  0.16832924135E+04  0.25500000920E-02 0. -1.
</event>
<event>
 5   0  0.8024500E-09  0.3600921E+04  0.7818609E-02  0.8090281E-01
       -4   -1    0    0    0  501  0.00000000000E+00  0.00000000000E+00  0.17180321458E+04  0.17180326152E+04  0.12699999809E+01 0. -1.
        4   -1    0    0  501    0  0.00000000000E+00  0.00000000000E+00 -0.18868430793E+04  0.18868435067E+04  0.12699999809E+01 0.  1.
    10030    2    1    2    0    0  0.00000000000E+00  0.00000000000E+00 -0.16881093355E+03  0.36048761219E+04  0.36009213714E+04 0.  0.
        1    1    3    3  502    0 -0.29676088464E+03  0.13944772643E+04  0.10163587790E+04  0.17508909249E+04  0.50400001928E-02 0. -1.
       -1    1    3    3    0  502  0.29676088464E+03 -0.13944772643E+04 -0.11851697125E+04  0.18539851970E+04  0.50400001928E-02 0.  1.
</event>
<event>
 5   0  0.8247570E-09  0.3600425E+04  0.7818609E-02  0.8090394E-01
        1   -1    0    0  501    0  0.00000000000E+00  0.00000000000E+00  0.14422096766E+04  0.14422096766E+04  0.50400001928E-02 0. -1.
       -1   -1    0    0    0  501  0.00000000000E+00  0.00000000000E+00 -0.22470830628E+04  0.22470830628E+04  0.50400001928E-02 0.  1.
    10030    2    1    2    0    0  0.00000000000E+00  0.00000000000E+00 -0.80487338623E+03  0.36892927394E+04  0.36004249400E+04 0.  0.
        3    1    3    3  502    0  0.14948879437E+04 -0.28245014088E+03  0.58376207694E+03  0.16294926262E+04  0.10100000352E+00 0.  1.
       -3    1    3    3    0  502 -0.14948879437E+04  0.28245014088E+03 -0.13886354632E+04  0.20598001131E+04  0.10100000352E+00 0. -1.
</event>
<event>
 5   0  0.2494592E-08  0.3600692E+04  0.7818609E-02  0.8090333E-01
       -2   -1    0    0    0  501  0.00000000000E+00  0.00000000000E+00  0.13481437673E+04  0.13481437674E+04  0.25500000920E-02 0.  1.
        2   -1    0    0  501    0  0.00000000000E+00  0.00000000000E+00 -0.24042282943E+04  0.24042282943E+04  0.25500000920E-02 0. -1.
    10030    2    1    2    0    0  0.00000000000E+00  0.00000000000E+00 -0.10560845269E+04  0.37523720616E+04  0.36006918170E+04 0.  0.
        1    1    3    3  502    0  0.10504785808E+04  0.11490944876E+04  0.41410010934E+03  0.16110252297E+04  0.50400001928E-02 0.  1.
       -1    1    3    3    0  502 -0.10504785808E+04 -0.11490944876E+04 -0.14701846363E+04  0.21413468320E+04  0.50400001928E-02 0. -1.
</event>
<event>
 5   0  0.8247570E-09  0.3601066E+04  0.7818609E-02  0.8090247E-01
        1   -1    0    0  501    0  0.00000000000E+00  0.00000000000E+00  0.23350483184E+04  0.23350483184E+04  0.50400001928E-02 0.  1.
       -1   -1    0    0    0  501  0.00000000000E+00  0.00000000000E+00 -0.13883737490E+04  0.13883737490E+04  0.50400001928E-02 0. -1.
    10030    2    1    2    0    0  0.00000000000E+00  0.00000000000E+00  0.94667456941E+03  0.37234220674E+04  0.36010663909E+04 0.  0.
        3    1    3    3  502    0 -0.35524295945E+03  0.30607481887E+02 -0.13515044515E+04  0.13977477135E+04  0.10100000352E+00 0. -1.
       -3    1    3    3    0  502  0.35524295945E+03 -0.30607481887E+02  0.22981790209E+04  0.23256743539E+04  0.10100000352E+00 0.  1.
</event>
<event>
 5   0  0.2476968E-08  0.3600606E+04  0.7818609E-02  0.8090353E-01
        2   -1    0    0  501    0  0.00000000000E+00  0.00000000000E+00  0.33572748569E+04  0.33572748569E+04  0.25500000920E-02 0.  1.
       -2   -1    0    0    0  501  0.00000000000E+00  0.00000000000E+00 -0.96539341442E+03  0.96539341442E+03  0.25500000920E-02 0. -1.
    10030    2    1    2    0    0  0.00000000000E+00  0.00000000000E+00  0.23918814424E+04  0.43226682713E+04  0.36006060808E+04 0.  0.
        2    1    3    3  502    0  0.13692081209E+04  0.69066350587E+03  0.63771857123E+02  0.15348660549E+04  0.25500000920E-02 0. -1.
       -2    1    3    3    0  502 -0.13692081209E+04 -0.69066350587E+03  0.23281095853E+04  0.27878022164E+04  0.25500000920E-02 0.  1.
</event>
<event>
 5   0  0.2608070E-08  0.3597704E+04  0.7818609E-02  0.8091018E-01
       -2   -1    0    0    0  501  0.00000000000E+00  0.00000000000E+00  0.30580566391E+04  0.30580566391E+04  0.25500000920E-02 0.  1.
        2   -1    0    0  501    0  0.00000000000E+00  0.00000000000E+00 -0.10581452402E+04  0.10581452402E+04  0.25500000920E-02 0. -1.
    10030    2    1    2    0    0  0.00000000000E+00  0.00000000000E+00  0.19999113989E+04  0.41162018793E+04  0.35977037549E+04 0.  0.
        3    1    3    3  502    0  0.13703056308E+04 -0.11566760290E+04  0.11626907531E+04  0.21371679287E+04  0.10100000352E+00 0.  1.
       -3    1    3    3    0  502 -0.13703056308E+04  0.11566760290E+04  0.83722064579E+03  0.19790339507E+04  0.10100000352E+00 0. -1.
</event>
<event>
 5   0  0.2494592E-08  0.3602005E+04  0.7818609E-02  0.8090032E-01
       -2   -1    0    0    0  501  0.00000000000E+00  0.00000000000E+00  0.15197340384E+04  0.15197340384E+04  0.25500000920E-02 0. -1.
        2   -1    0    0  501    0  0.00000000000E+00  0.00000000000E+00 -0.21343279452E+04  0.21343279452E+04  0.25500000920E-02 0.  1.
    10030    2    1    2    0    0  0.00000000000E+00  0.00000000000E+00 -0.61459390684E+03  0.36540619836E+04  0.36020054566E+04 0.  0.
        1    1    3    3  502    0 -0.89154542968E+03  0.55642095992E+03  0.11764249124E+04  0.15774768183E+04  0.50400001928E-02 0. -1.
       -1    1    3    3    0  502  0.89154542968E+03 -0.55642095992E+03 -0.17910188192E+04  0.20765851653E+04  0.50400001928E-02 0.  1.
</event>
<event>
 5   0  0.2482243E-08  0.3601171E+04  0.7818609E-02  0.8090223E-01
        2   -1    0    0  501    0  0.00000000000E+00  0.00000000000E+00  0.25242809967E+04  0.25242809967E+04  0.25500000920E-02 0. -1.
       -2   -1    0    0    0  501  0.00000000000E+00  0.00000000000E+00 -0.12843691791E+04  0.12843691791E+04  0.25500000920E-02 0.  1.
    10030    2    1    2    0    0  0.00000000000E+00  0.00000000000E+00  0.12399118177E+04  0.38086501758E+04  0.36011713159E+04 0.  0.
        5    1    3    3  502    0  0.70630160155E+03 -0.16401875016E+04  0.86345911494E+03  0.19835979245E+04  0.46999998093E+01 0. -1.
       -5    1    3    3    0  502 -0.70630160155E+03  0.16401875016E+04  0.37645270274E+03  0.18250522514E+04  0.46999998093E+01 0.  1.
</event>
<event>
 5   0  0.8146881E-09  0.3600260E+04  0.7818609E-02  0.8090432E-01
       -1   -1    0    0    0  501  0.00000000000E+00  0.00000000000E+00  0.17145926139E+04  0.17145926139E+04  0.50400001928E-02 0.  1.
        1   -1    0    0  501    0  0.00000000000E+00  0.00000000000E+00 -0.18899347254E+04  0.18899347254E+04  0.50400001928E-02 0. -1.
    10030    2    1    2    0    0  0.00000000000E+00  0.00000000000E+00 -0.17534211156E+03  0.36045273393E+04  0.36002600578E+04 0.  0.
        4    1    3    3  502    0 -0.22224735050E+03  0.17792901295E+04 -0.24660195099E+03  0.18099948577E+04  0.12699999809E+01 0.  1.
       -4    1    3    3    0  502  0.22224735050E+03 -0.17792901295E+04  0.71259839426E+02  0.17945324816E+04  0.12699999809E+01 0. -1.
</event>
<event>
 5   0  0.8024500E-09  0.3600423E+04  0.7818609E-02  0.8090395E-01
       -1   -1    0    0    0  501  0.00000000000E+00  0.00000000000E+00  0.25033890123E+04  0.25033890123E+04  0.50400001928E-02 0.  1.
        1   -1    0    0  501    0  0.00000000000E+00  0.00000000000E+00 -0.12945496507E+04  0.12945496507E+04  0.50400001928E-02 0. -1.
    10030    2    1    2    0    0  0.00000000000E+00  0.00000000000E+00  0.12088393616E+04  0.37979386630E+04  0.36004229593E+04 0.  0.
        5    1    3    3  502    0 -0.41609769141E+03  0.12024012359E+04  0.19477954961E+04  0.23265501081E+04  0.46999998093E+01 0.  1.
       -5    1    3    3    0  502  0.41609769141E+03 -0.12024012359E+04 -0.73895613449E+03  0.14713885549E+04  0.46999998093E+01 0. -1.
</event>
<event>
 5   0  0.2590795E-08  0.3599881E+04  0.7818609E-02  0.8090519E-01
       -2   -1    0    0    0  501  0.00000000000E+00  0.00000000000E+00  0.13876906807E+04  0.13876906807E+04  0.25500000920E-02 0. -1.
        2   -1    0    0  501    0  0.00000000000E+00  0.00000000000E+00 -0.23346603367E+04  0.23346603367E+04  0.25500000920E-02 0.  1.
    10030    2    1    2    0    0  0.00000000000E+00  0.00000000000E+00 -0.94696965602E+03  0.37223510173E+04  0.35998813268E+04 0.  0.
        4    1    3    3  502    0  0.74424493220E+02  0.82842121969E+03  0.11770541665E+04  0.14412768111E+04  0.12699999809E+01 0. -1.
       -4    1    3    3    0  502 -0.74424493220E+02 -0.82842121969E+03 -0.21240238226E+04  0.22810742062E+04  0.12699999809E+01 0.  1.
</event>
<event>
 5   0  0.8146881E-09  0.3596479E+04  0.7818609E-02  0.8091299E-01
       -1   -1    0    0    0  501  0.00000000000E+00  0.00000000000E+00  0.12337038570E+04  0.12337038570E+04  0.50400001928E-02 0.  1.
        1   -1    0    0  501    0  0.00000000000E+00  0.00000000000E+00 -0.26211035075E+04  0.26211035075E+04  0.50400001928E-02 0. -1.
    10030    2    1    2    0    0  0.00000000000E+00  0.00000000000E+00 -0.13873996505E+04  0.38548073646E+04  0.35964791154E+04 0.  0.
        4    1    3    3  502    0 -0.38275955858E+03 -0.19478145173E+03  0.11779278579E+04  0.12537784274E+04  0.12699999809E+01 0.  1.
       -4    1    3    3    0  502  0.38275955858E+03  0.19478145173E+03 -0.25653275084E+04  0.26010289372E+04  0.12699999809E+01 0. -1.
</event>
<event>
 5   0  0.8247570E-09  0.3601460E+04  0.7818609E-02  0.8090157E-01
       -1   -1    0    0    0  501  0.00000000000E+00  0.00000000000E+00  0.21212091121E+04  0.21212091121E+04  0.50400001928E-02 0.  1.
        1   -1    0    0  501    0  0.00000000000E+00  0.00000000000E+00 -0.15286702752E+04  0.15286702752E+04  0.50400001928E-02 0. -1.
    10030    2    1    2    0    0  0.00000000000E+00  0.00000000000E+00  0.59253883683E+03  0.36498793873E+04  0.36014604355E+04 0.  0.
        3    1    3    3  502    0  0.50697867730E+03  0.10652595131E+04  0.16750096157E+04  0.20487709566E+04  0.10100000352E+00 0.  1.
       -3    1    3    3    0  502 -0.50697867730E+03 -0.10652595131E+04 -0.10824707789E+04  0.16011084307E+04  0.10100000352E+00 0. -1.
</event>
<event>
 5   0  0.2494592E-08  0.3602045E+04  0.7818609E-02  0.8090023E-01
        2   -1    0    0  501    0  0.00000000000E+00  0.00000000000E+00  0.23818347065E+04  0.23818347065E+04  0.25500000920E-02 0. -1.
       -2   -1    0    0    0  501  0.00000000000E+00  0.00000000000E+00 -0.13618416901E+04  0.13618416901E+04  0.25500000920E-02 0.  1.
    10030    2    1    2    0    0  0.00000000000E+00  0.00000000000E+00  0.10199930163E+04  0.37436763966E+04  0.36020448650E+04 0.  0.
        1    1    3    3  502    0 -0.60706838078E+03 -0.14269692837E+04  0.14619296935E+04  0.21311996116E+04  0.50400001928E-02 0. -1.
       -1    1    3    3    0  502  0.60706838078E+03  0.14269692837E+04 -0.44193667713E+03  0.16124767850E+04  0.50400001928E-02 0.  1.
</event>
<event>
 5   0  0.8024500E-09  0.3598531E+04  0.7818609E-02  0.8090828E-01
       -1   -1    0    0    0  501  0.00000000000E+00  0.00000000000E+00  0.17124522391E+04  0.17124522391E+04  0.50400001928E-02 0. -1.
        1   -1    0    0  501    0  0.00000000000E+00  0.00000000000E+00 -0.18904799737E+04  0.18904799737E+04  0.50400001928E-02 0.  1.
    10030    2    1    2    0    0  0.00000000000E+00  0.00000000000E+00 -0.17802773460E+03  0.36029322128E+04  0.35985311803E+04 0.  0.
        5    1    3    3  502    0 -0.64195882418E+02 -0.35821978746E+03 -0.18532392799E+04  0.18886398402E+04  0.46999998093E+01 0.  1.
       -5    1    3    3    0  502  0.64195882418E+02  0.35821978746E+03  0.16752115453E+04  0.17142923726E+04  0.46999998093E+01 0. -1.
</event>
<event>
 5   0  0.2590795E-08  0.3599117E+04  0.7818609E-02  0.8090694E-01
       -2   -1    0    0    0  501  0.00000000000E+00  0.00000000000E+00  0.15701148604E+04  0.15701148604E+04  0.25500000920E-02 0.  1.
        2   -1    0    0  501    0  0.00000000000E+00  0.00000000000E+00 -0.20625309366E+04  0.20625309366E+04  0.25500000920E-02 0. -1.
    10030    2    1    2    0    0  0.00000000000E+00  0.00000000000E+00 -0.49241607619E+03  0.36326457970E+04  0.35991168214E+04 0.  0.
        4    1    3    3  502    0  0.13934296018E+04 -0.86068047134E+03 -0.99880308382E+03  0.19183394231E+04  0.12699999809E+01 0. -1.
       -4    1    3    3    0  502 -0.13934296018E+04  0.86068047134E+03  0.50638700764E+03  0.17143063739E+04  0.12699999809E+01 0.  1.
</event>
<event>
 5   0  0.2494592E-08  0.3601074E+04  0.7818609E-02  0.8090246E-01
       -2   -1    0    0    0  501  0.00000000000E+00  0.00000000000E+00  0.11197736204E+04  0.11197736204E+04  0.25500000920E-02 0.  1.
        2   -1    0    0  501    0  0.00000000000E+00  0.00000000000E+00 -0.28951688022E+04  0.28951688022E+04  0.25500000920E-02 0. -1.
    10030    2    1    2    0    0  0.00000000000E+00  0.00000000000E+00 -0.17753951819E+04  0.40149424226E+04  0.36010740904E+04 0.  0.
        1    1    3    3  502    0  0.94032415056E+03 -0.11517923069E+04  0.24443519752E+03  0.15068455768E+04  0.50400001928E-02 0.  1.
       -1    1    3    3    0  502 -0.94032415056E+03  0.11517923069E+04 -0.20198303794E+04  0.25080968458E+04  0.50400001928E-02 0. -1.
</event>
<event>
 5   0  0.2608070E-08  0.3601709E+04  0.7818609E-02  0.8090100E-01
       -2   -1    0    0    0  501  0.00000000000E+00  0.00000000000E+00  0.13062747901E+04  0.13062747901E+04  0.25500000920E-02 0. -1.
        2   -1    0    0  501    0  0.00000000000E+00  0.00000000000E+00 -0.24826916537E+04  0.24826916537E+04  0.25500000920E-02 0.  1.
    10030    2    1    2    0    0  0.00000000000E+00  0.00000000000E+00 -0.11764168636E+04  0.37889664437E+04  0.36017093268E+04 0.  0.
        3    1    3    3  502    0 -0.13941191943E+04 -0.42233039567E+03  0.52568393170E+03  0.15486364639E+04  0.10100000352E+00 0. -1.
       -3    1    3    3    0  502  0.13941191943E+04  0.42233039567E+03 -0.17021007953E+04  0.22403299798E+04  0.10100000352E+00 0.  1.
</event>
<event>
 5   0  0.2476968E-08  0.3599955E+04  0.7818609E-02  0.8090502E-01
        2   -1    0    0  501    0  0.00000000000E+00  0.00000000000E+00  0.30834185489E+04  0.30834185489E+04  0.25500000920E-02 0.  1.
       -2   -1    0    0    0  501  0.00000000000E+00  0.00000000000E+00 -0.10507554206E+04  0.10507554206E+04  0.25500000920E-02 0. -1.
    10030    2    1    2    0    0  0.00000000000E+00  0.00000000000E+00  0.20326631283E+04  0.41341739695E+04  0.35999548632E+04 0.  0.
        2    1    3    3  502    0 -0.10916382844E+04  0.11858119785E+04  0.96112580085E+02  0.16146398423E+04  0.25500000920E-02 0.  1.
       -2    1    3    3    0  502  0.10916382844E+04 -0.11858119785E+04  0.19365505482E+04  0.25195341272E+04  0.25500000920E-02 0. -1.
</event>
<event>
 5   0  0.2494592E-08  0.3603170E+04  0.7818609E-02  0.8089766E-01
       -2   -1    0    0    0  501  0.00000000000E+00  0.00000000000E+00  0.31661245812E+04  0.31661245812E+04  0.25500000920E-02 0.  1.
        2   -1    0    0  501    0  0.00000000000E+00  0.00000000000E+00 -0.10251358081E+04  0.10251358081E+04  0.25500000920E-02 0. -1.
    10030    2    1    2    0    0  0.00000000000E+00  0.00000000000E+00  0.21409887731E+04  0.41912603893E+04  0.36031695386E+04 0.  0.
        1    1    3    3  502    0  0.17969178289E+04  0.46694272482E+01  0.91984933217E+03  0.20186773594E+04  0.50400001928E-02 0.  1.
       -1    1    3    3    0  502 -0.17969178289E+04 -0.46694272482E+01  0.12211394410E+04  0.21725830299E+04  0.50400001928E-02 0. -1.
</event>
<event>
 5   0  0.2482243E-08  0.3603050E+04  0.7818609E-02  0.8089793E-01
        2   -1    0    0  501    0  0.00000000000E+00  0.00000000000E+00  0.23951534139E+04  0.23951534139E+04  0.25500000920E-02 0. -1.
       -2   -1    0    0    0  501  0.00000000000E+00  0.00000000000E+00 -0.13550251497E+04  0.13550251497E+04  0.25500000920E-02 0.  1.
    10030    2    1    2    0    0  0.00000000000E+00  0.00000000000E+00  0.10401282642E+04  0.37501785635E+04  0.36030504371E+04 0.  0.
        5    1    3    3  502    0 -0.28676288814E+03 -0.48097796796E+03 -0.12621342847E+04  0.13807888333E+04  0.46999998093E+01 0.  1.
       -5    1    3    3    0  502  0.28676288814E+03  0.48097796796E+03  0.23022625489E+04  0.23693897302E+04  0.46999998093E+01 0. -1.
</event>
<event>
 5   0  0.2476968E-08  0.3597569E+04  0.7818609E-02  0.8091049E-01
        2   -1    0    0  501    0  0.00000000000E+00  0.00000000000E+00  0.24433095564E+04  0.24433095564E+04  0.25500000920E-02 0.  1.
       -2   -1    0    0    0  501  0.00000000000E+00  0.00000000000E+00 -0.13242802012E+04  0.13242802012E+04  0.25500000920E-02 0. -1.
    10030    2    1    2    0    0  0.00000000000E+00  0.00000000000E+00  0.11190293553E+04  0.37675897576E+04  0.35975694411E+04 0.  0.
        2    1    3    3  502    0 -0.10981193173E+04  0.41553066861E+03 -0.86764132078E+03  0.14599086386E+04  0.25500000920E-02 0. -1.
       -2    1    3    3    0  502  0.10981193173E+04 -0.41553066861E+03  0.19866706760E+04  0.23076811189E+04  0.25500000920E-02 0.  1.
</event>
<event>
 5   0  0.8247570E-09  0.3598192E+04  0.7818609E-02  0.8090906E-01
        1   -1    0    0  501    0  0.00000000000E+00  0.00000000000E+00  0.15320065018E+04  0.15320065018E+04  0.50400001928E-02 0. -1.
       -1   -1    0    0    0  501  0.00000000000E+00  0.00000000000E+00 -0.21127494884E+04  0.21127494884E+04  0.50400001928E-02 0.  1.
    10030    2    1    2    0    0  0.00000000000E+00  0.00000000000E+00 -0.58074298656E+03  0.36447559902E+04  0.35981917419E+04 0.  0.
        3    1    3    3  502    0  0.28583148630E+03 -0.18491008998E+02  0.15087624232E+04  0.15357101340E+04  0.10100000352E+00 0. -1.
       -3    1    3    3    0  502 -0.28583148630E+03  0.18491008998E+02 -0.20895054097E+04  0.21090458562E+04  0.10100000352E+00 0.  1.
</event>
<event>
 5   0  0.8024500E-09  0.3600186E+04  0.7818609E-02  0.8090449E-01
        1   -1    0    0  501    0  0.00000000000E+00  0.00000000000E+00  0.24983346053E+04  0.24983346053E+04  0.50400001928E-02 0. -1.
       -1   -1    0    0    0  501  0.00000000000E+00  0.00000000000E+00 -0.12969982470E+04  0.12969982470E+04  0.50400001928E-02 0.  1.
    10030    2    1    2    0    0  0.00000000000E+00  0.00000000000E+00  0.12013363583E+04  0.37953328523E+04  0.36001864416E+04 0.  0.
        1    1    3    3  502    0 -0.13851446142E+04  0.61237733261E+03 -0.42505928644E+03  0.15729930059E+04  0.50400001928E-02 0. -1.
       -1    1    3    3    0  502  0.13851446142E+04 -0.61237733261E+03  0.16263956447E+04  0.22223398464E+04  0.50400001928E-02 0.  1.
</event>
<event>
 5   0  0.2476968E-08  0.3599196E+04  0.7818609E-02  0.8090676E-01
        2   -1    0    0  501    0  0.00000000000E+00  0.00000000000E+00  0.19836730524E+04  0.19836730524E+04  0.25500000920E-02 0.  1.
       -2   -1    0    0    0  501  0.00000000000E+00  0.00000000000E+00 -0.16326045697E+04  0.16326045697E+04  0.25500000920E-02 0. -1.
    10030    2    1    2    0    0  0.00000000000E+00  0.00000000000E+00  0.35106848272E+03  0.36162776221E+04  0.35991964048E+04 0.  0.
        2    1    3    3  502    0  0.87562288497E+03 -0.13987745396E+04  0.89676264312E+03  0.18781557144E+04  0.25500000920E-02 0.  1.
       -2    1    3    3    0  502 -0.87562288497E+03  0.13987745396E+04 -0.54569416040E+03  0.17381219077E+04  0.25500000920E-02 0. -1.
</event>
<event>
 5   0  0.2482243E-08  0.3600018E+04  0.7818609E-02  0.8090488E-01
        2   -1    0    0  501    0  0.00000000000E+00  0.00000000000E+00  0.22565418834E+04  0.22565418834E+04  0.25500000920E-02 0. -1.
       -2   -1    0    0    0  501  0.00000000000E+00  0.00000000000E+00 -0.14358397952E+04  0.14358397953E+04  0.25500000920E-02 0.  1.
    10030    2    1    2    0    0  0.00000000000E+00  0.00000000000E+00  0.82070208820E+03  0.36923816787E+04  0.36000181310E+04 0.  0.
        5    1    3    3  502    0  0.10495612358E+04  0.14030687342E+04 -0.12326287868E+02  0.17522427594E+04  0.46999998093E+01 0.  1.
       -5    1    3    3    0  502 -0.10495612358E+04 -0.14030687342E+04  0.83302837607E+03  0.19401389193E+04  0.46999998093E+01 0. -1.
</event>
<event>
 5   0  0.2482243E-08  0.3599705E+04  0.7818609E-02  0.8090559E-01
       -2   -1    0    0    0  501  0.00000000000E+00  0.00000000000E+00  0.15889453490E+04  0.15889453490E+04  0.25500000920E-02 0.  1.
        2   -1    0    0  501    0  0.00000000000E+00  0.00000000000E+00 -0.20387547120E+04  0.20387547120E+04  0.25500000920E-02 0. -1.
    10030    2    1    2    0    0  0.00000000000E+00  0.00000000000E+00 -0.44980936304E+03  0.36277000610E+04  0.35997054420E+04 0.  0.
        5    1    3    3  502    0  0.16629674916E+04  0.67844631314E+03 -0.10695839820E+03  0.17992255186E+04  0.46999998093E+01 0.  1.
       -5    1    3    3    0  502 -0.16629674916E+04 -0.67844631314E+03 -0.34285096484E+03  0.18284745424E+04  0.46999998093E+01 0. -1.
</event>
<event>
 5   0  0.8146881E-09  0.3599159E+04  0.7818609E-02  0.8090684E-01
       -1   -1    0    0    0  501  0.00000000000E+00  0.00000000000E+00  0.18811008808E+04  0.18811008808E+04  0.50400001928E-02 0. -1.
        1   -1    0    0  501    0  0.00000000000E+00  0.00000000000E+00 -0.17215910571E+04  0.17215910572E+04  0.50400001928E-02 0.  1.
    10030    2    1    2    0    0  0.00000000000E+00  0.00000000000E+00  0.15950982363E+03  0.36026919379E+04  0.35991590429E+04 0.  0.
        4    1    3    3  502    0  0.89147856309E+03 -0.69609532452E+03 -0.13213340440E+04  0.17393125073E+04  0.12699999809E+01 0.  1.
       -4    1    3    3    0  502 -0.89147856309E+03  0.69609532452E+03  0.14808438676E+04  0.18633794306E+04  0.12699999809E+01 0. -1.
</event>
<event>
 5   0  0.8024500E-09  0.3596287E+04  0.7818609E-02  0.8091343E-01
        3   -1    0    0  501    0  0.00000000000E+00  0.00000000000E+00  0.16690811047E+04  0.16690811077E+04  0.10100000352E+00 0. -1.
       -3   -1    0    0    0  501  0.00000000000E+00  0.00000000000E+00 -0.19371858842E+04  0.19371858868E+04  0.10100000352E+00 0.  1.
    10030    2    1    2    0    0  0.00000000000E+00  0.00000000000E+00 -0.26810477949E+03  0.36062669945E+04  0.35962871775E+04 0.  0.
        2    1    3    3  502    0  0.15158533965E+04 -0.23554411188E+03 -0.10747536215E+04  0.18730691112E+04  0.25500000920E-02 0.  1.
       -2    1    3    3    0  502 -0.15158533965E+04  0.23554411188E+03  0.80664884202E+03  0.17331978833E+04  0.25500000920E-02 0. -1.
</event>
<event>
 5   0  0.2494592E-08  0.3599520E+04  0.7818609E-02  0.8090602E-01
        2   -1    0    0  501    0  0.00000000000E+00  0.00000000000E+00  0.13691443763E+04  0.13691443763E+04  0.25500000920E-02 0. -1.
       -2   -1    0    0    0  501  0.00000000000E+00  0.00000000000E+00 -0.23658105442E+04  0.23658105442E+04  0.25500000920E-02 0.  1.
    10030    2    1    2    0    0  0.00000000000E+00  0.00000000000E+00 -0.99666616791E+03  0.37349549205E+04  0.35995200802E+04 0.  0.
        1    1    3    3  502    0 -0.12362866983E+04 -0.67062880479E+03 -0.16635219090E+04  0.21784060540E+04  0.50400001928E-02 0.  1.
       -1    1    3    3    0  502  0.12362866983E+04  0.67062880479E+03  0.66685574113E+03  0.15565488665E+04  0.50400001928E-02 0. -1.
</event>
<event>
 5   0  0.2590795E-08  0.3598083E+04  0.7818609E-02  0.8090931E-01
       -2   -1    0    0    0  501  0.00000000000E+00  0.00000000000E+00  0.13273910416E+04  0.13273910416E+04  0.25500000920E-02 0. -1.
        2   -1    0    0  501    0  0.00000000000E+00  0.00000000000E+00 -0.24382790614E+04  0.24382790614E+04  0.25500000920E-02 0.  1.
    10030    2    1    2    0    0  0.00000000000E+00  0.00000000000E+00 -0.11108880198E+04  0.37656701030E+04  0.35980827023E+04 0.  0.
        4    1    3    3  502    0 -0.65236599789E+03 -0.13347118423E+04  0.50646337232E+03  0.15695680481E+04  0.12699999809E+01 0. -1.
       -4    1    3    3    0  502  0.65236599789E+03  0.13347118423E+04 -0.16173513921E+04  0.21961020549E+04  0.12699999809E+01 0.  1.
</event>
<event>
 5   0  0.2476968E-08  0.3601983E+04  0.7818609E-02  0.8090038E-01
       -2   -1    0    0    0  501  0.00000000000E+00  0.00000000000E+00  0.16503596436E+04  0.16503596436E+04  0.25500000920E-02 0.  1.
        2   -1    0    0  501    0  0.00000000000E+00  0.00000000000E+00 -0.19653722320E+04  0.19653722320E+04  0.25500000920E-02 0. -1.
    10030    2    1    2    0    0  0.00000000000E+00  0.00000000000E+00 -0.31501258837E+03  0.36157318756E+04  0.36019833516E+04 0.  0.
        2    1    3    3  502    0 -0.13582230628E+03 -0.17806248231E+04 -0.39184661377E+03  0.18282823163E+04  0.25500000920E-02 0. -1.
       -2    1    3    3    0  502  0.13582230628E+03  0.17806248231E+04  0.76834025398E+02  0.17874495593E+04  0.25500000920E-02 0.  1.
</event>
<event>
 5   0  0.2476968E-08  0.3601287E+04  0.7818609E-02  0.8090197E-01
       -2   -1    0    0    0  501  0.00000000000E+00  0.00000000000E+00  0.17773275699E+04  0.17773275699E+04  0.25500000920E-02 0.  1.
        2   -1    0    0  501    0  0.00000000000E+00  0.00000000000E+00 -0.18242654094E+04  0.18242654094E+04  0.25500000920E-02 0. -1.
    10030    2    1    2    0    0  0.00000000000E+00  0.00000000000E+00 -0.46937839474E+02  0.36015929793E+04  0.36012871071E+04 0.  0.
        2    1    3    3  502    0  0.96480223350E+03  0.62541758152E+03 -0.14093451488E+04  0.18188579520E+04  0.25500000920E-02 0. -1.
       -2    1    3    3    0  502 -0.96480223350E+03 -0.62541758152E+03  0.13624073094E+04  0.17827350273E+04  0.25500000920E-02 0.  1.
</event>
<event>
 5   0  0.8063410E-09  0.3599333E+04  0.7818609E-02  0.8090644E-01
        1   -1    0    0  501    0  0.00000000000E+00  0.00000000000E+00  0.15901079492E+04  0.15901079493E+04  0.50400001928E-02 0.  1.
       -1   -1    0    0    0  501  0.00000000000E+00  0.00000000000E+00 -0.20368425625E+04  0.20368425625E+04  0.50400001928E-02 0. -1.
    10030    2    1    2    0    0  0.00000000000E+00  0.00000000000E+00 -0.44673461323E+03  0.36269505117E+04  0.35993330215E+04 0.  0.
        2    1    3    3  502    0 -0.24154756176E+03 -0.70210121333E+03  0.14285735672E+04  0.16100042780E+04  0.25500000920E-02 0.  1.
       -2    1    3    3    0  502  0.24154756176E+03  0.70210121333E+03 -0.18753081804E+04  0.20169462337E+04  0.25500000920E-02 0. -1.
</event>
<event>
 5   0  0.8247570E-09  0.3600388E+04  0.7818609E-02  0.8090403E-01
       -1   -1    0    0    0  501  0.00000000000E+00  0.00000000000E+00  0.25799957601E+04  0.25799957602E+04  0.50400001928E-02 0.  1.
        1   -1    0    0  501    0  0.00000000000E+00  0.00000000000E+00 -0.12560864976E+04  0.12560864976E+04  0.50400001928E-02 0. -1.
    10030    2    1    2    0    0  0.00000000000E+00  0.00000000000E+00  0.13239092626E+04  0.38360822577E+04  0.36003876670E+04 0.  0.
        3    1    3    3  502    0 -0.14465973321E+04  0.10304856230E+04  0.34922086552E+03  0.18101104065E+04  0.10100000352E+00 0. -1.
       -3    1    3    3    0  502  0.14465973321E+04 -0.10304856230E+04  0.97468839707E+03  0.20259718513E+04  0.10100000352E+00 0.  1.
</event>
<event>
 5   0  0.2482243E-08  0.3599543E+04  0.7818609E-02  0.8090596E-01
        2   -1    0    0  501    0  0.00000000000E+00  0.00000000000E+00  0.14489829995E+04  0.14489829995E+04  0.25500000920E-02 0. -1.
       -2   -1    0    0    0  501  0.00000000000E+00  0.00000000000E+00 -0.22354830182E+04  0.22354830182E+04  0.25500000920E-02 0.  1.
    10030    2    1    2    0    0  0.00000000000E+00  0.00000000000E+00 -0.78650001870E+03  0.36844660177E+04  0.35995426871E+04 0.  0.
        5    1    3    3  502    0  0.26085768859E+03 -0.36012383510E+03  0.13918614853E+04  0.14611763735E+04  0.46999998093E+01 0. -1.
       -5    1    3    3    0  502 -0.26085768859E+03  0.36012383510E+03 -0.21783615040E+04  0.22232896442E+04  0.46999998093E+01 0.  1.
</event>
<event>
 5   0  0.2494592E-08  0.3600595E+04  0.7818609E-02  0.8090355E-01
        2   -1    0    0  501    0  0.00000000000E+00  0.00000000000E+00  0.10589169175E+04  0.10589169175E+04  0.25500000920E-02 0. -1.
       -2   -1    0    0    0  501  0.00000000000E+00  0.00000000000E+00 -0.30607419757E+04  0.30607419757E+04  0.25500000920E-02 0.  1.
    10030    2    1    2    0    0  0.00000000000E+00  0.00000000000E+00 -0.20018250581E+04  0.41196588932E+04  0.36005952054E+04 0.  0.
        1    1    3    3  502    0  0.31656381328E+03 -0.87662576485E+03 -0.27632117233E+04  0.29161660459E+04  0.50400001928E-02 0.  1.
       -1    1    3    3    0  502 -0.31656381328E+03  0.87662576485E+03  0.76138666518E+03  0.12034928473E+04  0.50400001928E-02 0. -1.
</event>
<event>
 5   0  0.8146881E-09  0.3600096E+04  0.7818609E-02  0.8090470E-01
        1   -1    0    0  501    0  0.00000000000E+00  0.00000000000E+00  0.20112239238E+04  0.20112239238E+04  0.50400001928E-02 0. -1.
       -1   -1    0    0    0  501  0.00000000000E+00  0.00000000000E+00 -0.16110456109E+04  0.16110456109E+04  0.50400001928E-02 0.  1.
    10030    2    1    2    0    0  0.00000000000E+00  0.00000000000E+00  0.40017831283E+03  0.36222695347E+04  0.36000963737E+04 0.  0.
        4    1    3    3  502    0 -0.16803814724E+04 -0.81208357328E+02  0.84426292772E+03  0.18823013027E+04  0.12699999809E+01 0.  1.
       -4    1    3    3    0  502  0.16803814724E+04  0.81208357328E+02 -0.44408461489E+03  0.17399682320E+04  0.12699999809E+01 0. -1.
</event>
<event>
 5   0  0.8247570E-09  0.3600131E+04  0.7818609E-02  0.8090462E-01
       -1   -1    0    0    0  501  0.00000000000E+00  0.00000000000E+00  0.17368359028E+04  0.17368359028E+04  0.50400001928E-02 0.  1.
        1   -1    0    0  501    0  0.00000000000E+00  0.00000000000E+00 -0.18655969431E+04  0.18655969431E+04  0.50400001928E-02 0. -1.
    10030    2    1    2    0    0  0.00000000000E+00  0.00000000000E+00 -0.12876104026E+03  0.36024328459E+04  0.36001309704E+04 0.  0.
        3    1    3    3  502    0 -0.88894206319E+03 -0.57469100301E+03  0.13924858237E+04  0.17491439392E+04  0.10100000352E+00 0.  1.
       -3    1    3    3    0  502  0.88894206319E+03  0.57469100301E+03 -0.15212468639E+04  0.18532889067E+04  0.10100000352E+00 0. -1.
</event>
<event>
 5   0  0.2482243E-08  0.3600027E+04  0.7818609E-02  0.8090486E-01
        2   -1    0    0  501    0  0.00000000000E+00  0.00000000000E+00  0.27093599359E+04  0.27093599359E+04  0.25500000920E-02 0.  1.
       -2   -1    0    0    0  501  0.00000000000E+00  0.00000000000E+00 -0.11958723301E+04  0.11958723301E+04  0.25500000920E-02 0. -1.
    10030    2    1    2    0    0  0.00000000000E+00  0.00000000000E+00  0.15134876058E+04  0.39052322661E+04  0.36000269886E+04 0.  0.
        5    1    3    3  502    0  0.95598070228E+03 -0.14467541648E+04  0.12804006886E+04  0.21555613492E+04  0.46999998093E+01 0.  1.
       -5    1    3    3    0  502 -0.95598070228E+03  0.14467541648E+04  0.23308691713E+03  0.17496709169E+04  0.46999998093E+01 0. -1.
</event>
<event>
 5   0  0.2482243E-08  0.3600037E+04  0.7818609E-02  0.8090483E-01
       -2   -1    0    0    0  501  0.00000000000E+00  0.00000000000E+00  0.16063259666E+04  0.16063259666E+04  0.25500000920E-02 0. -1.
        2   -1    0    0  501    0  0.00000000000E+00  0.00000000000E+00 -0.20170668864E+04  0.20170668864E+04  0.25500000920E-02 0.  1.
    10030    2    1    2    0    0  0.00000000000E+00  0.00000000000E+00 -0.41074091983E+03  0.36233928529E+04  0.36000371753E+04 0.  0.
        5    1    3    3  502    0 -0.10581099275E+04 -0.98657211367E+03  0.87261662772E+03  0.16894978612E+04  0.46999998093E+01 0. -1.
       -5    1    3    3    0  502  0.10581099275E+04  0.98657211367E+03 -0.12833575476E+04  0.19338949917E+04  0.46999998093E+01 0.  1.
</event>
<event>
 5   0  0.2476968E-08  0.3600431E+04  0.7818609E-02  0.8090393E-01
       -2   -1    0    0    0  501  0.00000000000E+00  0.00000000000E+00  0.14017676496E+04  0.14017676496E+04  0.25500000920E-02 0.  1.
        2   -1    0    0  501    0  0.00000000000E+00  0.00000000000E+00 -0.23119214039E+04  0.23119214039E+04  0.25500000920E-02 0. -1.
    10030    2    1    2    0    0  0.00000000000E+00  0.00000000000E+00 -0.91015375434E+03  0.37136890535E+04  0.36004314366E+04 0.  0.
        2    1    3    3  502    0 -0.37070229482E+02  0.16922668460E+04  0.17709361686E+03  0.17019116984E+04  0.25500000920E-02 0.  1.
       -2    1    3    3    0  502  0.37070229482E+02 -0.16922668460E+04 -0.10872473712E+04  0.20117773551E+04  0.25500000920E-02 0. -1.
</event>
<event>
 5   0  0.2590795E-08  0.3599817E+04  0.7818609E-02  0.8090534E-01
        2   -1    0    0  501    0  0.00000000000E+00  0.00000000000E+00  0.26251229207E+04  0.26251229207E+04  0.25500000920E-02 0. -1.
       -2   -1    0    0    0  501  0.00000000000E+00  0.00000000000E+00 -0.12341027768E+04  0.12341027768E+04  0.25500000920E-02 0.  1.
    10030    2    1    2    0    0  0.00000000000E+00  0.00000000000E+00  0.13910201439E+04  0.38592256974E+04  0.35998174875E+04 0.  0.
        4    1    3    3  502    0  0.90015123825E+03  0.17090702528E+03 -0.96538563572E+03  0.13309592411E+04  0.12699999809E+01 0.  1.
       -4    1    3    3    0  502 -0.90015123825E+03 -0.17090702528E+03  0.23564057796E+04  0.25282664563E+04  0.12699999809E+01 0. -1.
</event>
<event>
 5   0  0.8024500E-09  0.3600323E+04  0.7818609E-02  0.8090418E-01
        1   -1    0    0  501    0  0.00000000000E+00  0.00000000000E+00  0.14686194171E+04  0.14686194171E+04  0.50400001928E-02 0. -1.
       -1   -1    0    0    0  501  0.00000000000E+00  0.00000000000E+00 -0.22065495584E+04  0.22065495584E+04  0.50400001928E-02 0.  1.
    10030    2    1    2    0    0  0.00000000000E+00  0.00000000000E+00 -0.73793014125E+03  0.36751689755E+04  0.36003230556E+04 0.  0.
        1    1    3    3  502    0 -0.96151678224E+03 -0.12401767684E+04 -0.12693611956E+04  0.20183733016E+04  0.50400001928E-02 0.  1.
       -1    1    3    3    0  502  0.96151678224E+03  0.12401767684E+04  0.53143105438E+03  0.16567956739E+04  0.50400001928E-02 0. -1.
</event>
<event>
 5   0  0.8024500E-09  0.3597269E+04  0.7818609E-02  0.8091117E-01
        1   -1    0    0  501    0  0.00000000000E+00  0.00000000000E+00  0.27055186634E+04  0.27055186634E+04  0.50400001928E-02 0. -1.
       -1   -1    0    0    0  501  0.00000000000E+00  0.00000000000E+00 -0.11957362992E+04  0.11957362992E+04  0.50400001928E-02 0.  1.
    10030    2    1    2    0    0  0.00000000000E+00  0.00000000000E+00  0.15097823642E+04  0.39012549626E+04  0.35972694500E+04 0.  0.
        1    1    3    3  502    0  0.28318641230E+03 -0.24860164884E+02 -0.11712188513E+04  0.12052245307E+04  0.50400001928E-02 0.  1.
       -1    1    3    3    0  502 -0.28318641230E+03  0.24860164884E+02  0.26810012155E+04  0.26960304318E+04  0.50400001928E-02 0. -1.
</event>
<event>
 5   0  0.8024500E-09  0.3599707E+04  0.7818609E-02  0.8090559E-01
        1   -1    0    0  501    0  0.00000000000E+00  0.00000000000E+00  0.10485559269E+04  0.10485559269E+04  0.50400001928E-02 0.  1.
       -1   -1    0    0    0  501  0.00000000000E+00  0.00000000000E+00 -0.30894614939E+04  0.30894614939E+04  0.50400001928E-02 0. -1.
    10030    2    1    2    0    0  0.00000000000E+00  0.00000000000E+00 -0.20409055670E+04  0.41380174208E+04  0.35997072995E+04 0.  0.
        5    1    3    3  502    0 -0.38016165566E+03 -0.58074804114E+03 -0.29294068473E+04  0.30105211739E+04  0.46999998093E+01 0. -1.
       -5    1    3    3    0  502  0.38016165566E+03  0.58074804114E+03  0.88850128030E+03  0.11274962469E+04  0.46999998093E+01 0.  1.
</event>
<event>
 5   0  0.2494592E-08  0.3600652E+04  0.7818609E-02  0.8090342E-01
       -2   -1    0    0    0  501  0.00000000000E+00  0.00000000000E+00  0.27201598141E+04  0.27201598141E+04  0.25500000920E-02 0. -1.
        2   -1    0    0  501    0  0.00000000000E+00  0.00000000000E+00 -0.11915379928E+04  0.11915379928E+04  0.25500000920E-02 0.  1.
    10030    2    1    2    0    0  0.00000000000E+00  0.00000000000E+00  0.15286218213E+04  0.39116978069E+04  0.36006520326E+04 0.  0.
        1    1    3    3  502    0 -0.75407340906E+03  0.14350507970E+04  0.16150116547E+04  0.22882876001E+04  0.50400001928E-02 0. -1.
       -1    1    3    3    0  502  0.75407340906E+03 -0.14350507970E+04 -0.86389833345E+02  0.16234102068E+04  0.50400001928E-02 0.  1.
</event>
<event>
 5   0  0.2590795E-08  0.3600018E+04  0.7818609E-02  0.8090488E-01
       -2   -1    0    0    0  501  0.00000000000E+00  0.00000000000E+00  0.20222470978E+04  0.20222470978E+04  0.25500000920E-02 0. -1.
        2   -1    0    0  501    0  0.00000000000E+00  0.00000000000E+00 -0.16021940317E+04  0.16021940317E+04  0.25500000920E-02 0.  1.
    10030    2    1    2    0    0  0.00000000000E+00  0.00000000000E+00  0.42005306606E+03  0.36244411294E+04  0.36000179059E+04 0.  0.
        4    1    3    3  502    0 -0.45223909614E+03  0.79174587826E+03 -0.13524846600E+04  0.16311339933E+04  0.12699999809E+01 0.  1.
       -4    1    3    3    0  502  0.45223909614E+03 -0.79174587826E+03  0.17725377260E+04  0.19933071361E+04  0.12699999809E+01 0. -1.
</event>
<event>
 5   0  0.8146881E-09  0.3598952E+04  0.7818609E-02  0.8090732E-01
       -1   -1    0    0    0  501  0.00000000000E+00  0.00000000000E+00  0.22286002228E+04  0.22286002229E+04  0.50400001928E-02 0. -1.
        1   -1    0    0  501    0  0.00000000000E+00  0.00000000000E+00 -0.14529813595E+04  0.14529813595E+04  0.50400001928E-02 0.  1.
    10030    2    1    2    0    0  0.00000000000E+00  0.00000000000E+00  0.77561886339E+03  0.36815815823E+04  0.35989523929E+04 0.  0.
        4    1    3    3  502    0  0.72435553966E+02 -0.13153175188E+04 -0.86622589311E+03  0.15765963325E+04  0.12699999809E+01 0.  1.
       -4    1    3    3    0  502 -0.72435553966E+02  0.13153175188E+04  0.16418447565E+04  0.21049852499E+04  0.12699999809E+01 0. -1.
</event>
<event>
 5   0  0.8024500E-09  0.3598055E+04  0.7818609E-02  0.8090937E-01
        1   -1    0    0  501    0  0.00000000000E+00  0.00000000000E+00  0.19646348593E+04  0.19646348593E+04  0.50400001928E-02 0.  1.
       -1   -1    0    0    0  501  0.00000000000E+00  0.00000000000E+00 -0.16473797519E+04  0.16473797519E+04  0.50400001928E-02 0. -1.
    10030    2    1    2    0    0  0.00000000000E+00  0.00000000000E+00  0.31725510734E+03  0.36120146112E+04  0.35980548562E+04 0.  0.
        5    1    3    3  502    0 -0.12447319213E+04  0.11552339415E+04 -0.43743920045E+03  0.17536528047E+04  0.46999998093E+01 0. -1.
       -5    1    3    3    0  502  0.12447319213E+04 -0.11552339415E+04  0.75469430779E+03  0.18583618064E+04  0.46999998093E+01 0.  1.
</event>
<event>
 5   0  0.2494592E-08  0.3595056E+04  0.7818609E-02  0.8091625E-01
        2   -1    0    0  501    0  0.00000000000E+00  0.00000000000E+00  0.14725508133E+04  0.14725508133E+04  0.25500000920E-02 0.  1.
       -2   -1    0    0    0  501  0.00000000000E+00  0.00000000000E+00 -0.21942244133E+04  0.21942244133E+04  0.25500000920E-02 0. -1.
    10030    2    1    2    0    0  0.00000000000E+00  0.00000000000E+00 -0.72167359997E+03  0.36667752266E+04  0.35950560187E+04 0.  0.
        1    1    3    3  502    0  0.14854547585E+04 -0.64482376734E+03 -0.11566152921E+04  0.19900081569E+04  0.50400001928E-02 0. -1.
       -1    1    3    3    0  502 -0.14854547585E+04  0.64482376734E+03  0.43494169214E+03  0.16767670697E+04  0.50400001928E-02 0.  1.
</event>
<event>
 5   0  0.8247570E-09  0.3605103E+04  0.7818609E-02  0.8089324E-01
        1   -1    0    0  501    0  0.00000000000E+00  0.00000000000E+00  0.17927140677E+04  0.17927140677E+04  0.50400001928E-02 0.  1.
       -1   -1    0    0    0  501  0.00000000000E+00  0.00000000000E+00 -0.18124433026E+04  0.18124433026E+04  0.50400001928E-02 0. -1.
    10030    2    1    2    0    0  0.00000000000E+00  0.00000000000E+00 -0.19729234935E+02  0.36051573703E+04  0.36051033857E+04 0.  0.
        3    1    3    3  502    0 -0.67411361477E+03  0.66753505048E+03 -0.15425846641E+04  0.18109665004E+04  0.10100000352E+00 0. -1.
       -3    1    3    3    0  502  0.67411361477E+03 -0.66753505048E+03  0.15228554292E+04  0.17941908699E+04  0.10100000352E+00 0.  1.
</event>
<event>
 5   0  0.2476968E-08  0.3599635E+04  0.7818609E-02  0.8090575E-01
       -2   -1    0    0    0  501  0.00000000000E+00  0.00000000000E+00  0.13586521693E+04  0.13586521693E+04  0.25500000920E-02 0. -1.
        2   -1    0    0  501    0  0.00000000000E+00  0.00000000000E+00 -0.23842325842E+04  0.23842325842E+04  0.25500000920E-02 0.  1.
    10030    2    1    2    0    0  0.00000000000E+00  0.00000000000E+00 -0.10255804149E+04  0.37428847535E+04  0.35996348552E+04 0.  0.
        2    1    3    3  502    0 -0.87784843319E+03 -0.88779334467E+03 -0.18607391785E+04  0.22407911962E+04  0.25500000920E-02 0.  1.
       -2    1    3    3    0  502  0.87784843319E+03  0.88779334467E+03  0.83515876360E+03  0.15020935573E+04  0.25500000920E-02 0. -1.
</event>
<event>
 5   0  0.2476968E-08  0.3600366E+04  0.7818609E-02  0.8090408E-01
        2   -1    0    0  501    0  0.00000000000E+00  0.00000000000E+00  0.19498166070E+04  0.19498166070E+04  0.25500000920E-02 0. -1.
       -2   -1    0    0    0  501  0.00000000000E+00  0.00000000000E+00 -0.16620322033E+04  0.16620322033E+04  0.25500000920E-02 0.  1.
    10030    2    1    2    0    0  0.00000000000E+00  0.00000000000E+00  0.28778440371E+03  0.36118488102E+04  0.36003655321E+04 0.  0.
        2    1    3    3  502    0 -0.75177453129E+02  0.79860031735E+02 -0.16586773048E+04  0.16622995144E+04  0.25500000920E-02 0.  1.
       -2    1    3    3    0  502  0.75177453129E+02 -0.79860031735E+02  0.19464617085E+04  0.19495492958E+04  0.25500000920E-02 0. -1.
</event>
<event>
 5   0  0.2590795E-08  0.3598882E+04  0.7818609E-02  0.8090748E-01
       -2   -1    0    0    0  501  0.00000000000E+00  0.00000000000E+00  0.20086333578E+04  0.20086333578E+04  0.25500000920E-02 0. -1.
        2   -1    0    0  501    0  0.00000000000E+00  0.00000000000E+00 -0.16120355779E+04  0.16120355779E+04  0.25500000920E-02 0.  1.
    10030    2    1    2    0    0  0.00000000000E+00  0.00000000000E+00  0.39659777990E+03  0.36206689356E+04  0.35988822907E+04 0.  0.
        4    1    3    3  502    0 -0.12179452855E+04  0.12313675568E+04 -0.29284706355E+03  0.17565357366E+04  0.12699999809E+01 0. -1.
       -4    1    3    3    0  502  0.12179452855E+04 -0.12313675568E+04  0.68944484345E+03  0.18641331990E+04  0.12699999809E+01 0.  1.
</event>
<event>
 5   0  0.2482243E-08  0.3599688E+04  0.7818609E-02  0.8090563E-01
       -2   -1    0    0    0  501  0.00000000000E+00  0.00000000000E+00  0.15665756578E+04  0.15665756578E+04  0.25500000920E-02 0. -1.
        2   -1    0    0  501    0  0.00000000000E+00  0.00000000000E+00 -0.20678463348E+04  0.20678463348E+04  0.25500000920E-02 0.  1.
    10030    2    1    2    0    0  0.00000000000E+00  0.00000000000E+00 -0.50127067694E+03  0.36344219926E+04  0.35996876155E+04 0.  0.
        5    1    3    3  502    0 -0.86237073256E+03 -0.17070607590E+01  0.13443962546E+04  0.15972193255E+04  0.46999998093E+01 0. -1.
       -5    1    3    3    0  502  0.86237073256E+03  0.17070607590E+01 -0.18456669316E+04  0.20372026671E+04  0.46999998093E+01 0.  1.
</event>
<event>
 5   0  0.2494592E-08  0.3583857E+04  0.7818609E-02  0.8094199E-01
       -2   -1    0    0    0  501  0.00000000000E+00  0.00000000000E+00  0.16768162699E+04  0.16768162699E+04  0.25500000920E-02 0.  1.
        2   -1    0    0  501    0  0.00000000000E+00  0.00000000000E+00 -0.19149433208E+04  0.19149433208E+04  0.25500000920E-02 0. -1.
    10030    2    1    2    0    0  0.00000000000E+00  0.00000000000E+00 -0.23812705087E+03  0.35917595907E+04  0.35838572049E+04 0.  0.
        1    1    3    3  502    0 -0.12202812086E+04  0.40056349082E+03 -0.13714071042E+04  0.18789078699E+04  0.50400001928E-02 0. -1.
       -1    1    3    3    0  502  0.12202812086E+04 -0.40056349082E+03  0.11332800533E+04  0.17128517208E+04  0.50400001928E-02 0.  1.
</event>
<event>
 5   0  0.2482243E-08  0.3599176E+04  0.7818609E-02  0.8090680E-01
       -2   -1    0    0    0  501  0.00000000000E+00  0.00000000000E+00  0.16771438499E+04  0.16771438499E+04  0.25500000920E-02 0.  1.
        2   -1    0    0  501    0  0.00000000000E+00  0.00000000000E+00 -0.19309714129E+04  0.19309714129E+04  0.25500000920E-02 0. -1.
    10030    2    1    2    0    0  0.00000000000E+00  0.00000000000E+00 -0.25382756302E+03  0.36081152628E+04  0.35991759220E+04 0.  0.
        5    1    3    3  502    0  0.10986886606E+04 -0.61597645369E+03  0.11615609482E+04  0.17134146289E+04  0.46999998093E+01 0.  1.
       -5    1    3    3    0  502 -0.10986886606E+04  0.61597645369E+03 -0.14153885112E+04  0.18947006338E+04  0.46999998093E+01 0. -1.
</event>
<event>
 5   0  0.8146881E-09  0.3600177E+04  0.7818609E-02  0.8090451E-01
        1   -1    0    0  501    0  0.00000000000E+00  0.00000000000E+00  0.19471590972E+04  0.19471590972E+04  0.50400001928E-02 0. -1.
       -1   -1    0    0    0  501  0.00000000000E+00  0.00000000000E+00 -0.16641263115E+04  0.16641263115E+04  0.50400001928E-02 0.  1.
    10030    2    1    2    0    0  0.00000000000E+00  0.00000000000E+00  0.28303278577E+03  0.36112854087E+04  0.36001770436E+04 0.  0.
        4    1    3    3  502    0  0.13246637390E+03  0.59432843224E+03  0.18407158366E+04  0.19388166570E+04  0.12699999809E+01 0. -1.
       -4    1    3    3    0  502 -0.13246637390E+03 -0.59432843224E+03 -0.15576830508E+04  0.16724687517E+04  0.12699999809E+01 0.  1.
</event>
<event>
 5   0  0.8024500E-09  0.3597336E+04  0.7818609E-02  0.8091102E-01
        1   -1    0    0  501    0  0.00000000000E+00  0.00000000000E+00  0.26744283617E+04  0.26744283617E+04  0.50400001928E-02 0. -1.
       -1   -1    0    0    0  501  0.00000000000E+00  0.00000000000E+00 -0.12096813419E+04  0.12096813419E+04  0.50400001928E-02 0.  1.
    10030    2    1    2    0    0  0.00000000000E+00  0.00000000000E+00  0.14647470198E+04  0.38841097036E+04  0.35973357305E+04 0.  0.
        5    1    3    3  502    0  0.28024542013E+03 -0.15734536227E+04 -0.15856772282E+03  0.16060696158E+04  0.46999998093E+01 0.  1.
       -5    1    3    3    0  502 -0.28024542013E+03  0.15734536227E+04  0.16233147426E+04  0.22780400878E+04  0.46999998093E+01 0. -1.
</event>
<event>
 5   0  0.2590795E-08  0.3626045E+04  0.7818609E-02  0.8084552E-01
        2   -1    0    0  501    0  0.00000000000E+00  0.00000000000E+00  0.16885479224E+04  0.16885479224E+04  0.25500000920E-02 0. -1.
       -2   -1    0    0    0  501  0.00000000000E+00  0.00000000000E+00 -0.19466731584E+04  0.19466731584E+04  0.25500000920E-02 0.  1.
    10030    2    1    2    0    0  0.00000000000E+00  0.00000000000E+00 -0.25812523592E+03  0.36352210808E+04  0.36260451829E+04 0.  0.
        4    1    3    3  502    0  0.26205878507E+03  0.17684815598E+04 -0.43123449033E+03  0.18390667831E+04  0.12699999809E+01 0.  1.
       -4    1    3    3    0  502 -0.26205878507E+03 -0.17684815598E+04  0.17310925441E+03  0.17961542977E+04  0.12699999809E+01 0. -1.
</event>
<event>
 5   0  0.2476968E-08  0.3604806E+04  0.7818609E-02  0.8089392E-01
       -2   -1    0    0    0  501  0.00000000000E+00  0.00000000000E+00  0.17895215085E+04  0.17895215085E+04  0.25500000920E-02 0.  1.
        2   -1    0    0  501    0  0.00000000000E+00  0.00000000000E+00 -0.18153775775E+04  0.18153775775E+04  0.25500000920E-02 0. -1.
    10030    2    1    2    0    0  0.00000000000E+00  0.00000000000E+00 -0.25856069040E+02  0.36048990860E+04  0.36048063587E+04 0.  0.
        2    1    3    3  502    0  0.69084905331E+03  0.52038931697E+03  0.15684347995E+04  0.17911072486E+04  0.25500000920E-02 0.  1.
       -2    1    3    3    0  502 -0.69084905331E+03 -0.52038931697E+03 -0.15942908686E+04  0.18137918374E+04  0.25500000920E-02 0. -1.
</event>
<event>
 5   0  0.8024500E-09  0.3597130E+04  0.7818609E-02  0.8091149E-01
        1   -1    0    0  501    0  0.00000000000E+00  0.00000000000E+00  0.11288341945E+04  0.11288341945E+04  0.50400001928E-02 0. -1.
       -1   -1    0    0    0  501  0.00000000000E+00  0.00000000000E+00 -0.28656440011E+04  0.28656440011E+04  0.50400001928E-02 0.  1.
    10030    2    1    2    0    0  0.00000000000E+00  0.00000000000E+00 -0.17368098066E+04  0.39944781955E+04  0.35971304884E+04 0.  0.
        5    1    3    3  502    0  0.28392435688E+03 -0.30700345070E+03 -0.28109051218E+04  0.28418433899E+04  0.46999998093E+01 0.  1.
       -5    1    3    3    0  502 -0.28392435688E+03  0.30700345070E+03  0.10740953152E+04  0.11526348057E+04  0.46999998093E+01 0. -1.
</event>
<event>
 5   0  0.8146881E-09  0.3600321E+04  0.7818609E-02  0.8090418E-01
       -1   -1    0    0    0  501  0.00000000000E+00  0.00000000000E+00  0.32583485210E+04  0.32583485210E+04  0.50400001928E-02 0.  1.
        1   -1    0    0  501    0  0.00000000000E+00  0.00000000000E+00 -0.99454619023E+03  0.99454619024E+03  0.50400001928E-02 0. -1.
    10030    2    1    2    0    0  0.00000000000E+00  0.00000000000E+00  0.22638023308E+04  0.42528947113E+04  0.36003211568E+04 0.  0.
        4    1    3    3  502    0 -0.40568119426E+03  0.17463450414E+04  0.13233892226E+04  0.22283758396E+04  0.12699999809E+01 0.  1.
       -4    1    3    3    0  502  0.40568119426E+03 -0.17463450414E+04  0.94041310816E+03  0.20245188717E+04  0.12699999809E+01 0. -1.
</event>
<event>
 5   0  0.2482243E-08  0.3597811E+04  0.7818609E-02  0.8090993E-01
       -2   -1    0    0    0  501  0.00000000000E+00  0.00000000000E+00  0.14974250810E+04  0.14974250810E+04  0.25500000920E-02 0. -1.
        2   -1    0    0  501    0  0.00000000000E+00  0.00000000000E+00 -0.21610832175E+04  0.21610832175E+04  0.25500000920E-02 0.  1.
    10030    2    1    2    0    0  0.00000000000E+00  0.00000000000E+00 -0.66365813651E+03  0.36585082985E+04  0.35978105631E+04 0.  0.
        5    1    3    3  502    0 -0.16912940193E+04  0.37885702806E+03 -0.82165055901E+03  0.19181084011E+04  0.46999998093E+01 0.  1.
       -5    1    3    3    0  502  0.16912940193E+04 -0.37885702806E+03  0.15799242250E+03  0.17403998974E+04  0.46999998093E+01 0. -1.
</event>
<event>
 5   0  0.8063410E-09  0.3601548E+04  0.7818609E-02  0.8090137E-01
       -1   -1    0    0    0  501  0.00000000000E+00  0.00000000000E+00  0.17150625060E+04  0.17150625060E+04  0.50400001928E-02 0. -1.
        1   -1    0    0  501    0  0.00000000000E+00  0.00000000000E+00 -0.18907685519E+04  0.18907685520E+04  0.50400001928E-02 0.  1.
    10030    2    1    2    0    0  0.00000000000E+00  0.00000000000E+00 -0.17570604599E+03  0.36058310579E+04  0.36015475845E+04 0.  0.
        2    1    3    3  502    0  0.96602432559E+02 -0.59778832828E+03 -0.17857778586E+04  0.18856525331E+04  0.25500000920E-02 0.  1.
       -2    1    3    3    0  502 -0.96602432559E+02  0.59778832828E+03  0.16100718126E+04  0.17201785248E+04  0.25500000920E-02 0. -1.
</event>
<event>
 5   0  0.8247570E-09  0.3599144E+04  0.7818609E-02  0.8090688E-01
        1   -1    0    0  501    0  0.00000000000E+00  0.00000000000E+00  0.18928722440E+04  0.18928722440E+04  0.50400001928E-02 0. -1.
       -1   -1    0    0    0  501  0.00000000000E+00  0.00000000000E+00 -0.17108706054E+04  0.17108706054E+04  0.50400001928E-02 0.  1.
    10030    2    1    2    0    0  0.00000000000E+00  0.00000000000E+00  0.18200163859E+03  0.36037428493E+04  0.35991440549E+04 0.  0.
        3    1    3    3  502    0 -0.17359456349E+03 -0.11526091142E+04  0.14638167418E+04  0.18712034380E+04  0.10100000352E+00 0. -1.
       -3    1    3    3    0  502  0.17359456349E+03  0.11526091142E+04 -0.12818151032E+04  0.17325394113E+04  0.10100000352E+00 0.  1.
</event>
<event>
 5   0  0.8024500E-09  0.3600791E+04  0.7818609E-02  0.8090311E-01
        1   -1    0    0  501    0  0.00000000000E+00  0.00000000000E+00  0.16165773347E+04  0.16165773347E+04  0.50400001928E-02 0.  1.
       -1   -1    0    0    0  501  0.00000000000E+00  0.00000000000E+00 -0.20051147747E+04  0.20051147747E+04  0.50400001928E-02 0. -1.
    10030    2    1    2    0    0  0.00000000000E+00  0.00000000000E+00 -0.38853743996E+03  0.36216921094E+04  0.36007905234E+04 0.  0.
        1    1    3    3  502    0 -0.69076421348E+03  0.11259470146E+04  0.10361520642E+04  0.16788457280E+04  0.50400001928E-02 0.  1.
       -1    1    3    3    0  502  0.69076421348E+03 -0.11259470146E+04 -0.14246895042E+04  0.19428463814E+04  0.50400001928E-02 0. -1.
</event>
<event>
 5   0  0.2494592E-08  0.3600286E+04  0.7818609E-02  0.8090426E-01
       -2   -1    0    0    0  501  0.00000000000E+00  0.00000000000E+00  0.24436167045E+04  0.24436167045E+04  0.25500000920E-02 0.  1.
        2   -1    0    0  501    0  0.00000000000E+00  0.00000000000E+00 -0.13261141557E+04  0.13261141557E+04  0.25500000920E-02 0. -1.
    10030    2    1    2    0    0  0.00000000000E+00  0.00000000000E+00  0.11175025487E+04  0.37697308602E+04  0.36002859347E+04 0.  0.
        1    1    3    3  502    0 -0.65352673631E+03 -0.37700770130E+03 -0.11525768075E+04  0.13775577299E+04  0.50400001928E-02 0. -1.
       -1    1    3    3    0  502  0.65352673631E+03  0.37700770130E+03  0.22700793562E+04  0.23921731303E+04  0.50400001928E-02 0.  1.
</event>
<event>
 5   0  0.2608070E-08  0.3599856E+04  0.7818609E-02  0.8090525E-01
        2   -1    0    0  501    0  0.00000000000E+00  0.00000000000E+00  0.17246770104E+04  0.17246770104E+04  0.25500000920E-02 0.  1.
       -2   -1    0    0    0  501  0.00000000000E+00  0.00000000000E+00 -0.18784620645E+04  0.18784620645E+04  0.25500000920E-02 0. -1.
    10030    2    1    2    0    0  0.00000000000E+00  0.00000000000E+00 -0.15378505408E+03  0.36031390749E+04  0.35998557402E+04 0.  0.
        3    1    3    3  502    0  0.66020365218E+03 -0.19848608491E+03  0.15872949173E+04  0.17305405955E+04  0.10100000352E+00 0.  1.
       -3    1    3    3    0  502 -0.66020365218E+03  0.19848608491E+03 -0.17410799713E+04  0.18725984794E+04  0.10100000352E+00 0. -1.
</event>
<event>
 5   0  0.2482243E-08  0.3600888E+04  0.7818609E-02  0.8090288E-01
        2   -1    0    0  501    0  0.00000000000E+00  0.00000000000E+00  0.29211143218E+04  0.29211143218E+04  0.25500000920E-02 0. -1.
       -2   -1    0    0    0  501  0.00000000000E+00  0.00000000000E+00 -0.11097132323E+04  0.11097132323E+04  0.25500000920E-02 0.  1.
    10030    2    1    2    0    0  0.00000000000E+00  0.00000000000E+00  0.18114010895E+04  0.40308275540E+04  0.36008883436E+04 0.  0.
        5    1    3    3  502    0  0.98955919989E+03  0.80064905455E+03 -0.51963692602E+03  0.13748857929E+04  0.46999998093E+01 0.  1.
       -5    1    3    3    0  502 -0.98955919989E+03 -0.80064905455E+03  0.23310380155E+04  0.26559417611E+04  0.46999998093E+01 0. -1.
</event>
<event>
 5   0  0.2590795E-08  0.3588366E+04  0.7818609E-02  0.8093162E-01
       -2   -1    0    0    0  501  0.00000000000E+00  0.00000000000E+00  0.15976892316E+04  0.15976892316E+04  0.25500000920E-02 0. -1.
        2   -1    0    0  501    0  0.00000000000E+00  0.00000000000E+00 -0.20148423060E+04  0.20148423060E+04  0.25500000920E-02 0.  1.
    10030    2    1    2    0    0  0.00000000000E+00  0.00000000000E+00 -0.41715307443E+03  0.36125315376E+04  0.35883655643E+04 0.  0.
        4    1    3    3  502    0 -0.12396790096E+04 -0.29878386680E+03  0.10620701755E+04  0.16595392483E+04  0.12699999809E+01 0. -1.
       -4    1    3    3    0  502  0.12396790096E+04  0.29878386680E+03 -0.14792232500E+04  0.19529922893E+04  0.12699999809E+01 0.  1.
</event>
<event>
 5   0  0.2494592E-08  0.3600188E+04  0.7818609E-02  0.8090449E-01
       -2   -1    0    0    0  501  0.00000000000E+00  0.00000000000E+00  0.16791643398E+04  0.16791643398E+04  0.25500000920E-02 0. -1.
        2   -1    0    0  501    0  0.00000000000E+00  0.00000000000E+00 -0.19297325823E+04  0.19297325823E+04  0.25500000920E-02 0.  1.
    10030    2    1    2    0    0  0.00000000000E+00  0.00000000000E+00 -0.25056824249E+03  0.36088969220E+04  0.36001878492E+04 0.  0.
        1    1    3    3  502    0  0.15895013848E+04  0.83891925616E+03 -0.22571614022E+03  0.18114215265E+04  0.50400001928E-02 0.  1.
       -1    1    3    3    0  502 -0.15895013848E+04 -0.83891925616E+03 -0.24852102272E+02  0.17974753956E+04  0.50400001928E-02 0. -1.
</event>
<event>
 5   0  0.8063410E-09  0.3601110E+04  0.7818609E-02  0.8090237E-01
        1   -1    0    0  501    0  0.00000000000E+00  0.00000000000E+00  0.21337992037E+04  0.21337992037E+04  0.50400001928E-02 0. -1.
       -1   -1    0    0    0  501  0.00000000000E+00  0.00000000000E+00 -0.15193550514E+04  0.15193550514E+04  0.50400001928E-02 0.  1.
    10030    2    1    2    0    0  0.00000000000E+00  0.00000000000E+00  0.61444415224E+03  0.36531542551E+04  0.36011101615E+04 0.  0.
        2    1    3    3  502    0 -0.21644682304E+03 -0.61025667568E+03  0.20116033234E+04  0.21132464050E+04  0.25500000920E-02 0. -1.
       -2    1    3    3    0  502  0.21644682304E+03  0.61025667568E+03 -0.13971591712E+04  0.15399078502E+04  0.25500000920E-02 0.  1.
</event>
<event>
 5   0  0.8247570E-09  0.3601092E+04  0.7818609E-02  0.8090242E-01
       -1   -1    0    0    0  501  0.00000000000E+00  0.00000000000E+00  0.18256642864E+04  0.18256642864E+04  0.50400001928E-02 0.  1.
        1   -1    0    0  501    0  0.00000000000E+00  0.00000000000E+00 -0.17757732434E+04  0.17757732434E+04  0.50400001928E-02 0. -1.
    10030    2    1    2    0    0  0.00000000000E+00  0.00000000000E+00  0.49891042964E+02  0.36014375298E+04  0.36010919406E+04 0.  0.
        3    1    3    3  502    0  0.14013161981E+04 -0.11283399608E+04  0.96559842498E+02  0.18017108446E+04  0.10100000352E+00 0.  1.
       -3    1    3    3    0  502 -0.14013161981E+04  0.11283399608E+04 -0.46668799534E+02  0.17997266852E+04  0.10100000352E+00 0. -1.
</event>
<event>
 5   0  0.2608070E-08  0.3594886E+04  0.7818609E-02  0.8091664E-01
       -2   -1    0    0    0  501  0.00000000000E+00  0.00000000000E+00  0.15178500603E+04  0.15178500603E+04  0.25500000920E-02 0.  1.
        2   -1    0    0  501    0  0.00000000000E+00  0.00000000000E+00 -0.21285378529E+04  0.21285378529E+04  0.25500000920E-02 0. -1.
    10030    2    1    2    0    0  0.00000000000E+00  0.00000000000E+00 -0.61068779261E+03  0.36463879133E+04  0.35948859835E+04 0.  0.
        3    1    3    3  502    0  0.10451994411E+03 -0.15940807371E+04 -0.11410303851E+04  0.19631526087E+04  0.10100000352E+00 0. -1.
       -3    1    3    3    0  502 -0.10451994411E+03  0.15940807371E+04  0.53034259247E+03  0.16832353046E+04  0.10100000352E+00 0.  1.
</event>
<event>
 5   0  0.2608070E-08  0.3602960E+04  0.7818609E-02  0.8089814E-01
       -2   -1    0    0    0  501  0.00000000000E+00  0.00000000000E+00  0.29798822962E+04  0.29798822962E+04  0.25500000920E-02 0.  1.
        2   -1    0    0  501    0  0.00000000000E+00  0.00000000000E+00 -0.10890801918E+04  0.10890801918E+04  0.25500000920E-02 0. -1.
    10030    2    1    2    0    0  0.00000000000E+00  0.00000000000E+00  0.18908021043E+04  0.40689624880E+04  0.36029603288E+04 0.  0.
        3    1    3    3  502    0  0.14488111350E+04  0.10174449925E+04  0.56900286154E+03  0.18595731457E+04  0.10100000352E+00 0. -1.
       -3    1    3    3    0  502 -0.14488111350E+04 -0.10174449925E+04  0.13217992428E+04  0.22093893423E+04  0.10100000352E+00 0.  1.
</event>
<event>
 5   0  0.8146881E-09  0.3605392E+04  0.7818609E-02  0.8089258E-01
       -1   -1    0    0    0  501  0.00000000000E+00  0.00000000000E+00  0.95685197374E+03  0.95685197375E+03  0.50400001928E-02 0.  1.
        1   -1    0    0  501    0  0.00000000000E+00  0.00000000000E+00 -0.33962539929E+04  0.33962539929E+04  0.50400001928E-02 0. -1.
    10030    2    1    2    0    0  0.00000000000E+00  0.00000000000E+00 -0.24394020192E+04  0.43531059667E+04  0.36053917049E+04 0.  0.
        4    1    3    3  502    0  0.45084382378E+03 -0.11690494654E+03  0.88295152039E+03  0.99826445406E+03  0.12699999809E+01 0.  1.
       -4    1    3    3    0  502 -0.45084382378E+03  0.11690494654E+03 -0.33223535396E+04  0.33548415126E+04  0.12699999809E+01 0. -1.
</event>
<event>
 5   0  0.8024500E-09  0.3600883E+04  0.7818609E-02  0.8090290E-01
        1   -1    0    0  501    0  0.00000000000E+00  0.00000000000E+00  0.18660846423E+04  0.18660846423E+04  0.50400001928E-02 0.  1.
       -1   -1    0    0    0  501  0.00000000000E+00  0.00000000000E+00 -0.17371071569E+04  0.17371071569E+04  0.50400001928E-02 0. -1.
    10030    2    1    2    0    0  0.00000000000E+00  0.00000000000E+00  0.12897748543E+03  0.36031917992E+04  0.36008826626E+04 0.  0.
        1    1    3    3  502    0 -0.34159421927E+03 -0.11176514316E+04 -0.13059725513E+04  0.17525397679E+04  0.50400001928E-02 0. -1.
       -1    1    3    3    0  502  0.34159421927E+03  0.11176514316E+04  0.14349500367E+04  0.18506520313E+04  0.50400001928E-02 0.  1.
</event>
<event>
 5   0  0.2482243E-08  0.3597472E+04  0.7818609E-02  0.8091071E-01
       -2   -1    0    0    0  501  0.00000000000E+00  0.00000000000E+00  0.20471568078E+04  0.20471568078E+04  0.25500000920E-02 0.  1.
        2   -1    0    0  501    0  0.00000000000E+00  0.00000000000E+00 -0.15804609213E+04  0.15804609213E+04  0.25500000920E-02 0. -1.
    10030    2    1    2    0    0  0.00000000000E+00  0.00000000000E+00  0.46669588640E+03  0.36276177291E+04  0.35974720761E+04 0.  0.
        5    1    3    3  502    0  0.10630940722E+04 -0.49478467283E+03 -0.11420643282E+04  0.16368609894E+04  0.46999998093E+01 0. -1.
       -5    1    3    3    0  502 -0.10630940722E+04  0.49478467283E+03  0.16087602146E+04  0.19907567397E+04  0.46999998093E+01 0.  1.
</event>
<event>
 5   0  0.8146881E-09  0.3599549E+04  0.7818609E-02  0.8090595E-01
       -1   -1    0    0    0  501  0.00000000000E+00  0.00000000000E+00  0.17475065795E+04  0.17475065796E+04  0.50400001928E-02 0. -1.
        1   -1    0    0  501    0  0.00000000000E+00  0.00000000000E+00 -0.18536055582E+04  0.18536055582E+04  0.50400001928E-02 0.  1.
    10030    2    1    2    0    0  0.00000000000E+00  0.00000000000E+00 -0.10609897866E+03  0.36011121378E+04  0.35995488100E+04 0.  0.
        4    1    3    3  502    0  0.89483974853E+03 -0.15580113208E+04  0.52109647225E+02  0.17974577824E+04  0.12699999809E+01 0. -1.
       -4    1    3    3    0  502 -0.89483974853E+03  0.15580113208E+04 -0.15820862589E+03  0.18036543553E+04  0.12699999809E+01 0.  1.
</event>
<event>
 5   0  0.8024500E-09  0.3599598E+04  0.7818609E-02  0.8090584E-01
        1   -1    0    0  501    0  0.00000000000E+00  0.00000000000E+00  0.10092512677E+04  0.10092512677E+04  0.50400001928E-02 0.  1.
       -1   -1    0    0    0  501  0.00000000000E+00  0.00000000000E+00 -0.32095833738E+04  0.32095833738E+04  0.50400001928E-02 0. -1.
    10030    2    1    2    0    0  0.00000000000E+00  0.00000000000E+00 -0.22003321061E+04  0.42188346415E+04  0.35995978046E+04 0.  0.
        1    1    3    3  502    0  0.16411701662E+04 -0.73558892154E+03 -0.11809044469E+04  0.21515264090E+04  0.50400001928E-02 0. -1.
       -1    1    3    3    0  502 -0.16411701662E+04  0.73558892154E+03 -0.10194276592E+04  0.20673082325E+04  0.50400001928E-02 0.  1.
</event>
<event>
 5   0  0.2590795E-08  0.3601893E+04  0.7818609E-02  0.8090058E-01
       -2   -1    0    0    0  501  0.00000000000E+00  0.00000000000E+00  0.12473093706E+04  0.12473093706E+04  0.25500000920E-02 0.  1.
        2   -1    0    0  501    0  0.00000000000E+00  0.00000000000E+00 -0.26003243528E+04  0.26003243528E+04  0.25500000920E-02 0. -1.
    10030    2    1    2    0    0  0.00000000000E+00  0.00000000000E+00 -0.13530149821E+04  0.38476337234E+04  0.36018933532E+04 0.  0.
        4    1    3    3  502    0 -0.76408349420E+03  0.92775679568E+03 -0.21092246955E+04  0.24276298496E+04  0.12699999809E+01 0. -1.
       -4    1    3    3    0  502  0.76408349420E+03 -0.92775679568E+03  0.75620971332E+03  0.14200038737E+04  0.12699999809E+01 0.  1.
</event>
<event>
 5   0  0.8247570E-09  0.3599984E+04  0.7818609E-02  0.8090495E-01
        1   -1    0    0  501    0  0.00000000000E+00  0.00000000000E+00  0.14120710966E+04  0.14120710966E+04  0.50400001928E-02 0. -1.
       -1   -1    0    0    0  501  0.00000000000E+00  0.00000000000E+00 -0.22944811491E+04  0.22944811491E+04  0.50400001928E-02 0.  1.
    10030    2    1    2    0    0  0.00000000000E+00  0.00000000000E+00 -0.88241005253E+03  0.37065522458E+04  0.35999836180E+04 0.  0.
        3    1    3    3  502    0 -0.25072382728E+03  0.33788348299E+03 -0.22431397157E+04  0.22822584165E+04  0.10100000352E+00 0.  1.
       -3    1    3    3    0  502  0.25072382728E+03 -0.33788348299E+03  0.13607296631E+04  0.14242938292E+04  0.10100000352E+00 0. -1.
</event>
<event>
 5   0  0.8247570E-09  0.3600664E+04  0.7818609E-02  0.8090340E-01
       -1   -1    0    0    0  501  0.00000000000E+00  0.00000000000E+00  0.28007294628E+04  0.28007294628E+04  0.50400001928E-02 0. -1.
        1   -1    0    0  501    0  0.00000000000E+00  0.00000000000E+00 -0.11572681478E+04  0.11572681478E+04  0.50400001928E-02 0.  1.
    10030    2    1    2    0    0  0.00000000000E+00  0.00000000000E+00  0.16434613150E+04  0.39579976106E+04  0.36006638265E+04 0.  0.
        3    1    3    3  502    0  0.33116551498E+03  0.15329815387E+04 -0.15002083867E+03  0.15755028589E+04  0.10100000352E+00 0.  1.
       -3    1    3    3    0  502 -0.33116551498E+03 -0.15329815387E+04  0.17934821537E+04  0.23824947517E+04  0.10100000352E+00 0. -1.
</event>
<event>
 5   0  0.8024500E-09  0.3600278E+04  0.7818609E-02  0.8090428E-01
       -1   -1    0    0    0  501  0.00000000000E+00  0.00000000000E+00  0.15204393505E+04  0.15204393505E+04  0.50400001928E-02 0.  1.
        1   -1    0    0  501    0  0.00000000000E+00  0.00000000000E+00 -0.21312917894E+04  0.21312917895E+04  0.50400001928E-02 0. -1.
    10030    2    1    2    0    0  0.00000000000E+00  0.00000000000E+00 -0.61085243895E+03  0.36517311400E+04  0.36002777138E+04 0.  0.
        1    1    3    3  502    0  0.11089814797E+04 -0.12842266308E+04  0.30434939223E+03  0.17238638329E+04  0.50400001928E-02 0.  1.
       -1    1    3    3    0  502 -0.11089814797E+04  0.12842266308E+04 -0.91520183119E+03  0.19278673071E+04  0.50400001928E-02 0. -1.
</event>
<event>
 5   0  0.8024500E-09  0.3601048E+04  0.7818609E-02  0.8090252E-01
       -1   -1    0    0    0  501  0.00000000000E+00  0.00000000000E+00  0.12688738163E+04  0.12688738163E+04  0.50400001928E-02 0.  1.
        1   -1    0    0  501    0  0.00000000000E+00  0.00000000000E+00 -0.25549326982E+04  0.25549326982E+04  0.50400001928E-02 0. -1.
    10030    2    1    2    0    0  0.00000000000E+00  0.00000000000E+00 -0.12860588819E+04  0.38238065145E+04  0.36010482936E+04 0.  0.
        5    1    3    3  502    0  0.72397135685E+02  0.17809449201E+04 -0.91345762483E+03  0.20028562295E+04  0.46999998093E+01 0. -1.
       -5    1    3    3    0  502 -0.72397135685E+02 -0.17809449201E+04 -0.37260125707E+03  0.18209502850E+04  0.46999998093E+01 0.  1.
</event>
<event>
 5   0  0.8024500E-09  0.3625995E+04  0.7818609E-02  0.8084563E-01
        1   -1    0    0  501    0  0.00000000000E+00  0.00000000000E+00  0.26186047404E+04  0.26186047404E+04  0.50400001928E-02 0. -1.
       -1   -1    0    0    0  501  0.00000000000E+00  0.00000000000E+00 -0.12552330911E+04  0.12552330911E+04  0.50400001928E-02 0.  1.
    10030    2    1    2    0    0  0.00000000000E+00  0.00000000000E+00  0.13633716494E+04  0.38738378315E+04  0.36259946622E+04 0.  0.
        5    1    3    3  502    0  0.34946052617E+03 -0.11919618154E+04  0.20925743327E+04  0.24334718113E+04  0.46999998093E+01 0. -1.
       -5    1    3    3    0  502 -0.34946052617E+03  0.11919618154E+04 -0.72920268331E+03  0.14403660202E+04  0.46999998093E+01 0.  1.
</event>
<event>
 5   0  0.8063410E-09  0.3600721E+04  0.7818609E-02  0.8090327E-01
        1   -1    0    0  501    0  0.00000000000E+00  0.00000000000E+00  0.23113511421E+04  0.23113511421E+04  0.50400001928E-02 0. -1.
       -1   -1    0    0    0  501  0.00000000000E+00  0.00000000000E+00 -0.14023387939E+04  0.14023387939E+04  0.50400001928E-02 0.  1.
    10030    2    1    2    0    0  0.00000000000E+00  0.00000000000E+00  0.90901234821E+03  0.37136899360E+04  0.36007206906E+04 0.  0.
        2    1    3    3  502    0 -0.19387966453E+03 -0.15325492271E+04  0.14081791939E+04  0.20902787134E+04  0.25500000920E-02 0. -1.
       -2    1    3    3    0  502  0.19387966453E+03  0.15325492271E+04 -0.49916684565E+03  0.16234112226E+04  0.25500000920E-02 0.  1.
</event>
<event>
 5   0  0.8063410E-09  0.3599461E+04  0.7818609E-02  0.8090615E-01
       -1   -1    0    0    0  501  0.00000000000E+00  0.00000000000E+00  0.16740589382E+04  0.16740589382E+04  0.50400001928E-02 0.  1.
        1   -1    0    0  501    0  0.00000000000E+00  0.00000000000E+00 -0.19348367111E+04  0.19348367111E+04  0.50400001928E-02 0. -1.
    10030    2    1    2    0    0  0.00000000000E+00  0.00000000000E+00 -0.26077777294E+03  0.36088956493E+04  0.35994614543E+04 0.  0.
        2    1    3    3  502    0 -0.68299084426E+03  0.87088567988E+03  0.12925250779E+04  0.17016284664E+04  0.25500000920E-02 0.  1.
       -2    1    3    3    0  502  0.68299084426E+03 -0.87088567988E+03 -0.15533028508E+04  0.19072671829E+04  0.25500000920E-02 0. -1.
</event>
<event>
 5   0  0.8063410E-09  0.3598090E+04  0.7818609E-02  0.8090929E-01
       -1   -1    0    0    0  501  0.00000000000E+00  0.00000000000E+00  0.18927928505E+04  0.18927928505E+04  0.50400001928E-02 0. -1.
        1   -1    0    0  501    0  0.00000000000E+00  0.00000000000E+00 -0.17099400155E+04  0.17099400155E+04  0.50400001928E-02 0.  1.
    10030    2    1    2    0    0  0.00000000000E+00  0.00000000000E+00  0.18285283495E+03  0.36027328660E+04  0.35980896243E+04 0.  0.
        2    1    3    3  502    0 -0.11782105370E+04  0.13373908182E+04 -0.15336394902E+03  0.17889423610E+04  0.25500000920E-02 0.  1.
       -2    1    3    3    0  502  0.11782105370E+04 -0.13373908182E+04  0.33621678397E+03  0.18137905050E+04  0.25500000920E-02 0. -1.
</event>
<event>
 5   0  0.2482243E-08  0.3599556E+04  0.7818609E-02  0.8090593E-01
        2   -1    0    0  501    0  0.00000000000E+00  0.00000000000E+00  0.20703883607E+04  0.20703883607E+04  0.25500000920E-02 0.  1.
       -2   -1    0    0    0  501  0.00000000000E+00  0.00000000000E+00 -0.15645381410E+04  0.15645381410E+04  0.25500000920E-02 0. -1.
    10030    2    1    2    0    0  0.00000000000E+00  0.00000000000E+00  0.50585021977E+03  0.36349265017E+04  0.35995563932E+04 0.  0.
        5    1    3    3  502    0  0.10689266202E+04  0.43033394965E+03 -0.11431895388E+04  0.16231746176E+04  0.46999998093E+01 0. -1.
       -5    1    3    3    0  502 -0.10689266202E+04 -0.43033394965E+03  0.16490397586E+04  0.20117518841E+04  0.46999998093E+01 0.  1.
</event>
<event>
 5   0  0.8024500E-09  0.3599213E+04  0.7818609E-02  0.8090672E-01
        1   -1    0    0  501    0  0.00000000000E+00  0.00000000000E+00  0.24583285844E+04  0.24583285844E+04  0.50400001928E-02 0.  1.
       -1   -1    0    0    0  501  0.00000000000E+00  0.00000000000E+00 -0.13173926966E+04  0.13173926966E+04  0.50400001928E-02 0. -1.
    10030    2    1    2    0    0  0.00000000000E+00  0.00000000000E+00  0.11409358879E+04  0.37757212810E+04  0.35992133156E+04 0.  0.
        1    1    3    3  502    0  0.10175895749E+04 -0.90253927761E+03 -0.66567349520E+03  0.15143272080E+04  0.50400001928E-02 0. -1.
       -1    1    3    3    0  502 -0.10175895749E+04  0.90253927761E+03  0.18066093831E+04  0.22613940730E+04  0.50400001928E-02 0.  1.
</event>
<event>
 5   0  0.2608070E-08  0.3600327E+04  0.7818609E-02  0.8090417E-01
        2   -1    0    0  501    0  0.00000000000E+00  0.00000000000E+00  0.23231995494E+04  0.23231995494E+04  0.25500000920E-02 0. -1.
       -2   -1    0    0    0  501  0.00000000000E+00  0.00000000000E+00 -0.13948817881E+04  0.13948817881E+04  0.25500000920E-02 0.  1.
    10030    2    1    2    0    0  0.00000000000E+00  0.00000000000E+00  0.92831776126E+03  0.37180813375E+04  0.36003270638E+04 0.  0.
        3    1    3    3  502    0  0.16571573088E+04  0.64369197080E+03  0.75639664625E+03  0.19320055890E+04  0.10100000352E+00 0. -1.
       -3    1    3    3    0  502 -0.16571573088E+04 -0.64369197080E+03  0.17192111500E+03  0.17860757485E+04  0.10100000352E+00 0.  1.
</event>
<event>
 5   0  0.8146881E-09  0.3600232E+04  0.7818609E-02  0.8090439E-01
       -1   -1    0    0    0  501  0.00000000000E+00  0.00000000000E+00  0.24531516925E+04  0.24531516925E+04  0.50400001928E-02 0.  1.
        1   -1    0    0  501    0  0.00000000000E+00  0.00000000000E+00 -0.13209199495E+04  0.13209199495E+04  0.50400001928E-02 0. -1.
    10030    2    1    2    0    0  0.00000000000E+00  0.00000000000E+00  0.11322317431E+04  0.37740716420E+04  0.36002316646E+04 0.  0.
        4    1    3    3  502    0  0.93138871866E+03  0.11481394276E+04  0.16426937808E+04  0.22100121178E+04  0.12699999809E+01 0.  1.
       -4    1    3    3    0  502 -0.93138871866E+03 -0.11481394276E+04 -0.51046203775E+03  0.15640595242E+04  0.12699999809E+01 0. -1.
</event>
<event>
 5   0  0.2590795E-08  0.3605543E+04  0.7818609E-02  0.8089223E-01
       -2   -1    0    0    0  501  0.00000000000E+00  0.00000000000E+00  0.29194465386E+04  0.29194465386E+04  0.25500000920E-02 0. -1.
        2   -1    0    0  501    0  0.00000000000E+00  0.00000000000E+00 -0.11132194976E+04  0.11132194976E+04  0.25500000920E-02 0.  1.
    10030    2    1    2    0    0  0.00000000000E+00  0.00000000000E+00  0.18062270411E+04  0.40326660362E+04  0.36055428490E+04 0.  0.
        4    1    3    3  502    0  0.14853181809E+04  0.10156637303E+04  0.10268555829E+04  0.20717569627E+04  0.12699999809E+01 0.  1.
       -4    1    3    3    0  502 -0.14853181809E+04 -0.10156637303E+04  0.77937145820E+03  0.19609090735E+04  0.12699999809E+01 0. -1.
</event>
<event>
 5   0  0.2494592E-08  0.3596493E+04  0.7818609E-02  0.8091296E-01
        2   -1    0    0  501    0  0.00000000000E+00  0.00000000000E+00  0.19998078118E+04  0.19998078118E+04  0.25500000920E-02 0.  1.
       -2   -1    0    0    0  501  0.00000000000E+00  0.00000000000E+00 -0.16170003404E+04  0.16170003404E+04  0.25500000920E-02 0. -1.
    10030    2    1    2    0    0  0.00000000000E+00  0.00000000000E+00  0.38280747135E+03  0.36168081522E+04  0.35964926873E+04 0.  0.
        1    1    3    3  502    0 -0.11952555817E+04  0.93764224443E+03  0.11590661753E+04  0.19108226717E+04  0.50400001928E-02 0.  1.
       -1    1    3    3    0  502  0.11952555817E+04 -0.93764224443E+03 -0.77625870398E+03  0.17059854805E+04  0.50400001928E-02 0. -1.
</event>
<event>
 5   0  0.8247570E-09  0.3599850E+04  0.7818609E-02  0.8090526E-01
       -1   -1    0    0    0  501  0.00000000000E+00  0.00000000000E+00  0.27971048904E+04  0.27971048904E+04  0.50400001928E-02 0.  1.
        1   -1    0    0  501    0  0.00000000000E+00  0.00000000000E+00 -0.11582439412E+04  0.11582439412E+04  0.50400001928E-02 0. -1.
    10030    2    1    2    0    0  0.00000000000E+00  0.00000000000E+00  0.16388609492E+04  0.39553488317E+04  0.35998498815E+04 0.  0.
        3    1    3    3  502    0  0.41500156860E+03  0.13241916545E+04  0.20789397749E+04  0.24995400452E+04  0.10100000352E+00 0.  1.
       -3    1    3    3    0  502 -0.41500156860E+03 -0.13241916545E+04 -0.44007882571E+03  0.14558087865E+04  0.10100000352E+00 0. -1.
</event>
<event>
 5   0  0.2608070E-08  0.3598537E+04  0.7818609E-02  0.8090827E-01
       -2   -1    0    0    0  501  0.00000000000E+00  0.00000000000E+00  0.16023316809E+04  0.16023316809E+04  0.25500000920E-02 0.  1.
        2   -1    0    0  501    0  0.00000000000E+00  0.00000000000E+00 -0.20204105174E+04  0.20204105174E+04  0.25500000920E-02 0. -1.
    10030    2    1    2    0    0  0.00000000000E+00  0.00000000000E+00 -0.41807883652E+03  0.36227421984E+04  0.35985373587E+04 0.  0.
        3    1    3    3  502    0  0.30420100465E+03 -0.66660011189E+03 -0.18634046677E+04  0.20022914189E+04  0.10100000352E+00 0. -1.
       -3    1    3    3    0  502 -0.30420100465E+03  0.66660011189E+03  0.14453258311E+04  0.16204507795E+04  0.10100000352E+00 0.  1.
</event>
<event>
 5   0  0.8146881E-09  0.3600027E+04  0.7818609E-02  0.8090485E-01
       -1   -1    0    0    0  501  0.00000000000E+00  0.00000000000E+00  0.11986914001E+04  0.11986914001E+04  0.50400001928E-02 0. -1.
        1   -1    0    0  501    0  0.00000000000E+00  0.00000000000E+00 -0.27029886836E+04  0.27029886836E+04  0.50400001928E-02 0.  1.
    10030    2    1    2    0    0  0.00000000000E+00  0.00000000000E+00 -0.15042972835E+04  0.39016800837E+04  0.36000273830E+04 0.  0.
        4    1    3    3  502    0  0.95369728167E+03  0.10135411948E+04  0.48510466361E+03  0.14738155943E+04  0.12699999809E+01 0. -1.
       -4    1    3    3    0  502 -0.95369728167E+03 -0.10135411948E+04 -0.19894019472E+04  0.24278644894E+04  0.12699999809E+01 0.  1.
</event>
<event>
 5   0  0.2476968E-08  0.3599526E+04  0.7818609E-02  0.8090600E-01
       -2   -1    0    0    0  501  0.00000000000E+00  0.00000000000E+00  0.12207858120E+04  0.12207858120E+04  0.25500000920E-02 0. -1.
        2   -1    0    0  501    0  0.00000000000E+00  0.00000000000E+00 -0.26533299593E+04  0.26533299593E+04  0.25500000920E-02 0.  1.
    10030    2    1    2    0    0  0.00000000000E+00  0.00000000000E+00 -0.14325441473E+04  0.38741157713E+04  0.35995263960E+04 0.  0.
        2    1    3    3  502    0 -0.17832667282E+04  0.13759543061E+03 -0.93199898419E+03  0.20168279136E+04  0.25500000920E-02 0.  1.
       -2    1    3    3    0  502  0.17832667282E+04 -0.13759543061E+03 -0.50054516308E+03  0.18572878578E+04  0.25500000920E-02 0. -1.
</event>
<event>
 5   0  0.8146881E-09  0.3603820E+04  0.7818609E-02  0.8089617E-01
        1   -1    0    0  501    0  0.00000000000E+00  0.00000000000E+00  0.26772770859E+04  0.26772770859E+04  0.50400001928E-02 0.  1.
       -1   -1    0    0    0  501  0.00000000000E+00  0.00000000000E+00 -0.12127547470E+04  0.12127547470E+04  0.50400001928E-02 0. -1.
    10030    2    1    2    0    0  0.00000000000E+00  0.00000000000E+00  0.14645223389E+04  0.38900318329E+04  0.36038204700E+04 0.  0.
        4    1    3    3  502    0  0.68155986683E+03  0.16777466962E+03  0.25236434411E+04  0.26194369668E+04  0.12699999809E+01 0.  1.
       -4    1    3    3    0  502 -0.68155986683E+03 -0.16777466962E+03 -0.10591211022E+04  0.12705948661E+04  0.12699999809E+01 0. -1.
</event>
<event>
 5   0  0.8146881E-09  0.3607297E+04  0.7818609E-02  0.8088822E-01
        1   -1    0    0  501    0  0.00000000000E+00  0.00000000000E+00  0.20311854011E+04  0.20311854011E+04  0.50400001928E-02 0.  1.
       -1   -1    0    0    0  501  0.00000000000E+00  0.00000000000E+00 -0.16016003488E+04  0.16016003488E+04  0.50400001928E-02 0. -1.
    10030    2    1    2    0    0  0.00000000000E+00  0.00000000000E+00  0.42958505229E+03  0.36327857499E+04  0.36072966314E+04 0.  0.
        4    1    3    3  502    0  0.59022340650E+03  0.59818603014E+03  0.18219876359E+04  0.20064472967E+04  0.12699999809E+01 0.  1.
       -4    1    3    3    0  502 -0.59022340650E+03 -0.59818603014E+03 -0.13924025836E+04  0.16263384531E+04  0.12699999809E+01 0. -1.
</event>
<event>
 5   0  0.8063410E-09  0.3603513E+04  0.7818609E-02  0.8089687E-01
       -1   -1    0    0    0  501  0.00000000000E+00  0.00000000000E+00  0.16115916333E+04  0.16115916333E+04  0.50400001928E-02 0.  1.
        1   -1    0    0  501    0  0.00000000000E+00  0.00000000000E+00 -0.20143604154E+04  0.20143604154E+04  0.50400001928E-02 0. -1.
    10030    2    1    2    0    0  0.00000000000E+00  0.00000000000E+00 -0.40276878214E+03  0.36259520487E+04  0.36035129482E+04 0.  0.
        2    1    3    3  502    0 -0.65897289629E+03  0.13111507681E+04 -0.12533439702E+04  0.19298271225E+04  0.25500000920E-02 0. -1.
       -2    1    3    3    0  502  0.65897289629E+03 -0.13111507681E+04  0.85057518809E+03  0.16961249263E+04  0.25500000920E-02 0.  1.
</event>
<event>
 5   0  0.2476968E-08  0.3599107E+04  0.7818609E-02  0.8090696E-01
       -2   -1    0    0    0  501  0.00000000000E+00  0.00000000000E+00  0.12144055078E+04  0.12144055079E+04  0.25500000920E-02 0.  1.
        2   -1    0    0  501    0  0.00000000000E+00  0.00000000000E+00 -0.26666493112E+04  0.26666493112E+04  0.25500000920E-02 0. -1.
    10030    2    1    2    0    0  0.00000000000E+00  0.00000000000E+00 -0.14522438033E+04  0.38810548190E+04  0.35991074510E+04 0.  0.
        2    1    3    3  502    0 -0.22722988864E+03  0.17851453846E+04 -0.72178910397E+03  0.19389061290E+04  0.25500000920E-02 0. -1.
       -2    1    3    3    0  502  0.22722988864E+03 -0.17851453846E+04 -0.73045469935E+03  0.19421486900E+04  0.25500000920E-02 0.  1.
</event>
<event>
 5   0  0.2494592E-08  0.3602275E+04  0.7818609E-02  0.8089971E-01
       -2   -1    0    0    0  501  0.00000000000E+00  0.00000000000E+00  0.12706491879E+04  0.12706491879E+04  0.25500000920E-02 0.  1.
        2   -1    0    0  501    0  0.00000000000E+00  0.00000000000E+00 -0.25531020292E+04  0.25531020292E+04  0.25500000920E-02 0. -1.
    10030    2    1    2    0    0  0.00000000000E+00  0.00000000000E+00 -0.12824528413E+04  0.38237512171E+04  0.36022754031E+04 0.  0.
        1    1    3    3  502    0  0.65855800938E+03 -0.14481834124E+04 -0.15376374050E+04  0.22125240421E+04  0.50400001928E-02 0. -1.
       -1    1    3    3    0  502 -0.65855800938E+03  0.14481834124E+04  0.25518456365E+03  0.16112271749E+04  0.50400001928E-02 0.  1.
</event>
<event>
 5   0  0.2482243E-08  0.3598786E+04  0.7818609E-02  0.8090770E-01
       -2   -1    0    0    0  501  0.00000000000E+00  0.00000000000E+00  0.16264681948E+04  0.16264681948E+04  0.25500000920E-02 0. -1.
        2   -1    0    0  501    0  0.00000000000E+00  0.00000000000E+00 -0.19907024935E+04  0.19907024935E+04  0.25500000920E-02 0.  1.
    10030    2    1    2    0    0  0.00000000000E+00  0.00000000000E+00 -0.36423429865E+03  0.36171706883E+04  0.35987855123E+04 0.  0.
        5    1    3    3  502    0  0.17812732549E+04  0.48372302139E+02 -0.43343033420E+03  0.18338915543E+04  0.46999998093E+01 0. -1.
       -5    1    3    3    0  502 -0.17812732549E+04 -0.48372302139E+02  0.69196035546E+02  0.17832791340E+04  0.46999998093E+01 0.  1.
</event>
<event>
 5   0  0.2494592E-08  0.3601081E+04  0.7818609E-02  0.8090244E-01
       -2   -1    0    0    0  501  0.00000000000E+00  0.00000000000E+00  0.35609500203E+04  0.35609500203E+04  0.25500000920E-02 0. -1.
        2   -1    0    0  501    0  0.00000000000E+00  0.00000000000E+00 -0.91041595346E+03  0.91041595346E+03  0.25500000920E-02 0.  1.
    10030    2    1    2    0    0  0.00000000000E+00  0.00000000000E+00  0.26505340669E+04  0.44713659738E+04  0.36010807867E+04 0.  0.
        1    1    3    3  502    0  0.14150679892E+04 -0.76906447345E+03  0.32568674038E+03  0.16431522849E+04  0.50400001928E-02 0.  1.
       -1    1    3    3    0  502 -0.14150679892E+04  0.76906447345E+03  0.23248473265E+04  0.28282136889E+04  0.50400001928E-02 0. -1.
</event>
<event>
 5   0  0.8024500E-09  0.3599389E+04  0.7818609E-02  0.8090632E-01
       -1   -1    0    0    0  501  0.00000000000E+00  0.00000000000E+00  0.11282462231E+04  0.11282462231E+04  0.50400001928E-02 0.  1.
        1   -1    0    0  501    0  0.00000000000E+00  0.00000000000E+00 -0.28707386232E+04  0.28707386232E+04  0.50400001928E-02 0. -1.
    10030    2    1    2    0    0  0.00000000000E+00  0.00000000000E+00 -0.17424924001E+04  0.39989848463E+04  0.35993888421E+04 0.  0.
        1    1    3    3  502    0 -0.93634294769E+03 -0.14309456895E+04 -0.24812833179E+03  0.17279789788E+04  0.50400001928E-02 0.  1.
       -1    1    3    3    0  502  0.93634294769E+03  0.14309456895E+04 -0.14943640683E+04  0.22710058676E+04  0.50400001928E-02 0. -1.
</event>
<event>
 5   0  0.2482243E-08  0.3599927E+04  0.7818609E-02  0.8090508E-01
       -2   -1    0    0    0  501  0.00000000000E+00  0.00000000000E+00  0.15222743514E+04  0.15222743514E+04  0.25500000920E-02 0.  1.
        2   -1    0    0  501    0  0.00000000000E+00  0.00000000000E+00 -0.21283078898E+04  0.21283078898E+04  0.25500000920E-02 0. -1.
    10030    2    1    2    0    0  0.00000000000E+00  0.00000000000E+00 -0.60603353840E+03  0.36505822411E+04  0.35999269506E+04 0.  0.
        5    1    3    3  502    0  0.68615412395E+03  0.15157707073E+04 -0.99932128628E+03  0.19408847060E+04  0.46999998093E+01 0. -1.
       -5    1    3    3    0  502 -0.68615412395E+03 -0.15157707073E+04  0.39328774788E+03  0.17096975351E+04  0.46999998093E+01 0.  1.
</event>
<event>
 5   0  0.2590795E-08  0.3600091E+04  0.7818609E-02  0.8090471E-01
       -2   -1    0    0    0  501  0.00000000000E+00  0.00000000000E+00  0.16422125232E+04  0.16422125232E+04  0.25500000920E-02 0.  1.
        2   -1    0    0  501    0  0.00000000000E+00  0.00000000000E+00 -0.19730482421E+04  0.19730482421E+04  0.25500000920E-02 0. -1.
    10030    2    1    2    0    0  0.00000000000E+00  0.00000000000E+00 -0.33083571897E+03  0.36152607653E+04  0.36000914055E+04 0.  0.
        4    1    3    3  502    0 -0.10711340588E+04 -0.13327894752E+04  0.39954218483E+03  0.17559303879E+04  0.12699999809E+01 0.  1.
       -4    1    3    3    0  502  0.10711340588E+04  0.13327894752E+04 -0.73037790379E+03  0.18593303774E+04  0.12699999809E+01 0. -1.
</event>
<event>
 5   0  0.2590795E-08  0.3599608E+04  0.7818609E-02  0.8090582E-01
        2   -1    0    0  501    0  0.00000000000E+00  0.00000000000E+00  0.20072762130E+04  0.20072762130E+04  0.25500000920E-02 0. -1.
       -2   -1    0    0    0  501  0.00000000000E+00  0.00000000000E+00 -0.16137757807E+04  0.16137757807E+04  0.25500000920E-02 0.  1.
    10030    2    1    2    0    0  0.00000000000E+00  0.00000000000E+00  0.39350043227E+03  0.36210519937E+04  0.35996076107E+04 0.  0.
        4    1    3    3  502    0 -0.15623866276E+03 -0.61703618602E+03  0.18902722767E+04  0.19945613722E+04  0.12699999809E+01 0. -1.
       -4    1    3    3    0  502  0.15623866276E+03  0.61703618602E+03 -0.14967718444E+04  0.16264906215E+04  0.12699999809E+01 0.  1.
</event>
<event>
 5   0  0.8063410E-09  0.3599014E+04  0.7818609E-02  0.8090718E-01
        1   -1    0    0  501    0  0.00000000000E+00  0.00000000000E+00  0.17233989146E+04  0.17233989147E+04  0.50400001928E-02 0. -1.
       -1   -1    0    0    0  501  0.00000000000E+00  0.00000000000E+00 -0.18789765141E+04  0.18789765141E+04  0.50400001928E-02 0.  1.
    10030    2    1    2    0    0  0.00000000000E+00  0.00000000000E+00 -0.15557759949E+03  0.36023754288E+04  0.35990143568E+04 0.  0.
        2    1    3    3  502    0  0.11528816534E+04  0.13810145975E+04 -0.12128810081E+03  0.18030663406E+04  0.25500000920E-02 0. -1.
       -2    1    3    3    0  502 -0.11528816534E+04 -0.13810145975E+04 -0.34289498684E+02  0.17993090882E+04  0.25500000920E-02 0.  1.
</event>
<event>
 5   0  0.8247570E-09  0.3601219E+04  0.7818609E-02  0.8090212E-01
        1   -1    0    0  501    0  0.00000000000E+00  0.00000000000E+00  0.25445302354E+04  0.25445302354E+04  0.50400001928E-02 0. -1.
       -1   -1    0    0    0  501  0.00000000000E+00  0.00000000000E+00 -0.12741821694E+04  0.12741821694E+04  0.50400001928E-02 0.  1.
    10030    2    1    2    0    0  0.00000000000E+00  0.00000000000E+00  0.12703480659E+04  0.38187124048E+04  0.36012192688E+04 0.  0.
        3    1    3    3  502    0  0.17734246015E+04  0.27195260554E+03  0.47365259380E+03  0.18556238376E+04  0.10100000352E+00 0.  1.
       -3    1    3    3    0  502 -0.17734246015E+04 -0.27195260554E+03  0.79669547213E+03  0.19630885672E+04  0.10100000352E+00 0. -1.
</event>
<event>
 5   0  0.8024500E-09  0.3600799E+04  0.7818609E-02  0.8090309E-01
        1   -1    0    0  501    0  0.00000000000E+00  0.00000000000E+00  0.16571026665E+04  0.16571026665E+04  0.50400001928E-02 0.  1.
       -1   -1    0    0    0  501  0.00000000000E+00  0.00000000000E+00 -0.19560880947E+04  0.19560880947E+04  0.50400001928E-02 0. -1.
    10030    2    1    2    0    0  0.00000000000E+00  0.00000000000E+00 -0.29898542815E+03  0.36131907612E+04  0.36007992433E+04 0.  0.
        5    1    3    3  502    0  0.13777496910E+04 -0.90604149625E+03  0.57570544810E+03  0.17465864585E+04  0.46999998093E+01 0.  1.
       -5    1    3    3    0  502 -0.13777496910E+04  0.90604149625E+03 -0.87469087625E+03  0.18666043027E+04  0.46999998093E+01 0. -1.
</event>
<event>
 5   0  0.2590795E-08  0.3610488E+04  0.7818609E-02  0.8088093E-01
        2   -1    0    0  501    0  0.00000000000E+00  0.00000000000E+00  0.30119106567E+04  0.30119106567E+04  0.25500000920E-02 0. -1.
       -2   -1    0    0    0  501  0.00000000000E+00  0.00000000000E+00 -0.10820064123E+04  0.10820064123E+04  0.25500000920E-02 0.  1.
    10030    2    1    2    0    0  0.00000000000E+00  0.00000000000E+00  0.19299042444E+04  0.40939170690E+04  0.36104884123E+04 0.  0.
        4    1    3    3  502    0 -0.79850668756E+03  0.81304550868E+03 -0.62260264749E+03  0.12985729086E+04  0.12699999809E+01 0.  1.
       -4    1    3    3    0  502  0.79850668756E+03 -0.81304550868E+03  0.25525068919E+04  0.27953441605E+04  0.12699999809E+01 0. -1.
</event>
<event>
 5   0  0.2482243E-08  0.3605877E+04  0.7818609E-02  0.8089147E-01
       -2   -1    0    0    0  501  0.00000000000E+00  0.00000000000E+00  0.18812893884E+04  0.18812893884E+04  0.25500000920E-02 0. -1.
        2   -1    0    0  501    0  0.00000000000E+00  0.00000000000E+00 -0.17278505327E+04  0.17278505327E+04  0.25500000920E-02 0.  1.
    10030    2    1    2    0    0  0.00000000000E+00  0.00000000000E+00  0.15343885563E+03  0.36091399211E+04  0.36058767987E+04 0.  0.
        5    1    3    3  502    0 -0.16021374632E+02 -0.41192102254E+03  0.18334798825E+04  0.18792568166E+04  0.46999998093E+01 0. -1.
       -5    1    3    3    0  502  0.16021374632E+02  0.41192102254E+03 -0.16800410269E+04  0.17298831045E+04  0.46999998093E+01 0.  1.
</event>
<event>
 5   0  0.2494592E-08  0.3612221E+04  0.7818609E-02  0.8087698E-01
        2   -1    0    0  501    0  0.00000000000E+00  0.00000000000E+00  0.22484354097E+04  0.22484354097E+04  0.25500000920E-02 0. -1.
       -2   -1    0    0    0  501  0.00000000000E+00  0.00000000000E+00 -0.14508022060E+04  0.14508022060E+04  0.25500000920E-02 0.  1.
    10030    2    1    2    0    0  0.00000000000E+00  0.00000000000E+00  0.79763320375E+03  0.36992376157E+04  0.36122209525E+04 0.  0.
        1    1    3    3  502    0 -0.37787822517E+03 -0.93584057628E+03 -0.11350785841E+04  0.15188788396E+04  0.50400001928E-02 0.  1.
       -1    1    3    3    0  502  0.37787822517E+03  0.93584057628E+03  0.19327117879E+04  0.21803587760E+04  0.50400001928E-02 0. -1.
</event>
<event>
 5   0  0.2494592E-08  0.3600897E+04  0.7818609E-02  0.8090286E-01
        2   -1    0    0  501    0  0.00000000000E+00  0.00000000000E+00  0.22609636757E+04  0.22609636757E+04  0.25500000920E-02 0.  1.
       -2   -1    0    0    0  501  0.00000000000E+00  0.00000000000E+00 -0.14337314364E+04  0.14337314364E+04  0.25500000920E-02 0. -1.
    10030    2    1    2    0    0  0.00000000000E+00  0.00000000000E+00  0.82723223935E+03  0.36946951121E+04  0.36008969429E+04 0.  0.
        1    1    3    3  502    0  0.13959160744E+03  0.17622007395E+04  0.76424475395E+03  0.19258523586E+04  0.50400001928E-02 0.  1.
       -1    1    3    3    0  502 -0.13959160744E+03 -0.17622007395E+04  0.62987485405E+02  0.17688427535E+04  0.50400001928E-02 0. -1.
</event>
<event>
 5   0  0.8024500E-09  0.3599902E+04  0.7818609E-02  0.8090514E-01
        3   -1    0    0  501    0  0.00000000000E+00  0.00000000000E+00  0.15536894036E+04  0.15536894069E+04  0.10100000352E+00 0. -1.
       -3   -1    0    0    0  501  0.00000000000E+00  0.00000000000E+00 -0.20852452443E+04  0.20852452467E+04  0.10100000352E+00 0.  1.
    10030    2    1    2    0    0  0.00000000000E+00  0.00000000000E+00 -0.53155584063E+03  0.36389346536E+04  0.35999019156E+04 0.  0.
        1    1    3    3  502    0  0.81522186761E+03  0.11108668322E+04 -0.14364418724E+04  0.19904715685E+04  0.50400001928E-02 0.  1.
       -1    1    3    3    0  502 -0.81522186761E+03 -0.11108668322E+04  0.90488603176E+03  0.16484630851E+04  0.50400001928E-02 0. -1.
</event>
<event>
 5   0  0.8024500E-09  0.3599545E+04  0.7818609E-02  0.8090596E-01
       -3   -1    0    0    0  501  0.00000000000E+00  0.00000000000E+00  0.17773953400E+04  0.17773953429E+04  0.10100000352E+00 0. -1.
        3   -1    0    0  501    0  0.00000000000E+00  0.00000000000E+00 -0.18224317851E+04  0.18224317879E+04  0.10100000352E+00 0.  1.
    10030    2    1    2    0    0  0.00000000000E+00  0.00000000000E+00 -0.45036445053E+02  0.35998271308E+04  0.35995454005E+04 0.  0.
        3    1    3    3  502    0  0.61722015146E+03  0.29695944932E+03 -0.16869910404E+04  0.18207373261E+04  0.10100000352E+00 0.  1.
       -3    1    3    3    0  502 -0.61722015146E+03 -0.29695944932E+03  0.16419545954E+04  0.17790898047E+04  0.10100000352E+00 0. -1.
</event>
<event>
 5   0  0.2590795E-08  0.3599572E+04  0.7818609E-02  0.8090590E-01
        2   -1    0    0  501    0  0.00000000000E+00  0.00000000000E+00  0.15111692116E+04  0.15111692116E+04  0.25500000920E-02 0.  1.
       -2   -1    0    0    0  501  0.00000000000E+00  0.00000000000E+00 -0.21435254973E+04  0.21435254973E+04  0.25500000920E-02 0. -1.
    10030    2    1    2    0    0  0.00000000000E+00  0.00000000000E+00 -0.63235628577E+03  0.36546947089E+04  0.35995720500E+04 0.  0.
        4    1    3    3  502    0 -0.58893065514E+03  0.89462372151E+03 -0.17847152854E+04  0.20814420920E+04  0.12699999809E+01 0. -1.
       -4    1    3    3    0  502  0.58893065514E+03 -0.89462372151E+03  0.11523589996E+04  0.15732526169E+04  0.12699999809E+01 0.  1.
</event>
<event>
 5   0  0.8146881E-09  0.3598564E+04  0.7818609E-02  0.8090821E-01
        1   -1    0    0  501    0  0.00000000000E+00  0.00000000000E+00  0.21332174390E+04  0.21332174390E+04  0.50400001928E-02 0. -1.
       -1   -1    0    0    0  501  0.00000000000E+00  0.00000000000E+00 -0.15176213860E+04  0.15176213860E+04  0.50400001928E-02 0.  1.
    10030    2    1    2    0    0  0.00000000000E+00  0.00000000000E+00  0.61559605296E+03  0.36508388251E+04  0.35985643840E+04 0.  0.
        4    1    3    3  502    0  0.28482676116E+03  0.26534752086E+03  0.20899832720E+04  0.21259273931E+04  0.12699999809E+01 0. -1.
       -4    1    3    3    0  502 -0.28482676116E+03 -0.26534752086E+03 -0.14743872190E+04  0.15249114319E+04  0.12699999809E+01 0.  1.
</event>
<event>
 5   0  0.2590795E-08  0.3598554E+04  0.7818609E-02  0.8090823E-01
        2   -1    0    0  501    0  0.00000000000E+00  0.00000000000E+00  0.26461012627E+04  0.26461012627E+04  0.25500000920E-02 0. -1.
       -2   -1    0    0    0  501  0.00000000000E+00  0.00000000000E+00 -0.12234594466E+04  0.12234594466E+04  0.25500000920E-02 0.  1.
    10030    2    1    2    0    0  0.00000000000E+00  0.00000000000E+00  0.14226418161E+04  0.38695607094E+04  0.35985539244E+04 0.  0.
        4    1    3    3  502    0 -0.59445472144E+03  0.15002298983E+04  0.15670742716E+04  0.22493975970E+04  0.12699999809E+01 0. -1.
       -4    1    3    3    0  502  0.59445472144E+03 -0.15002298983E+04 -0.14443245547E+03  0.16201631124E+04  0.12699999809E+01 0.  1.
</event>
<event>
 5   0  0.8247570E-09  0.3600637E+04  0.7818609E-02  0.8090346E-01
        1   -1    0    0  501    0  0.00000000000E+00  0.00000000000E+00  0.16850141473E+04  0.16850141473E+04  0.50400001928E-02 0. -1.
       -1   -1    0    0    0  501  0.00000000000E+00  0.00000000000E+00 -0.19235128296E+04  0.19235128296E+04  0.50400001928E-02 0.  1.
    10030    2    1    2    0    0  0.00000000000E+00  0.00000000000E+00 -0.23849868235E+03  0.36085269769E+04  0.36006367939E+04 0.  0.
        3    1    3    3  502    0  0.17273514373E+04 -0.31376996529E+03  0.28031183807E+03  0.17778552572E+04  0.10100000352E+00 0.  1.
       -3    1    3    3    0  502 -0.17273514373E+04  0.31376996529E+03 -0.51881052042E+03  0.18306717197E+04  0.10100000352E+00 0. -1.
</event>
<event>
 5   0  0.8146881E-09  0.3609006E+04  0.7818609E-02  0.8088432E-01
       -1   -1    0    0    0  501  0.00000000000E+00  0.00000000000E+00  0.16320275275E+04  0.16320275275E+04  0.50400001928E-02 0. -1.
        1   -1    0    0  501    0  0.00000000000E+00  0.00000000000E+00 -0.19952056959E+04  0.19952056959E+04  0.50400001928E-02 0.  1.
    10030    2    1    2    0    0  0.00000000000E+00  0.00000000000E+00 -0.36317816845E+03  0.36272332234E+04  0.36090057460E+04 0.  0.
        4    1    3    3  502    0  0.38930785782E+03  0.58604704769E+03 -0.18516726274E+04  0.19808343904E+04  0.12699999809E+01 0.  1.
       -4    1    3    3    0  502 -0.38930785782E+03 -0.58604704769E+03  0.14884944589E+04  0.16463988330E+04  0.12699999809E+01 0. -1.
</event>
<event>
 5   0  0.8063410E-09  0.3599203E+04  0.7818609E-02  0.8090674E-01
        1   -1    0    0  501    0  0.00000000000E+00  0.00000000000E+00  0.25132195934E+04  0.25132195934E+04  0.50400001928E-02 0.  1.
       -1   -1    0    0    0  501  0.00000000000E+00  0.00000000000E+00 -0.12886121018E+04  0.12886121018E+04  0.50400001928E-02 0. -1.
    10030    2    1    2    0    0  0.00000000000E+00  0.00000000000E+00  0.12246074916E+04  0.38018316952E+04  0.35992027910E+04 0.  0.
        2    1    3    3  502    0  0.30737722265E+03 -0.17631715442E+04  0.41381371658E+03  0.18369802512E+04  0.25500000920E-02 0. -1.
       -2    1    3    3    0  502 -0.30737722265E+03  0.17631715442E+04  0.81079377497E+03  0.19648514440E+04  0.25500000920E-02 0.  1.
</event>
<event>
 5   0  0.2494592E-08  0.3602416E+04  0.7818609E-02  0.8089938E-01
       -2   -1    0    0    0  501  0.00000000000E+00  0.00000000000E+00  0.12401673044E+04  0.12401673044E+04  0.25500000920E-02 0. -1.
        2   -1    0    0  501    0  0.00000000000E+00  0.00000000000E+00 -0.26160588942E+04  0.26160588942E+04  0.25500000920E-02 0.  1.
    10030    2    1    2    0    0  0.00000000000E+00  0.00000000000E+00 -0.13758915898E+04  0.38562261986E+04  0.36024162486E+04 0.  0.
        1    1    3    3  502    0  0.16022653971E+04  0.10937898981E+03 -0.15609628054E+04  0.22396033233E+04  0.50400001928E-02 0.  1.
       -1    1    3    3    0  502 -0.16022653971E+04 -0.10937898981E+03  0.18507121556E+03  0.16166228753E+04  0.50400001928E-02 0. -1.
</event>
<event>
 5   0  0.8247570E-09  0.3601226E+04  0.7818609E-02  0.8090211E-01
        1   -1    0    0  501    0  0.00000000000E+00  0.00000000000E+00  0.19213109322E+04  0.19213109322E+04  0.50400001928E-02 0. -1.
       -1   -1    0    0    0  501  0.00000000000E+00  0.00000000000E+00 -0.16874970828E+04  0.16874970828E+04  0.50400001928E-02 0.  1.
    10030    2    1    2    0    0  0.00000000000E+00  0.00000000000E+00  0.23381384941E+03  0.36088080150E+04  0.36012256765E+04 0.  0.
        3    1    3    3  502    0  0.15112535124E+04 -0.91862038706E+03  0.45593268734E+03  0.18263694095E+04  0.10100000352E+00 0.  1.
       -3    1    3    3    0  502 -0.15112535124E+04  0.91862038706E+03 -0.22211883793E+03  0.17824386056E+04  0.10100000352E+00 0. -1.
</event>
<event>
 5   0  0.2494592E-08  0.3599984E+04  0.7818609E-02  0.8090495E-01
        2   -1    0    0  501    0  0.00000000000E+00  0.00000000000E+00  0.30581288453E+04  0.30581288453E+04  0.25500000920E-02 0. -1.
       -2   -1    0    0    0  501  0.00000000000E+00  0.00000000000E+00 -0.10594620051E+04  0.10594620052E+04  0.25500000920E-02 0.  1.
    10030    2    1    2    0    0  0.00000000000E+00  0.00000000000E+00  0.19986668402E+04  0.41175908505E+04  0.35999840658E+04 0.  0.
        1    1    3    3  502    0  0.13597378662E+04  0.63445170676E+03 -0.13788292447E+03  0.15067938591E+04  0.50400001928E-02 0.  1.
       -1    1    3    3    0  502 -0.13597378662E+04 -0.63445170676E+03  0.21365497646E+04  0.26107969913E+04  0.50400001928E-02 0. -1.
</event>
<event>
 5   0  0.2476968E-08  0.3599194E+04  0.7818609E-02  0.8090676E-01
        2   -1    0    0  501    0  0.00000000000E+00  0.00000000000E+00  0.11174459613E+04  0.11174459613E+04  0.25500000920E-02 0. -1.
       -2   -1    0    0    0  501  0.00000000000E+00  0.00000000000E+00 -0.28981711417E+04  0.28981711417E+04  0.25500000920E-02 0.  1.
    10030    2    1    2    0    0  0.00000000000E+00  0.00000000000E+00 -0.17807251804E+04  0.40156171030E+04  0.35991941528E+04 0.  0.
        2    1    3    3  502    0 -0.73159239774E+03 -0.57398366213E+03 -0.26093592205E+04  0.27700975114E+04  0.25500000920E-02 0.  1.
       -2    1    3    3    0  502  0.73159239774E+03  0.57398366213E+03  0.82863404008E+03  0.12455195917E+04  0.25500000920E-02 0. -1.
</event>
<event>
 5   0  0.2590795E-08  0.3600446E+04  0.7818609E-02  0.8090390E-01
        2   -1    0    0  501    0  0.00000000000E+00  0.00000000000E+00  0.25114974996E+04  0.25114974996E+04  0.25500000920E-02 0.  1.
       -2   -1    0    0    0  501  0.00000000000E+00  0.00000000000E+00 -0.12903866732E+04  0.12903866732E+04  0.25500000920E-02 0. -1.
    10030    2    1    2    0    0  0.00000000000E+00  0.00000000000E+00  0.12211108264E+04  0.38018841729E+04  0.36004460298E+04 0.  0.
        4    1    3    3  502    0 -0.17404309462E+04 -0.20322551516E+03  0.17466391977E+03  0.17609399723E+04  0.12699999809E+01 0. -1.
       -4    1    3    3    0  502  0.17404309462E+04  0.20322551516E+03  0.10464469066E+04  0.20409442005E+04  0.12699999809E+01 0.  1.
</event>
<event>
 5   0  0.8146881E-09  0.3600035E+04  0.7818609E-02  0.8090484E-01
       -1   -1    0    0    0  501  0.00000000000E+00  0.00000000000E+00  0.19445067300E+04  0.19445067301E+04  0.50400001928E-02 0.  1.
        1   -1    0    0  501    0  0.00000000000E+00  0.00000000000E+00 -0.16662646587E+04  0.16662646588E+04  0.50400001928E-02 0. -1.
    10030    2    1    2    0    0  0.00000000000E+00  0.00000000000E+00  0.27824207130E+03  0.36107713888E+04  0.36000349126E+04 0.  0.
        4    1    3    3  502    0  0.66628603112E+03  0.21592860506E+03 -0.15239854701E+04  0.16772285365E+04  0.12699999809E+01 0. -1.
       -4    1    3    3    0  502 -0.66628603112E+03 -0.21592860506E+03  0.18022275414E+04  0.19335428523E+04  0.12699999809E+01 0.  1.
</event>
<event>
 5   0  0.8024500E-09  0.3598091E+04  0.7818609E-02  0.8090929E-01
        1   -1    0    0  501    0  0.00000000000E+00  0.00000000000E+00  0.17606657618E+04  0.17606657618E+04  0.50400001928E-02 0.  1.
       -1   -1    0    0    0  501  0.00000000000E+00  0.00000000000E+00 -0.18382617108E+04  0.18382617108E+04  0.50400001928E-02 0. -1.
    10030    2    1    2    0    0  0.00000000000E+00  0.00000000000E+00 -0.77595949072E+02  0.35989274726E+04  0.35980908579E+04 0.  0.
        1    1    3    3  502    0  0.70626323748E+03 -0.14503001458E+04 -0.83546680560E+03  0.18166405965E+04  0.50400001928E-02 0. -1.
       -1    1    3    3    0  502 -0.70626323748E+03  0.14503001458E+04  0.75787085653E+03  0.17822868761E+04  0.50400001928E-02 0.  1.
</event>
<event>
 5   0  0.2590795E-08  0.3599864E+04  0.7818609E-02  0.8090523E-01
        2   -1    0    0  501    0  0.00000000000E+00  0.00000000000E+00  0.14610524287E+04  0.14610524287E+04  0.25500000920E-02 0.  1.
       -2   -1    0    0    0  501  0.00000000000E+00  0.00000000000E+00 -0.22174122336E+04  0.22174122336E+04  0.25500000920E-02 0. -1.
    10030    2    1    2    0    0  0.00000000000E+00  0.00000000000E+00 -0.75635980492E+03  0.36784646623E+04  0.35998641804E+04 0.  0.
        4    1    3    3  502    0  0.52044854499E+03  0.10746791839E+04  0.99805749096E+03  0.15562526801E+04  0.12699999809E+01 0.  1.
       -4    1    3    3    0  502 -0.52044854499E+03 -0.10746791839E+04 -0.17544172959E+04  0.21222119822E+04  0.12699999809E+01 0. -1.
</event>
<event>
 5   0  0.2482243E-08  0.3598556E+04  0.7818609E-02  0.8090823E-01
       -2   -1    0    0    0  501  0.00000000000E+00  0.00000000000E+00  0.23240590403E+04  0.23240590403E+04  0.25500000920E-02 0. -1.
        2   -1    0    0  501    0  0.00000000000E+00  0.00000000000E+00 -0.13929944039E+04  0.13929944039E+04  0.25500000920E-02 0.  1.
    10030    2    1    2    0    0  0.00000000000E+00  0.00000000000E+00  0.93106463639E+03  0.37170534441E+04  0.35985559534E+04 0.  0.
        5    1    3    3  502    0  0.56136604085E+03 -0.99663167514E+03  0.19001414046E+04  0.22178742019E+04  0.46999998093E+01 0. -1.
       -5    1    3    3    0  502 -0.56136604085E+03  0.99663167514E+03 -0.96907676825E+03  0.14991792423E+04  0.46999998093E+01 0.  1.
</event>
<event>
 5   0  0.8063410E-09  0.3595510E+04  0.7818609E-02  0.8091521E-01
        1   -1    0    0  501    0  0.00000000000E+00  0.00000000000E+00  0.17673622544E+04  0.17673622544E+04  0.50400001928E-02 0. -1.
       -1   -1    0    0    0  501  0.00000000000E+00  0.00000000000E+00 -0.18286708401E+04  0.18286708401E+04  0.50400001928E-02 0.  1.
    10030    2    1    2    0    0  0.00000000000E+00  0.00000000000E+00 -0.61308585704E+02  0.35960330945E+04  0.35955104330E+04 0.  0.
        2    1    3    3  502    0 -0.39002047202E+03 -0.35215383505E+03 -0.17501469295E+04  0.18273320899E+04  0.25500000920E-02 0.  1.
       -2    1    3    3    0  502  0.39002047202E+03  0.35215383505E+03  0.16888383438E+04  0.17687010045E+04  0.25500000920E-02 0. -1.
</event>
<event>
 5   0  0.8247570E-09  0.3599854E+04  0.7818609E-02  0.8090525E-01
        1   -1    0    0  501    0  0.00000000000E+00  0.00000000000E+00  0.16935826590E+04  0.16935826590E+04  0.50400001928E-02 0. -1.
       -1   -1    0    0    0  501  0.00000000000E+00  0.00000000000E+00 -0.19129489105E+04  0.19129489105E+04  0.50400001928E-02 0.  1.
    10030    2    1    2    0    0  0.00000000000E+00  0.00000000000E+00 -0.21936625143E+03  0.36065315695E+04  0.35998539428E+04 0.  0.
        3    1    3    3  502    0 -0.58961358488E+02  0.17960065404E+04 -0.21293329638E+03  0.18095459469E+04  0.10100000352E+00 0.  1.
       -3    1    3    3    0  502  0.58961358488E+02 -0.17960065404E+04 -0.64329550485E+01  0.17969856227E+04  0.10100000352E+00 0. -1.
</event>
<event>
 5   0  0.2476968E-08  0.3600396E+04  0.7818609E-02  0.8090401E-01
       -2   -1    0    0    0  501  0.00000000000E+00  0.00000000000E+00  0.11611901377E+04  0.11611901377E+04  0.25500000920E-02 0. -1.
        2   -1    0    0  501    0  0.00000000000E+00  0.00000000000E+00 -0.27908552265E+04  0.27908552265E+04  0.25500000920E-02 0.  1.
    10030    2    1    2    0    0  0.00000000000E+00  0.00000000000E+00 -0.16296650888E+04  0.39520453642E+04  0.36003964031E+04 0.  0.
        2    1    3    3  502    0  0.63084160963E+03  0.11385266320E+04 -0.21798804819E+04  0.25389137330E+04  0.25500000920E-02 0.  1.
       -2    1    3    3    0  502 -0.63084160963E+03 -0.11385266320E+04  0.55021539318E+03  0.14131316312E+04  0.25500000920E-02 0. -1.
</event>
<event>
 5   0  0.2590795E-08  0.3599823E+04  0.7818609E-02  0.8090532E-01
       -2   -1    0    0    0  501  0.00000000000E+00  0.00000000000E+00  0.21589288639E+04  0.21589288639E+04  0.25500000920E-02 0.  1.
        2   -1    0    0  501    0  0.00000000000E+00  0.00000000000E+00 -0.15005968652E+04  0.15005968652E+04  0.25500000920E-02 0. -1.
    10030    2    1    2    0    0  0.00000000000E+00  0.00000000000E+00  0.65833199875E+03  0.36595257291E+04  0.35998232653E+04 0.  0.
        4    1    3    3  502    0  0.26874459567E+03 -0.13566013791E+04 -0.84193324664E+03  0.16190874480E+04  0.12699999809E+01 0. -1.
       -4    1    3    3    0  502 -0.26874459567E+03  0.13566013791E+04  0.15002652454E+04  0.20404382811E+04  0.12699999809E+01 0.  1.
</event>
<event>
 5   0  0.8024500E-09  0.3600314E+04  0.7818609E-02  0.8090420E-01
        1   -1    0    0  501    0  0.00000000000E+00  0.00000000000E+00  0.24658297583E+04  0.24658297583E+04  0.50400001928E-02 0.  1.
       -1   -1    0    0    0  501  0.00000000000E+00  0.00000000000E+00 -0.13141882770E+04  0.13141882770E+04  0.50400001928E-02 0. -1.
    10030    2    1    2    0    0  0.00000000000E+00  0.00000000000E+00  0.11516414813E+04  0.37800180353E+04  0.36003136316E+04 0.  0.
        1    1    3    3  502    0  0.74823616095E+03  0.13355780512E+04  0.15701606362E+04  0.21929501834E+04  0.50400001928E-02 0.  1.
       -1    1    3    3    0  502 -0.74823616095E+03 -0.13355780512E+04 -0.41851915497E+03  0.15870678519E+04  0.50400001928E-02 0. -1.
</event>
<event>
 5   0  0.8024500E-09  0.3604423E+04  0.7818609E-02  0.8089479E-01
       -1   -1    0    0    0  501  0.00000000000E+00  0.00000000000E+00  0.13788618611E+04  0.13788618611E+04  0.50400001928E-02 0.  1.
        1   -1    0    0  501    0  0.00000000000E+00  0.00000000000E+00 -0.23555418684E+04  0.23555418684E+04  0.50400001928E-02 0. -1.
    10030    2    1    2    0    0  0.00000000000E+00  0.00000000000E+00 -0.97668000733E+03  0.37344037295E+04  0.36044233073E+04 0.  0.
        1    1    3    3  502    0 -0.15944567173E+04 -0.70318276877E+03 -0.96448726769E+03  0.19917313873E+04  0.50400001928E-02 0.  1.
       -1    1    3    3    0  502  0.15944567173E+04  0.70318276877E+03 -0.12192739632E+02  0.17426723422E+04  0.50400001928E-02 0. -1.
</event>
<event>
 5   0  0.2608070E-08  0.3599422E+04  0.7818609E-02  0.8090624E-01
        2   -1    0    0  501    0  0.00000000000E+00  0.00000000000E+00  0.33714350442E+04  0.33714350442E+04  0.25500000920E-02 0. -1.
       -2   -1    0    0    0  501  0.00000000000E+00  0.00000000000E+00 -0.96070641011E+03  0.96070641012E+03  0.25500000920E-02 0.  1.
    10030    2    1    2    0    0  0.00000000000E+00  0.00000000000E+00  0.24107286340E+04  0.43321414543E+04  0.35994217637E+04 0.  0.
        3    1    3    3  502    0  0.40828627879E+02 -0.10496059958E+04 -0.55349794964E+03  0.11873077587E+04  0.10100000352E+00 0.  1.
       -3    1    3    3    0  502 -0.40828627879E+02  0.10496059958E+04  0.29642265837E+04  0.31448336956E+04  0.10100000352E+00 0. -1.
</event>
<event>
 5   0  0.8146881E-09  0.3599659E+04  0.7818609E-02  0.8090570E-01
        1   -1    0    0  501    0  0.00000000000E+00  0.00000000000E+00  0.20438745959E+04  0.20438745959E+04  0.50400001928E-02 0.  1.
       -1   -1    0    0    0  501  0.00000000000E+00  0.00000000000E+00 -0.15849239525E+04  0.15849239525E+04  0.50400001928E-02 0. -1.
    10030    2    1    2    0    0  0.00000000000E+00  0.00000000000E+00  0.45895064332E+03  0.36287985484E+04  0.35996587633E+04 0.  0.
        4    1    3    3  502    0 -0.30083840272E+02 -0.12636724269E+04  0.15211010071E+04  0.19777570444E+04  0.12699999809E+01 0. -1.
       -4    1    3    3    0  502  0.30083840272E+02  0.12636724269E+04 -0.10621503638E+04  0.16510415040E+04  0.12699999809E+01 0.  1.
</event>
<event>
 5   0  0.8247570E-09  0.3605171E+04  0.7818609E-02  0.8089308E-01
       -1   -1    0    0    0  501  0.00000000000E+00  0.00000000000E+00  0.11695210912E+04  0.11695210912E+04  0.50400001928E-02 0.  1.
        1   -1    0    0  501    0  0.00000000000E+00  0.00000000000E+00 -0.27783291165E+04  0.27783291165E+04  0.50400001928E-02 0. -1.
    10030    2    1    2    0    0  0.00000000000E+00  0.00000000000E+00 -0.16088080253E+04  0.39478502077E+04  0.36051710084E+04 0.  0.
        3    1    3    3  502    0 -0.17540858538E+04 -0.28197633073E+03 -0.47048195253E+03  0.18378468684E+04  0.10100000352E+00 0.  1.
       -3    1    3    3    0  502  0.17540858538E+04  0.28197633073E+03 -0.11383260727E+04  0.21100033393E+04  0.10100000352E+00 0. -1.
</event>
<event>
 5   0  0.8024500E-09  0.3604499E+04  0.7818609E-02  0.8089462E-01
       -1   -1    0    0    0  501  0.00000000000E+00  0.00000000000E+00  0.12780189630E+04  0.12780189630E+04  0.50400001928E-02 0. -1.
        1   -1    0    0  501    0  0.00000000000E+00  0.00000000000E+00 -0.25415137109E+04  0.25415137109E+04  0.50400001928E-02 0.  1.
    10030    2    1    2    0    0  0.00000000000E+00  0.00000000000E+00 -0.12634947480E+04  0.38195326739E+04  0.36044986987E+04 0.  0.
        1    1    3    3  502    0  0.16400801878E+04 -0.71477619245E+03 -0.40120268477E+03  0.18335025558E+04  0.50400001928E-02 0. -1.
       -1    1    3    3    0  502 -0.16400801878E+04  0.71477619245E+03 -0.86229206322E+03  0.19860301181E+04  0.50400001928E-02 0.  1.
</event>
<event>
 5   0  0.8247570E-09  0.3593127E+04  0.7818609E-02  0.8092068E-01
        1   -1    0    0  501    0  0.00000000000E+00  0.00000000000E+00  0.18169968538E+04  0.18169968538E+04  0.50400001928E-02 0.  1.
       -1   -1    0    0    0  501  0.00000000000E+00  0.00000000000E+00 -0.17763595572E+04  0.17763595572E+04  0.50400001928E-02 0. -1.
    10030    2    1    2    0    0  0.00000000000E+00  0.00000000000E+00  0.40637296584E+02  0.35933564111E+04  0.35931266199E+04 0.  0.
        3    1    3    3  502    0 -0.17196939756E+04 -0.44922996654E+03  0.28203136085E+03  0.17996379167E+04  0.10100000352E+00 0.  1.
       -3    1    3    3    0  502  0.17196939756E+04  0.44922996654E+03 -0.24139406427E+03  0.17937184944E+04  0.10100000352E+00 0. -1.
</event>
<event>
 5   0  0.2482243E-08  0.3599460E+04  0.7818609E-02  0.8090615E-01
       -2   -1    0    0    0  501  0.00000000000E+00  0.00000000000E+00  0.10753798174E+04  0.10753798174E+04  0.25500000920E-02 0.  1.
        2   -1    0    0  501    0  0.00000000000E+00  0.00000000000E+00 -0.30119856642E+04  0.30119856642E+04  0.25500000920E-02 0. -1.
    10030    2    1    2    0    0  0.00000000000E+00  0.00000000000E+00 -0.19366058468E+04  0.40873654816E+04  0.35994602893E+04 0.  0.
        5    1    3    3  502    0 -0.11901548519E+04  0.72712101926E+03  0.32334809528E+03  0.14316946703E+04  0.46999998093E+01 0.  1.
       -5    1    3    3    0  502  0.11901548519E+04 -0.72712101926E+03 -0.22599539420E+04  0.26556708114E+04  0.46999998093E+01 0. -1.
</event>
<event>
 5   0  0.8146881E-09  0.3598204E+04  0.7818609E-02  0.8090903E-01
       -1   -1    0    0    0  501  0.00000000000E+00  0.00000000000E+00  0.12237407144E+04  0.12237407144E+04  0.50400001928E-02 0. -1.
        1   -1    0    0  501    0  0.00000000000E+00  0.00000000000E+00 -0.26449787953E+04  0.26449787953E+04  0.50400001928E-02 0.  1.
    10030    2    1    2    0    0  0.00000000000E+00  0.00000000000E+00 -0.14212380809E+04  0.38687195097E+04  0.35982041302E+04 0.  0.
        4    1    3    3  502    0  0.75286226905E+03 -0.13452162214E+04  0.28667020258E+03  0.15679890613E+04  0.12699999809E+01 0. -1.
       -4    1    3    3    0  502 -0.75286226905E+03  0.13452162214E+04 -0.17079082835E+04  0.23007304484E+04  0.12699999809E+01 0.  1.
</event>
<event>
 5   0  0.8024500E-09  0.3602703E+04  0.7818609E-02  0.8089873E-01
       -1   -1    0    0    0  501  0.00000000000E+00  0.00000000000E+00  0.36230533498E+04  0.36230533498E+04  0.50400001928E-02 0.  1.
        1   -1    0    0  501    0  0.00000000000E+00  0.00000000000E+00 -0.89561672932E+03  0.89561672934E+03  0.50400001928E-02 0. -1.
    10030    2    1    2    0    0  0.00000000000E+00  0.00000000000E+00  0.27274366204E+04  0.45186700791E+04  0.36027029804E+04 0.  0.
        1    1    3    3  502    0 -0.80417591494E+02  0.10780952592E+04  0.31709233953E+04  0.33501509751E+04  0.50400001928E-02 0.  1.
       -1    1    3    3    0  502  0.80417591494E+02 -0.10780952592E+04 -0.44348677489E+03  0.11685191040E+04  0.50400001928E-02 0. -1.
</event>
<event>
 5   0  0.8247570E-09  0.3601065E+04  0.7818609E-02  0.8090248E-01
       -1   -1    0    0    0  501  0.00000000000E+00  0.00000000000E+00  0.13731472737E+04  0.13731472737E+04  0.50400001928E-02 0.  1.
        1   -1    0    0  501    0  0.00000000000E+00  0.00000000000E+00 -0.23609396243E+04  0.23609396243E+04  0.50400001928E-02 0. -1.
    10030    2    1    2    0    0  0.00000000000E+00  0.00000000000E+00 -0.98779235060E+03  0.37340868980E+04  0.36010652916E+04 0.  0.
        3    1    3    3  502    0  0.60523163628E+03 -0.10801477173E+04  0.86163936168E+03  0.15084584265E+04  0.10100000352E+00 0.  1.
       -3    1    3    3    0  502 -0.60523163628E+03  0.10801477173E+04 -0.18494317123E+04  0.22256284715E+04  0.10100000352E+00 0. -1.
</event>
<event>
 5   0  0.2482243E-08  0.3599828E+04  0.7818609E-02  0.8090531E-01
        2   -1    0    0  501    0  0.00000000000E+00  0.00000000000E+00  0.32083580842E+04  0.32083580842E+04  0.25500000920E-02 0. -1.
       -2   -1    0    0    0  501  0.00000000000E+00  0.00000000000E+00 -0.10097659537E+04  0.10097659537E+04  0.25500000920E-02 0.  1.
    10030    2    1    2    0    0  0.00000000000E+00  0.00000000000E+00  0.21985921305E+04  0.42181240379E+04  0.35998281963E+04 0.  0.
        5    1    3    3  502    0  0.82011638043E+03  0.74800847332E+03  0.27595402200E+04  0.29744229473E+04  0.46999998093E+01 0. -1.
       -5    1    3    3    0  502 -0.82011638043E+03 -0.74800847332E+03 -0.56094808952E+03  0.12437010906E+04  0.46999998093E+01 0.  1.
</event>
<event>
 5   0  0.2590795E-08  0.3598076E+04  0.7818609E-02  0.8090933E-01
       -2   -1    0    0    0  501  0.00000000000E+00  0.00000000000E+00  0.19715178571E+04  0.19715178571E+04  0.25500000920E-02 0.  1.
        2   -1    0    0  501    0  0.00000000000E+00  0.00000000000E+00 -0.16416475708E+04  0.16416475708E+04  0.25500000920E-02 0. -1.
    10030    2    1    2    0    0  0.00000000000E+00  0.00000000000E+00  0.32987028630E+03  0.36131654278E+04  0.35980758751E+04 0.  0.
        4    1    3    3  502    0 -0.71067106060E+03  0.13575776286E+04  0.11114726251E+04  0.18929985165E+04  0.12699999809E+01 0.  1.
       -4    1    3    3    0  502  0.71067106060E+03 -0.13575776286E+04 -0.78160233882E+03  0.17201669114E+04  0.12699999809E+01 0. -1.
</event>
<event>
 5   0  0.8024500E-09  0.3599256E+04  0.7818609E-02  0.8090662E-01
       -1   -1    0    0    0  501  0.00000000000E+00  0.00000000000E+00  0.12374662920E+04  0.12374662920E+04  0.50400001928E-02 0.  1.
        1   -1    0    0  501    0  0.00000000000E+00  0.00000000000E+00 -0.26171708653E+04  0.26171708653E+04  0.50400001928E-02 0. -1.
    10030    2    1    2    0    0  0.00000000000E+00  0.00000000000E+00 -0.13797045733E+04  0.38546371573E+04  0.35992558821E+04 0.  0.
        5    1    3    3  502    0  0.53362956117E+03  0.16553438419E+04 -0.11849468688E+04  0.21045296186E+04  0.46999998093E+01 0. -1.
       -5    1    3    3    0  502 -0.53362956117E+03 -0.16553438419E+04 -0.19475770454E+03  0.17501075387E+04  0.46999998093E+01 0.  1.
</event>
<event>
 5   0  0.2590795E-08  0.3600968E+04  0.7818609E-02  0.8090270E-01
       -2   -1    0    0    0  501  0.00000000000E+00  0.00000000000E+00  0.14796192438E+04  0.14796192438E+04  0.25500000920E-02 0. -1.
        2   -1    0    0  501    0  0.00000000000E+00  0.00000000000E+00 -0.21909303184E+04  0.21909303184E+04  0.25500000920E-02 0.  1.
    10030    2    1    2    0    0  0.00000000000E+00  0.00000000000E+00 -0.71131107458E+03  0.36705495622E+04  0.36009680149E+04 0.  0.
        4    1    3    3  502    0 -0.85668309669E+03  0.19115599151E+03  0.12467560645E+04  0.15247454996E+04  0.12699999809E+01 0. -1.
       -4    1    3    3    0  502  0.85668309669E+03 -0.19115599151E+03 -0.19580671391E+04  0.21458040626E+04  0.12699999809E+01 0.  1.
</event>
<event>
 5   0  0.8024500E-09  0.3598045E+04  0.7818609E-02  0.8090940E-01
       -1   -1    0    0    0  501  0.00000000000E+00  0.00000000000E+00  0.29019598556E+04  0.29019598556E+04  0.50400001928E-02 0. -1.
        1   -1    0    0  501    0  0.00000000000E+00  0.00000000000E+00 -0.11152746421E+04  0.11152746421E+04  0.50400001928E-02 0.  1.
    10030    2    1    2    0    0  0.00000000000E+00  0.00000000000E+00  0.17866852135E+04  0.40172344977E+04  0.35980451577E+04 0.  0.
        5    1    3    3  502    0  0.16470009142E+04  0.61454766071E+02  0.16985209408E+04  0.23667243557E+04  0.46999998093E+01 0. -1.
       -5    1    3    3    0  502 -0.16470009142E+04 -0.61454766071E+02  0.88164272616E+02  0.16505101419E+04  0.46999998093E+01 0.  1.
</event>
<event>
 5   0  0.2476968E-08  0.3600090E+04  0.7818609E-02  0.8090471E-01
       -2   -1    0    0    0  501  0.00000000000E+00  0.00000000000E+00  0.23859122937E+04  0.23859122937E+04  0.25500000920E-02 0. -1.
        2   -1    0    0  501    0  0.00000000000E+00  0.00000000000E+00 -0.13580389508E+04  0.13580389508E+04  0.25500000920E-02 0.  1.
    10030    2    1    2    0    0  0.00000000000E+00  0.00000000000E+00  0.10278733429E+04  0.37439512445E+04  0.36000899033E+04 0.  0.
        2    1    3    3  502    0  0.10652761693E+04  0.11886831190E+04  0.13792818824E+04  0.21095495693E+04  0.25500000920E-02 0. -1.
       -2    1    3    3    0  502 -0.10652761693E+04 -0.11886831190E+04 -0.35140853949E+03  0.16344016752E+04  0.25500000920E-02 0.  1.
</event>
<event>
 5   0  0.2494592E-08  0.3599902E+04  0.7818609E-02  0.8090514E-01
        2   -1    0    0  501    0  0.00000000000E+00  0.00000000000E+00  0.12011268621E+04  0.12011268621E+04  0.25500000920E-02 0. -1.
       -2   -1    0    0    0  501  0.00000000000E+00  0.00000000000E+00 -0.26973193461E+04  0.26973193461E+04  0.25500000920E-02 0.  1.
    10030    2    1    2    0    0  0.00000000000E+00  0.00000000000E+00 -0.14961924840E+04  0.38984462082E+04  0.35999015110E+04 0.  0.
        1    1    3    3  502    0 -0.15261587200E+04  0.41625615262E+03  0.18183419241E+03  0.15923232388E+04  0.50400001928E-02 0. -1.
       -1    1    3    3    0  502  0.15261587200E+04 -0.41625615262E+03 -0.16780266765E+04  0.23061229694E+04  0.50400001928E-02 0.  1.
</event>
<event>
 5   0  0.8146881E-09  0.3600779E+04  0.7818609E-02  0.8090313E-01
        1   -1    0    0  501    0  0.00000000000E+00  0.00000000000E+00  0.16413245881E+04  0.16413245881E+04  0.50400001928E-02 0.  1.
       -1   -1    0    0    0  501  0.00000000000E+00  0.00000000000E+00 -0.19748701102E+04  0.19748701102E+04  0.50400001928E-02 0. -1.
    10030    2    1    2    0    0  0.00000000000E+00  0.00000000000E+00 -0.33354552211E+03  0.36161946983E+04  0.36007792879E+04 0.  0.
        4    1    3    3  502    0 -0.17566102828E+03 -0.12433753364E+04 -0.14624753356E+04  0.19276085557E+04  0.12699999809E+01 0. -1.
       -4    1    3    3    0  502  0.17566102828E+03  0.12433753364E+04  0.11289298134E+04  0.16885861425E+04  0.12699999809E+01 0.  1.
</event>
<event>
 5   0  0.2494592E-08  0.3600256E+04  0.7818609E-02  0.8090433E-01
        2   -1    0    0  501    0  0.00000000000E+00  0.00000000000E+00  0.28226363091E+04  0.28226363091E+04  0.25500000920E-02 0. -1.
       -2   -1    0    0    0  501  0.00000000000E+00  0.00000000000E+00 -0.11480262568E+04  0.11480262568E+04  0.25500000920E-02 0.  1.
    10030    2    1    2    0    0  0.00000000000E+00  0.00000000000E+00  0.16746100524E+04  0.39706625659E+04  0.36002558777E+04 0.  0.
        1    1    3    3  502    0  0.10506641344E+04 -0.39404470572E+03  0.23897066996E+04  0.26400500873E+04  0.50400001928E-02 0. -1.
       -1    1    3    3    0  502 -0.10506641344E+04  0.39404470572E+03 -0.71509664721E+03  0.13306124786E+04  0.50400001928E-02 0.  1.
</event>
<event>
 5   0  0.8063410E-09  0.3600965E+04  0.7818609E-02  0.8090271E-01
        1   -1    0    0  501    0  0.00000000000E+00  0.00000000000E+00  0.19051104895E+04  0.19051104895E+04  0.50400001928E-02 0. -1.
       -1   -1    0    0    0  501  0.00000000000E+00  0.00000000000E+00 -0.17016005179E+04  0.17016005179E+04  0.50400001928E-02 0.  1.
    10030    2    1    2    0    0  0.00000000000E+00  0.00000000000E+00  0.20350997161E+03  0.36067110075E+04  0.36009648683E+04 0.  0.
        2    1    3    3  502    0 -0.11651997851E+04  0.13609704148E+04  0.28038190039E+03  0.18134345919E+04  0.25500000920E-02 0. -1.
       -2    1    3    3    0  502  0.11651997851E+04 -0.13609704148E+04 -0.76871928777E+02  0.17932764155E+04  0.25500000920E-02 0.  1.
</event>
<event>
 5   0  0.2590795E-08  0.3599845E+04  0.7818609E-02  0.8090527E-01
        2   -1    0    0  501    0  0.00000000000E+00  0.00000000000E+00  0.10392023735E+04  0.10392023735E+04  0.25500000920E-02 0. -1.
       -2   -1    0    0    0  501  0.00000000000E+00  0.00000000000E+00 -0.31175069173E+04  0.31175069173E+04  0.25500000920E-02 0.  1.
    10030    2    1    2    0    0  0.00000000000E+00  0.00000000000E+00 -0.20783045437E+04  0.41567092908E+04  0.35998447677E+04 0.  0.
        4    1    3    3  502    0 -0.50213885827E+03  0.47232926100E+03  0.88072139923E+03  0.11184409505E+04  0.12699999809E+01 0. -1.
       -4    1    3    3    0  502  0.50213885827E+03 -0.47232926100E+03 -0.29590259430E+04  0.30382683403E+04  0.12699999809E+01 0.  1.
</event>
<event>
 5   0  0.2608070E-08  0.3599140E+04  0.7818609E-02  0.8090689E-01
        2   -1    0    0  501    0  0.00000000000E+00  0.00000000000E+00  0.18831800990E+04  0.18831800990E+04  0.25500000920E-02 0. -1.
       -2   -1    0    0    0  501  0.00000000000E+00  0.00000000000E+00 -0.17196717858E+04  0.17196717858E+04  0.25500000920E-02 0.  1.
    10030    2    1    2    0    0  0.00000000000E+00  0.00000000000E+00  0.16350831323E+03  0.36028518848E+04  0.35991397216E+04 0.  0.
        3    1    3    3  502    0  0.31348291529E+03 -0.10171416010E+04 -0.13708121205E+04  0.17355040923E+04  0.10100000352E+00 0.  1.
       -3    1    3    3    0  502 -0.31348291529E+03  0.10171416010E+04  0.15343204337E+04  0.18673477925E+04  0.10100000352E+00 0. -1.
</event>
<event>
 5   0  0.8063410E-09  0.3593083E+04  0.7818609E-02  0.8092078E-01
       -1   -1    0    0    0  501  0.00000000000E+00  0.00000000000E+00  0.31288980212E+04  0.31288980212E+04  0.50400001928E-02 0. -1.
        1   -1    0    0  501    0  0.00000000000E+00  0.00000000000E+00 -0.10315326826E+04  0.10315326826E+04  0.50400001928E-02 0.  1.
    10030    2    1    2    0    0  0.00000000000E+00  0.00000000000E+00  0.20973653385E+04  0.41604307038E+04  0.35930825593E+04 0.  0.
        2    1    3    3  502    0 -0.10752774752E+04  0.13268260011E+04  0.16942799301E+04  0.24056752415E+04  0.25500000920E-02 0. -1.
       -2    1    3    3    0  502  0.10752774752E+04 -0.13268260011E+04  0.40308540844E+03  0.17547554623E+04  0.25500000920E-02 0.  1.
</event>
<event>
 5   0  0.8146881E-09  0.3603292E+04  0.7818609E-02  0.8089738E-01
       -1   -1    0    0    0  501  0.00000000000E+00  0.00000000000E+00  0.13449356635E+04  0.13449356635E+04  0.50400001928E-02 0. -1.
        1   -1    0    0  501    0  0.00000000000E+00  0.00000000000E+00 -0.24134444256E+04  0.24134444256E+04  0.50400001928E-02 0.  1.
    10030    2    1    2    0    0  0.00000000000E+00  0.00000000000E+00 -0.10685087621E+04  0.37583800891E+04  0.36032915396E+04 0.  0.
        4    1    3    3  502    0 -0.14734778577E+04 -0.52412056102E+03  0.39872011057E+03  0.16139450732E+04  0.12699999809E+01 0. -1.
       -4    1    3    3    0  502  0.14734778577E+04  0.52412056102E+03 -0.14672288727E+04  0.21444350159E+04  0.12699999809E+01 0.  1.
</event>
<event>
 5   0  0.8247570E-09  0.3600107E+04  0.7818609E-02  0.8090467E-01
        1   -1    0    0  501    0  0.00000000000E+00  0.00000000000E+00  0.14292928943E+04  0.14292928943E+04  0.50400001928E-02 0. -1.
       -1   -1    0    0    0  501  0.00000000000E+00  0.00000000000E+00 -0.22669903123E+04  0.22669903123E+04  0.50400001928E-02 0.  1.
    10030    2    1    2    0    0  0.00000000000E+00  0.00000000000E+00 -0.83769741800E+03  0.36962832066E+04  0.36001073011E+04 0.  0.
        3    1    3    3  502    0 -0.97736455658E+03 -0.15890525752E+03  0.11245397968E+04  0.14983598106E+04  0.10100000352E+00 0. -1.
       -3    1    3    3    0  502  0.97736455658E+03  0.15890525752E+03 -0.19622372148E+04  0.21979233960E+04  0.10100000352E+00 0.  1.
</event>
<event>
 5   0  0.8247570E-09  0.3607870E+04  0.7818609E-02  0.8088691E-01
       -1   -1    0    0    0  501  0.00000000000E+00  0.00000000000E+00  0.11235117099E+04  0.11235117099E+04  0.50400001928E-02 0. -1.
        1   -1    0    0  501    0  0.00000000000E+00  0.00000000000E+00 -0.28964371909E+04  0.28964371909E+04  0.50400001928E-02 0.  1.
    10030    2    1    2    0    0  0.00000000000E+00  0.00000000000E+00 -0.17729254810E+04  0.40199489008E+04  0.36078697875E+04 0.  0.
        3    1    3    3  502    0  0.10790823248E+04 -0.68959627349E+03 -0.23020966591E+04  0.26343140895E+04  0.10100000352E+00 0.  1.
       -3    1    3    3    0  502 -0.10790823248E+04  0.68959627349E+03  0.52917117814E+03  0.13856348113E+04  0.10100000352E+00 0. -1.
</event>
<event>
 5   0  0.2494592E-08  0.3605771E+04  0.7818609E-02  0.8089171E-01
        2   -1    0    0  501    0  0.00000000000E+00  0.00000000000E+00  0.11681381677E+04  0.11681381677E+04  0.25500000920E-02 0.  1.
       -2   -1    0    0    0  501  0.00000000000E+00  0.00000000000E+00 -0.27825437822E+04  0.27825437822E+04  0.25500000920E-02 0. -1.
    10030    2    1    2    0    0  0.00000000000E+00  0.00000000000E+00 -0.16144056145E+04  0.39506819499E+04  0.36057707055E+04 0.  0.
        1    1    3    3  502    0 -0.13482601264E+04 -0.11966540846E+04 -0.83424638282E+03  0.19863920544E+04  0.50400001928E-02 0. -1.
       -1    1    3    3    0  502  0.13482601264E+04  0.11966540846E+04 -0.78015923170E+03  0.19642898955E+04  0.50400001928E-02 0.  1.
</event>
<event>
 5   0  0.2482243E-08  0.3599436E+04  0.7818609E-02  0.8090621E-01
        2   -1    0    0  501    0  0.00000000000E+00  0.00000000000E+00  0.26788333326E+04  0.26788333326E+04  0.25500000920E-02 0.  1.
       -2   -1    0    0    0  501  0.00000000000E+00  0.00000000000E+00 -0.12091029243E+04  0.12091029243E+04  0.25500000920E-02 0. -1.
    10030    2    1    2    0    0  0.00000000000E+00  0.00000000000E+00  0.14697304082E+04  0.38879362569E+04  0.35994361871E+04 0.  0.
        5    1    3    3  502    0 -0.14575890615E+04 -0.32152341346E+03 -0.35122155702E+03  0.15334020509E+04  0.46999998093E+01 0. -1.
       -5    1    3    3    0  502  0.14575890615E+04  0.32152341346E+03  0.18209519653E+04  0.23545342060E+04  0.46999998093E+01 0.  1.
</event>
<event>
 5   0  0.2476968E-08  0.3600637E+04  0.7818609E-02  0.8090346E-01
        2   -1    0    0  501    0  0.00000000000E+00  0.00000000000E+00  0.27399966987E+04  0.27399966987E+04  0.25500000920E-02 0.  1.
       -2   -1    0    0    0  501  0.00000000000E+00  0.00000000000E+00 -0.11829016879E+04  0.11829016879E+04  0.25500000920E-02 0. -1.
    10030    2    1    2    0    0  0.00000000000E+00  0.00000000000E+00  0.15570950109E+04  0.39228983866E+04  0.36006370102E+04 0.  0.
        2    1    3    3  502    0 -0.21671574718E+03 -0.22839922264E+03  0.27097678634E+04  0.27279981293E+04  0.25500000920E-02 0.  1.
       -2    1    3    3    0  502  0.21671574718E+03  0.22839922264E+03 -0.11526728525E+04  0.11949002573E+04  0.25500000920E-02 0. -1.
</event>
<event>
 5   0  0.8247570E-09  0.3603520E+04  0.7818609E-02  0.8089686E-01
        1   -1    0    0  501    0  0.00000000000E+00  0.00000000000E+00  0.14827524948E+04  0.14827524948E+04  0.50400001928E-02 0. -1.
       -1   -1    0    0    0  501  0.00000000000E+00  0.00000000000E+00 -0.21894005440E+04  0.21894005440E+04  0.50400001928E-02 0.  1.
    10030    2    1    2    0    0  0.00000000000E+00  0.00000000000E+00 -0.70664804918E+03  0.36721530388E+04  0.36035200118E+04 0.  0.
        3    1    3    3  502    0  0.15970846314E+04 -0.61921374790E+03 -0.92274572808E+03  0.19456527630E+04  0.10100000352E+00 0. -1.
       -3    1    3    3    0  502 -0.15970846314E+04  0.61921374790E+03  0.21609767890E+03  0.17265002758E+04  0.10100000352E+00 0.  1.
</event>
<event>
 5   0  0.2476968E-08  0.3600877E+04  0.7818609E-02  0.8090291E-01
       -2   -1    0    0    0  501  0.00000000000E+00  0.00000000000E+00  0.23427102311E+04  0.23427102311E+04  0.25500000920E-02 0.  1.
        2   -1    0    0  501    0  0.00000000000E+00  0.00000000000E+00 -0.13836873640E+04  0.13836873640E+04  0.25500000920E-02 0. -1.
    10030    2    1    2    0    0  0.00000000000E+00  0.00000000000E+00  0.95902286708E+03  0.37263975951E+04  0.36008768622E+04 0.  0.
        2    1    3    3  502    0  0.10974148370E+04 -0.49577232685E+03  0.18646256022E+04  0.22196707325E+04  0.25500000920E-02 0.  1.
       -2    1    3    3    0  502 -0.10974148370E+04  0.49577232685E+03 -0.90560273507E+03  0.15067268626E+04  0.25500000920E-02 0. -1.
</event>
<event>
 5   0  0.8024500E-09  0.3600612E+04  0.7818609E-02  0.8090352E-01
        1   -1    0    0  501    0  0.00000000000E+00  0.00000000000E+00  0.28239558983E+04  0.28239558983E+04  0.50400001928E-02 0.  1.
       -1   -1    0    0    0  501  0.00000000000E+00  0.00000000000E+00 -0.11477167134E+04  0.11477167135E+04  0.50400001928E-02 0. -1.
    10030    2    1    2    0    0  0.00000000000E+00  0.00000000000E+00  0.16762391849E+04  0.39716726118E+04  0.36006118272E+04 0.  0.
        1    1    3    3  502    0  0.13729003163E+02  0.11686715491E+04 -0.67234878488E+03  0.13483451204E+04  0.50400001928E-02 0. -1.
       -1    1    3    3    0  502 -0.13729003163E+02 -0.11686715491E+04  0.23485879698E+04  0.26233274914E+04  0.50400001928E-02 0.  1.
</event>
<event>
 5   0  0.8024500E-09  0.3599013E+04  0.7818609E-02  0.8090718E-01
       -1   -1    0    0    0  501  0.00000000000E+00  0.00000000000E+00  0.12444127173E+04  0.12444127173E+04  0.50400001928E-02 0. -1.
        1   -1    0    0  501    0  0.00000000000E+00  0.00000000000E+00 -0.26022098033E+04  0.26022098033E+04  0.50400001928E-02 0.  1.
    10030    2    1    2    0    0  0.00000000000E+00  0.00000000000E+00 -0.13577970860E+04  0.38466225207E+04  0.35990126270E+04 0.  0.
        5    1    3    3  502    0 -0.15547745731E+04 -0.34742212500E+03  0.21543481551E+03  0.16076256890E+04  0.46999998093E+01 0. -1.
       -5    1    3    3    0  502  0.15547745731E+04  0.34742212500E+03 -0.15732319015E+04  0.22389968317E+04  0.46999998093E+01 0.  1.
</event>
<event>
 5   0  0.2590795E-08  0.3604238E+04  0.7818609E-02  0.8089522E-01
       -2   -1    0    0    0  501  0.00000000000E+00  0.00000000000E+00  0.13395025121E+04  0.13395025121E+04  0.25500000920E-02 0. -1.
        2   -1    0    0  501    0  0.00000000000E+00  0.00000000000E+00 -0.24245073116E+04  0.24245073116E+04  0.25500000920E-02 0.  1.
    10030    2    1    2    0    0  0.00000000000E+00  0.00000000000E+00 -0.10850047995E+04  0.37640098238E+04  0.36042384131E+04 0.  0.
        4    1    3    3  502    0 -0.13744421126E+04  0.66572539717E+03 -0.15416530415E+04  0.21700177738E+04  0.12699999809E+01 0.  1.
       -4    1    3    3    0  502  0.13744421126E+04 -0.66572539717E+03  0.45664824204E+03  0.15939920499E+04  0.12699999809E+01 0. -1.
</event>
<event>
 5   0  0.8247570E-09  0.3600436E+04  0.7818609E-02  0.8090392E-01
       -1   -1    0    0    0  501  0.00000000000E+00  0.00000000000E+00  0.21682780204E+04  0.21682780204E+04  0.50400001928E-02 0. -1.
        1   -1    0    0  501    0  0.00000000000E+00  0.00000000000E+00 -0.14946354754E+04  0.14946354754E+04  0.50400001928E-02 0.  1.
    10030    2    1    2    0    0  0.00000000000E+00  0.00000000000E+00  0.67364254498E+03  0.36629134958E+04  0.36004362235E+04 0.  0.
        3    1    3    3  502    0 -0.16000767281E+04 -0.43565548759E+03 -0.37586605922E+03  0.17003871749E+04  0.10100000352E+00 0. -1.
       -3    1    3    3    0  502  0.16000767281E+04  0.43565548759E+03  0.10495086042E+04  0.19625263209E+04  0.10100000352E+00 0.  1.
</event>
<event>
 5   0  0.8024500E-09  0.3600572E+04  0.7818609E-02  0.8090361E-01
       -1   -1    0    0    0  501  0.00000000000E+00  0.00000000000E+00  0.25015897745E+04  0.25015897745E+04  0.50400001928E-02 0.  1.
        1   -1    0    0  501    0  0.00000000000E+00  0.00000000000E+00 -0.12955878746E+04  0.12955878747E+04  0.50400001928E-02 0. -1.
    10030    2    1    2    0    0  0.00000000000E+00  0.00000000000E+00  0.12060018999E+04  0.37971776492E+04  0.36005718319E+04 0.  0.
        1    1    3    3  502    0 -0.91577232903E+03  0.15491540548E+04  0.65585897457E+03  0.19153767877E+04  0.50400001928E-02 0.  1.
       -1    1    3    3    0  502  0.91577232903E+03 -0.15491540548E+04  0.55014292530E+03  0.18818008615E+04  0.50400001928E-02 0. -1.
</event>
<event>
 5   0  0.8063410E-09  0.3600720E+04  0.7818609E-02  0.8090327E-01
       -1   -1    0    0    0  501  0.00000000000E+00  0.00000000000E+00  0.27353800983E+04  0.27353800983E+04  0.50400001928E-02 0.  1.
        1   -1    0    0  501    0  0.00000000000E+00  0.00000000000E+00 -0.11849527800E+04  0.11849527800E+04  0.50400001928E-02 0. -1.
    10030    2    1    2    0    0  0.00000000000E+00  0.00000000000E+00  0.15504273183E+04  0.39203328783E+04  0.36007200679E+04 0.  0.
        2    1    3    3  502    0  0.11760452241E+04 -0.13528929806E+04  0.95705499328E+03  0.20320817027E+04  0.25500000920E-02 0. -1.
       -2    1    3    3    0  502 -0.11760452241E+04  0.13528929806E+04  0.59337232499E+03  0.18882511756E+04  0.25500000920E-02 0.  1.
</event>
<event>
 5   0  0.8146881E-09  0.3598005E+04  0.7818609E-02  0.8090949E-01
        1   -1    0    0  501    0  0.00000000000E+00  0.00000000000E+00  0.22653905200E+04  0.22653905200E+04  0.50400001928E-02 0. -1.
       -1   -1    0    0    0  501  0.00000000000E+00  0.00000000000E+00 -0.14286323978E+04  0.14286323978E+04  0.50400001928E-02 0.  1.
    10030    2    1    2    0    0  0.00000000000E+00  0.00000000000E+00  0.83675812226E+03  0.36940229178E+04  0.35980051643E+04 0.  0.
        4    1    3    3  502    0 -0.17154282536E+04 -0.33152371178E+03 -0.21788840618E+02  0.17473060496E+04  0.12699999809E+01 0.  1.
       -4    1    3    3    0  502  0.17154282536E+04  0.33152371178E+03  0.85854696288E+03  0.19467168682E+04  0.12699999809E+01 0. -1.
</event>
<event>
 5   0  0.8024500E-09  0.3600366E+04  0.7818609E-02  0.8090408E-01
        3   -1    0    0  501    0  0.00000000000E+00  0.00000000000E+00  0.12121295675E+04  0.12121295717E+04  0.10100000352E+00 0. -1.
       -3   -1    0    0    0  501  0.00000000000E+00  0.00000000000E+00 -0.26735250801E+04  0.26735250820E+04  0.10100000352E+00 0.  1.
    10030    2    1    2    0    0  0.00000000000E+00  0.00000000000E+00 -0.14613955126E+04  0.38856546538E+04  0.36003659875E+04 0.  0.
        1    1    3    3  502    0  0.87015878808E+03 -0.95985372373E+03  0.61820538926E+03  0.14355045771E+04  0.50400001928E-02 0. -1.
       -1    1    3    3    0  502 -0.87015878808E+03  0.95985372373E+03 -0.20796009019E+04  0.24501500767E+04  0.50400001928E-02 0.  1.
</event>
<event>
 5   0  0.2494592E-08  0.3598743E+04  0.7818609E-02  0.8090780E-01
       -2   -1    0    0    0  501  0.00000000000E+00  0.00000000000E+00  0.12273657864E+04  0.12273657864E+04  0.25500000920E-02 0. -1.
        2   -1    0    0  501    0  0.00000000000E+00  0.00000000000E+00 -0.26379572680E+04  0.26379572680E+04  0.25500000920E-02 0.  1.
    10030    2    1    2    0    0  0.00000000000E+00  0.00000000000E+00 -0.14105914815E+04  0.38653230544E+04  0.35987433900E+04 0.  0.
        1    1    3    3  502    0 -0.10742681121E+04 -0.12518351699E+04  0.66691480963E+02  0.16509364079E+04  0.50400001928E-02 0. -1.
       -1    1    3    3    0  502  0.10742681121E+04  0.12518351699E+04 -0.14772829625E+04  0.22143866466E+04  0.50400001928E-02 0.  1.
</event>
<event>
 5   0  0.8063410E-09  0.3600258E+04  0.7818609E-02  0.8090433E-01
        1   -1    0    0  501    0  0.00000000000E+00  0.00000000000E+00  0.12757985217E+04  0.12757985217E+04  0.50400001928E-02 0.  1.
       -1   -1    0    0    0  501  0.00000000000E+00  0.00000000000E+00 -0.25399499237E+04  0.25399499238E+04  0.50400001928E-02 0. -1.
    10030    2    1    2    0    0  0.00000000000E+00  0.00000000000E+00 -0.12641514021E+04  0.38157484454E+04  0.36002579674E+04 0.  0.
        2    1    3    3  502    0 -0.10875756138E+04  0.10534925266E+04 -0.16638953940E+04  0.22497144489E+04  0.25500000920E-02 0.  1.
       -2    1    3    3    0  502  0.10875756138E+04 -0.10534925266E+04  0.39974399193E+03  0.15660339966E+04  0.25500000920E-02 0. -1.
</event>
<event>
 5   0  0.2608070E-08  0.3601643E+04  0.7818609E-02  0.8090115E-01
       -2   -1    0    0    0  501  0.00000000000E+00  0.00000000000E+00  0.14907516683E+04  0.14907516683E+04  0.25500000920E-02 0.  1.
        2   -1    0    0  501    0  0.00000000000E+00  0.00000000000E+00 -0.21753849336E+04  0.21753849336E+04  0.25500000920E-02 0. -1.
    10030    2    1    2    0    0  0.00000000000E+00  0.00000000000E+00 -0.68463326528E+03  0.36661366020E+04  0.36016433577E+04 0.  0.
        3    1    3    3  502    0 -0.10088239155E+03 -0.15968629297E+04  0.49880334563E+03  0.16759932163E+04  0.10100000352E+00 0.  1.
       -3    1    3    3    0  502  0.10088239155E+03  0.15968629297E+04 -0.11834366109E+04  0.19901433857E+04  0.10100000352E+00 0. -1.
</event>
<event>
 5   0  0.8146881E-09  0.3600345E+04  0.7818609E-02  0.8090413E-01
       -1   -1    0    0    0  501  0.00000000000E+00  0.00000000000E+00  0.17018911356E+04  0.17018911356E+04  0.50400001928E-02 0.  1.
        1   -1    0    0  501    0  0.00000000000E+00  0.00000000000E+00 -0.19041295884E+04  0.19041295884E+04  0.50400001928E-02 0. -1.
    10030    2    1    2    0    0  0.00000000000E+00  0.00000000000E+00 -0.20223845279E+03  0.36060207240E+04  0.36003451321E+04 0.  0.
        4    1    3    3  502    0 -0.78326950064E+02 -0.17484870890E+04  0.32058778649E+03  0.17793595346E+04  0.12699999809E+01 0.  1.
       -4    1    3    3    0  502  0.78326950064E+02  0.17484870890E+04 -0.52282623929E+03  0.18266611894E+04  0.12699999809E+01 0. -1.
</event>
<event>
 5   0  0.2494592E-08  0.3600630E+04  0.7818609E-02  0.8090347E-01
       -2   -1    0    0    0  501  0.00000000000E+00  0.00000000000E+00  0.10921596458E+04  0.10921596458E+04  0.25500000920E-02 0. -1.
        2   -1    0    0  501    0  0.00000000000E+00  0.00000000000E+00 -0.29676380985E+04  0.29676380985E+04  0.25500000920E-02 0.  1.
    10030    2    1    2    0    0  0.00000000000E+00  0.00000000000E+00 -0.18754784528E+04  0.40597977443E+04  0.36006302640E+04 0.  0.
        1    1    3    3  502    0 -0.15331335096E+04 -0.66012578029E+03 -0.17729109124E+03  0.16785995755E+04  0.50400001928E-02 0. -1.
       -1    1    3    3    0  502  0.15331335096E+04  0.66012578029E+03 -0.16981873615E+04  0.23811981687E+04  0.50400001928E-02 0.  1.
</event>
<event>
 5   0  0.8247570E-09  0.3597357E+04  0.7818609E-02  0.8091097E-01
       -1   -1    0    0    0  501  0.00000000000E+00  0.00000000000E+00  0.20355806433E+04  0.20355806433E+04  0.50400001928E-02 0. -1.
        1   -1    0    0  501    0  0.00000000000E+00  0.00000000000E+00 -0.15893469029E+04  0.15893469029E+04  0.50400001928E-02 0.  1.
    10030    2    1    2    0    0  0.00000000000E+00  0.00000000000E+00  0.44623374046E+03  0.36249275462E+04  0.35973566913E+04 0.  0.
        3    1    3    3  502    0 -0.17537848764E+04  0.18554586372E+03 -0.13322476476E+03  0.17685976106E+04  0.10100000352E+00 0.  1.
       -3    1    3    3    0  502  0.17537848764E+04 -0.18554586372E+03  0.57945850522E+03  0.18563299356E+04  0.10100000352E+00 0. -1.
</event>
<event>
 5   0  0.2590795E-08  0.3599331E+04  0.7818609E-02  0.8090645E-01
       -2   -1    0    0    0  501  0.00000000000E+00  0.00000000000E+00  0.15240487817E+04  0.15240487817E+04  0.25500000920E-02 0. -1.
        2   -1    0    0  501    0  0.00000000000E+00  0.00000000000E+00 -0.21251263632E+04  0.21251263632E+04  0.25500000920E-02 0.  1.
    10030    2    1    2    0    0  0.00000000000E+00  0.00000000000E+00 -0.60107758146E+03  0.36491751448E+04  0.35993311849E+04 0.  0.
        4    1    3    3  502    0  0.31708289378E+03 -0.14050988829E+04 -0.13943442800E+04  0.20047548519E+04  0.12699999809E+01 0.  1.
       -4    1    3    3    0  502 -0.31708289378E+03  0.14050988829E+04  0.79326669849E+03  0.16444202930E+04  0.12699999809E+01 0. -1.
</event>
<event>
 5   0  0.2590795E-08  0.3600435E+04  0.7818609E-02  0.8090392E-01
       -2   -1    0    0    0  501  0.00000000000E+00  0.00000000000E+00  0.20881558679E+04  0.20881558679E+04  0.25500000920E-02 0.  1.
        2   -1    0    0  501    0  0.00000000000E+00  0.00000000000E+00 -0.15519830593E+04  0.15519830593E+04  0.25500000920E-02 0. -1.
    10030    2    1    2    0    0  0.00000000000E+00  0.00000000000E+00  0.53617280868E+03  0.36401389272E+04  0.36004347138E+04 0.  0.
        4    1    3    3  502    0  0.15142367774E+04 -0.67959224120E+03 -0.43675451811E+03  0.17162502016E+04  0.12699999809E+01 0. -1.
       -4    1    3    3    0  502 -0.15142367774E+04  0.67959224120E+03  0.97292732679E+03  0.19238887256E+04  0.12699999809E+01 0.  1.
</event>
<event>
 5   0  0.2482243E-08  0.3602058E+04  0.7818609E-02  0.8090021E-01
        2   -1    0    0  501    0  0.00000000000E+00  0.00000000000E+00  0.20868768879E+04  0.20868768879E+04  0.25500000920E-02 0. -1.
       -2   -1    0    0    0  501  0.00000000000E+00  0.00000000000E+00 -0.15543345479E+04  0.15543345479E+04  0.25500000920E-02 0.  1.
    10030    2    1    2    0    0  0.00000000000E+00  0.00000000000E+00  0.53254234006E+03  0.36412114358E+04  0.36020576587E+04 0.  0.
        5    1    3    3  502    0  0.15930065586E+04  0.35131975123E+03 -0.50529955406E+03  0.17077602855E+04  0.46999998093E+01 0.  1.
       -5    1    3    3    0  502 -0.15930065586E+04 -0.35131975123E+03  0.10378418941E+04  0.19334511503E+04  0.46999998093E+01 0. -1.
</event>
<event>
 5   0  0.2476968E-08  0.3600732E+04  0.7818609E-02  0.8090324E-01
       -2   -1    0    0    0  501  0.00000000000E+00  0.00000000000E+00  0.18389407805E+04  0.18389407805E+04  0.25500000920E-02 0.  1.
        2   -1    0    0  501    0  0.00000000000E+00  0.00000000000E+00 -0.17626000000E+04  0.17626000000E+04  0.25500000920E-02 0. -1.
    10030    2    1    2    0    0  0.00000000000E+00  0.00000000000E+00  0.76340780462E+02  0.36015407805E+04  0.36007316032E+04 0.  0.
        2    1    3    3  502    0 -0.94253351568E+03 -0.11988207089E+04  0.99534756441E+03  0.18210593879E+04  0.25500000920E-02 0.  1.
       -2    1    3    3    0  502  0.94253351568E+03  0.11988207089E+04 -0.91900678395E+03  0.17804813926E+04  0.25500000920E-02 0. -1.
</event>
<event>
 5   0  0.2608070E-08  0.3601328E+04  0.7818609E-02  0.8090188E-01
       -2   -1    0    0    0  501  0.00000000000E+00  0.00000000000E+00  0.21699740918E+04  0.21699740918E+04  0.25500000920E-02 0. -1.
        2   -1    0    0  501    0  0.00000000000E+00  0.00000000000E+00 -0.14942070214E+04  0.14942070214E+04  0.25500000920E-02 0.  1.
    10030    2    1    2    0    0  0.00000000000E+00  0.00000000000E+00  0.67576707040E+03  0.36641811132E+04  0.36013278241E+04 0.  0.
        3    1    3    3  502    0 -0.10065711370E+04  0.98986245340E+03  0.14751470209E+04  0.20418305204E+04  0.10100000352E+00 0. -1.
       -3    1    3    3    0  502  0.10065711370E+04 -0.98986245340E+03 -0.79937995054E+03  0.16223505928E+04  0.10100000352E+00 0.  1.
</event>
<event>
 5   0  0.2608070E-08  0.3598210E+04  0.7818609E-02  0.8090902E-01
       -2   -1    0    0    0  501  0.00000000000E+00  0.00000000000E+00  0.10546349400E+04  0.10546349400E+04  0.25500000920E-02 0.  1.
        2   -1    0    0  501    0  0.00000000000E+00  0.00000000000E+00 -0.30690988137E+04  0.30690988137E+04  0.25500000920E-02 0. -1.
    10030    2    1    2    0    0  0.00000000000E+00  0.00000000000E+00 -0.20144638738E+04  0.41237337537E+04  0.35982100234E+04 0.  0.
        3    1    3    3  502    0 -0.80206602361E+02  0.10547596595E+04 -0.26750529083E+04  0.28766054840E+04  0.10100000352E+00 0. -1.
       -3    1    3    3    0  502  0.80206602361E+02 -0.10547596595E+04  0.66058903448E+03  0.12471282697E+04  0.10100000352E+00 0.  1.
</event>
<event>
 5   0  0.2476968E-08  0.3599962E+04  0.7818609E-02  0.8090500E-01
        2   -1    0    0  501    0  0.00000000000E+00  0.00000000000E+00  0.22533647550E+04  0.22533647550E+04  0.25500000920E-02 0.  1.
       -2   -1    0    0    0  501  0.00000000000E+00  0.00000000000E+00 -0.14378195502E+04  0.14378195502E+04  0.25500000920E-02 0. -1.
    10030    2    1    2    0    0  0.00000000000E+00  0.00000000000E+00  0.81554520479E+03  0.36911843052E+04  0.35999621656E+04 0.  0.
        2    1    3    3  502    0 -0.13751640092E+04  0.10904295890E+04 -0.21314509635E+01  0.17550262915E+04  0.25500000920E-02 0. -1.
       -2    1    3    3    0  502  0.13751640092E+04 -0.10904295890E+04  0.81767665576E+03  0.19361580137E+04  0.25500000920E-02 0.  1.
</event>
<event>
 5   0  0.2482243E-08  0.3600206E+04  0.7818609E-02  0.8090444E-01
        2   -1    0    0  501    0  0.00000000000E+00  0.00000000000E+00  0.19688988570E+04  0.19688988570E+04  0.25500000920E-02 0.  1.
       -2   -1    0    0    0  501  0.00000000000E+00  0.00000000000E+00 -0.16457783236E+04  0.16457783236E+04  0.25500000920E-02 0. -1.
    10030    2    1    2    0    0  0.00000000000E+00  0.00000000000E+00  0.32312053341E+03  0.36146771806E+04  0.36002061386E+04 0.  0.
        5    1    3    3  502    0  0.93867119244E+03 -0.84694520608E+03  0.14480886143E+04  0.19223429752E+04  0.46999998093E+01 0.  1.
       -5    1    3    3    0  502 -0.93867119244E+03  0.84694520608E+03 -0.11249680809E+04  0.16923342053E+04  0.46999998093E+01 0. -1.
</event>
<event>
 5   0  0.2608070E-08  0.3601659E+04  0.7818609E-02  0.8090112E-01
       -2   -1    0    0    0  501  0.00000000000E+00  0.00000000000E+00  0.20748933499E+04  0.20748933499E+04  0.25500000920E-02 0.  1.
        2   -1    0    0  501    0  0.00000000000E+00  0.00000000000E+00 -0.15629659335E+04  0.15629659335E+04  0.25500000920E-02 0. -1.
    10030    2    1    2    0    0  0.00000000000E+00  0.00000000000E+00  0.51192741642E+03  0.36378592834E+04  0.36016594072E+04 0.  0.
        3    1    3    3  502    0  0.12654123364E+04 -0.59171267225E+03 -0.89194272608E+03  0.16573937687E+04  0.10100000352E+00 0. -1.
       -3    1    3    3    0  502 -0.12654123364E+04  0.59171267225E+03  0.14038701425E+04  0.19804655147E+04  0.10100000352E+00 0.  1.
</event>
<event>
 5   0  0.8024500E-09  0.3611666E+04  0.7818609E-02  0.8087825E-01
       -1   -1    0    0    0  501  0.00000000000E+00  0.00000000000E+00  0.15629152888E+04  0.15629152888E+04  0.50400001928E-02 0.  1.
        1   -1    0    0  501    0  0.00000000000E+00  0.00000000000E+00 -0.20865067164E+04  0.20865067164E+04  0.50400001928E-02 0. -1.
    10030    2    1    2    0    0  0.00000000000E+00  0.00000000000E+00 -0.52359142765E+03  0.36494220053E+04  0.36116662345E+04 0.  0.
        1    1    3    3  502    0  0.18836574244E+02 -0.64292503845E+03 -0.19668376342E+04  0.20693375029E+04  0.50400001928E-02 0. -1.
       -1    1    3    3    0  502 -0.18836574244E+02  0.64292503845E+03  0.14432462066E+04  0.15800845023E+04  0.50400001928E-02 0.  1.
</event>
<event>
 5   0  0.2494592E-08  0.3599569E+04  0.7818609E-02  0.8090590E-01
       -2   -1    0    0    0  501  0.00000000000E+00  0.00000000000E+00  0.13792827153E+04  0.13792827154E+04  0.25500000920E-02 0.  1.
        2   -1    0    0  501    0  0.00000000000E+00  0.00000000000E+00 -0.23484849059E+04  0.23484849059E+04  0.25500000920E-02 0. -1.
    10030    2    1    2    0    0  0.00000000000E+00  0.00000000000E+00 -0.96920219057E+03  0.37277676213E+04  0.35995692176E+04 0.  0.
        1    1    3    3  502    0 -0.15340191038E+04  0.91653242952E+03 -0.70666343558E+03  0.19216189831E+04  0.50400001928E-02 0.  1.
       -1    1    3    3    0  502  0.15340191038E+04 -0.91653242952E+03 -0.26253875499E+03  0.18061486381E+04  0.50400001928E-02 0. -1.
</event>
<event>
 5   0  0.2476968E-08  0.3601720E+04  0.7818609E-02  0.8090098E-01
        2   -1    0    0  501    0  0.00000000000E+00  0.00000000000E+00  0.20144066521E+04  0.20144066521E+04  0.25500000920E-02 0. -1.
       -2   -1    0    0    0  501  0.00000000000E+00  0.00000000000E+00 -0.16099516441E+04  0.16099516441E+04  0.25500000920E-02 0.  1.
    10030    2    1    2    0    0  0.00000000000E+00  0.00000000000E+00  0.40445500796E+03  0.36243582963E+04  0.36017203120E+04 0.  0.
        2    1    3    3  502    0  0.53653226328E+03  0.16959403773E+04  0.48509333974E+03  0.18437451509E+04  0.25500000920E-02 0. -1.
       -2    1    3    3    0  502 -0.53653226328E+03 -0.16959403773E+04 -0.80638331779E+02  0.17806131454E+04  0.25500000920E-02 0.  1.
</event>
<event>
 5   0  0.8063410E-09  0.3598107E+04  0.7818609E-02  0.8090925E-01
        1   -1    0    0  501    0  0.00000000000E+00  0.00000000000E+00  0.23231194497E+04  0.23231194497E+04  0.50400001928E-02 0.  1.
       -1   -1    0    0    0  501  0.00000000000E+00  0.00000000000E+00 -0.13932104609E+04  0.13932104609E+04  0.50400001928E-02 0. -1.
    10030    2    1    2    0    0  0.00000000000E+00  0.00000000000E+00  0.92990898882E+03  0.37163299107E+04  0.35981074577E+04 0.  0.
        2    1    3    3  502    0  0.13612569682E+04  0.11656432678E+04  0.30213759991E+03  0.18174245213E+04  0.25500000920E-02 0.  1.
       -2    1    3    3    0  502 -0.13612569682E+04 -0.11656432678E+04  0.62777138891E+03  0.18989053894E+04  0.25500000920E-02 0. -1.
</event>
<event>
 5   0  0.2482243E-08  0.3600737E+04  0.7818609E-02  0.8090323E-01
       -2   -1    0    0    0  501  0.00000000000E+00  0.00000000000E+00  0.10307752538E+04  0.10307752538E+04  0.25500000920E-02 0. -1.
        2   -1    0    0  501    0  0.00000000000E+00  0.00000000000E+00 -0.31445521898E+04  0.31445521898E+04  0.25500000920E-02 0.  1.
    10030    2    1    2    0    0  0.00000000000E+00  0.00000000000E+00 -0.21137769361E+04  0.41753274436E+04  0.36007369143E+04 0.  0.
        5    1    3    3  502    0  0.10823333596E+04 -0.98587849382E+03 -0.22719018267E+04  0.27027693032E+04  0.46999998093E+01 0.  1.
       -5    1    3    3    0  502 -0.10823333596E+04  0.98587849382E+03  0.15812489066E+03  0.14725581404E+04  0.46999998093E+01 0. -1.
</event>
<event>
 5   0  0.8247570E-09  0.3600206E+04  0.7818609E-02  0.8090445E-01
        1   -1    0    0  501    0  0.00000000000E+00  0.00000000000E+00  0.14084293229E+04  0.14084293229E+04  0.50400001928E-02 0.  1.
       -1   -1    0    0    0  501  0.00000000000E+00  0.00000000000E+00 -0.23006976166E+04  0.23006976166E+04  0.50400001928E-02 0. -1.
    10030    2    1    2    0    0  0.00000000000E+00  0.00000000000E+00 -0.89226829372E+03  0.37091269395E+04  0.36002055420E+04 0.  0.
        3    1    3    3  502    0 -0.21404876464E+03  0.50293827688E+03  0.13208663275E+04  0.14294934940E+04  0.10100000352E+00 0.  1.
       -3    1    3    3    0  502  0.21404876464E+03 -0.50293827688E+03 -0.22131346212E+04  0.22796334455E+04  0.10100000352E+00 0. -1.
</event>
<event>
 5   0  0.8247570E-09  0.3600993E+04  0.7818609E-02  0.8090264E-01
       -1   -1    0    0    0  501  0.00000000000E+00  0.00000000000E+00  0.16420889191E+04  0.16420889191E+04  0.50400001928E-02 0. -1.
        1   -1    0    0  501    0  0.00000000000E+00  0.00000000000E+00 -0.19741856368E+04  0.19741856368E+04  0.50400001928E-02 0.  1.
    10030    2    1    2    0    0  0.00000000000E+00  0.00000000000E+00 -0.33209671771E+03  0.36162745559E+04  0.36009933954E+04 0.  0.
        3    1    3    3  502    0 -0.29665259743E+03  0.96696478378E+03 -0.16619212573E+04  0.19455091705E+04  0.10100000352E+00 0.  1.
       -3    1    3    3    0  502  0.29665259743E+03 -0.96696478378E+03  0.13298245396E+04  0.16707653854E+04  0.10100000352E+00 0. -1.
</event>
<event>
 5   0  0.8146881E-09  0.3601746E+04  0.7818609E-02  0.8090092E-01
        1   -1    0    0  501    0  0.00000000000E+00  0.00000000000E+00  0.18502971467E+04  0.18502971467E+04  0.50400001928E-02 0.  1.
       -1   -1    0    0    0  501  0.00000000000E+00  0.00000000000E+00 -0.17527688509E+04  0.17527688509E+04  0.50400001928E-02 0. -1.
    10030    2    1    2    0    0  0.00000000000E+00  0.00000000000E+00  0.97528295842E+02  0.36030659976E+04  0.36017458010E+04 0.  0.
        4    1    3    3  502    0 -0.11759367457E+04  0.30302432229E+03 -0.12815693878E+04  0.17655233441E+04  0.12699999809E+01 0. -1.
       -4    1    3    3    0  502  0.11759367457E+04 -0.30302432229E+03  0.13790976836E+04  0.18375426536E+04  0.12699999809E+01 0.  1.
</event>
<event>
 5   0  0.2590795E-08  0.3600188E+04  0.7818609E-02  0.8090449E-01
        2   -1    0    0  501    0  0.00000000000E+00  0.00000000000E+00  0.20326582797E+04  0.20326582797E+04  0.25500000920E-02 0.  1.
       -2   -1    0    0    0  501  0.00000000000E+00  0.00000000000E+00 -0.15941383873E+04  0.15941383873E+04  0.25500000920E-02 0. -1.
    10030    2    1    2    0    0  0.00000000000E+00  0.00000000000E+00  0.43851989237E+03  0.36267966670E+04  0.36001881018E+04 0.  0.
        4    1    3    3  502    0  0.46080982185E+03 -0.14563199709E+04 -0.74020962894E+03  0.16973878335E+04  0.12699999809E+01 0. -1.
       -4    1    3    3    0  502 -0.46080982185E+03  0.14563199709E+04  0.11787295213E+04  0.19294088335E+04  0.12699999809E+01 0.  1.
</event>
<event>
 5   0  0.2476968E-08  0.3602800E+04  0.7818609E-02  0.8089851E-01
       -2   -1    0    0    0  501  0.00000000000E+00  0.00000000000E+00  0.15556546185E+04  0.15556546185E+04  0.25500000920E-02 0.  1.
        2   -1    0    0  501    0  0.00000000000E+00  0.00000000000E+00 -0.20859660842E+04  0.20859660842E+04  0.25500000920E-02 0. -1.
    10030    2    1    2    0    0  0.00000000000E+00  0.00000000000E+00 -0.53031146565E+03  0.36416207027E+04  0.36028004513E+04 0.  0.
        2    1    3    3  502    0  0.50659635491E+03 -0.16119056377E+04 -0.89651652620E+03  0.19127523451E+04  0.25500000920E-02 0. -1.
       -2    1    3    3    0  502 -0.50659635491E+03  0.16119056377E+04  0.36620506055E+03  0.17288683577E+04  0.25500000920E-02 0.  1.
</event>
<event>
 5   0  0.2590795E-08  0.3598559E+04  0.7818609E-02  0.8090822E-01
        2   -1    0    0  501    0  0.00000000000E+00  0.00000000000E+00  0.12934127396E+04  0.12934127396E+04  0.25500000920E-02 0.  1.
       -2   -1    0    0    0  501  0.00000000000E+00  0.00000000000E+00 -0.25029954655E+04  0.25029954655E+04  0.25500000920E-02 0. -1.
    10030    2    1    2    0    0  0.00000000000E+00  0.00000000000E+00 -0.12095827258E+04  0.37964082051E+04  0.35985587239E+04 0.  0.
        4    1    3    3  502    0  0.44371660925E+03 -0.32887849478E+03  0.12017707043E+04  0.13226110284E+04  0.12699999809E+01 0.  1.
       -4    1    3    3    0  502 -0.44371660925E+03  0.32887849478E+03 -0.24113534302E+04  0.24737971767E+04  0.12699999809E+01 0. -1.
</event>
<event>
 5   0  0.2494592E-08  0.3602253E+04  0.7818609E-02  0.8089976E-01
        2   -1    0    0  501    0  0.00000000000E+00  0.00000000000E+00  0.11596274814E+04  0.11596274814E+04  0.25500000920E-02 0.  1.
       -2   -1    0    0    0  501  0.00000000000E+00  0.00000000000E+00 -0.27974990673E+04  0.27974990673E+04  0.25500000920E-02 0. -1.
    10030    2    1    2    0    0  0.00000000000E+00  0.00000000000E+00 -0.16378715858E+04  0.39571265487E+04  0.36022530714E+04 0.  0.
        1    1    3    3  502    0  0.23856372993E+02  0.41120619164E+03  0.11071946816E+04  0.11813296413E+04  0.50400001928E-02 0.  1.
       -1    1    3    3    0  502 -0.23856372993E+02 -0.41120619164E+03 -0.27450662674E+04  0.27757969074E+04  0.50400001928E-02 0. -1.
</event>
<event>
 5   0  0.2608070E-08  0.3600594E+04  0.7818609E-02  0.8090356E-01
        2   -1    0    0  501    0  0.00000000000E+00  0.00000000000E+00  0.25484281854E+04  0.25484281854E+04  0.25500000920E-02 0.  1.
       -2   -1    0    0    0  501  0.00000000000E+00  0.00000000000E+00 -0.12717914326E+04  0.12717914326E+04  0.25500000920E-02 0. -1.
    10030    2    1    2    0    0  0.00000000000E+00  0.00000000000E+00  0.12766367528E+04  0.38202196180E+04  0.36005939136E+04 0.  0.
        3    1    3    3  502    0 -0.54806208809E+03  0.26885297779E+03  0.24352650577E+04  0.25106114569E+04  0.10100000352E+00 0.  1.
       -3    1    3    3    0  502  0.54806208809E+03 -0.26885297779E+03 -0.11586283050E+04  0.13096081610E+04  0.10100000352E+00 0. -1.
</event>
<event>
 5   0  0.8024500E-09  0.3599608E+04  0.7818609E-02  0.8090581E-01
        1   -1    0    0  501    0  0.00000000000E+00  0.00000000000E+00  0.11674199879E+04  0.11674199879E+04  0.50400001928E-02 0. -1.
       -1   -1    0    0    0  501  0.00000000000E+00  0.00000000000E+00 -0.27747466899E+04  0.27747466899E+04  0.50400001928E-02 0.  1.
    10030    2    1    2    0    0  0.00000000000E+00  0.00000000000E+00 -0.16073267020E+04  0.39421666778E+04  0.35996081715E+04 0.  0.
        1    1    3    3  502    0  0.40868823949E+03 -0.69665437924E+03  0.95779769990E+03  0.12528885965E+04  0.50400001928E-02 0. -1.
       -1    1    3    3    0  502 -0.40868823949E+03  0.69665437924E+03 -0.25651244019E+04  0.26892780813E+04  0.50400001928E-02 0.  1.
</event>
<event>
 5   0  0.2476968E-08  0.3595728E+04  0.7818609E-02  0.8091471E-01
       -2   -1    0    0    0  501  0.00000000000E+00  0.00000000000E+00  0.16827074526E+04  0.16827074526E+04  0.25500000920E-02 0.  1.
        2   -1    0    0  501    0  0.00000000000E+00  0.00000000000E+00 -0.19209008433E+04  0.19209008433E+04  0.25500000920E-02 0. -1.
    10030    2    1    2    0    0  0.00000000000E+00  0.00000000000E+00 -0.23819339071E+03  0.36036082958E+04  0.35957275562E+04 0.  0.
        2    1    3    3  502    0  0.45973221802E+03 -0.29722339529E+03 -0.18353389878E+04  0.19152453261E+04  0.25500000920E-02 0. -1.
       -2    1    3    3    0  502 -0.45973221802E+03  0.29722339529E+03  0.15971455971E+04  0.16883629697E+04  0.25500000920E-02 0.  1.
</event>
<event>
 5   0  0.8146881E-09  0.3599679E+04  0.7818609E-02  0.8090565E-01
        1   -1    0    0  501    0  0.00000000000E+00  0.00000000000E+00  0.16002401605E+04  0.16002401605E+04  0.50400001928E-02 0. -1.
       -1   -1    0    0    0  501  0.00000000000E+00  0.00000000000E+00 -0.20243345870E+04  0.20243345870E+04  0.50400001928E-02 0.  1.
    10030    2    1    2    0    0  0.00000000000E+00  0.00000000000E+00 -0.42409442644E+03  0.36245747475E+04  0.35996785993E+04 0.  0.
        4    1    3    3  502    0 -0.29436998012E+03 -0.22575489728E+03  0.15613266176E+04  0.16047932510E+04  0.12699999809E+01 0. -1.
       -4    1    3    3    0  502  0.29436998012E+03  0.22575489728E+03 -0.19854210440E+04  0.20197814965E+04  0.12699999809E+01 0.  1.
</event>
<event>
 5   0  0.2476968E-08  0.3599463E+04  0.7818609E-02  0.8090615E-01
        2   -1    0    0  501    0  0.00000000000E+00  0.00000000000E+00  0.26500788997E+04  0.26500788997E+04  0.25500000920E-02 0. -1.
       -2   -1    0    0    0  501  0.00000000000E+00  0.00000000000E+00 -0.12222406431E+04  0.12222406431E+04  0.25500000920E-02 0.  1.
    10030    2    1    2    0    0  0.00000000000E+00  0.00000000000E+00  0.14278382567E+04  0.38723195428E+04  0.35994633703E+04 0.  0.
        2    1    3    3  502    0  0.51296548553E+03 -0.12821508110E+04  0.19555253692E+04  0.23939765582E+04  0.25500000920E-02 0. -1.
       -2    1    3    3    0  502 -0.51296548553E+03  0.12821508110E+04 -0.52768711256E+03  0.14783429846E+04  0.25500000920E-02 0.  1.
</event>
<event>
 5   0  0.2590795E-08  0.3601664E+04  0.7818609E-02  0.8090111E-01
        2   -1    0    0  501    0  0.00000000000E+00  0.00000000000E+00  0.16894855156E+04  0.16894855156E+04  0.25500000920E-02 0.  1.
       -2   -1    0    0    0  501  0.00000000000E+00  0.00000000000E+00 -0.19195170640E+04  0.19195170640E+04  0.25500000920E-02 0. -1.
    10030    2    1    2    0    0  0.00000000000E+00  0.00000000000E+00 -0.23003154841E+03  0.36090025796E+04  0.36016642134E+04 0.  0.
        4    1    3    3  502    0 -0.16501969149E+04  0.26502436622E+03 -0.78690929225E+03  0.18473266142E+04  0.12699999809E+01 0. -1.
       -4    1    3    3    0  502  0.16501969149E+04 -0.26502436622E+03  0.55687774384E+03  0.17616759654E+04  0.12699999809E+01 0.  1.
</event>
<event>
 5   0  0.8024500E-09  0.3599964E+04  0.7818609E-02  0.8090500E-01
        1   -1    0    0  501    0  0.00000000000E+00  0.00000000000E+00  0.24182250158E+04  0.24182250158E+04  0.50400001928E-02 0.  1.
       -1   -1    0    0    0  501  0.00000000000E+00  0.00000000000E+00 -0.13397987097E+04  0.13397987097E+04  0.50400001928E-02 0. -1.
    10030    2    1    2    0    0  0.00000000000E+00  0.00000000000E+00  0.10784263061E+04  0.37580237254E+04  0.35999637531E+04 0.  0.
        1    1    3    3  502    0  0.21147041304E+03  0.14020027692E+04  0.16967741675E+04  0.22111929079E+04  0.50400001928E-02 0. -1.
       -1    1    3    3    0  502 -0.21147041304E+03 -0.14020027692E+04 -0.61834786137E+03  0.15468308176E+04  0.50400001928E-02 0.  1.
</event>
<event>
 5   0  0.8247570E-09  0.3599077E+04  0.7818609E-02  0.8090703E-01
       -1   -1    0    0    0  501  0.00000000000E+00  0.00000000000E+00  0.17749487755E+04  0.17749487755E+04  0.50400001928E-02 0. -1.
        1   -1    0    0  501    0  0.00000000000E+00  0.00000000000E+00 -0.18244693118E+04  0.18244693118E+04  0.50400001928E-02 0.  1.
    10030    2    1    2    0    0  0.00000000000E+00  0.00000000000E+00 -0.49520536314E+02  0.35994180874E+04  0.35990774213E+04 0.  0.
        3    1    3    3  502    0 -0.79931490617E+03  0.85435580611E+03 -0.13921904592E+04  0.18185220503E+04  0.10100000352E+00 0.  1.
       -3    1    3    3    0  502  0.79931490617E+03 -0.85435580611E+03  0.13426699229E+04  0.17808960370E+04  0.10100000352E+00 0. -1.
</event>
<event>
 5   0  0.2608070E-08  0.3599248E+04  0.7818609E-02  0.8090664E-01
       -2   -1    0    0    0  501  0.00000000000E+00  0.00000000000E+00  0.11975903426E+04  0.11975903426E+04  0.25500000920E-02 0.  1.
        2   -1    0    0  501    0  0.00000000000E+00  0.00000000000E+00 -0.27043027442E+04  0.27043027442E+04  0.25500000920E-02 0. -1.
    10030    2    1    2    0    0  0.00000000000E+00  0.00000000000E+00 -0.15067124017E+04  0.39018930868E+04  0.35992481715E+04 0.  0.
        3    1    3    3  502    0  0.13241578034E+04 -0.30093383431E+02 -0.20741388101E+04  0.24609655247E+04  0.10100000352E+00 0. -1.
       -3    1    3    3    0  502 -0.13241578034E+04  0.30093383431E+02  0.56742640847E+03  0.14409275621E+04  0.10100000352E+00 0.  1.
</event>
<event>
 5   0  0.8024500E-09  0.3599357E+04  0.7818609E-02  0.8090639E-01
        1   -1    0    0  501    0  0.00000000000E+00  0.00000000000E+00  0.18912095629E+04  0.18912095629E+04  0.50400001928E-02 0.  1.
       -1   -1    0    0    0  501  0.00000000000E+00  0.00000000000E+00 -0.17125777853E+04  0.17125777853E+04  0.50400001928E-02 0. -1.
    10030    2    1    2    0    0  0.00000000000E+00  0.00000000000E+00  0.17863177757E+03  0.36037873482E+04  0.35993574342E+04 0.  0.
        5    1    3    3  502    0  0.16139991051E+04 -0.89817492231E+02 -0.70270832930E+03  0.17626347833E+04  0.46999998093E+01 0. -1.
       -5    1    3    3    0  502 -0.16139991051E+04  0.89817492231E+02  0.88134010687E+03  0.18411525649E+04  0.46999998093E+01 0.  1.
</event>
<event>
 5   0  0.8146881E-09  0.3600926E+04  0.7818609E-02  0.8090280E-01
       -1   -1    0    0    0  501  0.00000000000E+00  0.00000000000E+00  0.16967196565E+04  0.16967196565E+04  0.50400001928E-02 0. -1.
        1   -1    0    0  501    0  0.00000000000E+00  0.00000000000E+00 -0.19105495911E+04  0.19105495912E+04  0.50400001928E-02 0.  1.
    10030    2    1    2    0    0  0.00000000000E+00  0.00000000000E+00 -0.21382993462E+03  0.36072692477E+04  0.36009260176E+04 0.  0.
        4    1    3    3  502    0 -0.51583269970E+03  0.14871275748E+04 -0.98254490114E+03  0.18555397850E+04  0.12699999809E+01 0.  1.
       -4    1    3    3    0  502  0.51583269970E+03 -0.14871275748E+04  0.76871496652E+03  0.17517294627E+04  0.12699999809E+01 0. -1.
</event>
<event>
 5   0  0.2590795E-08  0.3599929E+04  0.7818609E-02  0.8090508E-01
        2   -1    0    0  501    0  0.00000000000E+00  0.00000000000E+00  0.14368635462E+04  0.14368635462E+04  0.25500000920E-02 0. -1.
       -2   -1    0    0    0  501  0.00000000000E+00  0.00000000000E+00 -0.22548229500E+04  0.22548229500E+04  0.25500000920E-02 0.  1.
    10030    2    1    2    0    0  0.00000000000E+00  0.00000000000E+00 -0.81795940388E+03  0.36916864962E+04  0.35999293882E+04 0.  0.
        4    1    3    3  502    0 -0.14140764298E+04  0.98871853680E+03  0.11662175783E+03  0.17293868109E+04  0.12699999809E+01 0. -1.
       -4    1    3    3    0  502  0.14140764298E+04 -0.98871853680E+03 -0.93458116171E+03  0.19622996853E+04  0.12699999809E+01 0.  1.
</event>
<event>
 5   0  0.2494592E-08  0.3601413E+04  0.7818609E-02  0.8090168E-01
       -2   -1    0    0    0  501  0.00000000000E+00  0.00000000000E+00  0.18942326337E+04  0.18942326337E+04  0.25500000920E-02 0.  1.
        2   -1    0    0  501    0  0.00000000000E+00  0.00000000000E+00 -0.17117977479E+04  0.17117977479E+04  0.25500000920E-02 0. -1.
    10030    2    1    2    0    0  0.00000000000E+00  0.00000000000E+00  0.18243488574E+03  0.36060303816E+04  0.36014125875E+04 0.  0.
        1    1    3    3  502    0 -0.30544445733E+03 -0.10768643843E+02 -0.16856370235E+04  0.17131212611E+04  0.50400001928E-02 0. -1.
       -1    1    3    3    0  502  0.30544445733E+03  0.10768643843E+02  0.18680719093E+04  0.18929091205E+04  0.50400001928E-02 0.  1.
</event>
<event>
 5   0  0.8063410E-09  0.3600329E+04  0.7818609E-02  0.8090416E-01
        1   -1    0    0  501    0  0.00000000000E+00  0.00000000000E+00  0.28234254681E+04  0.28234254681E+04  0.50400001928E-02 0. -1.
       -1   -1    0    0    0  501  0.00000000000E+00  0.00000000000E+00 -0.11477516810E+04  0.11477516810E+04  0.50400001928E-02 0.  1.
    10030    2    1    2    0    0  0.00000000000E+00  0.00000000000E+00  0.16756737871E+04  0.39711771491E+04  0.36003285001E+04 0.  0.
        2    1    3    3  502    0  0.17594839218E+04 -0.33760780501E+03  0.64417052103E+03  0.19038693131E+04  0.25500000920E-02 0.  1.
       -2    1    3    3    0  502 -0.17594839218E+04  0.33760780501E+03  0.10315032661E+04  0.20673078361E+04  0.25500000920E-02 0. -1.
</event>
<event>
 5   0  0.2476968E-08  0.3594504E+04  0.7818609E-02  0.8091752E-01
        2   -1    0    0  501    0  0.00000000000E+00  0.00000000000E+00  0.22055796169E+04  0.22055796169E+04  0.25500000920E-02 0. -1.
       -2   -1    0    0    0  501  0.00000000000E+00  0.00000000000E+00 -0.14645193591E+04  0.14645193591E+04  0.25500000920E-02 0.  1.
    10030    2    1    2    0    0  0.00000000000E+00  0.00000000000E+00  0.74106025784E+03  0.36700989760E+04  0.35945036080E+04 0.  0.
        2    1    3    3  502    0 -0.25368244687E+03 -0.10578054271E+04 -0.10902245743E+04  0.15400963372E+04  0.25500000920E-02 0.  1.
       -2    1    3    3    0  502  0.25368244687E+03  0.10578054271E+04  0.18312848321E+04  0.21300026389E+04  0.25500000920E-02 0. -1.
</event>
<event>
 5   0  0.2494592E-08  0.3599540E+04  0.7818609E-02  0.8090597E-01
        2   -1    0    0  501    0  0.00000000000E+00  0.00000000000E+00  0.12243128628E+04  0.12243128628E+04  0.25500000920E-02 0.  1.
       -2   -1    0    0    0  501  0.00000000000E+00  0.00000000000E+00 -0.26457057108E+04  0.26457057108E+04  0.25500000920E-02 0. -1.
    10030    2    1    2    0    0  0.00000000000E+00  0.00000000000E+00 -0.14213928480E+04  0.38700185736E+04  0.35995397111E+04 0.  0.
        1    1    3    3  502    0  0.48277529560E+03  0.15382100658E+04  0.14942395234E+03  0.16191015132E+04  0.50400001928E-02 0.  1.
       -1    1    3    3    0  502 -0.48277529560E+03 -0.15382100658E+04 -0.15708168003E+04  0.22509170604E+04  0.50400001928E-02 0. -1.
</event>
<event>
 5   0  0.2608070E-08  0.3592886E+04  0.7818609E-02  0.8092123E-01
       -2   -1    0    0    0  501  0.00000000000E+00  0.00000000000E+00  0.16677426417E+04  0.16677426417E+04  0.25500000920E-02 0. -1.
        2   -1    0    0  501    0  0.00000000000E+00  0.00000000000E+00 -0.19350753584E+04  0.19350753584E+04  0.25500000920E-02 0.  1.
    10030    2    1    2    0    0  0.00000000000E+00  0.00000000000E+00 -0.26733271665E+03  0.36028180001E+04  0.35928861324E+04 0.  0.
        3    1    3    3  502    0  0.10436155510E+04  0.79289547793E+03 -0.13656352784E+04  0.18928223321E+04  0.10100000352E+00 0.  1.
       -3    1    3    3    0  502 -0.10436155510E+04 -0.79289547793E+03  0.10983025618E+04  0.17099956680E+04  0.10100000352E+00 0. -1.
</event>
<event>
 5   0  0.2476968E-08  0.3601253E+04  0.7818609E-02  0.8090205E-01
        2   -1    0    0  501    0  0.00000000000E+00  0.00000000000E+00  0.16776318088E+04  0.16776318088E+04  0.25500000920E-02 0.  1.
       -2   -1    0    0    0  501  0.00000000000E+00  0.00000000000E+00 -0.19326380180E+04  0.19326380180E+04  0.25500000920E-02 0. -1.
    10030    2    1    2    0    0  0.00000000000E+00  0.00000000000E+00 -0.25500620920E+03  0.36102698268E+04  0.36012525676E+04 0.  0.
        2    1    3    3  502    0  0.72901281564E+03  0.10380519937E+04 -0.14086871891E+04  0.18956295059E+04  0.25500000920E-02 0. -1.
       -2    1    3    3    0  502 -0.72901281564E+03 -0.10380519937E+04  0.11536809799E+04  0.17146403209E+04  0.25500000920E-02 0.  1.
</event>
<event>
 5   0  0.8024500E-09  0.3600749E+04  0.7818609E-02  0.8090320E-01
        1   -1    0    0  501    0  0.00000000000E+00  0.00000000000E+00  0.16916554518E+04  0.16916554518E+04  0.50400001928E-02 0. -1.
       -1   -1    0    0    0  501  0.00000000000E+00  0.00000000000E+00 -0.19160808689E+04  0.19160808689E+04  0.50400001928E-02 0.  1.
    10030    2    1    2    0    0  0.00000000000E+00  0.00000000000E+00 -0.22442541705E+03  0.36077363207E+04  0.36007491709E+04 0.  0.
        5    1    3    3  502    0 -0.71856250979E+03 -0.10064922160E+04  0.11987481572E+04  0.17223175943E+04  0.46999998093E+01 0. -1.
       -5    1    3    3    0  502  0.71856250979E+03  0.10064922160E+04 -0.14231735743E+04  0.18854187264E+04  0.46999998093E+01 0.  1.
</event>
<event>
 5   0  0.2590795E-08  0.3597849E+04  0.7818609E-02  0.8090985E-01
       -2   -1    0    0    0  501  0.00000000000E+00  0.00000000000E+00  0.28424924507E+04  0.28424924507E+04  0.25500000920E-02 0. -1.
        2   -1    0    0  501    0  0.00000000000E+00  0.00000000000E+00 -0.11384830183E+04  0.11384830183E+04  0.25500000920E-02 0.  1.
    10030    2    1    2    0    0  0.00000000000E+00  0.00000000000E+00  0.17040094324E+04  0.39809754690E+04  0.35978490156E+04 0.  0.
        4    1    3    3  502    0 -0.60588681604E+03  0.39938025147E+03 -0.96934396944E+03  0.12108809864E+04  0.12699999809E+01 0.  1.
       -4    1    3    3    0  502  0.60588681604E+03 -0.39938025147E+03  0.26733534018E+04  0.27700944827E+04  0.12699999809E+01 0. -1.
</event>
<event>
 5   0  0.8247570E-09  0.3601284E+04  0.7818609E-02  0.8090198E-01
        1   -1    0    0  501    0  0.00000000000E+00  0.00000000000E+00  0.13092496067E+04  0.13092496067E+04  0.50400001928E-02 0. -1.
       -1   -1    0    0    0  501  0.00000000000E+00  0.00000000000E+00 -0.24764656205E+04  0.24764656205E+04  0.50400001928E-02 0.  1.
    10030    2    1    2    0    0  0.00000000000E+00  0.00000000000E+00 -0.11672160138E+04  0.37857152273E+04  0.36012840153E+04 0.  0.
        3    1    3    3  502    0 -0.20090195097E+03  0.36694475976E+03  0.12574556613E+04  0.13252187748E+04  0.10100000352E+00 0. -1.
       -3    1    3    3    0  502  0.20090195097E+03 -0.36694475976E+03 -0.24246716751E+04  0.24604964525E+04  0.10100000352E+00 0.  1.
</event>
<event>
 5   0  0.8247570E-09  0.3600224E+04  0.7818609E-02  0.8090440E-01
        1   -1    0    0  501    0  0.00000000000E+00  0.00000000000E+00  0.24925961721E+04  0.24925961721E+04  0.50400001928E-02 0. -1.
       -1   -1    0    0    0  501  0.00000000000E+00  0.00000000000E+00 -0.13000112502E+04  0.13000112502E+04  0.50400001928E-02 0.  1.
    10030    2    1    2    0    0  0.00000000000E+00  0.00000000000E+00  0.11925849220E+04  0.37926074223E+04  0.36002239185E+04 0.  0.
        3    1    3    3  502    0  0.61911054587E+03 -0.25111038618E+03  0.23571546516E+04  0.24500066032E+04  0.10100000352E+00 0. -1.
       -3    1    3    3    0  502 -0.61911054587E+03  0.25111038618E+03 -0.11645697296E+04  0.13426008191E+04  0.10100000352E+00 0.  1.
</event>
<event>
 5   0  0.2608070E-08  0.3600528E+04  0.7818609E-02  0.8090371E-01
       -2   -1    0    0    0  501  0.00000000000E+00  0.00000000000E+00  0.13861395884E+04  0.13861395884E+04  0.25500000920E-02 0.  1.
        2   -1    0    0  501    0  0.00000000000E+00  0.00000000000E+00 -0.23381123330E+04  0.23381123330E+04  0.25500000920E-02 0. -1.
    10030    2    1    2    0    0  0.00000000000E+00  0.00000000000E+00 -0.95197274458E+03  0.37242519214E+04  0.36005277762E+04 0.  0.
        3    1    3    3  502    0  0.10791597200E+04  0.60533896415E+03 -0.18285631779E+04  0.22078641871E+04  0.10100000352E+00 0. -1.
       -3    1    3    3    0  502 -0.10791597200E+04 -0.60533896415E+03  0.87659043334E+03  0.15163877343E+04  0.10100000352E+00 0.  1.
</event>
<event>
 5   0  0.8247570E-09  0.3600665E+04  0.7818609E-02  0.8090339E-01
        1   -1    0    0  501    0  0.00000000000E+00  0.00000000000E+00  0.13029056341E+04  0.13029056341E+04  0.50400001928E-02 0. -1.
       -1   -1    0    0    0  501  0.00000000000E+00  0.00000000000E+00 -0.24876682859E+04  0.24876682859E+04  0.50400001928E-02 0.  1.
    10030    2    1    2    0    0  0.00000000000E+00  0.00000000000E+00 -0.11847626518E+04  0.37905739199E+04  0.36006649527E+04 0.  0.
        3    1    3    3  502    0  0.14751053621E+04 -0.10307642582E+04 -0.53681256187E+03  0.18779186676E+04  0.10100000352E+00 0.  1.
       -3    1    3    3    0  502 -0.14751053621E+04  0.10307642582E+04 -0.64795008994E+03  0.19126552524E+04  0.10100000352E+00 0. -1.
</event>
<event>
 5   0  0.8146881E-09  0.3600241E+04  0.7818609E-02  0.8090437E-01
        1   -1    0    0  501    0  0.00000000000E+00  0.00000000000E+00  0.13636692869E+04  0.13636692869E+04  0.50400001928E-02 0.  1.
       -1   -1    0    0    0  501  0.00000000000E+00  0.00000000000E+00 -0.23762601775E+04  0.23762601775E+04  0.50400001928E-02 0. -1.
    10030    2    1    2    0    0  0.00000000000E+00  0.00000000000E+00 -0.10125908906E+04  0.37399294644E+04  0.36002405596E+04 0.  0.
        4    1    3    3  502    0 -0.14781884610E+04  0.10019790377E+04 -0.27071841882E+03  0.18061819381E+04  0.12699999809E+01 0.  1.
       -4    1    3    3    0  502  0.14781884610E+04 -0.10019790377E+04 -0.74187247175E+03  0.19337475263E+04  0.12699999809E+01 0. -1.
</event>
<event>
 5   0  0.8024500E-09  0.3603788E+04  0.7818609E-02  0.8089625E-01
        1   -1    0    0  501    0  0.00000000000E+00  0.00000000000E+00  0.31468274630E+04  0.31468274630E+04  0.50400001928E-02 0.  1.
       -1   -1    0    0    0  501  0.00000000000E+00  0.00000000000E+00 -0.10317763875E+04  0.10317763875E+04  0.50400001928E-02 0. -1.
    10030    2    1    2    0    0  0.00000000000E+00  0.00000000000E+00  0.21150510755E+04  0.41786038505E+04  0.36037881580E+04 0.  0.
        5    1    3    3  502    0  0.44432739768E+03  0.83070152044E+03  0.28385270849E+04  0.29907774833E+04  0.46999998093E+01 0.  1.
       -5    1    3    3    0  502 -0.44432739768E+03 -0.83070152044E+03 -0.72347600949E+03  0.11878263672E+04  0.46999998093E+01 0. -1.
</event>
<event>
 5   0  0.8146881E-09  0.3600544E+04  0.7818609E-02  0.8090367E-01
       -1   -1    0    0    0  501  0.00000000000E+00  0.00000000000E+00  0.14731475445E+04  0.14731475446E+04  0.50400001928E-02 0. -1.
        1   -1    0    0  501    0  0.00000000000E+00  0.00000000000E+00 -0.22000371592E+04  0.22000371592E+04  0.50400001928E-02 0.  1.
    10030    2    1    2    0    0  0.00000000000E+00  0.00000000000E+00 -0.72688961468E+03  0.36731847038E+04  0.36005440361E+04 0.  0.
        4    1    3    3  502    0 -0.84802840489E+03 -0.36978923305E+03  0.12120836423E+04  0.15248097000E+04  0.12699999809E+01 0. -1.
       -4    1    3    3    0  502  0.84802840489E+03  0.36978923305E+03 -0.19389732570E+04  0.21483750037E+04  0.12699999809E+01 0.  1.
</event>
<event>
 5   0  0.2608070E-08  0.3601472E+04  0.7818609E-02  0.8090155E-01
       -2   -1    0    0    0  501  0.00000000000E+00  0.00000000000E+00  0.21314879195E+04  0.21314879195E+04  0.25500000920E-02 0. -1.
        2   -1    0    0  501    0  0.00000000000E+00  0.00000000000E+00 -0.15213084369E+04  0.15213084370E+04  0.25500000920E-02 0.  1.
    10030    2    1    2    0    0  0.00000000000E+00  0.00000000000E+00  0.61017948254E+03  0.36527963564E+04  0.36014722296E+04 0.  0.
        3    1    3    3  502    0 -0.61306081116E+03 -0.27390989305E+02  0.20221588740E+04  0.21132251055E+04  0.10100000352E+00 0. -1.
       -3    1    3    3    0  502  0.61306081116E+03  0.27390989305E+02 -0.14119793915E+04  0.15395712509E+04  0.10100000352E+00 0.  1.
</event>
<event>
 5   0  0.8024500E-09  0.3600158E+04  0.7818609E-02  0.8090456E-01
        1   -1    0    0  501    0  0.00000000000E+00  0.00000000000E+00  0.20756100599E+04  0.20756100599E+04  0.50400001928E-02 0.  1.
       -1   -1    0    0    0  501  0.00000000000E+00  0.00000000000E+00 -0.15611235044E+04  0.15611235044E+04  0.50400001928E-02 0. -1.
    10030    2    1    2    0    0  0.00000000000E+00  0.00000000000E+00  0.51448655549E+03  0.36367335644E+04  0.36001575802E+04 0.  0.
        1    1    3    3  502    0 -0.57690383310E+03  0.10035626915E+04 -0.11352855859E+04  0.16213665440E+04  0.50400001928E-02 0. -1.
       -1    1    3    3    0  502  0.57690383310E+03 -0.10035626915E+04  0.16497721414E+04  0.20153670204E+04  0.50400001928E-02 0.  1.
</event>
<event>
 5   0  0.2608070E-08  0.3599992E+04  0.7818609E-02  0.8090493E-01
       -2   -1    0    0    0  501  0.00000000000E+00  0.00000000000E+00  0.11701205626E+04  0.11701205626E+04  0.25500000920E-02 0. -1.
        2   -1    0    0  501    0  0.00000000000E+00  0.00000000000E+00 -0.27689338777E+04  0.27689338777E+04  0.25500000920E-02 0.  1.
    10030    2    1    2    0    0  0.00000000000E+00  0.00000000000E+00 -0.15988133151E+04  0.39390544403E+04  0.35999924815E+04 0.  0.
        3    1    3    3  502    0 -0.59035334130E+03  0.10509041957E+04  0.66331314958E+03  0.13758274022E+04  0.10100000352E+00 0. -1.
       -3    1    3    3    0  502  0.59035334130E+03 -0.10509041957E+04 -0.22621264647E+04  0.25632270381E+04  0.10100000352E+00 0.  1.
</event>
<event>
 5   0  0.2590795E-08  0.3600459E+04  0.7818609E-02  0.8090387E-01
       -2   -1    0    0    0  501  0.00000000000E+00  0.00000000000E+00  0.15109186639E+04  0.15109186639E+04  0.25500000920E-02 0.  1.
        2   -1    0    0  501    0  0.00000000000E+00  0.00000000000E+00 -0.21449379053E+04  0.21449379053E+04  0.25500000920E-02 0. -1.
    10030    2    1    2    0    0  0.00000000000E+00  0.00000000000E+00 -0.63401924139E+03  0.36558565692E+04  0.36004592563E+04 0.  0.
        4    1    3    3  502    0  0.14630359019E+04  0.83689703493E+03 -0.95915962458E+03  0.19392935558E+04  0.12699999809E+01 0. -1.
       -4    1    3    3    0  502 -0.14630359019E+04 -0.83689703493E+03  0.32514038319E+03  0.17165630134E+04  0.12699999809E+01 0.  1.
</event>
<event>
 5   0  0.8146881E-09  0.3599655E+04  0.7818609E-02  0.8090571E-01
       -1   -1    0    0    0  501  0.00000000000E+00  0.00000000000E+00  0.16681812609E+04  0.16681812609E+04  0.50400001928E-02 0. -1.
        1   -1    0    0  501    0  0.00000000000E+00  0.00000000000E+00 -0.19418632201E+04  0.19418632201E+04  0.50400001928E-02 0.  1.
    10030    2    1    2    0    0  0.00000000000E+00  0.00000000000E+00 -0.27368195918E+03  0.36100444810E+04  0.35996554474E+04 0.  0.
        4    1    3    3  502    0  0.74295554440E+03 -0.11494063427E+04  0.10354039183E+04  0.17161528978E+04  0.12699999809E+01 0. -1.
       -4    1    3    3    0  502 -0.74295554440E+03  0.11494063427E+04 -0.13090858775E+04  0.18938915833E+04  0.12699999809E+01 0.  1.
</event>
<event>
 5   0  0.8024500E-09  0.3600301E+04  0.7818609E-02  0.8090423E-01
        1   -1    0    0  501    0  0.00000000000E+00  0.00000000000E+00  0.14835231311E+04  0.14835231311E+04  0.50400001928E-02 0.  1.
       -1   -1    0    0    0  501  0.00000000000E+00  0.00000000000E+00 -0.21843551801E+04  0.21843551802E+04  0.50400001928E-02 0. -1.
    10030    2    1    2    0    0  0.00000000000E+00  0.00000000000E+00 -0.70083204909E+03  0.36678783112E+04  0.36003007853E+04 0.  0.
        1    1    3    3  502    0 -0.71364273462E+03 -0.43215897503E+03 -0.19755039292E+04  0.21444493715E+04  0.50400001928E-02 0. -1.
       -1    1    3    3    0  502  0.71364273462E+03  0.43215897503E+03  0.12746718801E+04  0.15234289397E+04  0.50400001928E-02 0.  1.
</event>
<event>
 5   0  0.2476968E-08  0.3599673E+04  0.7818609E-02  0.8090567E-01
        2   -1    0    0  501    0  0.00000000000E+00  0.00000000000E+00  0.13242944663E+04  0.13242944663E+04  0.25500000920E-02 0. -1.
       -2   -1    0    0    0  501  0.00000000000E+00  0.00000000000E+00 -0.24461412447E+04  0.24461412447E+04  0.25500000920E-02 0.  1.
    10030    2    1    2    0    0  0.00000000000E+00  0.00000000000E+00 -0.11218467784E+04  0.37704357110E+04  0.35996729375E+04 0.  0.
        2    1    3    3  502    0  0.11293804046E+04  0.93928500669E+03 -0.16502869813E+04  0.22093445958E+04  0.25500000920E-02 0. -1.
       -2    1    3    3    0  502 -0.11293804046E+04 -0.93928500669E+03  0.52844020290E+03  0.15610911153E+04  0.25500000920E-02 0.  1.
</event>
<event>
 5   0  0.2608070E-08  0.3599009E+04  0.7818609E-02  0.8090719E-01
       -2   -1    0    0    0  501  0.00000000000E+00  0.00000000000E+00  0.25399141188E+04  0.25399141188E+04  0.25500000920E-02 0.  1.
        2   -1    0    0  501    0  0.00000000000E+00  0.00000000000E+00 -0.12749315705E+04  0.12749315705E+04  0.25500000920E-02 0. -1.
    10030    2    1    2    0    0  0.00000000000E+00  0.00000000000E+00  0.12649825483E+04  0.38148456892E+04  0.35990091394E+04 0.  0.
        3    1    3    3  502    0 -0.10468500726E+04 -0.97518068541E+03 -0.52445358610E+03  0.15237860801E+04  0.10100000352E+00 0. -1.
       -3    1    3    3    0  502  0.10468500726E+04  0.97518068541E+03  0.17894361344E+04  0.22910596092E+04  0.10100000352E+00 0.  1.
</event>
<event>
 5   0  0.8146881E-09  0.3600954E+04  0.7818609E-02  0.8090273E-01
        1   -1    0    0  501    0  0.00000000000E+00  0.00000000000E+00  0.21694052439E+04  0.21694052439E+04  0.50400001928E-02 0. -1.
       -1   -1    0    0    0  501  0.00000000000E+00  0.00000000000E+00 -0.14942889636E+04  0.14942889636E+04  0.50400001928E-02 0.  1.
    10030    2    1    2    0    0  0.00000000000E+00  0.00000000000E+00  0.67511628032E+03  0.36636942075E+04  0.36009544921E+04 0.  0.
        4    1    3    3  502    0 -0.46142726167E+03 -0.13005038343E+04  0.15142075397E+04  0.20486706488E+04  0.12699999809E+01 0. -1.
       -4    1    3    3    0  502  0.46142726167E+03  0.13005038343E+04 -0.83909125942E+03  0.16150235588E+04  0.12699999809E+01 0.  1.
</event>
<event>
 5   0  0.8063410E-09  0.3602017E+04  0.7818609E-02  0.8090030E-01
       -1   -1    0    0    0  501  0.00000000000E+00  0.00000000000E+00  0.12123514744E+04  0.12123514744E+04  0.50400001928E-02 0.  1.
        1   -1    0    0  501    0  0.00000000000E+00  0.00000000000E+00 -0.26754880056E+04  0.26754880056E+04  0.50400001928E-02 0. -1.
    10030    2    1    2    0    0  0.00000000000E+00  0.00000000000E+00 -0.14631365312E+04  0.38878394800E+04  0.36020171173E+04 0.  0.
        2    1    3    3  502    0  0.19931725459E+03 -0.53822032341E+03 -0.25741381543E+04  0.26373463409E+04  0.25500000920E-02 0. -1.
       -2    1    3    3    0  502 -0.19931725459E+03  0.53822032341E+03  0.11110016231E+04  0.12504931391E+04  0.25500000920E-02 0.  1.
</event>
<event>
 5   0  0.8024500E-09  0.3600972E+04  0.7818609E-02  0.8090269E-01
       -1   -1    0    0    0  501  0.00000000000E+00  0.00000000000E+00  0.27738845546E+04  0.27738845546E+04  0.50400001928E-02 0. -1.
        1   -1    0    0  501    0  0.00000000000E+00  0.00000000000E+00 -0.11686681160E+04  0.11686681160E+04  0.50400001928E-02 0.  1.
    10030    2    1    2    0    0  0.00000000000E+00  0.00000000000E+00  0.16052164385E+04  0.39425526706E+04  0.36009723334E+04 0.  0.
        1    1    3    3  502    0  0.14086897265E+02 -0.17728623849E+04  0.11462452792E+04  0.21111886976E+04  0.50400001928E-02 0. -1.
       -1    1    3    3    0  502 -0.14086897265E+02  0.17728623849E+04  0.45897115936E+03  0.18313639731E+04  0.50400001928E-02 0.  1.
</event>
<event>
 5   0  0.2476968E-08  0.3600607E+04  0.7818609E-02  0.8090353E-01
        2   -1    0    0  501    0  0.00000000000E+00  0.00000000000E+00  0.31930859979E+04  0.31930859979E+04  0.25500000920E-02 0.  1.
       -2   -1    0    0    0  501  0.00000000000E+00  0.00000000000E+00 -0.10150344740E+04  0.10150344740E+04  0.25500000920E-02 0. -1.
    10030    2    1    2    0    0  0.00000000000E+00  0.00000000000E+00  0.21780515239E+04  0.42081204719E+04  0.36006068191E+04 0.  0.
        2    1    3    3  502    0 -0.66567785971E+03 -0.17204732590E+03 -0.85554676346E+03  0.10975825981E+04  0.25500000920E-02 0. -1.
       -2    1    3    3    0  502  0.66567785971E+03  0.17204732590E+03  0.30335982874E+04  0.31105378738E+04  0.25500000920E-02 0.  1.
</event>
<event>
 5   0  0.8024500E-09  0.3596442E+04  0.7818609E-02  0.8091307E-01
       -1   -1    0    0    0  501  0.00000000000E+00  0.00000000000E+00  0.18094790577E+04  0.18094790578E+04  0.50400001928E-02 0.  1.
        1   -1    0    0  501    0  0.00000000000E+00  0.00000000000E+00 -0.17870332765E+04  0.17870332765E+04  0.50400001928E-02 0. -1.
    10030    2    1    2    0    0  0.00000000000E+00  0.00000000000E+00  0.22445781214E+02  0.35965123343E+04  0.35964422917E+04 0.  0.
        5    1    3    3  502    0  0.40940969683E+03  0.17341781830E+04  0.25327497404E+03  0.17997668107E+04  0.46999998093E+01 0.  1.
       -5    1    3    3    0  502 -0.40940969683E+03 -0.17341781830E+04 -0.23082919282E+03  0.17967455236E+04  0.46999998093E+01 0. -1.
</event>
<event>
 5   0  0.8247570E-09  0.3600052E+04  0.7818609E-02  0.8090480E-01
       -1   -1    0    0    0  501  0.00000000000E+00  0.00000000000E+00  0.20426838452E+04  0.20426838452E+04  0.50400001928E-02 0. -1.
        1   -1    0    0  501    0  0.00000000000E+00  0.00000000000E+00 -0.15861940880E+04  0.15861940880E+04  0.50400001928E-02 0.  1.
    10030    2    1    2    0    0  0.00000000000E+00  0.00000000000E+00  0.45648975720E+03  0.36288779331E+04  0.36000516878E+04 0.  0.
        3    1    3    3  502    0 -0.86502469054E+03 -0.60750774112E+03  0.16968804277E+04  0.19991839752E+04  0.10100000352E+00 0. -1.
       -3    1    3    3    0  502  0.86502469054E+03  0.60750774112E+03 -0.12403906705E+04  0.16296939579E+04  0.10100000352E+00 0.  1.
</event>
<event>
 5   0  0.2608070E-08  0.3599996E+04  0.7818609E-02  0.8090493E-01
        2   -1    0    0  501    0  0.00000000000E+00  0.00000000000E+00  0.23520558851E+04  0.23520558851E+04  0.25500000920E-02 0.  1.
       -2   -1    0    0    0  501  0.00000000000E+00  0.00000000000E+00 -0.13775152298E+04  0.13775152298E+04  0.25500000920E-02 0. -1.
    10030    2    1    2    0    0  0.00000000000E+00  0.00000000000E+00  0.97454065531E+03  0.37295711150E+04  0.35999960018E+04 0.  0.
        3    1    3    3  502    0  0.14835289458E+04  0.10137593715E+04  0.59801308242E+03  0.18937227499E+04  0.10100000352E+00 0. -1.
       -3    1    3    3    0  502 -0.14835289458E+04 -0.10137593715E+04  0.37652757289E+03  0.18358483651E+04  0.10100000352E+00 0.  1.
</event>
<event>
 5   0  0.2608070E-08  0.3598670E+04  0.7818609E-02  0.8090796E-01
       -2   -1    0    0    0  501  0.00000000000E+00  0.00000000000E+00  0.14839958853E+04  0.14839958853E+04  0.25500000920E-02 0.  1.
        2   -1    0    0  501    0  0.00000000000E+00  0.00000000000E+00 -0.21816821089E+04  0.21816821089E+04  0.25500000920E-02 0. -1.
    10030    2    1    2    0    0  0.00000000000E+00  0.00000000000E+00 -0.69768622363E+03  0.36656779943E+04  0.35986704616E+04 0.  0.
        3    1    3    3  502    0  0.15902406997E+03 -0.42736002043E+03 -0.21218513685E+04  0.21702945612E+04  0.10100000352E+00 0. -1.
       -3    1    3    3    0  502 -0.15902406997E+03  0.42736002043E+03  0.14241651449E+04  0.14953834331E+04  0.10100000352E+00 0.  1.
</event>
<event>
 5   0  0.8024500E-09  0.3600676E+04  0.7818609E-02  0.8090337E-01
        1   -1    0    0  501    0  0.00000000000E+00  0.00000000000E+00  0.16331315645E+04  0.16331315645E+04  0.50400001928E-02 0. -1.
       -1   -1    0    0    0  501  0.00000000000E+00  0.00000000000E+00 -0.19846631545E+04  0.19846631545E+04  0.50400001928E-02 0.  1.
    10030    2    1    2    0    0  0.00000000000E+00  0.00000000000E+00 -0.35153158997E+03  0.36177947190E+04  0.36006755158E+04 0.  0.
        1    1    3    3  502    0  0.64687235748E+03  0.14688403823E+04  0.64375921203E+03  0.17292662718E+04  0.50400001928E-02 0. -1.
       -1    1    3    3    0  502 -0.64687235748E+03 -0.14688403823E+04 -0.99529080200E+03  0.18885284473E+04  0.50400001928E-02 0.  1.
</event>
<event>
 5   0  0.2494592E-08  0.3599792E+04  0.7818609E-02  0.8090539E-01
        2   -1    0    0  501    0  0.00000000000E+00  0.00000000000E+00  0.16390039180E+04  0.16390039180E+04  0.25500000920E-02 0. -1.
       -2   -1    0    0    0  501  0.00000000000E+00  0.00000000000E+00 -0.19765825244E+04  0.19765825244E+04  0.25500000920E-02 0.  1.
    10030    2    1    2    0    0  0.00000000000E+00  0.00000000000E+00 -0.33757860647E+03  0.36155864424E+04  0.35997924950E+04 0.  0.
        1    1    3    3  502    0 -0.70916010480E+03  0.16540686036E+04 -0.19675932310E+03  0.18104047146E+04  0.50400001928E-02 0. -1.
       -1    1    3    3    0  502  0.70916010480E+03 -0.16540686036E+04 -0.14081928337E+03  0.18051817277E+04  0.50400001928E-02 0.  1.
</event>
<event>
 5   0  0.8063410E-09  0.3601226E+04  0.7818609E-02  0.8090211E-01
       -1   -1    0    0    0  501  0.00000000000E+00  0.00000000000E+00  0.15730003565E+04  0.15730003565E+04  0.50400001928E-02 0. -1.
        1   -1    0    0  501    0  0.00000000000E+00  0.00000000000E+00 -0.20611607761E+04  0.20611607761E+04  0.50400001928E-02 0.  1.
    10030    2    1    2    0    0  0.00000000000E+00  0.00000000000E+00 -0.48816041953E+03  0.36341611326E+04  0.36012257000E+04 0.  0.
        2    1    3    3  502    0 -0.10091147507E+04  0.74465841982E+03 -0.15479408263E+04  0.19922222627E+04  0.25500000920E-02 0.  1.
       -2    1    3    3    0  502  0.10091147507E+04 -0.74465841982E+03  0.10597804067E+04  0.16419388700E+04  0.25500000920E-02 0. -1.
</event>
<event>
 5   0  0.8024500E-09  0.3600118E+04  0.7818609E-02  0.8090465E-01
       -1   -1    0    0    0  501  0.00000000000E+00  0.00000000000E+00  0.13667010511E+04  0.13667010511E+04  0.50400001928E-02 0.  1.
        1   -1    0    0  501    0  0.00000000000E+00  0.00000000000E+00 -0.23708269041E+04  0.23708269041E+04  0.50400001928E-02 0. -1.
    10030    2    1    2    0    0  0.00000000000E+00  0.00000000000E+00 -0.10041258530E+04  0.37375279552E+04  0.36001175658E+04 0.  0.
        1    1    3    3  502    0 -0.98107563251E+03 -0.14646449062E+04 -0.12413896995E+03  0.17672307664E+04  0.50400001928E-02 0.  1.
       -1    1    3    3    0  502  0.98107563251E+03  0.14646449062E+04 -0.87998688304E+03  0.19702971888E+04  0.50400001928E-02 0. -1.
</event>
<event>
 5   0  0.8063410E-09  0.3598857E+04  0.7818609E-02  0.8090754E-01
       -1   -1    0    0    0  501  0.00000000000E+00  0.00000000000E+00  0.12952782688E+04  0.12952782688E+04  0.50400001928E-02 0.  1.
        1   -1    0    0  501    0  0.00000000000E+00  0.00000000000E+00 -0.24998050546E+04  0.24998050546E+04  0.50400001928E-02 0. -1.
    10030    2    1    2    0    0  0.00000000000E+00  0.00000000000E+00 -0.12045267858E+04  0.37950833234E+04  0.35988571316E+04 0.  0.
        2    1    3    3  502    0  0.83137228476E+03 -0.10754348154E+03 -0.22813095082E+04  0.24304564486E+04  0.25500000920E-02 0. -1.
       -2    1    3    3    0  502 -0.83137228476E+03  0.10754348154E+03  0.10767827223E+04  0.13646268748E+04  0.25500000920E-02 0.  1.
</event>
<event>
 5   0  0.2494592E-08  0.3599801E+04  0.7818609E-02  0.8090537E-01
        2   -1    0    0  501    0  0.00000000000E+00  0.00000000000E+00  0.18638328675E+04  0.18638328675E+04  0.25500000920E-02 0. -1.
       -2   -1    0    0    0  501  0.00000000000E+00  0.00000000000E+00 -0.17381610818E+04  0.17381610818E+04  0.25500000920E-02 0.  1.
    10030    2    1    2    0    0  0.00000000000E+00  0.00000000000E+00  0.12567178566E+03  0.36019939493E+04  0.35998009685E+04 0.  0.
        1    1    3    3  502    0  0.74461109612E+03  0.15929536903E+04  0.44738057663E+03  0.18144135483E+04  0.50400001928E-02 0. -1.
       -1    1    3    3    0  502 -0.74461109612E+03 -0.15929536903E+04 -0.32170879097E+03  0.17875804010E+04  0.50400001928E-02 0.  1.
</event>
<event>
 5   0  0.8146881E-09  0.3599198E+04  0.7818609E-02  0.8090676E-01
       -1   -1    0    0    0  501  0.00000000000E+00  0.00000000000E+00  0.16827808568E+04  0.16827808568E+04  0.50400001928E-02 0.  1.
        1   -1    0    0  501    0  0.00000000000E+00  0.00000000000E+00 -0.19245261222E+04  0.19245261222E+04  0.50400001928E-02 0. -1.
    10030    2    1    2    0    0  0.00000000000E+00  0.00000000000E+00 -0.24174526541E+03  0.36073069790E+04  0.35991975310E+04 0.  0.
        4    1    3    3  502    0  0.26455929630E+03 -0.14944998759E+04 -0.10900221796E+04  0.18686014731E+04  0.12699999809E+01 0. -1.
       -4    1    3    3    0  502 -0.26455929630E+03  0.14944998759E+04  0.84827691421E+03  0.17387055059E+04  0.12699999809E+01 0.  1.
</event>
<event>
 5   0  0.8063410E-09  0.3601236E+04  0.7818609E-02  0.8090209E-01
       -1   -1    0    0    0  501  0.00000000000E+00  0.00000000000E+00  0.16324299819E+04  0.16324299819E+04  0.50400001928E-02 0.  1.
        1   -1    0    0  501    0  0.00000000000E+00  0.00000000000E+00 -0.19861339231E+04  0.19861339231E+04  0.50400001928E-02 0. -1.
    10030    2    1    2    0    0  0.00000000000E+00  0.00000000000E+00 -0.35370394118E+03  0.36185639050E+04  0.36012356569E+04 0.  0.
        2    1    3    3  502    0  0.13479497933E+04 -0.86722001115E+03 -0.10012786548E+04  0.18898672275E+04  0.25500000920E-02 0. -1.
       -2    1    3    3    0  502 -0.13479497933E+04  0.86722001115E+03  0.64757471360E+03  0.17286966775E+04  0.25500000920E-02 0.  1.
</event>
<event>
 5   0  0.2476968E-08  0.3599566E+04  0.7818609E-02  0.8090591E-01
       -2   -1    0    0    0  501  0.00000000000E+00  0.00000000000E+00  0.13943283513E+04  0.13943283513E+04  0.25500000920E-02 0.  1.
        2   -1    0    0  501    0  0.00000000000E+00  0.00000000000E+00 -0.23231392244E+04  0.23231392244E+04  0.25500000920E-02 0. -1.
    10030    2    1    2    0    0  0.00000000000E+00  0.00000000000E+00 -0.92881087303E+03  0.37174675757E+04  0.35995660208E+04 0.  0.
        2    1    3    3  502    0 -0.22346786065E+03 -0.14814021703E+04 -0.14944341945E+04  0.21160869161E+04  0.25500000920E-02 0. -1.
       -2    1    3    3    0  502  0.22346786065E+03  0.14814021703E+04  0.56562332143E+03  0.16013806596E+04  0.25500000920E-02 0.  1.
</event>
<event>
 5   0  0.8247570E-09  0.3600100E+04  0.7818609E-02  0.8090469E-01
        1   -1    0    0  501    0  0.00000000000E+00  0.00000000000E+00  0.15363556220E+04  0.15363556220E+04  0.50400001928E-02 0. -1.
       -1   -1    0    0    0  501  0.00000000000E+00  0.00000000000E+00 -0.21090037488E+04  0.21090037488E+04  0.50400001928E-02 0.  1.
    10030    2    1    2    0    0  0.00000000000E+00  0.00000000000E+00 -0.57264812675E+03  0.36453593708E+04  0.36000998688E+04 0.  0.
        3    1    3    3  502    0 -0.63625760320E+03  0.18691506868E+03 -0.19808073545E+04  0.20888654256E+04  0.10100000352E+00 0.  1.
       -3    1    3    3    0  502  0.63625760320E+03 -0.18691506868E+03  0.14081592278E+04  0.15564939452E+04  0.10100000352E+00 0. -1.
</event>
<event>
 5   0  0.2482243E-08  0.3602934E+04  0.7818609E-02  0.8089820E-01
       -2   -1    0    0    0  501  0.00000000000E+00  0.00000000000E+00  0.14605163103E+04  0.14605163103E+04  0.25500000920E-02 0.  1.
        2   -1    0    0  501    0  0.00000000000E+00  0.00000000000E+00 -0.22220108291E+04  0.22220108291E+04  0.25500000920E-02 0. -1.
    10030    2    1    2    0    0  0.00000000000E+00  0.00000000000E+00 -0.76149451875E+03  0.36825271394E+04  0.36029338365E+04 0.  0.
        5    1    3    3  502    0  0.39513635626E+03  0.10835106377E+04  0.10337077260E+04  0.15487742879E+04  0.46999998093E+01 0.  1.
       -5    1    3    3    0  502 -0.39513635626E+03 -0.10835106377E+04 -0.17952022447E+04  0.21337528515E+04  0.46999998093E+01 0. -1.
</event>
<event>
 5   0  0.8247570E-09  0.3599662E+04  0.7818609E-02  0.8090569E-01
       -1   -1    0    0    0  501  0.00000000000E+00  0.00000000000E+00  0.16223732680E+04  0.16223732680E+04  0.50400001928E-02 0.  1.
        1   -1    0    0  501    0  0.00000000000E+00  0.00000000000E+00 -0.19966988893E+04  0.19966988893E+04  0.50400001928E-02 0. -1.
    10030    2    1    2    0    0  0.00000000000E+00  0.00000000000E+00 -0.37432562125E+03  0.36190721573E+04  0.35996615964E+04 0.  0.
        3    1    3    3  502    0  0.20636172249E+03  0.14433792330E+04 -0.12480599812E+04  0.19192661352E+04  0.10100000352E+00 0. -1.
       -3    1    3    3    0  502 -0.20636172249E+03 -0.14433792330E+04  0.87373435994E+03  0.16998060221E+04  0.10100000352E+00 0.  1.
</event>
<event>
 5   0  0.2476968E-08  0.3598247E+04  0.7818609E-02  0.8090893E-01
        2   -1    0    0  501    0  0.00000000000E+00  0.00000000000E+00  0.17925650711E+04  0.17925650711E+04  0.25500000920E-02 0.  1.
       -2   -1    0    0    0  501  0.00000000000E+00  0.00000000000E+00 -0.18057058874E+04  0.18057058874E+04  0.25500000920E-02 0. -1.
    10030    2    1    2    0    0  0.00000000000E+00  0.00000000000E+00 -0.13140816326E+02  0.35982709585E+04  0.35982469634E+04 0.  0.
        2    1    3    3  502    0  0.27280319488E+03  0.11729216834E+04  0.13301054213E+04  0.17942539648E+04  0.25500000920E-02 0.  1.
       -2    1    3    3    0  502 -0.27280319488E+03 -0.11729216834E+04 -0.13432462376E+04  0.18040169937E+04  0.25500000920E-02 0. -1.
</event>
<event>
 5   0  0.2476968E-08  0.3597197E+04  0.7818609E-02  0.8091134E-01
       -2   -1    0    0    0  501  0.00000000000E+00  0.00000000000E+00  0.13355865457E+04  0.13355865457E+04  0.25500000920E-02 0. -1.
        2   -1    0    0  501    0  0.00000000000E+00  0.00000000000E+00 -0.24221246091E+04  0.24221246091E+04  0.25500000920E-02 0.  1.
    10030    2    1    2    0    0  0.00000000000E+00  0.00000000000E+00 -0.10865380634E+04  0.37577111548E+04  0.35971972644E+04 0.  0.
        2    1    3    3  502    0 -0.15627163963E+04  0.88608300324E+03 -0.45141702224E+03  0.18522966695E+04  0.25500000920E-02 0. -1.
       -2    1    3    3    0  502  0.15627163963E+04 -0.88608300324E+03 -0.63512104119E+03  0.19054144853E+04  0.25500000920E-02 0.  1.
</event>
<event>
 5   0  0.8024500E-09  0.3599596E+04  0.7818609E-02  0.8090584E-01
       -1   -1    0    0    0  501  0.00000000000E+00  0.00000000000E+00  0.20153781538E+04  0.20153781538E+04  0.50400001928E-02 0. -1.
        1   -1    0    0  501    0  0.00000000000E+00  0.00000000000E+00 -0.16072777340E+04  0.16072777340E+04  0.50400001928E-02 0.  1.
    10030    2    1    2    0    0  0.00000000000E+00  0.00000000000E+00  0.40810041986E+03  0.36226558878E+04  0.35995957730E+04 0.  0.
        1    1    3    3  502    0  0.59316731498E+03  0.13935537570E+04 -0.77451259472E+03  0.17010906197E+04  0.50400001928E-02 0.  1.
       -1    1    3    3    0  502 -0.59316731498E+03 -0.13935537570E+04  0.11826130146E+04  0.19215652681E+04  0.50400001928E-02 0. -1.
</event>
<event>
 5   0  0.2608070E-08  0.3599735E+04  0.7818609E-02  0.8090552E-01
        2   -1    0    0  501    0  0.00000000000E+00  0.00000000000E+00  0.19966076457E+04  0.19966076457E+04  0.25500000920E-02 0. -1.
       -2   -1    0    0    0  501  0.00000000000E+00  0.00000000000E+00 -0.16225136937E+04  0.16225136938E+04  0.25500000920E-02 0.  1.
    10030    2    1    2    0    0  0.00000000000E+00  0.00000000000E+00  0.37409395192E+03  0.36191213394E+04  0.35997351270E+04 0.  0.
        3    1    3    3  502    0 -0.14958569927E+04  0.18950592633E+03  0.11752046343E+04  0.19117025348E+04  0.10100000352E+00 0. -1.
       -3    1    3    3    0  502  0.14958569927E+04 -0.18950592633E+03 -0.80111068235E+03  0.17074188046E+04  0.10100000352E+00 0.  1.
</event>
<event>
 5   0  0.2476968E-08  0.3591022E+04  0.7818609E-02  0.8092551E-01
        2   -1    0    0  501    0  0.00000000000E+00  0.00000000000E+00  0.28731587091E+04  0.28731587091E+04  0.25500000920E-02 0. -1.
       -2   -1    0    0    0  501  0.00000000000E+00  0.00000000000E+00 -0.11220612130E+04  0.11220612130E+04  0.25500000920E-02 0.  1.
    10030    2    1    2    0    0  0.00000000000E+00  0.00000000000E+00  0.17510974961E+04  0.39952199221E+04  0.35910221087E+04 0.  0.
        2    1    3    3  502    0  0.91742874529E+03  0.13464436851E+04  0.36121180728E+02  0.16296904122E+04  0.25500000920E-02 0.  1.
       -2    1    3    3    0  502 -0.91742874529E+03 -0.13464436851E+04  0.17149763154E+04  0.23655295099E+04  0.25500000920E-02 0. -1.
</event>
<event>
 5   0  0.8247570E-09  0.3599899E+04  0.7818609E-02  0.8090515E-01
        1   -1    0    0  501    0  0.00000000000E+00  0.00000000000E+00  0.22661695068E+04  0.22661695068E+04  0.50400001928E-02 0.  1.
       -1   -1    0    0    0  501  0.00000000000E+00  0.00000000000E+00 -0.14296451171E+04  0.14296451171E+04  0.50400001928E-02 0. -1.
    10030    2    1    2    0    0  0.00000000000E+00  0.00000000000E+00  0.83652438976E+03  0.36958146239E+04  0.35998989819E+04 0.  0.
        3    1    3    3  502    0 -0.12471289630E+04 -0.61528962403E+03  0.15914724632E+04  0.21134560755E+04  0.10100000352E+00 0.  1.
       -3    1    3    3    0  502  0.12471289630E+04  0.61528962403E+03 -0.75494807343E+03  0.15823585484E+04  0.10100000352E+00 0. -1.
</event>
<event>
 5   0  0.8024500E-09  0.3615911E+04  0.7818609E-02  0.8086857E-01
        1   -1    0    0  501    0  0.00000000000E+00  0.00000000000E+00  0.22410825153E+04  0.22410825153E+04  0.50400001928E-02 0.  1.
       -1   -1    0    0    0  501  0.00000000000E+00  0.00000000000E+00 -0.14585376072E+04  0.14585376072E+04  0.50400001928E-02 0. -1.
    10030    2    1    2    0    0  0.00000000000E+00  0.00000000000E+00  0.78254490813E+03  0.36996201225E+04  0.36159110218E+04 0.  0.
        5    1    3    3  502    0 -0.15000493656E+04 -0.25804976818E+03 -0.60699044103E+03  0.16386571537E+04  0.46999998093E+01 0. -1.
       -5    1    3    3    0  502  0.15000493656E+04  0.25804976818E+03  0.13895353492E+04  0.20609629688E+04  0.46999998093E+01 0.  1.
</event>
<event>
 5   0  0.8146881E-09  0.3599570E+04  0.7818609E-02  0.8090590E-01
       -1   -1    0    0    0  501  0.00000000000E+00  0.00000000000E+00  0.15052322126E+04  0.15052322127E+04  0.50400001928E-02 0.  1.
        1   -1    0    0  501    0  0.00000000000E+00  0.00000000000E+00 -0.21519777576E+04  0.21519777576E+04  0.50400001928E-02 0. -1.
    10030    2    1    2    0    0  0.00000000000E+00  0.00000000000E+00 -0.64674554498E+03  0.36572099703E+04  0.35995701086E+04 0.  0.
        4    1    3    3  502    0 -0.83586487404E+03 -0.14728121143E+04 -0.94253996949E+03  0.19380992798E+04  0.12699999809E+01 0. -1.
       -4    1    3    3    0  502  0.83586487404E+03  0.14728121143E+04  0.29579442451E+03  0.17191106904E+04  0.12699999809E+01 0.  1.
</event>
<event>
 5   0  0.2608070E-08  0.3599568E+04  0.7818609E-02  0.8090591E-01
       -2   -1    0    0    0  501  0.00000000000E+00  0.00000000000E+00  0.12160315758E+04  0.12160315758E+04  0.25500000920E-02 0.  1.
        2   -1    0    0  501    0  0.00000000000E+00  0.00000000000E+00 -0.26637655262E+04  0.26637655262E+04  0.25500000920E-02 0. -1.
    10030    2    1    2    0    0  0.00000000000E+00  0.00000000000E+00 -0.14477339504E+04  0.38797971020E+04  0.35995683021E+04 0.  0.
        3    1    3    3  502    0  0.12566507973E+04 -0.75736619992E+03 -0.18473411830E+04  0.23591193788E+04  0.10100000352E+00 0. -1.
       -3    1    3    3    0  502 -0.12566507973E+04  0.75736619992E+03  0.39960723260E+03  0.15206777231E+04  0.10100000352E+00 0.  1.
</event>
<event>
 5   0  0.2476968E-08  0.3599986E+04  0.7818609E-02  0.8090495E-01
       -2   -1    0    0    0  501  0.00000000000E+00  0.00000000000E+00  0.22362205780E+04  0.22362205780E+04  0.25500000920E-02 0. -1.
        2   -1    0    0  501    0  0.00000000000E+00  0.00000000000E+00 -0.14488620331E+04  0.14488620331E+04  0.25500000920E-02 0.  1.
    10030    2    1    2    0    0  0.00000000000E+00  0.00000000000E+00  0.78735854491E+03  0.36850826110E+04  0.35999861627E+04 0.  0.
        2    1    3    3  502    0 -0.58707174730E+03  0.40737432640E+03  0.20848110316E+04  0.22038702584E+04  0.25500000920E-02 0. -1.
       -2    1    3    3    0  502  0.58707174730E+03 -0.40737432640E+03 -0.12974524867E+04  0.14812123526E+04  0.25500000920E-02 0.  1.
</event>
<event>
 5   0  0.2590795E-08  0.3598742E+04  0.7818609E-02  0.8090780E-01
        2   -1    0    0  501    0  0.00000000000E+00  0.00000000000E+00  0.19668911778E+04  0.19668911778E+04  0.25500000920E-02 0. -1.
       -2   -1    0    0    0  501  0.00000000000E+00  0.00000000000E+00 -0.16461181887E+04  0.16461181887E+04  0.25500000920E-02 0.  1.
    10030    2    1    2    0    0  0.00000000000E+00  0.00000000000E+00  0.32077298917E+03  0.36130093665E+04  0.35987416373E+04 0.  0.
        4    1    3    3  502    0 -0.67314634796E+03  0.14151231961E+04  0.10482194347E+04  0.18853289533E+04  0.12699999809E+01 0. -1.
       -4    1    3    3    0  502  0.67314634796E+03 -0.14151231961E+04 -0.72744644555E+03  0.17276804132E+04  0.12699999809E+01 0.  1.
</event>
<event>
 5   0  0.8063410E-09  0.3601710E+04  0.7818609E-02  0.8090100E-01
        1   -1    0    0  501    0  0.00000000000E+00  0.00000000000E+00  0.24388408833E+04  0.24388408833E+04  0.50400001928E-02 0. -1.
       -1   -1    0    0    0  501  0.00000000000E+00  0.00000000000E+00 -0.13297619891E+04  0.13297619891E+04  0.50400001928E-02 0.  1.
    10030    2    1    2    0    0  0.00000000000E+00  0.00000000000E+00  0.11090788942E+04  0.37686028724E+04  0.36017095408E+04 0.  0.
        2    1    3    3  502    0 -0.11746921114E+04  0.17198872456E+03  0.19713883615E+04  0.23012722024E+04  0.25500000920E-02 0. -1.
       -2    1    3    3    0  502  0.11746921114E+04 -0.17198872456E+03 -0.86230946722E+03  0.14673306700E+04  0.25500000920E-02 0.  1.
</event>
<event>
 5   0  0.2494592E-08  0.3600264E+04  0.7818609E-02  0.8090431E-01
        2   -1    0    0  501    0  0.00000000000E+00  0.00000000000E+00  0.15379106490E+04  0.15379106490E+04  0.25500000920E-02 0. -1.
       -2   -1    0    0    0  501  0.00000000000E+00  0.00000000000E+00 -0.21070631000E+04  0.21070631000E+04  0.25500000920E-02 0.  1.
    10030    2    1    2    0    0  0.00000000000E+00  0.00000000000E+00 -0.56915245100E+03  0.36449737490E+04  0.36002637568E+04 0.  0.
        1    1    3    3  502    0  0.47708241516E+02 -0.40021255297E+03  0.14916423719E+04  0.15451353110E+04  0.50400001928E-02 0. -1.
       -1    1    3    3    0  502 -0.47708241516E+02  0.40021255297E+03 -0.20607948228E+04  0.20998384380E+04  0.50400001928E-02 0.  1.
</event>
<event>
 5   0  0.2476968E-08  0.3600138E+04  0.7818609E-02  0.8090460E-01
        2   -1    0    0  501    0  0.00000000000E+00  0.00000000000E+00  0.15842900492E+04  0.15842900492E+04  0.25500000920E-02 0.  1.
       -2   -1    0    0    0  501  0.00000000000E+00  0.00000000000E+00 -0.20452364220E+04  0.20452364220E+04  0.25500000920E-02 0. -1.
    10030    2    1    2    0    0  0.00000000000E+00  0.00000000000E+00 -0.46094637277E+03  0.36295264712E+04  0.36001376149E+04 0.  0.
        2    1    3    3  502    0 -0.14379344147E+04 -0.98946108109E+03 -0.67401816087E+03  0.18710930210E+04  0.25500000920E-02 0.  1.
       -2    1    3    3    0  502  0.14379344147E+04  0.98946108109E+03  0.21307178810E+03  0.17584334502E+04  0.25500000920E-02 0. -1.
</event>
<event>
 5   0  0.8024500E-09  0.3600281E+04  0.7818609E-02  0.8090427E-01
        1   -1    0    0  501    0  0.00000000000E+00  0.00000000000E+00  0.18843228959E+04  0.18843228959E+04  0.50400001928E-02 0.  1.
       -1   -1    0    0    0  501  0.00000000000E+00  0.00000000000E+00 -0.17197193810E+04  0.17197193810E+04  0.50400001928E-02 0. -1.
    10030    2    1    2    0    0  0.00000000000E+00  0.00000000000E+00  0.16460351489E+03  0.36040422769E+04  0.36002814358E+04 0.  0.
        1    1    3    3  502    0 -0.12406990186E+04  0.11979886821E+04  0.59858818326E+03  0.18256009286E+04  0.50400001928E-02 0.  1.
       -1    1    3    3    0  502  0.12406990186E+04 -0.11979886821E+04 -0.43398466837E+03  0.17784413484E+04  0.50400001928E-02 0. -1.
</event>
<event>
 5   0  0.8024500E-09  0.3597398E+04  0.7818609E-02  0.8091088E-01
        1   -1    0    0  501    0  0.00000000000E+00  0.00000000000E+00  0.22727542940E+04  0.22727542940E+04  0.50400001928E-02 0.  1.
       -1   -1    0    0    0  501  0.00000000000E+00  0.00000000000E+00 -0.14235228915E+04  0.14235228915E+04  0.50400001928E-02 0. -1.
    10030    2    1    2    0    0  0.00000000000E+00  0.00000000000E+00  0.84923140244E+03  0.36962771855E+04  0.35973978175E+04 0.  0.
        5    1    3    3  502    0  0.10588443848E+04 -0.14538476029E+04  0.44692400161E+03  0.18532639955E+04  0.46999998093E+01 0. -1.
       -5    1    3    3    0  502 -0.10588443848E+04  0.14538476029E+04  0.40230740082E+03  0.18430131900E+04  0.46999998093E+01 0.  1.
</event>
<event>
 5   0  0.8146881E-09  0.3603261E+04  0.7818609E-02  0.8089745E-01
        1   -1    0    0  501    0  0.00000000000E+00  0.00000000000E+00  0.12505061052E+04  0.12505061052E+04  0.50400001928E-02 0.  1.
       -1   -1    0    0    0  501  0.00000000000E+00  0.00000000000E+00 -0.25956467404E+04  0.25956467404E+04  0.50400001928E-02 0. -1.
    10030    2    1    2    0    0  0.00000000000E+00  0.00000000000E+00 -0.13451406352E+04  0.38461528456E+04  0.36032607986E+04 0.  0.
        4    1    3    3  502    0 -0.13765695566E+04 -0.27616384578E+03 -0.18776841372E+04  0.23445489003E+04  0.12699999809E+01 0. -1.
       -4    1    3    3    0  502  0.13765695566E+04  0.27616384578E+03  0.53254350200E+03  0.15016039452E+04  0.12699999809E+01 0.  1.
</event>
<event>
 5   0  0.8247570E-09  0.3599921E+04  0.7818609E-02  0.8090510E-01
        1   -1    0    0  501    0  0.00000000000E+00  0.00000000000E+00  0.19506409242E+04  0.19506409242E+04  0.50400001928E-02 0.  1.
       -1   -1    0    0    0  501  0.00000000000E+00  0.00000000000E+00 -0.16609199264E+04  0.16609199264E+04  0.50400001928E-02 0. -1.
    10030    2    1    2    0    0  0.00000000000E+00  0.00000000000E+00  0.28972099784E+03  0.36115608506E+04  0.35999213215E+04 0.  0.
        3    1    3    3  502    0 -0.17604079805E+04 -0.37054266142E+03  0.20438401583E+03  0.18105554280E+04  0.10100000352E+00 0. -1.
       -3    1    3    3    0  502  0.17604079805E+04  0.37054266142E+03  0.85336982010E+02  0.18010054226E+04  0.10100000352E+00 0.  1.
</event>
<event>
 5   0  0.2608070E-08  0.3604935E+04  0.7818609E-02  0.8089362E-01
        2   -1    0    0  501    0  0.00000000000E+00  0.00000000000E+00  0.24430072453E+04  0.24430072453E+04  0.25500000920E-02 0. -1.
       -2   -1    0    0    0  501  0.00000000000E+00  0.00000000000E+00 -0.13298732377E+04  0.13298732377E+04  0.25500000920E-02 0.  1.
    10030    2    1    2    0    0  0.00000000000E+00  0.00000000000E+00  0.11131340077E+04  0.37728804830E+04  0.36049354807E+04 0.  0.
        3    1    3    3  502    0  0.72286312077E+03 -0.16387509129E+04  0.34502606261E+03  0.18240281357E+04  0.10100000352E+00 0.  1.
       -3    1    3    3    0  502 -0.72286312077E+03  0.16387509129E+04  0.76810794508E+03  0.19488523473E+04  0.10100000352E+00 0. -1.
</event>
<event>
 5   0  0.8146881E-09  0.3598124E+04  0.7818609E-02  0.8090922E-01
        1   -1    0    0  501    0  0.00000000000E+00  0.00000000000E+00  0.16995759377E+04  0.16995759377E+04  0.50400001928E-02 0. -1.
       -1   -1    0    0    0  501  0.00000000000E+00  0.00000000000E+00 -0.19043715676E+04  0.19043715676E+04  0.50400001928E-02 0.  1.
    10030    2    1    2    0    0  0.00000000000E+00  0.00000000000E+00 -0.20479562998E+03  0.36039475053E+04  0.35981240072E+04 0.  0.
        4    1    3    3  502    0  0.65222174656E+03  0.13773639912E+04 -0.10600297925E+04  0.18563915387E+04  0.12699999809E+01 0.  1.
       -4    1    3    3    0  502 -0.65222174656E+03 -0.13773639912E+04  0.85523416255E+03  0.17475559666E+04  0.12699999809E+01 0. -1.
</event>
<event>
 5   0  0.2494592E-08  0.3606150E+04  0.7818609E-02  0.8089084E-01
       -2   -1    0    0    0  501  0.00000000000E+00  0.00000000000E+00  0.22090281239E+04  0.22090281239E+04  0.25500000920E-02 0.  1.
        2   -1    0    0  501    0  0.00000000000E+00  0.00000000000E+00 -0.14717236750E+04  0.14717236750E+04  0.25500000920E-02 0. -1.
    10030    2    1    2    0    0  0.00000000000E+00  0.00000000000E+00  0.73730444890E+03  0.36807517989E+04  0.36061497410E+04 0.  0.
        1    1    3    3  502    0  0.66394542227E+03  0.14730943862E+04 -0.44805618160E+03  0.16767781416E+04  0.50400001928E-02 0. -1.
       -1    1    3    3    0  502 -0.66394542227E+03 -0.14730943862E+04  0.11853606305E+04  0.20039736572E+04  0.50400001928E-02 0.  1.
</event>
<event>
 5   0  0.8063410E-09  0.3600959E+04  0.7818609E-02  0.8090272E-01
       -1   -1    0    0    0  501  0.00000000000E+00  0.00000000000E+00  0.12112286908E+04  0.12112286908E+04  0.50400001928E-02 0.  1.
        1   -1    0    0  501    0  0.00000000000E+00  0.00000000000E+00 -0.26763953369E+04  0.26763953369E+04  0.50400001928E-02 0. -1.
    10030    2    1    2    0    0  0.00000000000E+00  0.00000000000E+00 -0.14651666462E+04  0.38876240277E+04  0.36009592166E+04 0.  0.
        2    1    3    3  502    0  0.84696103083E+03 -0.15887488782E+04 -0.71514726745E+03  0.19372407181E+04  0.25500000920E-02 0. -1.
       -2    1    3    3    0  502 -0.84696103083E+03  0.15887488782E+04 -0.75001937871E+03  0.19503833096E+04  0.25500000920E-02 0.  1.
</event>
<event>
 5   0  0.8247570E-09  0.3598245E+04  0.7818609E-02  0.8090894E-01
        1   -1    0    0  501    0  0.00000000000E+00  0.00000000000E+00  0.22803004633E+04  0.22803004633E+04  0.50400001928E-02 0. -1.
       -1   -1    0    0    0  501  0.00000000000E+00  0.00000000000E+00 -0.14194807673E+04  0.14194807673E+04  0.50400001928E-02 0.  1.
    10030    2    1    2    0    0  0.00000000000E+00  0.00000000000E+00  0.86081969601E+03  0.36997812306E+04  0.35982454899E+04 0.  0.
        3    1    3    3  502    0  0.27385049898E+03 -0.17304173218E+04  0.85123182632E+03  0.19478023092E+04  0.10100000352E+00 0. -1.
       -3    1    3    3    0  502 -0.27385049898E+03  0.17304173218E+04  0.95878696964E+01  0.17519789214E+04  0.10100000352E+00 0.  1.
</event>
<event>
 5   0  0.2590795E-08  0.3600396E+04  0.7818609E-02  0.8090401E-01
       -2   -1    0    0    0  501  0.00000000000E+00  0.00000000000E+00  0.13305486895E+04  0.13305486895E+04  0.25500000920E-02 0. -1.
        2   -1    0    0  501    0  0.00000000000E+00  0.00000000000E+00 -0.24356211032E+04  0.24356211032E+04  0.25500000920E-02 0.  1.
    10030    2    1    2    0    0  0.00000000000E+00  0.00000000000E+00 -0.11050724136E+04  0.37661697927E+04  0.36003957933E+04 0.  0.
        4    1    3    3  502    0  0.15123908366E+04  0.11832152297E+03 -0.15663808739E+04  0.21805679720E+04  0.12699999809E+01 0.  1.
       -4    1    3    3    0  502 -0.15123908366E+04 -0.11832152297E+03  0.46130846028E+03  0.15856018207E+04  0.12699999809E+01 0. -1.
</event>
<event>
 5   0  0.8146881E-09  0.3601154E+04  0.7818609E-02  0.8090227E-01
       -1   -1    0    0    0  501  0.00000000000E+00  0.00000000000E+00  0.21251864848E+04  0.21251864848E+04  0.50400001928E-02 0.  1.
        1   -1    0    0  501    0  0.00000000000E+00  0.00000000000E+00 -0.15255493785E+04  0.15255493785E+04  0.50400001928E-02 0. -1.
    10030    2    1    2    0    0  0.00000000000E+00  0.00000000000E+00  0.59963710625E+03  0.36507358633E+04  0.36011536602E+04 0.  0.
        4    1    3    3  502    0 -0.11931999342E+04 -0.75088441530E+03  0.14352943172E+04  0.20118709894E+04  0.12699999809E+01 0.  1.
       -4    1    3    3    0  502  0.11931999342E+04  0.75088441530E+03 -0.83565721094E+03  0.16388648740E+04  0.12699999809E+01 0. -1.
</event>
<event>
 5   0  0.2476968E-08  0.3599934E+04  0.7818609E-02  0.8090507E-01
        2   -1    0    0  501    0  0.00000000000E+00  0.00000000000E+00  0.18331432902E+04  0.18331432902E+04  0.25500000920E-02 0. -1.
       -2   -1    0    0    0  501  0.00000000000E+00  0.00000000000E+00 -0.17673914929E+04  0.17673914929E+04  0.25500000920E-02 0.  1.
    10030    2    1    2    0    0  0.00000000000E+00  0.00000000000E+00  0.65751797258E+02  0.36005347831E+04  0.35999343641E+04 0.  0.
        2    1    3    3  502    0 -0.11257342390E+04  0.10327388123E+04  0.98490377905E+03  0.18176530156E+04  0.25500000920E-02 0. -1.
       -2    1    3    3    0  502  0.11257342390E+04 -0.10327388123E+04 -0.91915198179E+03  0.17828817675E+04  0.25500000920E-02 0.  1.
</event>
<event>
 5   0  0.8024500E-09  0.3627559E+04  0.7818609E-02  0.8084208E-01
       -1   -1    0    0    0  501  0.00000000000E+00  0.00000000000E+00  0.15686110979E+04  0.15686110979E+04  0.50400001928E-02 0.  1.
        1   -1    0    0  501    0  0.00000000000E+00  0.00000000000E+00 -0.20972663488E+04  0.20972663488E+04  0.50400001928E-02 0. -1.
    10030    2    1    2    0    0  0.00000000000E+00  0.00000000000E+00 -0.52865525082E+03  0.36658774467E+04  0.36275585564E+04 0.  0.
        5    1    3    3  502    0 -0.10751492675E+04  0.64232302090E+03  0.10614945583E+04  0.16417422447E+04  0.46999998093E+01 0.  1.
       -5    1    3    3    0  502  0.10751492675E+04 -0.64232302090E+03 -0.15901498091E+04  0.20241352020E+04  0.46999998093E+01 0. -1.
</event>
<event>
 5   0  0.2608070E-08  0.3600480E+04  0.7818609E-02  0.8090382E-01
        2   -1    0    0  501    0  0.00000000000E+00  0.00000000000E+00  0.20489586635E+04  0.20489586635E+04  0.25500000920E-02 0.  1.
       -2   -1    0    0    0  501  0.00000000000E+00  0.00000000000E+00 -0.15817124757E+04  0.15817124757E+04  0.25500000920E-02 0. -1.
    10030    2    1    2    0    0  0.00000000000E+00  0.00000000000E+00  0.46724618780E+03  0.36306711393E+04  0.36004796794E+04 0.  0.
        3    1    3    3  502    0  0.19462365285E+03 -0.10967463966E+04  0.16597426202E+04  0.19988688301E+04  0.10100000352E+00 0.  1.
       -3    1    3    3    0  502 -0.19462365285E+03  0.10967463966E+04 -0.11924964324E+04  0.16318023091E+04  0.10100000352E+00 0. -1.
</event>
<event>
 5   0  0.8063410E-09  0.3600722E+04  0.7818609E-02  0.8090326E-01
       -1   -1    0    0    0  501  0.00000000000E+00  0.00000000000E+00  0.14574245175E+04  0.14574245175E+04  0.50400001928E-02 0. -1.
        1   -1    0    0  501    0  0.00000000000E+00  0.00000000000E+00 -0.22239913609E+04  0.22239913609E+04  0.50400001928E-02 0.  1.
    10030    2    1    2    0    0  0.00000000000E+00  0.00000000000E+00 -0.76656684345E+03  0.36814158784E+04  0.36007218921E+04 0.  0.
        2    1    3    3  502    0 -0.14029990709E+04  0.65645971890E+02 -0.15348389215E+04  0.20804918413E+04  0.25500000920E-02 0.  1.
       -2    1    3    3    0  502  0.14029990709E+04 -0.65645971890E+02  0.76827207809E+03  0.16009240371E+04  0.25500000920E-02 0. -1.
</event>
<event>
 5   0  0.2476968E-08  0.3598570E+04  0.7818609E-02  0.8090819E-01
       -2   -1    0    0    0  501  0.00000000000E+00  0.00000000000E+00  0.10961760499E+04  0.10961760499E+04  0.25500000920E-02 0. -1.
        2   -1    0    0  501    0  0.00000000000E+00  0.00000000000E+00 -0.29533821539E+04  0.29533821539E+04  0.25500000920E-02 0.  1.
    10030    2    1    2    0    0  0.00000000000E+00  0.00000000000E+00 -0.18572061041E+04  0.40495582038E+04  0.35985701512E+04 0.  0.
        2    1    3    3  502    0  0.21567695332E+03 -0.17861619972E+04 -0.95464536681E+03  0.20367226136E+04  0.25500000920E-02 0. -1.
       -2    1    3    3    0  502 -0.21567695332E+03  0.17861619972E+04 -0.90256073725E+03  0.20128355902E+04  0.25500000920E-02 0.  1.
</event>
<event>
 5   0  0.2494592E-08  0.3599501E+04  0.7818609E-02  0.8090606E-01
       -2   -1    0    0    0  501  0.00000000000E+00  0.00000000000E+00  0.13877200998E+04  0.13877200998E+04  0.25500000920E-02 0.  1.
        2   -1    0    0  501    0  0.00000000000E+00  0.00000000000E+00 -0.23341172692E+04  0.23341172692E+04  0.25500000920E-02 0. -1.
    10030    2    1    2    0    0  0.00000000000E+00  0.00000000000E+00 -0.94639716945E+03  0.37218373690E+04  0.35995007708E+04 0.  0.
        1    1    3    3  502    0  0.12947212960E+04 -0.11931916250E+04 -0.85882443304E+03  0.19589764918E+04  0.50400001928E-02 0. -1.
       -1    1    3    3    0  502 -0.12947212960E+04  0.11931916250E+04 -0.87572736406E+02  0.17628608773E+04  0.50400001928E-02 0.  1.
</event>
<event>
 5   0  0.8247570E-09  0.3599802E+04  0.7818609E-02  0.8090537E-01
       -1   -1    0    0    0  501  0.00000000000E+00  0.00000000000E+00  0.22421717470E+04  0.22421717470E+04  0.50400001928E-02 0. -1.
        1   -1    0    0  501    0  0.00000000000E+00  0.00000000000E+00 -0.14448683892E+04  0.14448683892E+04  0.50400001928E-02 0.  1.
    10030    2    1    2    0    0  0.00000000000E+00  0.00000000000E+00  0.79730335777E+03  0.36870401363E+04  0.35998017059E+04 0.  0.
        3    1    3    3  502    0  0.16090455928E+04 -0.79574636373E+03  0.26353396605E+03  0.18143015616E+04  0.10100000352E+00 0.  1.
       -3    1    3    3    0  502 -0.16090455928E+04  0.79574636373E+03  0.53376939172E+03  0.18727385746E+04  0.10100000352E+00 0. -1.
</event>
<event>
 5   0  0.8146881E-09  0.3599942E+04  0.7818609E-02  0.8090505E-01
       -1   -1    0    0    0  501  0.00000000000E+00  0.00000000000E+00  0.18687859490E+04  0.18687859490E+04  0.50400001928E-02 0. -1.
        1   -1    0    0  501    0  0.00000000000E+00  0.00000000000E+00 -0.17336895796E+04  0.17336895796E+04  0.50400001928E-02 0.  1.
    10030    2    1    2    0    0  0.00000000000E+00  0.00000000000E+00  0.13509636940E+03  0.36024755286E+04  0.35999415141E+04 0.  0.
        4    1    3    3  502    0 -0.10427360871E+04 -0.14126311960E+04  0.46414479235E+03  0.18161105265E+04  0.12699999809E+01 0. -1.
       -4    1    3    3    0  502  0.10427360871E+04  0.14126311960E+04 -0.32904842295E+03  0.17863650021E+04  0.12699999809E+01 0.  1.
</event>
<event>
 5   0  0.2476968E-08  0.3600008E+04  0.7818609E-02  0.8090490E-01
        2   -1    0    0  501    0  0.00000000000E+00  0.00000000000E+00  0.24236498223E+04  0.24236498223E+04  0.25500000920E-02 0. -1.
       -2   -1    0    0    0  501  0.00000000000E+00  0.00000000000E+00 -0.13368327108E+04  0.13368327108E+04  0.25500000920E-02 0.  1.
    10030    2    1    2    0    0  0.00000000000E+00  0.00000000000E+00  0.10868171116E+04  0.37604825331E+04  0.36000079788E+04 0.  0.
        2    1    3    3  502    0 -0.29565245626E+03  0.17652540976E+04  0.34389188884E+03  0.18225789517E+04  0.25500000920E-02 0.  1.
       -2    1    3    3    0  502  0.29565245626E+03 -0.17652540976E+04  0.74292522275E+03  0.19379035814E+04  0.25500000920E-02 0. -1.
</event>
<event>
 5   0  0.2590795E-08  0.3597409E+04  0.7818609E-02  0.8091085E-01
       -2   -1    0    0    0  501  0.00000000000E+00  0.00000000000E+00  0.29883302415E+04  0.29883302415E+04  0.25500000920E-02 0. -1.
        2   -1    0    0  501    0  0.00000000000E+00  0.00000000000E+00 -0.10826575672E+04  0.10826575672E+04  0.25500000920E-02 0.  1.
    10030    2    1    2    0    0  0.00000000000E+00  0.00000000000E+00  0.19056726744E+04  0.40709878087E+04  0.35974092618E+04 0.  0.
        4    1    3    3  502    0 -0.61279604141E+03  0.10225810208E+04  0.24770506929E+04  0.27489948491E+04  0.12699999809E+01 0. -1.
       -4    1    3    3    0  502  0.61279604141E+03 -0.10225810208E+04 -0.57137801849E+03  0.13219929596E+04  0.12699999809E+01 0.  1.
</event>
<event>
 5   0  0.2608070E-08  0.3600545E+04  0.7818609E-02  0.8090367E-01
        2   -1    0    0  501    0  0.00000000000E+00  0.00000000000E+00  0.16730381342E+04  0.16730381342E+04  0.25500000920E-02 0. -1.
       -2   -1    0    0    0  501  0.00000000000E+00  0.00000000000E+00 -0.19371828819E+04  0.19371828819E+04  0.25500000920E-02 0.  1.
    10030    2    1    2    0    0  0.00000000000E+00  0.00000000000E+00 -0.26414474769E+03  0.36102210160E+04  0.36005448667E+04 0.  0.
        3    1    3    3  502    0  0.10467958760E+04 -0.10103171527E+04  0.93118223237E+03  0.17273166227E+04  0.10100000352E+00 0. -1.
       -3    1    3    3    0  502 -0.10467958760E+04  0.10103171527E+04 -0.11953269801E+04  0.18829043933E+04  0.10100000352E+00 0.  1.
</event>
<event>
 5   0  0.2482243E-08  0.3600755E+04  0.7818609E-02  0.8090319E-01
       -2   -1    0    0    0  501  0.00000000000E+00  0.00000000000E+00  0.17906646551E+04  0.17906646551E+04  0.25500000920E-02 0.  1.
        2   -1    0    0  501    0  0.00000000000E+00  0.00000000000E+00 -0.18101427321E+04  0.18101427321E+04  0.25500000920E-02 0. -1.
    10030    2    1    2    0    0  0.00000000000E+00  0.00000000000E+00 -0.19478077005E+02  0.36008073872E+04  0.36007547049E+04 0.  0.
        5    1    3    3  502    0  0.78860682868E+03  0.22453021359E+03 -0.16125793765E+04  0.18090740401E+04  0.46999998093E+01 0. -1.
       -5    1    3    3    0  502 -0.78860682868E+03 -0.22453021359E+03  0.15931012995E+04  0.17917333472E+04  0.46999998093E+01 0.  1.
</event>
<event>
 5   0  0.8146881E-09  0.3597268E+04  0.7818609E-02  0.8091118E-01
        1   -1    0    0  501    0  0.00000000000E+00  0.00000000000E+00  0.30079245301E+04  0.30079245301E+04  0.50400001928E-02 0. -1.
       -1   -1    0    0    0  501  0.00000000000E+00  0.00000000000E+00 -0.10755201574E+04  0.10755201575E+04  0.50400001928E-02 0.  1.
    10030    2    1    2    0    0  0.00000000000E+00  0.00000000000E+00  0.19324043727E+04  0.40834446876E+04  0.35972675543E+04 0.  0.
        4    1    3    3  502    0  0.14200537168E+04  0.60266484913E+02  0.22173934692E+04  0.26338223209E+04  0.12699999809E+01 0. -1.
       -4    1    3    3    0  502 -0.14200537168E+04 -0.60266484913E+02 -0.28498909659E+03  0.14496223666E+04  0.12699999809E+01 0.  1.
</event>
<event>
 5   0  0.8024500E-09  0.3612424E+04  0.7818609E-02  0.8087652E-01
        1   -1    0    0  501    0  0.00000000000E+00  0.00000000000E+00  0.35804152360E+04  0.35804152360E+04  0.50400001928E-02 0. -1.
       -1   -1    0    0    0  501  0.00000000000E+00  0.00000000000E+00 -0.91117967726E+03  0.91117967728E+03  0.50400001928E-02 0.  1.
    10030    2    1    2    0    0  0.00000000000E+00  0.00000000000E+00  0.26692355587E+04  0.44915949133E+04  0.36124238950E+04 0.  0.
        5    1    3    3  502    0 -0.11356550296E+04  0.13979592213E+04  0.11660629139E+04  0.21456297770E+04  0.46999998093E+01 0. -1.
       -5    1    3    3    0  502  0.11356550296E+04 -0.13979592213E+04  0.15031726448E+04  0.23459651363E+04  0.46999998093E+01 0.  1.
</event>
<event>
 5   0  0.8024500E-09  0.3598629E+04  0.7818609E-02  0.8090806E-01
        1   -1    0    0  501    0  0.00000000000E+00  0.00000000000E+00  0.22487013550E+04  0.22487013550E+04  0.50400001928E-02 0.  1.
       -1   -1    0    0    0  501  0.00000000000E+00  0.00000000000E+00 -0.14397339902E+04  0.14397339903E+04  0.50400001928E-02 0. -1.
    10030    2    1    2    0    0  0.00000000000E+00  0.00000000000E+00  0.80896736474E+03  0.36884353452E+04  0.35986285025E+04 0.  0.
        1    1    3    3  502    0 -0.16695776886E+04  0.45297217338E+03  0.91166424163E+03  0.19554552252E+04  0.50400001928E-02 0.  1.
       -1    1    3    3    0  502  0.16695776886E+04 -0.45297217338E+03 -0.10269687688E+03  0.17329801201E+04  0.50400001928E-02 0. -1.
</event>
<event>
 5   0  0.2590795E-08  0.3601674E+04  0.7818609E-02  0.8090108E-01
        2   -1    0    0  501    0  0.00000000000E+00  0.00000000000E+00  0.20124863413E+04  0.20124863413E+04  0.25500000920E-02 0. -1.
       -2   -1    0    0    0  501  0.00000000000E+00  0.00000000000E+00 -0.16114460734E+04  0.16114460734E+04  0.25500000920E-02 0.  1.
    10030    2    1    2    0    0  0.00000000000E+00  0.00000000000E+00  0.40104026791E+03  0.36239324147E+04  0.36016736179E+04 0.  0.
        4    1    3    3  502    0 -0.15230736434E+04 -0.84578498160E+03 -0.25826494961E+03  0.17611950362E+04  0.12699999809E+01 0.  1.
       -4    1    3    3    0  502  0.15230736434E+04  0.84578498160E+03  0.65930521752E+03  0.18627373785E+04  0.12699999809E+01 0. -1.
</event>
<event>
 5   0  0.2590795E-08  0.3599752E+04  0.7818609E-02  0.8090549E-01
        2   -1    0    0  501    0  0.00000000000E+00  0.00000000000E+00  0.98569418088E+03  0.98569418088E+03  0.25500000920E-02 0. -1.
       -2   -1    0    0    0  501  0.00000000000E+00  0.00000000000E+00 -0.32865701179E+04  0.32865701179E+04  0.25500000920E-02 0.  1.
    10030    2    1    2    0    0  0.00000000000E+00  0.00000000000E+00 -0.23008759370E+04  0.42722642987E+04  0.35997516805E+04 0.  0.
        4    1    3    3  502    0 -0.64635527722E+03 -0.16636231759E+04 -0.14265729809E+04  0.22848477627E+04  0.12699999809E+01 0.  1.
       -4    1    3    3    0  502  0.64635527722E+03  0.16636231759E+04 -0.87430295608E+03  0.19874165361E+04  0.12699999809E+01 0. -1.
</event>
<event>
 5   0  0.8024500E-09  0.3598925E+04  0.7818609E-02  0.8090738E-01
       -3   -1    0    0    0  501  0.00000000000E+00  0.00000000000E+00  0.13573232836E+04  0.13573232873E+04  0.10100000352E+00 0. -1.
        3   -1    0    0  501    0  0.00000000000E+00  0.00000000000E+00 -0.23856257139E+04  0.23856257160E+04  0.10100000352E+00 0.  1.
    10030    2    1    2    0    0  0.00000000000E+00  0.00000000000E+00 -0.10283024303E+04  0.37429490033E+04  0.35989250275E+04 0.  0.
        5    1    3    3  502    0  0.12734793836E+04  0.40487091265E+03 -0.17675238301E+04  0.22158142469E+04  0.46999998093E+01 0.  1.
       -5    1    3    3    0  502 -0.12734793836E+04 -0.40487091265E+03  0.73922139983E+03  0.15271347565E+04  0.46999998093E+01 0. -1.
</event>
<event>
 5   0  0.2476968E-08  0.3601200E+04  0.7818609E-02  0.8090217E-01
        2   -1    0    0  501    0  0.00000000000E+00  0.00000000000E+00  0.21361748075E+04  0.21361748075E+04  0.25500000920E-02 0. -1.
       -2   -1    0    0    0  501  0.00000000000E+00  0.00000000000E+00 -0.15177410764E+04  0.15177410764E+04  0.25500000920E-02 0.  1.
    10030    2    1    2    0    0  0.00000000000E+00  0.00000000000E+00  0.61843373111E+03  0.36539158839E+04  0.36011999399E+04 0.  0.
        2    1    3    3  502    0  0.81145883059E+03 -0.63260929068E+03 -0.11900810576E+04  0.15731982939E+04  0.25500000920E-02 0.  1.
       -2    1    3    3    0  502 -0.81145883059E+03  0.63260929068E+03  0.18085147887E+04  0.20807175900E+04  0.25500000920E-02 0. -1.
</event>
<event>
 5   0  0.8063410E-09  0.3601926E+04  0.7818609E-02  0.8090051E-01
       -1   -1    0    0    0  501  0.00000000000E+00  0.00000000000E+00  0.31021652445E+04  0.31021652445E+04  0.50400001928E-02 0.  1.
        1   -1    0    0  501    0  0.00000000000E+00  0.00000000000E+00 -0.10455498779E+04  0.10455498779E+04  0.50400001928E-02 0. -1.
    10030    2    1    2    0    0  0.00000000000E+00  0.00000000000E+00  0.20566153667E+04  0.41477151224E+04  0.36019264249E+04 0.  0.
        2    1    3    3  502    0 -0.12137442544E+04  0.57127288165E+02  0.25590286319E+04  0.28328547758E+04  0.25500000920E-02 0.  1.
       -2    1    3    3    0  502  0.12137442544E+04 -0.57127288165E+02 -0.50241326521E+03  0.13148603466E+04  0.25500000920E-02 0. -1.
</event>
<event>
 5   0  0.8247570E-09  0.3597644E+04  0.7818609E-02  0.8091032E-01
       -1   -1    0    0    0  501  0.00000000000E+00  0.00000000000E+00  0.14534900123E+04  0.14534900123E+04  0.50400001928E-02 0.  1.
        1   -1    0    0  501    0  0.00000000000E+00  0.00000000000E+00 -0.22262005471E+04  0.22262005471E+04  0.50400001928E-02 0. -1.
    10030    2    1    2    0    0  0.00000000000E+00  0.00000000000E+00 -0.77271053474E+03  0.36796905594E+04  0.35976438182E+04 0.  0.
        3    1    3    3  502    0  0.14456047676E+04  0.87290491361E+03 -0.10201846743E+04  0.19729452380E+04  0.10100000352E+00 0. -1.
       -3    1    3    3    0  502 -0.14456047676E+04 -0.87290491361E+03  0.24747413953E+03  0.17067453214E+04  0.10100000352E+00 0.  1.
</event>
<event>
 5   0  0.2482243E-08  0.3599022E+04  0.7818609E-02  0.8090716E-01
        2   -1    0    0  501    0  0.00000000000E+00  0.00000000000E+00  0.25252766948E+04  0.25252766948E+04  0.25500000920E-02 0. -1.
       -2   -1    0    0    0  501  0.00000000000E+00  0.00000000000E+00 -0.12823305234E+04  0.12823305234E+04  0.25500000920E-02 0.  1.
    10030    2    1    2    0    0  0.00000000000E+00  0.00000000000E+00  0.12429461714E+04  0.38076072182E+04  0.35990217480E+04 0.  0.
        5    1    3    3  502    0  0.95028841030E+03 -0.99275328945E+03  0.18505295536E+04  0.23050138557E+04  0.46999998093E+01 0. -1.
       -5    1    3    3    0  502 -0.95028841030E+03  0.99275328945E+03 -0.60758338221E+03  0.15025933624E+04  0.46999998093E+01 0.  1.
</event>
<event>
 5   0  0.2494592E-08  0.3603091E+04  0.7818609E-02  0.8089784E-01
        2   -1    0    0  501    0  0.00000000000E+00  0.00000000000E+00  0.27623945903E+04  0.27623945903E+04  0.25500000920E-02 0.  1.
       -2   -1    0    0    0  501  0.00000000000E+00  0.00000000000E+00 -0.11749102292E+04  0.11749102292E+04  0.25500000920E-02 0. -1.
    10030    2    1    2    0    0  0.00000000000E+00  0.00000000000E+00  0.15874843611E+04  0.39373048196E+04  0.36030907074E+04 0.  0.
        1    1    3    3  502    0  0.11386003173E+04  0.13656415855E+04  0.47669547542E+03  0.18408221530E+04  0.50400001928E-02 0.  1.
       -1    1    3    3    0  502 -0.11386003173E+04 -0.13656415855E+04  0.11107888857E+04  0.20964826666E+04  0.50400001928E-02 0. -1.
</event>
<event>
 5   0  0.8146881E-09  0.3599965E+04  0.7818609E-02  0.8090500E-01
        1   -1    0    0  501    0  0.00000000000E+00  0.00000000000E+00  0.34621977421E+04  0.34621977421E+04  0.50400001928E-02 0.  1.
       -1   -1    0    0    0  501  0.00000000000E+00  0.00000000000E+00 -0.93580335490E+03  0.93580335492E+03  0.50400001928E-02 0. -1.
    10030    2    1    2    0    0  0.00000000000E+00  0.00000000000E+00  0.25263943872E+04  0.43980010971E+04  0.35999645901E+04 0.  0.
        4    1    3    3  502    0  0.57135462142E+03  0.14390983346E+04  0.23845391489E+04  0.28431459135E+04  0.12699999809E+01 0. -1.
       -4    1    3    3    0  502 -0.57135462142E+03 -0.14390983346E+04  0.14185523835E+03  0.15548551835E+04  0.12699999809E+01 0.  1.
</event>
<event>
 5   0  0.8146881E-09  0.3597306E+04  0.7818609E-02  0.8091109E-01
       -1   -1    0    0    0  501  0.00000000000E+00  0.00000000000E+00  0.17406985019E+04  0.17406985019E+04  0.50400001928E-02 0.  1.
        1   -1    0    0  501    0  0.00000000000E+00  0.00000000000E+00 -0.18585365901E+04  0.18585365901E+04  0.50400001928E-02 0. -1.
    10030    2    1    2    0    0  0.00000000000E+00  0.00000000000E+00 -0.11783808824E+03  0.35992350920E+04  0.35973055795E+04 0.  0.
        4    1    3    3  502    0  0.25353513179E+03  0.88011887510E+03  0.14898973544E+04  0.17489096709E+04  0.12699999809E+01 0.  1.
       -4    1    3    3    0  502 -0.25353513179E+03 -0.88011887510E+03 -0.16077354427E+04  0.18503254211E+04  0.12699999809E+01 0. -1.
</event>
<event>
 5   0  0.8024500E-09  0.3600397E+04  0.7818609E-02  0.8090401E-01
        1   -1    0    0  501    0  0.00000000000E+00  0.00000000000E+00  0.17297031938E+04  0.17297031938E+04  0.50400001928E-02 0. -1.
       -1   -1    0    0    0  501  0.00000000000E+00  0.00000000000E+00 -0.18735668595E+04  0.18735668595E+04  0.50400001928E-02 0.  1.
    10030    2    1    2    0    0  0.00000000000E+00  0.00000000000E+00 -0.14386366569E+03  0.36032700534E+04  0.36003969675E+04 0.  0.
        5    1    3    3  502    0  0.14946014818E+04 -0.97075121051E+03 -0.32610494741E+03  0.18117831076E+04  0.46999998093E+01 0.  1.
       -5    1    3    3    0  502 -0.14946014818E+04  0.97075121051E+03  0.18224128173E+03  0.17914869458E+04  0.46999998093E+01 0. -1.
</event>
<event>
 5   0  0.2590795E-08  0.3599339E+04  0.7818609E-02  0.8090643E-01
       -2   -1    0    0    0  501  0.00000000000E+00  0.00000000000E+00  0.14416559691E+04  0.14416559691E+04  0.25500000920E-02 0. -1.
        2   -1    0    0  501    0  0.00000000000E+00  0.00000000000E+00 -0.22465902178E+04  0.22465902178E+04  0.25500000920E-02 0.  1.
    10030    2    1    2    0    0  0.00000000000E+00  0.00000000000E+00 -0.80493424879E+03  0.36882461869E+04  0.35993389380E+04 0.  0.
        4    1    3    3  502    0 -0.10445679955E+04 -0.78199034446E+03 -0.16725084178E+04  0.21213008312E+04  0.12699999809E+01 0.  1.
       -4    1    3    3    0  502  0.10445679955E+04  0.78199034446E+03  0.86757416899E+03  0.15669453557E+04  0.12699999809E+01 0. -1.
</event>
<event>
 5   0  0.8024500E-09  0.3599416E+04  0.7818609E-02  0.8090626E-01
        1   -1    0    0  501    0  0.00000000000E+00  0.00000000000E+00  0.18212578723E+04  0.18212578723E+04  0.50400001928E-02 0. -1.
       -1   -1    0    0    0  501  0.00000000000E+00  0.00000000000E+00 -0.17784129781E+04  0.17784129781E+04  0.50400001928E-02 0.  1.
    10030    2    1    2    0    0  0.00000000000E+00  0.00000000000E+00  0.42844894260E+02  0.35996708504E+04  0.35994158618E+04 0.  0.
        5    1    3    3  502    0  0.85771492464E+03  0.33295106616E+03 -0.15254240923E+04  0.17814241651E+04  0.46999998093E+01 0.  1.
       -5    1    3    3    0  502 -0.85771492464E+03 -0.33295106616E+03  0.15682689866E+04  0.18182466853E+04  0.46999998093E+01 0. -1.
</event>
<event>
 5   0  0.2608070E-08  0.3598785E+04  0.7818609E-02  0.8090770E-01
        2   -1    0    0  501    0  0.00000000000E+00  0.00000000000E+00  0.15852009379E+04  0.15852009380E+04  0.25500000920E-02 0.  1.
       -2   -1    0    0    0  501  0.00000000000E+00  0.00000000000E+00 -0.20425257365E+04  0.20425257365E+04  0.25500000920E-02 0. -1.
    10030    2    1    2    0    0  0.00000000000E+00  0.00000000000E+00 -0.45732479854E+03  0.36277266744E+04  0.35987851913E+04 0.  0.
        3    1    3    3  502    0 -0.85059291115E+03  0.10704914914E+04 -0.14078360514E+04  0.19625143800E+04  0.10100000352E+00 0. -1.
       -3    1    3    3    0  502  0.85059291115E+03 -0.10704914914E+04  0.95051125290E+03  0.16652122945E+04  0.10100000352E+00 0.  1.
</event>
<event>
 5   0  0.2608070E-08  0.3599086E+04  0.7818609E-02  0.8090701E-01
        2   -1    0    0  501    0  0.00000000000E+00  0.00000000000E+00  0.21317635970E+04  0.21317635970E+04  0.25500000920E-02 0. -1.
       -2   -1    0    0    0  501  0.00000000000E+00  0.00000000000E+00 -0.15190968682E+04  0.15190968682E+04  0.25500000920E-02 0.  1.
    10030    2    1    2    0    0  0.00000000000E+00  0.00000000000E+00  0.61266672879E+03  0.36508604652E+04  0.35990862196E+04 0.  0.
        3    1    3    3  502    0  0.11981001801E+04 -0.62380978659E+03  0.15124596433E+04  0.20278355145E+04  0.10100000352E+00 0. -1.
       -3    1    3    3    0  502 -0.11981001801E+04  0.62380978659E+03 -0.89979291450E+03  0.16230249507E+04  0.10100000352E+00 0.  1.
</event>
<event>
 5   0  0.8024500E-09  0.3604766E+04  0.7818609E-02  0.8089401E-01
       -1   -1    0    0    0  501  0.00000000000E+00  0.00000000000E+00  0.15381917569E+04  0.15381917569E+04  0.50400001928E-02 0. -1.
        1   -1    0    0  501    0  0.00000000000E+00  0.00000000000E+00 -0.21119508267E+04  0.21119508267E+04  0.50400001928E-02 0.  1.
    10030    2    1    2    0    0  0.00000000000E+00  0.00000000000E+00 -0.57375906982E+03  0.36501425836E+04  0.36047664849E+04 0.  0.
        5    1    3    3  502    0 -0.10693902191E+04 -0.10908439117E+04  0.68173222631E+03  0.16728170249E+04  0.46999998093E+01 0. -1.
       -5    1    3    3    0  502  0.10693902191E+04  0.10908439117E+04 -0.12554912961E+04  0.19773255587E+04  0.46999998093E+01 0.  1.
</event>
<event>
 5   0  0.2608070E-08  0.3600765E+04  0.7818609E-02  0.8090317E-01
        2   -1    0    0  501    0  0.00000000000E+00  0.00000000000E+00  0.23349152956E+04  0.23349152956E+04  0.25500000920E-02 0.  1.
       -2   -1    0    0    0  501  0.00000000000E+00  0.00000000000E+00 -0.13882203391E+04  0.13882203391E+04  0.25500000920E-02 0. -1.
    10030    2    1    2    0    0  0.00000000000E+00  0.00000000000E+00  0.94669495647E+03  0.37231356347E+04  0.36007648651E+04 0.  0.
        3    1    3    3  502    0 -0.13868250746E+04  0.83370554158E+03  0.12894936342E+04  0.20690922069E+04  0.10100000352E+00 0. -1.
       -3    1    3    3    0  502  0.13868250746E+04 -0.83370554158E+03 -0.34279867777E+03  0.16540434278E+04  0.10100000352E+00 0.  1.
</event>
<event>
 5   0  0.2476968E-08  0.3600064E+04  0.7818609E-02  0.8090477E-01
       -2   -1    0    0    0  501  0.00000000000E+00  0.00000000000E+00  0.27234194058E+04  0.27234194058E+04  0.25500000920E-02 0.  1.
        2   -1    0    0  501    0  0.00000000000E+00  0.00000000000E+00 -0.11897230956E+04  0.11897230956E+04  0.25500000920E-02 0. -1.
    10030    2    1    2    0    0  0.00000000000E+00  0.00000000000E+00  0.15336963102E+04  0.39131425015E+04  0.36000638695E+04 0.  0.
        2    1    3    3  502    0  0.17847714673E+04  0.21231147500E+03  0.87351264931E+03  0.19983767667E+04  0.25500000920E-02 0.  1.
       -2    1    3    3    0  502 -0.17847714673E+04 -0.21231147500E+03  0.66018366087E+03  0.19147657348E+04  0.25500000920E-02 0. -1.
</event>
<event>
 5   0  0.2494592E-08  0.3599313E+04  0.7818609E-02  0.8090649E-01
        2   -1    0    0  501    0  0.00000000000E+00  0.00000000000E+00  0.12341740522E+04  0.12341740522E+04  0.25500000920E-02 0.  1.
       -2   -1    0    0    0  501  0.00000000000E+00  0.00000000000E+00 -0.26242357148E+04  0.26242357148E+04  0.25500000920E-02 0. -1.
    10030    2    1    2    0    0  0.00000000000E+00  0.00000000000E+00 -0.13900616627E+04  0.38584097670E+04  0.35993130600E+04 0.  0.
        1    1    3    3  502    0  0.69673473642E+03  0.11603144469E+04  0.57652361095E+03  0.14711044771E+04  0.50400001928E-02 0.  1.
       -1    1    3    3    0  502 -0.69673473642E+03 -0.11603144469E+04 -0.19665852736E+04  0.23873052899E+04  0.50400001928E-02 0. -1.
</event>
<event>
 5   0  0.8024500E-09  0.3599007E+04  0.7818609E-02  0.8090719E-01
        1   -1    0    0  501    0  0.00000000000E+00  0.00000000000E+00  0.25663252808E+04  0.25663252808E+04  0.50400001928E-02 0. -1.
       -1   -1    0    0    0  501  0.00000000000E+00  0.00000000000E+00 -0.12618092548E+04  0.12618092548E+04  0.50400001928E-02 0.  1.
    10030    2    1    2    0    0  0.00000000000E+00  0.00000000000E+00  0.13045160260E+04  0.38281345356E+04  0.35990070799E+04 0.  0.
        1    1    3    3  502    0  0.10937852225E+04  0.11862887885E+04 -0.19505293502E+03  0.16253285361E+04  0.50400001928E-02 0. -1.
       -1    1    3    3    0  502 -0.10937852225E+04 -0.11862887885E+04  0.14995689610E+04  0.22028059995E+04  0.50400001928E-02 0.  1.
</event>
<event>
 5   0  0.2590795E-08  0.3606189E+04  0.7818609E-02  0.8089076E-01
       -2   -1    0    0    0  501  0.00000000000E+00  0.00000000000E+00  0.10748821802E+04  0.10748821803E+04  0.25500000920E-02 0. -1.
        2   -1    0    0  501    0  0.00000000000E+00  0.00000000000E+00 -0.30246567484E+04  0.30246567484E+04  0.25500000920E-02 0.  1.
    10030    2    1    2    0    0  0.00000000000E+00  0.00000000000E+00 -0.19497745682E+04  0.40995389287E+04  0.36061889248E+04 0.  0.
        4    1    3    3  502    0 -0.14505088787E+04  0.97190380364E+03 -0.46322962302E+03  0.18064208555E+04  0.12699999809E+01 0. -1.
       -4    1    3    3    0  502  0.14505088787E+04 -0.97190380364E+03 -0.14865449452E+04  0.22931180732E+04  0.12699999809E+01 0.  1.
</event>
<event>
 5   0  0.2590795E-08  0.3600901E+04  0.7818609E-02  0.8090285E-01
       -2   -1    0    0    0  501  0.00000000000E+00  0.00000000000E+00  0.18388962131E+04  0.18388962131E+04  0.25500000920E-02 0. -1.
        2   -1    0    0  501    0  0.00000000000E+00  0.00000000000E+00 -0.17628086685E+04  0.17628086685E+04  0.25500000920E-02 0.  1.
    10030    2    1    2    0    0  0.00000000000E+00  0.00000000000E+00  0.76087544628E+02  0.36017048815E+04  0.36009011010E+04 0.  0.
        4    1    3    3  502    0 -0.11555616097E+04  0.12736948430E+03  0.14131506186E+04  0.18299021567E+04  0.12699999809E+01 0. -1.
       -4    1    3    3    0  502  0.11555616097E+04 -0.12736948430E+03 -0.13370630739E+04  0.17718027249E+04  0.12699999809E+01 0.  1.
</event>
<event>
 5   0  0.2482243E-08  0.3602319E+04  0.7818609E-02  0.8089961E-01
        2   -1    0    0  501    0  0.00000000000E+00  0.00000000000E+00  0.14603093154E+04  0.14603093154E+04  0.25500000920E-02 0. -1.
       -2   -1    0    0    0  501  0.00000000000E+00  0.00000000000E+00 -0.22215672283E+04  0.22215672283E+04  0.25500000920E-02 0.  1.
    10030    2    1    2    0    0  0.00000000000E+00  0.00000000000E+00 -0.76125791298E+03  0.36818765437E+04  0.36023188744E+04 0.  0.
        5    1    3    3  502    0  0.69646010768E+03  0.80271022005E+03 -0.18669645498E+04  0.21482502412E+04  0.46999998093E+01 0.  1.
       -5    1    3    3    0  502 -0.69646010768E+03 -0.80271022005E+03  0.11057066368E+04  0.15336263025E+04  0.46999998093E+01 0. -1.
</event>
<event>
 5   0  0.8146881E-09  0.3598887E+04  0.7818609E-02  0.8090747E-01
        1   -1    0    0  501    0  0.00000000000E+00  0.00000000000E+00  0.24722794289E+04  0.24722794289E+04  0.50400001928E-02 0. -1.
       -1   -1    0    0    0  501  0.00000000000E+00  0.00000000000E+00 -0.13097212973E+04  0.13097212973E+04  0.50400001928E-02 0.  1.
    10030    2    1    2    0    0  0.00000000000E+00  0.00000000000E+00  0.11625581316E+04  0.37820007262E+04  0.35988870618E+04 0.  0.
        4    1    3    3  502    0 -0.15320312372E+04  0.69512413444E+03 -0.89704833502E+02  0.16847450383E+04  0.12699999809E+01 0.  1.
       -4    1    3    3    0  502  0.15320312372E+04 -0.69512413444E+03  0.12522629651E+04  0.20972556880E+04  0.12699999809E+01 0. -1.
</event>
<event>
 5   0  0.8063410E-09  0.3599764E+04  0.7818609E-02  0.8090546E-01
       -1   -1    0    0    0  501  0.00000000000E+00  0.00000000000E+00  0.14980401883E+04  0.14980401883E+04  0.50400001928E-02 0. -1.
        1   -1    0    0  501    0  0.00000000000E+00  0.00000000000E+00 -0.21625418391E+04  0.21625418391E+04  0.50400001928E-02 0.  1.
    10030    2    1    2    0    0  0.00000000000E+00  0.00000000000E+00 -0.66450165079E+03  0.36605820275E+04  0.35997636500E+04 0.  0.
        2    1    3    3  502    0 -0.12057298268E+04  0.88403100424E+03 -0.13513194317E+04  0.20152814787E+04  0.25500000920E-02 0.  1.
       -2    1    3    3    0  502  0.12057298268E+04 -0.88403100424E+03  0.68681778093E+03  0.16453005488E+04  0.25500000920E-02 0. -1.
</event>
<event>
 5   0  0.2608070E-08  0.3601236E+04  0.7818609E-02  0.8090209E-01
        2   -1    0    0  501    0  0.00000000000E+00  0.00000000000E+00  0.13844879574E+04  0.13844879574E+04  0.25500000920E-02 0. -1.
       -2   -1    0    0    0  501  0.00000000000E+00  0.00000000000E+00 -0.23418223164E+04  0.23418223164E+04  0.25500000920E-02 0.  1.
    10030    2    1    2    0    0  0.00000000000E+00  0.00000000000E+00 -0.95733435902E+03  0.37263102738E+04  0.36012357854E+04 0.  0.
        3    1    3    3  502    0  0.11250220922E+04 -0.80828585692E+03  0.71159915407E+03  0.15573612621E+04  0.10100000352E+00 0. -1.
       -3    1    3    3    0  502 -0.11250220922E+04  0.80828585692E+03 -0.16689335131E+04  0.21689490118E+04  0.10100000352E+00 0.  1.
</event>
<event>
 5   0  0.2590795E-08  0.3598129E+04  0.7818609E-02  0.8090920E-01
        2   -1    0    0  501    0  0.00000000000E+00  0.00000000000E+00  0.14135417639E+04  0.14135417639E+04  0.25500000920E-02 0.  1.
       -2   -1    0    0    0  501  0.00000000000E+00  0.00000000000E+00 -0.22897324702E+04  0.22897324702E+04  0.25500000920E-02 0. -1.
    10030    2    1    2    0    0  0.00000000000E+00  0.00000000000E+00 -0.87619070625E+03  0.37032742341E+04  0.35981286663E+04 0.  0.
        4    1    3    3  502    0  0.38678591113E+02 -0.78112458496E+03  0.12294287433E+04  0.14571027069E+04  0.12699999809E+01 0.  1.
       -4    1    3    3    0  502 -0.38678591113E+02  0.78112458496E+03 -0.21056194495E+04  0.22461715273E+04  0.12699999809E+01 0. -1.
</event>
<event>
 5   0  0.2590795E-08  0.3600954E+04  0.7818609E-02  0.8090273E-01
       -2   -1    0    0    0  501  0.00000000000E+00  0.00000000000E+00  0.16982423405E+04  0.16982423406E+04  0.25500000920E-02 0.  1.
        2   -1    0    0  501    0  0.00000000000E+00  0.00000000000E+00 -0.19088663553E+04  0.19088663553E+04  0.25500000920E-02 0. -1.
    10030    2    1    2    0    0  0.00000000000E+00  0.00000000000E+00 -0.21062401476E+03  0.36071086959E+04  0.36009541330E+04 0.  0.
        4    1    3    3  502    0  0.85964559243E+03  0.84290313156E+03  0.12357217212E+04  0.17252495527E+04  0.12699999809E+01 0.  1.
       -4    1    3    3    0  502 -0.85964559243E+03 -0.84290313156E+03 -0.14463457360E+04  0.18818591432E+04  0.12699999809E+01 0. -1.
</event>
<event>
 5   0  0.8247570E-09  0.3601777E+04  0.7818609E-02  0.8090085E-01
        1   -1    0    0  501    0  0.00000000000E+00  0.00000000000E+00  0.20607248276E+04  0.20607248276E+04  0.50400001928E-02 0.  1.
       -1   -1    0    0    0  501  0.00000000000E+00  0.00000000000E+00 -0.15738146551E+04  0.15738146551E+04  0.50400001928E-02 0. -1.
    10030    2    1    2    0    0  0.00000000000E+00  0.00000000000E+00  0.48691017250E+03  0.36345394828E+04  0.36017767470E+04 0.  0.
        3    1    3    3  502    0 -0.13994942444E+04  0.98296545362E+03  0.81285164020E+03  0.18935503749E+04  0.10100000352E+00 0.  1.
       -3    1    3    3    0  502  0.13994942444E+04 -0.98296545362E+03 -0.32594146770E+03  0.17409891079E+04  0.10100000352E+00 0. -1.
</event>
<event>
 5   0  0.8024500E-09  0.3600714E+04  0.7818609E-02  0.8090328E-01
       -1   -1    0    0    0  501  0.00000000000E+00  0.00000000000E+00  0.20788196169E+04  0.20788196169E+04  0.50400001928E-02 0. -1.
        1   -1    0    0  501    0  0.00000000000E+00  0.00000000000E+00 -0.15591948321E+04  0.15591948321E+04  0.50400001928E-02 0.  1.
    10030    2    1    2    0    0  0.00000000000E+00  0.00000000000E+00  0.51962478478E+03  0.36380144490E+04  0.36007137090E+04 0.  0.
        1    1    3    3  502    0 -0.76052953772E+02 -0.14859432391E+04 -0.76433185509E+03  0.16727266801E+04  0.50400001928E-02 0.  1.
       -1    1    3    3    0  502  0.76052953772E+02  0.14859432391E+04  0.12839566399E+04  0.19652877689E+04  0.50400001928E-02 0. -1.
</event>
<event>
 5   0  0.8146881E-09  0.3602262E+04  0.7818609E-02  0.8089974E-01
       -1   -1    0    0    0  501  0.00000000000E+00  0.00000000000E+00  0.31925605830E+04  0.31925605830E+04  0.50400001928E-02 0.  1.
        1   -1    0    0  501    0  0.00000000000E+00  0.00000000000E+00 -0.10161348456E+04  0.10161348457E+04  0.50400001928E-02 0. -1.
    10030    2    1    2    0    0  0.00000000000E+00  0.00000000000E+00  0.21764257374E+04  0.42086954287E+04  0.36022615426E+04 0.  0.
        4    1    3    3  502    0 -0.22815212846E+03 -0.57813530424E+03  0.30633006211E+04  0.31257168989E+04  0.12699999809E+01 0.  1.
       -4    1    3    3    0  502  0.22815212846E+03  0.57813530424E+03 -0.88687488372E+03  0.10829785298E+04  0.12699999809E+01 0. -1.
</event>
<event>
 5   0  0.2494592E-08  0.3601257E+04  0.7818609E-02  0.8090204E-01
        2   -1    0    0  501    0  0.00000000000E+00  0.00000000000E+00  0.27440429087E+04  0.27440429087E+04  0.25500000920E-02 0.  1.
       -2   -1    0    0    0  501  0.00000000000E+00  0.00000000000E+00 -0.11815639704E+04  0.11815639704E+04  0.25500000920E-02 0. -1.
    10030    2    1    2    0    0  0.00000000000E+00  0.00000000000E+00  0.15624789383E+04  0.39256068791E+04  0.36012565775E+04 0.  0.
        1    1    3    3  502    0  0.12933438263E+04  0.11076841503E+04  0.14192398565E+04  0.22167417983E+04  0.50400001928E-02 0. -1.
       -1    1    3    3    0  502 -0.12933438263E+04 -0.11076841503E+04  0.14323908184E+03  0.17088650809E+04  0.50400001928E-02 0.  1.
</event>
<event>
 5   0  0.2590795E-08  0.3599029E+04  0.7818609E-02  0.8090714E-01
        2   -1    0    0  501    0  0.00000000000E+00  0.00000000000E+00  0.25949917900E+04  0.25949917900E+04  0.25500000920E-02 0. -1.
       -2   -1    0    0    0  501  0.00000000000E+00  0.00000000000E+00 -0.12478852502E+04  0.12478852502E+04  0.25500000920E-02 0.  1.
    10030    2    1    2    0    0  0.00000000000E+00  0.00000000000E+00  0.13471065398E+04  0.38428770402E+04  0.35990287463E+04 0.  0.
        4    1    3    3  502    0 -0.65939731745E+03 -0.16671205975E+04  0.83950042663E+03  0.19796106910E+04  0.12699999809E+01 0. -1.
       -4    1    3    3    0  502  0.65939731745E+03  0.16671205975E+04  0.50760611321E+03  0.18632663492E+04  0.12699999809E+01 0.  1.
</event>
<event>
 5   0  0.8024500E-09  0.3593669E+04  0.7818609E-02  0.8091943E-01
       -1   -1    0    0    0  501  0.00000000000E+00  0.00000000000E+00  0.10943891552E+04  0.10943891553E+04  0.50400001928E-02 0.  1.
        1   -1    0    0  501    0  0.00000000000E+00  0.00000000000E+00 -0.29501522323E+04  0.29501522323E+04  0.50400001928E-02 0. -1.
    10030    2    1    2    0    0  0.00000000000E+00  0.00000000000E+00 -0.18557630771E+04  0.40445413876E+04  0.35936692165E+04 0.  0.
        5    1    3    3  502    0  0.33368894293E+02  0.16357298914E+04 -0.17639624383E+04  0.24058909648E+04  0.46999998093E+01 0. -1.
       -5    1    3    3    0  502 -0.33368894293E+02 -0.16357298914E+04 -0.91800638787E+02  0.16386504228E+04  0.46999998093E+01 0.  1.
</event>
<event>
 5   0  0.2494592E-08  0.3604337E+04  0.7818609E-02  0.8089499E-01
        2   -1    0    0  501    0  0.00000000000E+00  0.00000000000E+00  0.34681841245E+04  0.34681841245E+04  0.25500000920E-02 0. -1.
       -2   -1    0    0    0  501  0.00000000000E+00  0.00000000000E+00 -0.93645877720E+03  0.93645877720E+03  0.25500000920E-02 0.  1.
    10030    2    1    2    0    0  0.00000000000E+00  0.00000000000E+00  0.25317253473E+04  0.44046429017E+04  0.36043370899E+04 0.  0.
        1    1    3    3  502    0 -0.73355926975E+03  0.23642568646E+03 -0.72490151846E+03  0.10580588447E+04  0.50400001928E-02 0.  1.
       -1    1    3    3    0  502  0.73355926975E+03 -0.23642568646E+03  0.32566268658E+04  0.33465840570E+04  0.50400001928E-02 0. -1.
</event>
<event>
 5   0  0.8247570E-09  0.3600141E+04  0.7818609E-02  0.8090459E-01
        1   -1    0    0  501    0  0.00000000000E+00  0.00000000000E+00  0.22572085852E+04  0.22572085852E+04  0.50400001928E-02 0. -1.
       -1   -1    0    0    0  501  0.00000000000E+00  0.00000000000E+00 -0.14355140649E+04  0.14355140649E+04  0.50400001928E-02 0.  1.
    10030    2    1    2    0    0  0.00000000000E+00  0.00000000000E+00  0.82169452027E+03  0.36927226501E+04  0.36001414814E+04 0.  0.
        3    1    3    3  502    0  0.14369607123E+04 -0.10579291896E+04  0.16771924452E+03  0.17922611456E+04  0.10100000352E+00 0.  1.
       -3    1    3    3    0  502 -0.14369607123E+04  0.10579291896E+04  0.65397527576E+03  0.19004615046E+04  0.10100000352E+00 0. -1.
</event>
<event>
 5   0  0.8024500E-09  0.3600874E+04  0.7818609E-02  0.8090292E-01
        3   -1    0    0  501    0  0.00000000000E+00  0.00000000000E+00  0.14683974380E+04  0.14683974415E+04  0.10100000352E+00 0. -1.
       -3   -1    0    0    0  501  0.00000000000E+00  0.00000000000E+00 -0.22075582129E+04  0.22075582152E+04  0.10100000352E+00 0.  1.
    10030    2    1    2    0    0  0.00000000000E+00  0.00000000000E+00 -0.73916077489E+03  0.36759556567E+04  0.36008736910E+04 0.  0.
        1    1    3    3  502    0  0.32046607860E+03 -0.67617787457E+03  0.13021416042E+04  0.15018281470E+04  0.50400001928E-02 0. -1.
       -1    1    3    3    0  502 -0.32046607860E+03  0.67617787457E+03 -0.20413023791E+04  0.21741275097E+04  0.50400001928E-02 0.  1.
</event>
<event>
 5   0  0.8024500E-09  0.3596672E+04  0.7818609E-02  0.8091254E-01
       -1   -1    0    0    0  501  0.00000000000E+00  0.00000000000E+00  0.15065083523E+04  0.15065083523E+04  0.50400001928E-02 0. -1.
        1   -1    0    0  501    0  0.00000000000E+00  0.00000000000E+00 -0.21466943591E+04  0.21466943591E+04  0.50400001928E-02 0.  1.
    10030    2    1    2    0    0  0.00000000000E+00  0.00000000000E+00 -0.64018600674E+03  0.36532027114E+04  0.35966723409E+04 0.  0.
        5    1    3    3  502    0  0.10509783394E+04  0.14101890094E+04 -0.70122717986E+03  0.18933911798E+04  0.46999998093E+01 0.  1.
       -5    1    3    3    0  502 -0.10509783394E+04 -0.14101890094E+04  0.61041173119E+02  0.17598115316E+04  0.46999998093E+01 0. -1.
</event>
<event>
 5   0  0.2482243E-08  0.3598614E+04  0.7818609E-02  0.8090809E-01
       -2   -1    0    0    0  501  0.00000000000E+00  0.00000000000E+00  0.18812655125E+04  0.18812655125E+04  0.25500000920E-02 0.  1.
        2   -1    0    0  501    0  0.00000000000E+00  0.00000000000E+00 -0.17209191263E+04  0.17209191263E+04  0.25500000920E-02 0. -1.
    10030    2    1    2    0    0  0.00000000000E+00  0.00000000000E+00  0.16034638614E+03  0.36021846388E+04  0.35986140677E+04 0.  0.
        5    1    3    3  502    0 -0.90937098362E+03 -0.11363849274E+04 -0.97877883463E+03  0.17539544995E+04  0.46999998093E+01 0. -1.
       -5    1    3    3    0  502  0.90937098362E+03  0.11363849274E+04  0.11391252208E+04  0.18482301393E+04  0.46999998093E+01 0.  1.
</event>
<event>
 5   0  0.2482243E-08  0.3600673E+04  0.7818609E-02  0.8090338E-01
        2   -1    0    0  501    0  0.00000000000E+00  0.00000000000E+00  0.16089856111E+04  0.16089856112E+04  0.25500000920E-02 0.  1.
       -2   -1    0    0    0  501  0.00000000000E+00  0.00000000000E+00 -0.20144440033E+04  0.20144440033E+04  0.25500000920E-02 0. -1.
    10030    2    1    2    0    0  0.00000000000E+00  0.00000000000E+00 -0.40545839215E+03  0.36234296144E+04  0.36006729459E+04 0.  0.
        5    1    3    3  502    0  0.16508106812E+04 -0.24192760243E+03  0.47792155028E+03  0.17355506240E+04  0.46999998093E+01 0. -1.
       -5    1    3    3    0  502 -0.16508106812E+04  0.24192760243E+03 -0.88337994243E+03  0.18878789905E+04  0.46999998093E+01 0.  1.
</event>
<event>
 5   0  0.2476968E-08  0.3600046E+04  0.7818609E-02  0.8090481E-01
       -2   -1    0    0    0  501  0.00000000000E+00  0.00000000000E+00  0.21811799708E+04  0.21811799708E+04  0.25500000920E-02 0. -1.
        2   -1    0    0  501    0  0.00000000000E+00  0.00000000000E+00 -0.14854727364E+04  0.14854727364E+04  0.25500000920E-02 0.  1.
    10030    2    1    2    0    0  0.00000000000E+00  0.00000000000E+00  0.69570723439E+03  0.36666527072E+04  0.36000463218E+04 0.  0.
        2    1    3    3  502    0 -0.16359387186E+04  0.61245201161E+03  0.79027551684E+03  0.19172710685E+04  0.25500000920E-02 0. -1.
       -2    1    3    3    0  502  0.16359387186E+04 -0.61245201161E+03 -0.94568282449E+02  0.17493816387E+04  0.25500000920E-02 0.  1.
</event>
<event>
 5   0  0.8024500E-09  0.3609492E+04  0.7818609E-02  0.8088321E-01
        1   -1    0    0  501    0  0.00000000000E+00  0.00000000000E+00  0.15946120653E+04  0.15946120653E+04  0.50400001928E-02 0. -1.
       -1   -1    0    0    0  501  0.00000000000E+00  0.00000000000E+00 -0.20425703196E+04  0.20425703196E+04  0.50400001928E-02 0.  1.
    10030    2    1    2    0    0  0.00000000000E+00  0.00000000000E+00 -0.44795825428E+03  0.36371823848E+04  0.36094915297E+04 0.  0.
        1    1    3    3  502    0 -0.77567379154E+03  0.84004393148E+03  0.11830725089E+04  0.16452976020E+04  0.50400001928E-02 0. -1.
       -1    1    3    3    0  502  0.77567379154E+03 -0.84004393148E+03 -0.16310307632E+04  0.19918847829E+04  0.50400001928E-02 0.  1.
</event>
<event>
 5   0  0.2482243E-08  0.3599286E+04  0.7818609E-02  0.8090655E-01
        2   -1    0    0  501    0  0.00000000000E+00  0.00000000000E+00  0.18158098551E+04  0.18158098551E+04  0.25500000920E-02 0.  1.
       -2   -1    0    0    0  501  0.00000000000E+00  0.00000000000E+00 -0.17836199458E+04  0.17836199458E+04  0.25500000920E-02 0. -1.
    10030    2    1    2    0    0  0.00000000000E+00  0.00000000000E+00  0.32189909321E+02  0.35994298010E+04  0.35992858600E+04 0.  0.
        5    1    3    3  502    0 -0.75195153844E+03  0.67745383662E+03  0.15042128532E+04  0.18130232251E+04  0.46999998093E+01 0.  1.
       -5    1    3    3    0  502  0.75195153844E+03 -0.67745383662E+03 -0.14720229439E+04  0.17864065759E+04  0.46999998093E+01 0. -1.
</event>
<event>
 5   0  0.8024500E-09  0.3600067E+04  0.7818609E-02  0.8090476E-01
       -1   -1    0    0    0  501  0.00000000000E+00  0.00000000000E+00  0.23293278749E+04  0.23293278749E+04  0.50400001928E-02 0.  1.
        1   -1    0    0  501    0  0.00000000000E+00  0.00000000000E+00 -0.13910111140E+04  0.13910111140E+04  0.50400001928E-02 0. -1.
    10030    2    1    2    0    0  0.00000000000E+00  0.00000000000E+00  0.93831676087E+03  0.37203389889E+04  0.36000672006E+04 0.  0.
        5    1    3    3  502    0 -0.62862746097E+03 -0.98108810185E+03 -0.94868088897E+03  0.15025724167E+04  0.46999998093E+01 0. -1.
       -5    1    3    3    0  502  0.62862746097E+03  0.98108810185E+03  0.18869976498E+04  0.22177665722E+04  0.46999998093E+01 0.  1.
</event>
<event>
 5   0  0.2608070E-08  0.3601099E+04  0.7818609E-02  0.8090240E-01
       -2   -1    0    0    0  501  0.00000000000E+00  0.00000000000E+00  0.30576237016E+04  0.30576237016E+04  0.25500000920E-02 0.  1.
        2   -1    0    0  501    0  0.00000000000E+00  0.00000000000E+00 -0.10602934034E+04  0.10602934034E+04  0.25500000920E-02 0. -1.
    10030    2    1    2    0    0  0.00000000000E+00  0.00000000000E+00  0.19973302982E+04  0.41179171050E+04  0.36010988550E+04 0.  0.
        3    1    3    3  502    0  0.84646545611E+03  0.13615056811E+04  0.61416035357E+02  0.16043607536E+04  0.10100000352E+00 0. -1.
       -3    1    3    3    0  502 -0.84646545611E+03 -0.13615056811E+04  0.19359142629E+04  0.25135563514E+04  0.10100000352E+00 0.  1.
</event>
<event>
 5   0  0.2482243E-08  0.3600304E+04  0.7818609E-02  0.8090422E-01
       -2   -1    0    0    0  501  0.00000000000E+00  0.00000000000E+00  0.22236400788E+04  0.22236400788E+04  0.25500000920E-02 0. -1.
        2   -1    0    0  501    0  0.00000000000E+00  0.00000000000E+00 -0.14573164718E+04  0.14573164718E+04  0.25500000920E-02 0.  1.
    10030    2    1    2    0    0  0.00000000000E+00  0.00000000000E+00  0.76632360697E+03  0.36809565506E+04  0.36003040506E+04 0.  0.
        5    1    3    3  502    0  0.42603029756E+03 -0.17129622423E+04  0.74432256238E+03  0.19156668877E+04  0.46999998093E+01 0. -1.
       -5    1    3    3    0  502 -0.42603029756E+03  0.17129622423E+04  0.22001044584E+02  0.17652896629E+04  0.46999998093E+01 0.  1.
</event>
<event>
 5   0  0.8146881E-09  0.3611924E+04  0.7818609E-02  0.8087766E-01
        1   -1    0    0  501    0  0.00000000000E+00  0.00000000000E+00  0.19822990540E+04  0.19822990540E+04  0.50400001928E-02 0. -1.
       -1   -1    0    0    0  501  0.00000000000E+00  0.00000000000E+00 -0.16453114494E+04  0.16453114494E+04  0.50400001928E-02 0.  1.
    10030    2    1    2    0    0  0.00000000000E+00  0.00000000000E+00  0.33698760462E+03  0.36276105034E+04  0.36119243235E+04 0.  0.
        4    1    3    3  502    0 -0.15968717488E+04 -0.77863043466E+03  0.49429895193E+03  0.18440709864E+04  0.12699999809E+01 0. -1.
       -4    1    3    3    0  502  0.15968717488E+04  0.77863043466E+03 -0.15731134731E+03  0.17835395170E+04  0.12699999809E+01 0.  1.
</event>
<event>
 5   0  0.2608070E-08  0.3587347E+04  0.7818609E-02  0.8093396E-01
       -2   -1    0    0    0  501  0.00000000000E+00  0.00000000000E+00  0.30938341684E+04  0.30938341684E+04  0.25500000920E-02 0.  1.
        2   -1    0    0  501    0  0.00000000000E+00  0.00000000000E+00 -0.10398956246E+04  0.10398956246E+04  0.25500000920E-02 0. -1.
    10030    2    1    2    0    0  0.00000000000E+00  0.00000000000E+00  0.20539385438E+04  0.41337297930E+04  0.35873469947E+04 0.  0.
        3    1    3    3  502    0  0.12028552241E+04  0.12346951990E+04  0.45552229889E+03  0.17829283495E+04  0.10100000352E+00 0.  1.
       -3    1    3    3    0  502 -0.12028552241E+04 -0.12346951990E+04  0.15984162449E+04  0.23508014435E+04  0.10100000352E+00 0. -1.
</event>
<event>
 5   0  0.2476968E-08  0.3600396E+04  0.7818609E-02  0.8090401E-01
        2   -1    0    0  501    0  0.00000000000E+00  0.00000000000E+00  0.16527174657E+04  0.16527174657E+04  0.25500000920E-02 0.  1.
       -2   -1    0    0    0  501  0.00000000000E+00  0.00000000000E+00 -0.19608390106E+04  0.19608390106E+04  0.25500000920E-02 0. -1.
    10030    2    1    2    0    0  0.00000000000E+00  0.00000000000E+00 -0.30812154494E+03  0.36135564763E+04  0.36003960228E+04 0.  0.
        2    1    3    3  502    0 -0.41070550322E+03 -0.17034873131E+04 -0.56807903031E+03  0.18420808399E+04  0.25500000920E-02 0.  1.
       -2    1    3    3    0  502  0.41070550322E+03  0.17034873131E+04  0.25995748537E+03  0.17714756364E+04  0.25500000920E-02 0. -1.
</event>
<event>
 5   0  0.2590795E-08  0.3600569E+04  0.7818609E-02  0.8090361E-01
        2   -1    0    0  501    0  0.00000000000E+00  0.00000000000E+00  0.15757770905E+04  0.15757770905E+04  0.25500000920E-02 0.  1.
       -2   -1    0    0    0  501  0.00000000000E+00  0.00000000000E+00 -0.20567789026E+04  0.20567789026E+04  0.25500000920E-02 0. -1.
    10030    2    1    2    0    0  0.00000000000E+00  0.00000000000E+00 -0.48100181213E+03  0.36325559932E+04  0.36005694411E+04 0.  0.
        4    1    3    3  502    0 -0.26463678533E+02  0.62661269218E+03 -0.19429992319E+04  0.20417128643E+04  0.12699999809E+01 0. -1.
       -4    1    3    3    0  502  0.26463678533E+02 -0.62661269218E+03  0.14619974198E+04  0.15908431288E+04  0.12699999809E+01 0.  1.
</event>
<event>
 5   0  0.2482243E-08  0.3598185E+04  0.7818609E-02  0.8090908E-01
        2   -1    0    0  501    0  0.00000000000E+00  0.00000000000E+00  0.17609894389E+04  0.17609894389E+04  0.25500000920E-02 0.  1.
       -2   -1    0    0    0  501  0.00000000000E+00  0.00000000000E+00 -0.18380202504E+04  0.18380202504E+04  0.25500000920E-02 0. -1.
    10030    2    1    2    0    0  0.00000000000E+00  0.00000000000E+00 -0.77030811487E+02  0.35990096893E+04  0.35981852367E+04 0.  0.
        5    1    3    3  502    0  0.35966543091E+03 -0.70031987697E+03 -0.16565711427E+04  0.18341366343E+04  0.46999998093E+01 0. -1.
       -5    1    3    3    0  502 -0.35966543091E+03  0.70031987697E+03  0.15795403313E+04  0.17648730550E+04  0.46999998093E+01 0.  1.
</event>
<event>
 5   0  0.2494592E-08  0.3600169E+04  0.7818609E-02  0.8090453E-01
       -2   -1    0    0    0  501  0.00000000000E+00  0.00000000000E+00  0.13813403525E+04  0.13813403525E+04  0.25500000920E-02 0. -1.
        2   -1    0    0  501    0  0.00000000000E+00  0.00000000000E+00 -0.23457677503E+04  0.23457677503E+04  0.25500000920E-02 0.  1.
    10030    2    1    2    0    0  0.00000000000E+00  0.00000000000E+00 -0.96442739779E+03  0.37271081028E+04  0.36001686911E+04 0.  0.
        1    1    3    3  502    0  0.17124432296E+04  0.54607665836E+03 -0.38055714050E+03  0.18372493757E+04  0.50400001928E-02 0. -1.
       -1    1    3    3    0  502 -0.17124432296E+04 -0.54607665836E+03 -0.58387025728E+03  0.18898587272E+04  0.50400001928E-02 0.  1.
</event>
<event>
 5   0  0.2494592E-08  0.3600452E+04  0.7818609E-02  0.8090388E-01
       -2   -1    0    0    0  501  0.00000000000E+00  0.00000000000E+00  0.17059093443E+04  0.17059093443E+04  0.25500000920E-02 0. -1.
        2   -1    0    0  501    0  0.00000000000E+00  0.00000000000E+00 -0.18997569723E+04  0.18997569723E+04  0.25500000920E-02 0.  1.
    10030    2    1    2    0    0  0.00000000000E+00  0.00000000000E+00 -0.19384762802E+03  0.36056663166E+04  0.36004517333E+04 0.  0.
        1    1    3    3  502    0  0.31459955376E+03 -0.67719792977E+03  0.15435094335E+04  0.17146402791E+04  0.50400001928E-02 0. -1.
       -1    1    3    3    0  502 -0.31459955376E+03  0.67719792977E+03 -0.17373570615E+04  0.18910260375E+04  0.50400001928E-02 0.  1.
</event>
<event>
 5   0  0.8024500E-09  0.3583066E+04  0.7818609E-02  0.8094382E-01
       -1   -1    0    0    0  501  0.00000000000E+00  0.00000000000E+00  0.19490843657E+04  0.19490843657E+04  0.50400001928E-02 0.  1.
        1   -1    0    0  501    0  0.00000000000E+00  0.00000000000E+00 -0.16467171211E+04  0.16467171211E+04  0.50400001928E-02 0. -1.
    10030    2    1    2    0    0  0.00000000000E+00  0.00000000000E+00  0.30236724463E+03  0.35958014868E+04  0.35830660588E+04 0.  0.
        1    1    3    3  502    0 -0.25122751271E+03  0.11524323865E+04  0.15044478749E+04  0.19116953410E+04  0.50400001928E-02 0.  1.
       -1    1    3    3    0  502  0.25122751271E+03 -0.11524323865E+04 -0.12020806303E+04  0.16841061458E+04  0.50400001928E-02 0. -1.
</event>
<event>
 5   0  0.8063410E-09  0.3593123E+04  0.7818609E-02  0.8092069E-01
       -1   -1    0    0    0  501  0.00000000000E+00  0.00000000000E+00  0.15409172592E+04  0.15409172593E+04  0.50400001928E-02 0. -1.
        1   -1    0    0  501    0  0.00000000000E+00  0.00000000000E+00 -0.20946186399E+04  0.20946186399E+04  0.50400001928E-02 0.  1.
    10030    2    1    2    0    0  0.00000000000E+00  0.00000000000E+00 -0.55370138069E+03  0.36355358992E+04  0.35931234400E+04 0.  0.
        2    1    3    3  502    0 -0.38158423267E+02  0.15635202050E+04 -0.11713576382E+04  0.19540036369E+04  0.25500000920E-02 0.  1.
       -2    1    3    3    0  502  0.38158423267E+02 -0.15635202050E+04  0.61765625750E+03  0.16815322623E+04  0.25500000920E-02 0. -1.
</event>
<event>
 5   0  0.2494592E-08  0.3599121E+04  0.7818609E-02  0.8090693E-01
        2   -1    0    0  501    0  0.00000000000E+00  0.00000000000E+00  0.20819471513E+04  0.20819471513E+04  0.25500000920E-02 0.  1.
       -2   -1    0    0    0  501  0.00000000000E+00  0.00000000000E+00 -0.15554755951E+04  0.15554755951E+04  0.25500000920E-02 0. -1.
    10030    2    1    2    0    0  0.00000000000E+00  0.00000000000E+00  0.52647155620E+03  0.36374227463E+04  0.35991209949E+04 0.  0.
        1    1    3    3  502    0  0.94160136808E+03 -0.50889205946E+03 -0.11988225311E+04  0.16070966759E+04  0.50400001928E-02 0. -1.
       -1    1    3    3    0  502 -0.94160136808E+03  0.50889205946E+03  0.17252940873E+04  0.20303260704E+04  0.50400001928E-02 0.  1.
</event>
<event>
 5   0  0.8024500E-09  0.3599984E+04  0.7818609E-02  0.8090495E-01
        1   -1    0    0  501    0  0.00000000000E+00  0.00000000000E+00  0.26561731154E+04  0.26561731154E+04  0.50400001928E-02 0. -1.
       -1   -1    0    0    0  501  0.00000000000E+00  0.00000000000E+00 -0.12197891375E+04  0.12197891375E+04  0.50400001928E-02 0.  1.
    10030    2    1    2    0    0  0.00000000000E+00  0.00000000000E+00  0.14363839778E+04  0.38759622529E+04  0.35999839519E+04 0.  0.
        5    1    3    3  502    0  0.65101758278E+03 -0.55035076323E+02  0.25239987372E+04  0.26071909151E+04  0.46999998093E+01 0. -1.
       -5    1    3    3    0  502 -0.65101758278E+03  0.55035076323E+02 -0.10876147593E+04  0.12687713377E+04  0.46999998093E+01 0.  1.
</event>
<event>
 5   0  0.2482243E-08  0.3600517E+04  0.7818609E-02  0.8090373E-01
        2   -1    0    0  501    0  0.00000000000E+00  0.00000000000E+00  0.17872888993E+04  0.17872888993E+04  0.25500000920E-02 0. -1.
       -2   -1    0    0    0  501  0.00000000000E+00  0.00000000000E+00 -0.18133219503E+04  0.18133219503E+04  0.25500000920E-02 0.  1.
    10030    2    1    2    0    0  0.00000000000E+00  0.00000000000E+00 -0.26033050994E+02  0.36006108496E+04  0.36005167366E+04 0.  0.
        5    1    3    3  502    0 -0.14022581410E+04 -0.14791587216E+03  0.11062540371E+04  0.17922129014E+04  0.46999998093E+01 0. -1.
       -5    1    3    3    0  502  0.14022581410E+04  0.14791587216E+03 -0.11322870881E+04  0.18083979482E+04  0.46999998093E+01 0.  1.
</event>
<event>
 5   0  0.8247570E-09  0.3600381E+04  0.7818609E-02  0.8090405E-01
       -1   -1    0    0    0  501  0.00000000000E+00  0.00000000000E+00  0.14409484642E+04  0.14409484642E+04  0.50400001928E-02 0.  1.
        1   -1    0    0  501    0  0.00000000000E+00  0.00000000000E+00 -0.22489943421E+04  0.22489943421E+04  0.50400001928E-02 0. -1.
    10030    2    1    2    0    0  0.00000000000E+00  0.00000000000E+00 -0.80804587794E+03  0.36899428063E+04  0.36003805039E+04 0.  0.
        3    1    3    3  502    0 -0.13620507832E+04  0.10300668476E+04  0.17976495607E+03  0.17171300173E+04  0.10100000352E+00 0. -1.
       -3    1    3    3    0  502  0.13620507832E+04 -0.10300668476E+04 -0.98781083401E+03  0.19728127890E+04  0.10100000352E+00 0.  1.
</event>
<event>
 5   0  0.2476968E-08  0.3601844E+04  0.7818609E-02  0.8090069E-01
       -2   -1    0    0    0  501  0.00000000000E+00  0.00000000000E+00  0.15169599906E+04  0.15169599906E+04  0.25500000920E-02 0. -1.
        2   -1    0    0  501    0  0.00000000000E+00  0.00000000000E+00 -0.21380390821E+04  0.21380390821E+04  0.25500000920E-02 0.  1.
    10030    2    1    2    0    0  0.00000000000E+00  0.00000000000E+00 -0.62107909156E+03  0.36549990727E+04  0.36018438310E+04 0.  0.
        2    1    3    3  502    0  0.15738359297E+04  0.61222044596E+03 -0.94551066941E+03  0.19353975907E+04  0.25500000920E-02 0.  1.
       -2    1    3    3    0  502 -0.15738359297E+04 -0.61222044596E+03  0.32443157786E+03  0.17196014820E+04  0.25500000920E-02 0. -1.
</event>
<event>
 5   0  0.8146881E-09  0.3602842E+04  0.7818609E-02  0.8089841E-01
        1   -1    0    0  501    0  0.00000000000E+00  0.00000000000E+00  0.16625026051E+04  0.16625026051E+04  0.50400001928E-02 0.  1.
       -1   -1    0    0    0  501  0.00000000000E+00  0.00000000000E+00 -0.19519475391E+04  0.19519475391E+04  0.50400001928E-02 0. -1.
    10030    2    1    2    0    0  0.00000000000E+00  0.00000000000E+00 -0.28944493398E+03  0.36144501442E+04  0.36028421385E+04 0.  0.
        4    1    3    3  502    0 -0.79838712435E+03 -0.65827933750E+03 -0.16240453893E+04  0.19256891561E+04  0.12699999809E+01 0. -1.
       -4    1    3    3    0  502  0.79838712435E+03  0.65827933750E+03  0.13346004553E+04  0.16887609881E+04  0.12699999809E+01 0.  1.
</event>
<event>
 5   0  0.8024500E-09  0.3599646E+04  0.7818609E-02  0.8090573E-01
        1   -1    0    0  501    0  0.00000000000E+00  0.00000000000E+00  0.28411509525E+04  0.28411509525E+04  0.50400001928E-02 0.  1.
       -1   -1    0    0    0  501  0.00000000000E+00  0.00000000000E+00 -0.11401585573E+04  0.11401585573E+04  0.50400001928E-02 0. -1.
    10030    2    1    2    0    0  0.00000000000E+00  0.00000000000E+00  0.17009923952E+04  0.39813095098E+04  0.35996458554E+04 0.  0.
        5    1    3    3  502    0  0.42502227514E+03 -0.10053256296E+04 -0.73232893084E+03  0.13144015021E+04  0.46999998093E+01 0. -1.
       -5    1    3    3    0  502 -0.42502227514E+03  0.10053256296E+04  0.24333213260E+04  0.26669080077E+04  0.46999998093E+01 0.  1.
</event>
<event>
 5   0  0.8024500E-09  0.3600033E+04  0.7818609E-02  0.8090484E-01
       -1   -1    0    0    0  501  0.00000000000E+00  0.00000000000E+00  0.16100757592E+04  0.16100757592E+04  0.50400001928E-02 0. -1.
        1   -1    0    0  501    0  0.00000000000E+00  0.00000000000E+00 -0.20123650622E+04  0.20123650622E+04  0.50400001928E-02 0.  1.
    10030    2    1    2    0    0  0.00000000000E+00  0.00000000000E+00 -0.40228930298E+03  0.36224408214E+04  0.36000334472E+04 0.  0.
        1    1    3    3  502    0 -0.11356783203E+03  0.81985373943E+03  0.14072418502E+04  0.16326014307E+04  0.50400001928E-02 0. -1.
       -1    1    3    3    0  502  0.11356783203E+03 -0.81985373943E+03 -0.18095311531E+04  0.19898393907E+04  0.50400001928E-02 0.  1.
</event>
<event>
 5   0  0.8063410E-09  0.3599936E+04  0.7818609E-02  0.8090506E-01
        1   -1    0    0  501    0  0.00000000000E+00  0.00000000000E+00  0.20130291302E+04  0.20130291302E+04  0.50400001928E-02 0.  1.
       -1   -1    0    0    0  501  0.00000000000E+00  0.00000000000E+00 -0.16094575856E+04  0.16094575856E+04  0.50400001928E-02 0. -1.
    10030    2    1    2    0    0  0.00000000000E+00  0.00000000000E+00  0.40357154466E+03  0.36224867158E+04  0.35999361125E+04 0.  0.
        2    1    3    3  502    0  0.13231320367E+03 -0.30625200228E+03  0.19816471980E+04  0.20095329532E+04  0.25500000920E-02 0.  1.
       -2    1    3    3    0  502 -0.13231320367E+03  0.30625200228E+03 -0.15780756533E+04  0.16129537626E+04  0.25500000920E-02 0. -1.
</event>
<event>
 5   0  0.2608070E-08  0.3599138E+04  0.7818609E-02  0.8090689E-01
       -2   -1    0    0    0  501  0.00000000000E+00  0.00000000000E+00  0.16077762817E+04  0.16077762817E+04  0.25500000920E-02 0. -1.
        2   -1    0    0  501    0  0.00000000000E+00  0.00000000000E+00 -0.20142412399E+04  0.20142412400E+04  0.25500000920E-02 0.  1.
    10030    2    1    2    0    0  0.00000000000E+00  0.00000000000E+00 -0.40646495829E+03  0.36220175216E+04  0.35991383920E+04 0.  0.
        3    1    3    3  502    0  0.15415292931E+04 -0.25868784305E+03  0.69418580935E+03  0.17102999473E+04  0.10100000352E+00 0.  1.
       -3    1    3    3    0  502 -0.15415292931E+04  0.25868784305E+03 -0.11006507676E+04  0.19117175743E+04  0.10100000352E+00 0. -1.
</event>
<event>
 5   0  0.2494592E-08  0.3599574E+04  0.7818609E-02  0.8090589E-01
       -2   -1    0    0    0  501  0.00000000000E+00  0.00000000000E+00  0.14381552100E+04  0.14381552100E+04  0.25500000920E-02 0.  1.
        2   -1    0    0  501    0  0.00000000000E+00  0.00000000000E+00 -0.22523534121E+04  0.22523534121E+04  0.25500000920E-02 0. -1.
    10030    2    1    2    0    0  0.00000000000E+00  0.00000000000E+00 -0.81419820216E+03  0.36905086221E+04  0.35995743050E+04 0.  0.
        1    1    3    3  502    0 -0.33898566530E+03 -0.32472057642E+03 -0.21884847071E+04  0.22382627298E+04  0.50400001928E-02 0. -1.
       -1    1    3    3    0  502  0.33898566530E+03  0.32472057642E+03  0.13742865050E+04  0.14522458923E+04  0.50400001928E-02 0.  1.
</event>
<event>
 5   0  0.8063410E-09  0.3599190E+04  0.7818609E-02  0.8090677E-01
       -1   -1    0    0    0  501  0.00000000000E+00  0.00000000000E+00  0.30442879615E+04  0.30442879615E+04  0.50400001928E-02 0. -1.
        1   -1    0    0  501    0  0.00000000000E+00  0.00000000000E+00 -0.10638095844E+04  0.10638095844E+04  0.50400001928E-02 0.  1.
    10030    2    1    2    0    0  0.00000000000E+00  0.00000000000E+00  0.19804783771E+04  0.41080975460E+04  0.35991903041E+04 0.  0.
        2    1    3    3  502    0 -0.11905949572E+04  0.13494308741E+04  0.99927533960E+03  0.20584050234E+04  0.25500000920E-02 0.  1.
       -2    1    3    3    0  502  0.11905949572E+04 -0.13494308741E+04  0.98120303749E+03  0.20496925225E+04  0.25500000920E-02 0. -1.
</event>
<event>
 5   0  0.8146881E-09  0.3600639E+04  0.7818609E-02  0.8090345E-01
       -1   -1    0    0    0  501  0.00000000000E+00  0.00000000000E+00  0.16959226719E+04  0.16959226719E+04  0.50400001928E-02 0.  1.
        1   -1    0    0  501    0  0.00000000000E+00  0.00000000000E+00 -0.19111425316E+04  0.19111425317E+04  0.50400001928E-02 0. -1.
    10030    2    1    2    0    0  0.00000000000E+00  0.00000000000E+00 -0.21521985972E+03  0.36070652036E+04  0.36006388037E+04 0.  0.
        4    1    3    3  502    0  0.14877611803E+04  0.67621008755E+03 -0.86424262172E+03  0.18486779964E+04  0.12699999809E+01 0. -1.
       -4    1    3    3    0  502 -0.14877611803E+04 -0.67621008755E+03  0.64902276201E+03  0.17583872072E+04  0.12699999809E+01 0.  1.
</event>
<event>
 5   0  0.8247570E-09  0.3600223E+04  0.7818609E-02  0.8090441E-01
        1   -1    0    0  501    0  0.00000000000E+00  0.00000000000E+00  0.23956693539E+04  0.23956693539E+04  0.50400001928E-02 0. -1.
       -1   -1    0    0    0  501  0.00000000000E+00  0.00000000000E+00 -0.13526079144E+04  0.13526079144E+04  0.50400001928E-02 0.  1.
    10030    2    1    2    0    0  0.00000000000E+00  0.00000000000E+00  0.10430614395E+04  0.37482772683E+04  0.36002229533E+04 0.  0.
        3    1    3    3  502    0 -0.87848689480E+03 -0.56259291123E+03 -0.10058197879E+04  0.14491112669E+04  0.10100000352E+00 0.  1.
       -3    1    3    3    0  502  0.87848689480E+03  0.56259291123E+03  0.20488812273E+04  0.22991660014E+04  0.10100000352E+00 0. -1.
</event>
<event>
 5   0  0.8146881E-09  0.3600975E+04  0.7818609E-02  0.8090268E-01
       -1   -1    0    0    0  501  0.00000000000E+00  0.00000000000E+00  0.22004001269E+04  0.22004001269E+04  0.50400001928E-02 0.  1.
        1   -1    0    0  501    0  0.00000000000E+00  0.00000000000E+00 -0.14732572223E+04  0.14732572223E+04  0.50400001928E-02 0. -1.
    10030    2    1    2    0    0  0.00000000000E+00  0.00000000000E+00  0.72714290457E+03  0.36736573493E+04  0.36009750785E+04 0.  0.
        4    1    3    3  502    0  0.30593867123E+03  0.26764176563E+03  0.21529763690E+04  0.21910133372E+04  0.12699999809E+01 0.  1.
       -4    1    3    3    0  502 -0.30593867123E+03 -0.26764176563E+03 -0.14258334645E+04  0.14826440121E+04  0.12699999809E+01 0. -1.
</event>
<event>
 5   0  0.2476968E-08  0.3597637E+04  0.7818609E-02  0.8091033E-01
        2   -1    0    0  501    0  0.00000000000E+00  0.00000000000E+00  0.15954822262E+04  0.15954822262E+04  0.25500000920E-02 0. -1.
       -2   -1    0    0    0  501  0.00000000000E+00  0.00000000000E+00 -0.20280691297E+04  0.20280691297E+04  0.25500000920E-02 0.  1.
    10030    2    1    2    0    0  0.00000000000E+00  0.00000000000E+00 -0.43258690352E+03  0.36235513559E+04  0.35976371412E+04 0.  0.
        2    1    3    3  502    0  0.73300986568E+03  0.16271461355E+04  0.10808496773E+02  0.17846637871E+04  0.25500000920E-02 0. -1.
       -2    1    3    3    0  502 -0.73300986568E+03 -0.16271461355E+04 -0.44339540029E+03  0.18388875688E+04  0.25500000920E-02 0.  1.
</event>
<event>
 5   0  0.2494592E-08  0.3599459E+04  0.7818609E-02  0.8090616E-01
       -2   -1    0    0    0  501  0.00000000000E+00  0.00000000000E+00  0.17122148118E+04  0.17122148118E+04  0.25500000920E-02 0. -1.
        2   -1    0    0  501    0  0.00000000000E+00  0.00000000000E+00 -0.18917173941E+04  0.18917173941E+04  0.25500000920E-02 0.  1.
    10030    2    1    2    0    0  0.00000000000E+00  0.00000000000E+00 -0.17950258233E+03  0.36039322060E+04  0.35994591494E+04 0.  0.
        1    1    3    3  502    0 -0.51251931356E+03  0.16268565010E+04 -0.66464983767E+03  0.18306003191E+04  0.50400001928E-02 0.  1.
       -1    1    3    3    0  502  0.51251931356E+03 -0.16268565010E+04  0.48514725535E+03  0.17733318869E+04  0.50400001928E-02 0. -1.
</event>
<event>
 5   0  0.8024500E-09  0.3593899E+04  0.7818609E-02  0.8091891E-01
       -1   -1    0    0    0  501  0.00000000000E+00  0.00000000000E+00  0.14971536555E+04  0.14971536555E+04  0.50400001928E-02 0.  1.
        1   -1    0    0  501    0  0.00000000000E+00  0.00000000000E+00 -0.21567771194E+04  0.21567771194E+04  0.50400001928E-02 0. -1.
    10030    2    1    2    0    0  0.00000000000E+00  0.00000000000E+00 -0.65962346388E+03  0.36539307748E+04  0.35938985786E+04 0.  0.
        1    1    3    3  502    0  0.15435749532E+04  0.67888237504E+03 -0.96108730873E+03  0.19409259981E+04  0.50400001928E-02 0.  1.
       -1    1    3    3    0  502 -0.15435749532E+04 -0.67888237504E+03  0.30146384485E+03  0.17130047767E+04  0.50400001928E-02 0. -1.
</event>
<event>
 5   0  0.2476968E-08  0.3600169E+04  0.7818609E-02  0.8090453E-01
        2   -1    0    0  501    0  0.00000000000E+00  0.00000000000E+00  0.24934655801E+04  0.24934655801E+04  0.25500000920E-02 0. -1.
       -2   -1    0    0    0  501  0.00000000000E+00  0.00000000000E+00 -0.12995183449E+04  0.12995183449E+04  0.25500000920E-02 0.  1.
    10030    2    1    2    0    0  0.00000000000E+00  0.00000000000E+00  0.11939472352E+04  0.37929839250E+04  0.36001690314E+04 0.  0.
        2    1    3    3  502    0 -0.36064991695E+03  0.17003594313E+04  0.10900267894E+04  0.20516941682E+04  0.25500000920E-02 0. -1.
       -2    1    3    3    0  502  0.36064991695E+03 -0.17003594313E+04  0.10392044578E+03  0.17412897568E+04  0.25500000920E-02 0.  1.
</event>
<event>
 5   0  0.8247570E-09  0.3599302E+04  0.7818609E-02  0.8090652E-01
        1   -1    0    0  501    0  0.00000000000E+00  0.00000000000E+00  0.18779814755E+04  0.18779814755E+04  0.50400001928E-02 0.  1.
       -1   -1    0    0    0  501  0.00000000000E+00  0.00000000000E+00 -0.17245874813E+04  0.17245874813E+04  0.50400001928E-02 0. -1.
    10030    2    1    2    0    0  0.00000000000E+00  0.00000000000E+00  0.15339399429E+03  0.36025689568E+04  0.35993017894E+04 0.  0.
        3    1    3    3  502    0  0.48376023324E+03 -0.14324950421E+04  0.10536348877E+04  0.18428815740E+04  0.10100000352E+00 0.  1.
       -3    1    3    3    0  502 -0.48376023324E+03  0.14324950421E+04 -0.90024089340E+03  0.17596873828E+04  0.10100000352E+00 0. -1.
</event>
<event>
 5   0  0.2494592E-08  0.3602241E+04  0.7818609E-02  0.8089979E-01
        2   -1    0    0  501    0  0.00000000000E+00  0.00000000000E+00  0.18884018233E+04  0.18884018233E+04  0.25500000920E-02 0. -1.
       -2   -1    0    0    0  501  0.00000000000E+00  0.00000000000E+00 -0.17178734894E+04  0.17178734894E+04  0.25500000920E-02 0.  1.
    10030    2    1    2    0    0  0.00000000000E+00  0.00000000000E+00  0.17052833392E+03  0.36062753128E+04  0.36022412077E+04 0.  0.
        1    1    3    3  502    0  0.11353797313E+04  0.12413506096E+04  0.72941068668E+03  0.18335971259E+04  0.50400001928E-02 0. -1.
       -1    1    3    3    0  502 -0.11353797313E+04 -0.12413506096E+04 -0.55888235276E+03  0.17726781869E+04  0.50400001928E-02 0.  1.
</event>
<event>
 5   0  0.8247570E-09  0.3600136E+04  0.7818609E-02  0.8090460E-01
       -1   -1    0    0    0  501  0.00000000000E+00  0.00000000000E+00  0.11156158446E+04  0.11156158446E+04  0.50400001928E-02 0.  1.
        1   -1    0    0  501    0  0.00000000000E+00  0.00000000000E+00 -0.29044452907E+04  0.29044452907E+04  0.50400001928E-02 0. -1.
    10030    2    1    2    0    0  0.00000000000E+00  0.00000000000E+00 -0.17888294461E+04  0.40200611353E+04  0.36001362119E+04 0.  0.
        3    1    3    3  502    0 -0.47220089329E+03  0.99516262688E+03 -0.24841775328E+04  0.27174363584E+04  0.10100000352E+00 0. -1.
       -3    1    3    3    0  502  0.47220089329E+03 -0.99516262688E+03  0.69534808665E+03  0.13026247769E+04  0.10100000352E+00 0.  1.
</event>
<event>
 5   0  0.2482243E-08  0.3600408E+04  0.7818609E-02  0.8090398E-01
       -2   -1    0    0    0  501  0.00000000000E+00  0.00000000000E+00  0.14734741809E+04  0.14734741809E+04  0.25500000920E-02 0.  1.
        2   -1    0    0  501    0  0.00000000000E+00  0.00000000000E+00 -0.21993830420E+04  0.21993830420E+04  0.25500000920E-02 0. -1.
    10030    2    1    2    0    0  0.00000000000E+00  0.00000000000E+00 -0.72590886111E+03  0.36728572229E+04  0.36004078248E+04 0.  0.
        5    1    3    3  502    0  0.17542087838E+04  0.38403083515E+03 -0.23398295038E+03  0.18109384999E+04  0.46999998093E+01 0.  1.
       -5    1    3    3    0  502 -0.17542087838E+04 -0.38403083515E+03 -0.49192591073E+03  0.18619187230E+04  0.46999998093E+01 0. -1.
</event>
<event>
 5   0  0.2494592E-08  0.3599083E+04  0.7818609E-02  0.8090702E-01
        2   -1    0    0  501    0  0.00000000000E+00  0.00000000000E+00  0.23813023008E+04  0.23813023008E+04  0.25500000920E-02 0.  1.
       -2   -1    0    0    0  501  0.00000000000E+00  0.00000000000E+00 -0.13599071590E+04  0.13599071590E+04  0.25500000920E-02 0. -1.
    10030    2    1    2    0    0  0.00000000000E+00  0.00000000000E+00  0.10213951417E+04  0.37412094598E+04  0.35990832425E+04 0.  0.
        1    1    3    3  502    0  0.47088107724E+03 -0.43220905996E+03  0.22593329495E+04  0.23480032021E+04  0.50400001928E-02 0.  1.
       -1    1    3    3    0  502 -0.47088107724E+03  0.43220905996E+03 -0.12379378078E+04  0.13932062577E+04  0.50400001928E-02 0. -1.
</event>
<event>
 5   0  0.8063410E-09  0.3599795E+04  0.7818609E-02  0.8090539E-01
       -1   -1    0    0    0  501  0.00000000000E+00  0.00000000000E+00  0.17148951213E+04  0.17148951213E+04  0.50400001928E-02 0.  1.
        1   -1    0    0  501    0  0.00000000000E+00  0.00000000000E+00 -0.18891129842E+04  0.18891129842E+04  0.50400001928E-02 0. -1.
    10030    2    1    2    0    0  0.00000000000E+00  0.00000000000E+00 -0.17421786293E+03  0.36040081055E+04  0.35997947943E+04 0.  0.
        2    1    3    3  502    0 -0.13275707435E+03 -0.89432770369E+03 -0.16452672914E+04  0.18773254759E+04  0.25500000920E-02 0. -1.
       -2    1    3    3    0  502  0.13275707435E+03  0.89432770369E+03  0.14710494285E+04  0.17266826296E+04  0.25500000920E-02 0.  1.
</event>
<event>
 5   0  0.2476968E-08  0.3583764E+04  0.7818609E-02  0.8094221E-01
       -2   -1    0    0    0  501  0.00000000000E+00  0.00000000000E+00  0.16545336435E+04  0.16545336435E+04  0.25500000920E-02 0.  1.
        2   -1    0    0  501    0  0.00000000000E+00  0.00000000000E+00 -0.19406319054E+04  0.19406319054E+04  0.25500000920E-02 0. -1.
    10030    2    1    2    0    0  0.00000000000E+00  0.00000000000E+00 -0.28609826197E+03  0.35951655489E+04  0.35837638187E+04 0.  0.
        2    1    3    3  502    0 -0.67875802949E+03  0.16581319297E+04 -0.11600378932E+03  0.17954305439E+04  0.25500000920E-02 0. -1.
       -2    1    3    3    0  502  0.67875802949E+03 -0.16581319297E+04 -0.17009447265E+03  0.17997350050E+04  0.25500000920E-02 0.  1.
</event>
<event>
 5   0  0.2494592E-08  0.3601851E+04  0.7818609E-02  0.8090068E-01
        2   -1    0    0  501    0  0.00000000000E+00  0.00000000000E+00  0.27204790237E+04  0.27204790237E+04  0.25500000920E-02 0.  1.
       -2   -1    0    0    0  501  0.00000000000E+00  0.00000000000E+00 -0.11921920127E+04  0.11921920127E+04  0.25500000920E-02 0. -1.
    10030    2    1    2    0    0  0.00000000000E+00  0.00000000000E+00  0.15282870110E+04  0.39126710364E+04  0.36018513922E+04 0.  0.
        1    1    3    3  502    0 -0.93745876805E+03  0.14896854703E+04  0.35000792540E+03  0.17945744036E+04  0.50400001928E-02 0. -1.
       -1    1    3    3    0  502  0.93745876805E+03 -0.14896854703E+04  0.11782790856E+04  0.21180966328E+04  0.50400001928E-02 0.  1.
</event>
<event>
 5   0  0.8063410E-09  0.3602358E+04  0.7818609E-02  0.8089952E-01
       -1   -1    0    0    0  501  0.00000000000E+00  0.00000000000E+00  0.13706506432E+04  0.13706506432E+04  0.50400001928E-02 0. -1.
        1   -1    0    0  501    0  0.00000000000E+00  0.00000000000E+00 -0.23669382104E+04  0.23669382104E+04  0.50400001928E-02 0.  1.
    10030    2    1    2    0    0  0.00000000000E+00  0.00000000000E+00 -0.99628756721E+03  0.37375888536E+04  0.36023577726E+04 0.  0.
        2    1    3    3  502    0  0.38386148806E+03 -0.14498531630E+04 -0.15329934733E+04  0.21446428200E+04  0.25500000920E-02 0.  1.
       -2    1    3    3    0  502 -0.38386148806E+03  0.14498531630E+04  0.53670590607E+03  0.15929460336E+04  0.25500000920E-02 0. -1.
</event>
<event>
 5   0  0.8146881E-09  0.3600169E+04  0.7818609E-02  0.8090453E-01
       -1   -1    0    0    0  501  0.00000000000E+00  0.00000000000E+00  0.18165001090E+04  0.18165001090E+04  0.50400001928E-02 0. -1.
        1   -1    0    0  501    0  0.00000000000E+00  0.00000000000E+00 -0.17838175531E+04  0.17838175531E+04  0.50400001928E-02 0.  1.
    10030    2    1    2    0    0  0.00000000000E+00  0.00000000000E+00  0.32682555858E+02  0.36003176621E+04  0.36001693181E+04 0.  0.
        4    1    3    3  502    0  0.12797096775E+04 -0.11522897905E+04  0.54064767654E+03  0.18049183203E+04  0.12699999809E+01 0. -1.
       -4    1    3    3    0  502 -0.12797096775E+04  0.11522897905E+04 -0.50796512068E+03  0.17953993418E+04  0.12699999809E+01 0.  1.
</event>
<event>
 5   0  0.2482243E-08  0.3613171E+04  0.7818609E-02  0.8087481E-01
        2   -1    0    0  501    0  0.00000000000E+00  0.00000000000E+00  0.23959960256E+04  0.23959960256E+04  0.25500000920E-02 0.  1.
       -2   -1    0    0    0  501  0.00000000000E+00  0.00000000000E+00 -0.13621688632E+04  0.13621688632E+04  0.25500000920E-02 0. -1.
    10030    2    1    2    0    0  0.00000000000E+00  0.00000000000E+00  0.10338271624E+04  0.37581648888E+04  0.36131710075E+04 0.  0.
        5    1    3    3  502    0  0.40164359412E+03  0.49339800431E+01  0.23489551013E+04  0.23830556180E+04  0.46999998093E+01 0.  1.
       -5    1    3    3    0  502 -0.40164359412E+03 -0.49339800431E+01 -0.13151279389E+04  0.13751092707E+04  0.46999998093E+01 0. -1.
</event>
<event>
 5   0  0.8024500E-09  0.3600419E+04  0.7818609E-02  0.8090396E-01
       -1   -1    0    0    0  501  0.00000000000E+00  0.00000000000E+00  0.17698765221E+04  0.17698765221E+04  0.50400001928E-02 0. -1.
        1   -1    0    0  501    0  0.00000000000E+00  0.00000000000E+00 -0.18310621533E+04  0.18310621533E+04  0.50400001928E-02 0.  1.
    10030    2    1    2    0    0  0.00000000000E+00  0.00000000000E+00 -0.61185631203E+02  0.36009386754E+04  0.36004188176E+04 0.  0.
        5    1    3    3  502    0  0.14573553918E+04 -0.60330921211E+03 -0.89839608102E+03  0.18152146848E+04  0.46999998093E+01 0.  1.
       -5    1    3    3    0  502 -0.14573553918E+04  0.60330921211E+03  0.83721044981E+03  0.17857239906E+04  0.46999998093E+01 0. -1.
</event>
<event>
 5   0  0.8247570E-09  0.3600430E+04  0.7818609E-02  0.8090393E-01
       -1   -1    0    0    0  501  0.00000000000E+00  0.00000000000E+00  0.15157788867E+04  0.15157788867E+04  0.50400001928E-02 0. -1.
        1   -1    0    0  501    0  0.00000000000E+00  0.00000000000E+00 -0.21380258675E+04  0.21380258676E+04  0.50400001928E-02 0.  1.
    10030    2    1    2    0    0  0.00000000000E+00  0.00000000000E+00 -0.62224698084E+03  0.36538047543E+04  0.36004302350E+04 0.  0.
        3    1    3    3  502    0  0.15316381322E+04  0.91416781701E+03 -0.55794977911E+03  0.18689371664E+04  0.10100000352E+00 0.  1.
       -3    1    3    3    0  502 -0.15316381322E+04 -0.91416781701E+03 -0.64297201733E+02  0.17848675879E+04  0.10100000352E+00 0. -1.
</event>
<event>
 5   0  0.2608070E-08  0.3602525E+04  0.7818609E-02  0.8089913E-01
        2   -1    0    0  501    0  0.00000000000E+00  0.00000000000E+00  0.29595864420E+04  0.29595864421E+04  0.25500000920E-02 0. -1.
       -2   -1    0    0    0  501  0.00000000000E+00  0.00000000000E+00 -0.10962839409E+04  0.10962839409E+04  0.25500000920E-02 0.  1.
    10030    2    1    2    0    0  0.00000000000E+00  0.00000000000E+00  0.18633025012E+04  0.40558703829E+04  0.36025252744E+04 0.  0.
        3    1    3    3  502    0 -0.10431118957E+04 -0.73985098909E+03 -0.49647481708E+03  0.13718415241E+04  0.10100000352E+00 0.  1.
       -3    1    3    3    0  502  0.10431118957E+04  0.73985098909E+03  0.23597773182E+04  0.26840288588E+04  0.10100000352E+00 0. -1.
</event>
<event>
 5   0  0.2482243E-08  0.3583324E+04  0.7818609E-02  0.8094322E-01
       -2   -1    0    0    0  501  0.00000000000E+00  0.00000000000E+00  0.18996521428E+04  0.18996521428E+04  0.25500000920E-02 0.  1.
        2   -1    0    0  501    0  0.00000000000E+00  0.00000000000E+00 -0.16898106233E+04  0.16898106233E+04  0.25500000920E-02 0. -1.
    10030    2    1    2    0    0  0.00000000000E+00  0.00000000000E+00  0.20984151947E+03  0.35894627661E+04  0.35833238043E+04 0.  0.
        5    1    3    3  502    0  0.11430763512E+04 -0.60224374335E+03 -0.11384588398E+04  0.17220428830E+04  0.46999998093E+01 0. -1.
       -5    1    3    3    0  502 -0.11430763512E+04  0.60224374335E+03  0.13483003592E+04  0.18674198831E+04  0.46999998093E+01 0.  1.
</event>
<event>
 5   0  0.8024500E-09  0.3599281E+04  0.7818609E-02  0.8090656E-01
       -1   -1    0    0    0  501  0.00000000000E+00  0.00000000000E+00  0.13599436286E+04  0.13599436286E+04  0.50400001928E-02 0.  1.
        1   -1    0    0  501    0  0.00000000000E+00  0.00000000000E+00 -0.23815005468E+04  0.23815005468E+04  0.50400001928E-02 0. -1.
    10030    2    1    2    0    0  0.00000000000E+00  0.00000000000E+00 -0.10215569182E+04  0.37414441754E+04  0.35992813144E+04 0.  0.
        5    1    3    3  502    0  0.11795743342E+04  0.42736941196E+03 -0.18519495585E+04  0.22369129356E+04  0.46999998093E+01 0. -1.
       -5    1    3    3    0  502 -0.11795743342E+04 -0.42736941196E+03  0.83039264035E+03  0.15045312397E+04  0.46999998093E+01 0.  1.
</event>
<event>
 5   0  0.8063410E-09  0.3599919E+04  0.7818609E-02  0.8090510E-01
        1   -1    0    0  501    0  0.00000000000E+00  0.00000000000E+00  0.13027143702E+04  0.13027143702E+04  0.50400001928E-02 0. -1.
       -1   -1    0    0    0  501  0.00000000000E+00  0.00000000000E+00 -0.24870025238E+04  0.24870025238E+04  0.50400001928E-02 0.  1.
    10030    2    1    2    0    0  0.00000000000E+00  0.00000000000E+00 -0.11842881536E+04  0.37897168941E+04  0.35999188472E+04 0.  0.
        2    1    3    3  502    0  0.10130664013E+04 -0.14762973083E+04 -0.39775586786E+03  0.18341120484E+04  0.25500000920E-02 0. -1.
       -2    1    3    3    0  502 -0.10130664013E+04  0.14762973083E+04 -0.78653228573E+03  0.19556048456E+04  0.25500000920E-02 0.  1.
</event>
<event>
 5   0  0.2590795E-08  0.3600132E+04  0.7818609E-02  0.8090461E-01
       -2   -1    0    0    0  501  0.00000000000E+00  0.00000000000E+00  0.13772732057E+04  0.13772732057E+04  0.25500000920E-02 0. -1.
        2   -1    0    0  501    0  0.00000000000E+00  0.00000000000E+00 -0.23526469388E+04  0.23526469388E+04  0.25500000920E-02 0.  1.
    10030    2    1    2    0    0  0.00000000000E+00  0.00000000000E+00 -0.97537373317E+03  0.37299201445E+04  0.36001319927E+04 0.  0.
        4    1    3    3  502    0 -0.52068910349E+03 -0.12396611390E+04  0.75227139166E+03  0.15407111156E+04  0.12699999809E+01 0. -1.
       -4    1    3    3    0  502  0.52068910349E+03  0.12396611390E+04 -0.17276451248E+04  0.21892090289E+04  0.12699999809E+01 0.  1.
</event>
<event>
 5   0  0.2482243E-08  0.3600680E+04  0.7818609E-02  0.8090336E-01
       -2   -1    0    0    0  501  0.00000000000E+00  0.00000000000E+00  0.23326863973E+04  0.23326863973E+04  0.25500000920E-02 0.  1.
        2   -1    0    0  501    0  0.00000000000E+00  0.00000000000E+00 -0.13894810646E+04  0.13894810646E+04  0.25500000920E-02 0. -1.
    10030    2    1    2    0    0  0.00000000000E+00  0.00000000000E+00  0.94320533269E+03  0.37221674619E+04  0.36006797018E+04 0.  0.
        5    1    3    3  502    0 -0.65886916908E+03 -0.12910959335E+04  0.15754146827E+04  0.21407920973E+04  0.46999998093E+01 0.  1.
       -5    1    3    3    0  502  0.65886916908E+03  0.12910959335E+04 -0.63220935005E+03  0.15813753646E+04  0.46999998093E+01 0. -1.
</event>
<event>
 5   0  0.8024500E-09  0.3596986E+04  0.7818609E-02  0.8091182E-01
        1   -1    0    0  501    0  0.00000000000E+00  0.00000000000E+00  0.18083987604E+04  0.18083987604E+04  0.50400001928E-02 0. -1.
       -1   -1    0    0    0  501  0.00000000000E+00  0.00000000000E+00 -0.17886418402E+04  0.17886418402E+04  0.50400001928E-02 0.  1.
    10030    2    1    2    0    0  0.00000000000E+00  0.00000000000E+00  0.19756920242E+02  0.35970406006E+04  0.35969863423E+04 0.  0.
        1    1    3    3  502    0  0.97773420419E+03  0.15000286915E+04  0.17878168103E+03  0.17994480095E+04  0.50400001928E-02 0.  1.
       -1    1    3    3    0  502 -0.97773420419E+03 -0.15000286915E+04 -0.15902476079E+03  0.17975925912E+04  0.50400001928E-02 0. -1.
</event>
<event>
 5   0  0.2476968E-08  0.3601833E+04  0.7818609E-02  0.8090072E-01
       -2   -1    0    0    0  501  0.00000000000E+00  0.00000000000E+00  0.12315274633E+04  0.12315274633E+04  0.25500000920E-02 0. -1.
        2   -1    0    0  501    0  0.00000000000E+00  0.00000000000E+00 -0.26335592454E+04  0.26335592454E+04  0.25500000920E-02 0.  1.
    10030    2    1    2    0    0  0.00000000000E+00  0.00000000000E+00 -0.14020317821E+04  0.38650867087E+04  0.36018331649E+04 0.  0.
        2    1    3    3  502    0 -0.12345613479E+04 -0.59469698377E+03  0.55293519643E+03  0.14776818182E+04  0.25500000920E-02 0. -1.
       -2    1    3    3    0  502  0.12345613479E+04  0.59469698377E+03 -0.19549669785E+04  0.23874048905E+04  0.25500000920E-02 0.  1.
</event>
<event>
 5   0  0.8063410E-09  0.3599436E+04  0.7818609E-02  0.8090621E-01
        1   -1    0    0  501    0  0.00000000000E+00  0.00000000000E+00  0.28005464914E+04  0.28005464914E+04  0.50400001928E-02 0. -1.
       -1   -1    0    0    0  501  0.00000000000E+00  0.00000000000E+00 -0.11565544728E+04  0.11565544728E+04  0.50400001928E-02 0.  1.
    10030    2    1    2    0    0  0.00000000000E+00  0.00000000000E+00  0.16439920186E+04  0.39571009642E+04  0.35994358286E+04 0.  0.
        2    1    3    3  502    0 -0.84143979910E+02  0.11376194160E+04 -0.70834750411E+03  0.13427636916E+04  0.25500000920E-02 0.  1.
       -2    1    3    3    0  502  0.84143979910E+02 -0.11376194160E+04  0.23523395227E+04  0.26143372726E+04  0.25500000920E-02 0. -1.
</event>
<event>
 5   0  0.2494592E-08  0.3600564E+04  0.7818609E-02  0.8090362E-01
        2   -1    0    0  501    0  0.00000000000E+00  0.00000000000E+00  0.23210355571E+04  0.23210355571E+04  0.25500000920E-02 0. -1.
       -2   -1    0    0    0  501  0.00000000000E+00  0.00000000000E+00 -0.13963661758E+04  0.13963661758E+04  0.25500000920E-02 0.  1.
    10030    2    1    2    0    0  0.00000000000E+00  0.00000000000E+00  0.92466938128E+03  0.37174017329E+04  0.36005641473E+04 0.  0.
        1    1    3    3  502    0 -0.55535858646E+03 -0.65810257441E+03 -0.11699463657E+04  0.14526860144E+04  0.50400001928E-02 0.  1.
       -1    1    3    3    0  502  0.55535858646E+03  0.65810257441E+03  0.20946157469E+04  0.22647157184E+04  0.50400001928E-02 0. -1.
</event>
<event>
 5   0  0.8247570E-09  0.3600545E+04  0.7818609E-02  0.8090367E-01
        1   -1    0    0  501    0  0.00000000000E+00  0.00000000000E+00  0.22187264893E+04  0.22187264893E+04  0.50400001928E-02 0.  1.
       -1   -1    0    0    0  501  0.00000000000E+00  0.00000000000E+00 -0.14607391409E+04  0.14607391409E+04  0.50400001928E-02 0. -1.
    10030    2    1    2    0    0  0.00000000000E+00  0.00000000000E+00  0.75798734846E+03  0.36794656302E+04  0.36005447509E+04 0.  0.
        3    1    3    3  502    0 -0.17232721251E+03  0.70512393103E+03  0.20625521092E+04  0.21865538273E+04  0.10100000352E+00 0.  1.
       -3    1    3    3    0  502  0.17232721251E+03 -0.70512393103E+03 -0.13045647607E+04  0.14929118029E+04  0.10100000352E+00 0. -1.
</event>
<event>
 5   0  0.8247570E-09  0.3599348E+04  0.7818609E-02  0.8090641E-01
       -1   -1    0    0    0  501  0.00000000000E+00  0.00000000000E+00  0.16848915280E+04  0.16848915281E+04  0.50400001928E-02 0.  1.
        1   -1    0    0  501    0  0.00000000000E+00  0.00000000000E+00 -0.19222760455E+04  0.19222760455E+04  0.50400001928E-02 0. -1.
    10030    2    1    2    0    0  0.00000000000E+00  0.00000000000E+00 -0.23738451747E+03  0.36071675736E+04  0.35993480652E+04 0.  0.
        3    1    3    3  502    0  0.70434849811E+03  0.11436256998E+04  0.10817581390E+04  0.17245832046E+04  0.10100000352E+00 0.  1.
       -3    1    3    3    0  502 -0.70434849811E+03 -0.11436256998E+04 -0.13191426565E+04  0.18825843690E+04  0.10100000352E+00 0. -1.
</event>
<event>
 5   0  0.2590795E-08  0.3601578E+04  0.7818609E-02  0.8090130E-01
       -2   -1    0    0    0  501  0.00000000000E+00  0.00000000000E+00  0.91902250806E+03  0.91902250806E+03  0.25500000920E-02 0. -1.
        2   -1    0    0  501    0  0.00000000000E+00  0.00000000000E+00 -0.35285755599E+04  0.35285755599E+04  0.25500000920E-02 0.  1.
    10030    2    1    2    0    0  0.00000000000E+00  0.00000000000E+00 -0.26095530518E+04  0.44475980679E+04  0.36015776326E+04 0.  0.
        4    1    3    3  502    0 -0.44118920235E+03 -0.37391225386E+03 -0.34107765007E+04  0.34594589514E+04  0.12699999809E+01 0.  1.
       -4    1    3    3    0  502  0.44118920235E+03  0.37391225386E+03  0.80122344883E+03  0.98813911658E+03  0.12699999809E+01 0. -1.
</event>
<event>
 5   0  0.2494592E-08  0.3600445E+04  0.7818609E-02  0.8090390E-01
       -2   -1    0    0    0  501  0.00000000000E+00  0.00000000000E+00  0.13582074192E+04  0.13582074192E+04  0.25500000920E-02 0.  1.
        2   -1    0    0  501    0  0.00000000000E+00  0.00000000000E+00 -0.23860871143E+04  0.23860871143E+04  0.25500000920E-02 0. -1.
    10030    2    1    2    0    0  0.00000000000E+00  0.00000000000E+00 -0.10278796951E+04  0.37442945334E+04  0.36004450955E+04 0.  0.
        1    1    3    3  502    0  0.15353686085E+04  0.65493993073E+03  0.18715999324E+03  0.16796820949E+04  0.50400001928E-02 0.  1.
       -1    1    3    3    0  502 -0.15353686085E+04 -0.65493993073E+03 -0.12150396883E+04  0.20646124385E+04  0.50400001928E-02 0. -1.
</event>
<event>
 5   0  0.8063410E-09  0.3601251E+04  0.7818609E-02  0.8090205E-01
        1   -1    0    0  501    0  0.00000000000E+00  0.00000000000E+00  0.14202224712E+04  0.14202224712E+04  0.50400001928E-02 0.  1.
       -1   -1    0    0    0  501  0.00000000000E+00  0.00000000000E+00 -0.22829183114E+04  0.22829183114E+04  0.50400001928E-02 0. -1.
    10030    2    1    2    0    0  0.00000000000E+00  0.00000000000E+00 -0.86269584021E+03  0.37031407827E+04  0.36012508304E+04 0.  0.
        2    1    3    3  502    0 -0.13822440436E+04 -0.78429648625E+03  0.43908386434E+03  0.16487917438E+04  0.25500000920E-02 0.  1.
       -2    1    3    3    0  502  0.13822440436E+04  0.78429648625E+03 -0.13017797045E+04  0.20543490389E+04  0.25500000920E-02 0. -1.
</event>
<event>
 5   0  0.8146881E-09  0.3599749E+04  0.7818609E-02  0.8090549E-01
        1   -1    0    0  501    0  0.00000000000E+00  0.00000000000E+00  0.22685349612E+04  0.22685349613E+04  0.50400001928E-02 0. -1.
       -1   -1    0    0    0  501  0.00000000000E+00  0.00000000000E+00 -0.14280355731E+04  0.14280355731E+04  0.50400001928E-02 0.  1.
    10030    2    1    2    0    0  0.00000000000E+00  0.00000000000E+00  0.84049938820E+03  0.36965705343E+04  0.35997492265E+04 0.  0.
        4    1    3    3  502    0  0.16711842124E+04 -0.29327600448E+03  0.10369689295E+04  0.19885104124E+04  0.12699999809E+01 0. -1.
       -4    1    3    3    0  502 -0.16711842124E+04  0.29327600448E+03 -0.19646954130E+03  0.17080601219E+04  0.12699999809E+01 0.  1.
</event>
<event>
 5   0  0.8024500E-09  0.3595939E+04  0.7818609E-02  0.8091423E-01
       -1   -1    0    0    0  501  0.00000000000E+00  0.00000000000E+00  0.15032921427E+04  0.15032921427E+04  0.50400001928E-02 0. -1.
        1   -1    0    0  501    0  0.00000000000E+00  0.00000000000E+00 -0.21504096167E+04  0.21504096168E+04  0.50400001928E-02 0.  1.
    10030    2    1    2    0    0  0.00000000000E+00  0.00000000000E+00 -0.64711747401E+03  0.36537017595E+04  0.35959387540E+04 0.  0.
        5    1    3    3  502    0 -0.10468112641E+04 -0.11260608620E+04  0.62353275872E+03  0.16591088207E+04  0.46999998093E+01 0. -1.
       -5    1    3    3    0  502  0.10468112641E+04  0.11260608620E+04 -0.12706502327E+04  0.19945929388E+04  0.46999998093E+01 0.  1.
</event>
<event>
 5   0  0.2476968E-08  0.3599556E+04  0.7818609E-02  0.8090594E-01
        2   -1    0    0  501    0  0.00000000000E+00  0.00000000000E+00  0.26107625584E+04  0.26107625584E+04  0.25500000920E-02 0. -1.
       -2   -1    0    0    0  501  0.00000000000E+00  0.00000000000E+00 -0.12407103318E+04  0.12407103318E+04  0.25500000920E-02 0.  1.
    10030    2    1    2    0    0  0.00000000000E+00  0.00000000000E+00  0.13700522266E+04  0.38514728903E+04  0.35995555727E+04 0.  0.
        2    1    3    3  502    0  0.13312561664E+04  0.12021278313E+04  0.52687884031E+03  0.18694800389E+04  0.25500000920E-02 0.  1.
       -2    1    3    3    0  502 -0.13312561664E+04 -0.12021278313E+04  0.84317338628E+03  0.19819928514E+04  0.25500000920E-02 0. -1.
</event>
<event>
 5   0  0.8146881E-09  0.3601696E+04  0.7818609E-02  0.8090103E-01
       -1   -1    0    0    0  501  0.00000000000E+00  0.00000000000E+00  0.18336044228E+04  0.18336044228E+04  0.50400001928E-02 0. -1.
        1   -1    0    0  501    0  0.00000000000E+00  0.00000000000E+00 -0.17686766275E+04  0.17686766275E+04  0.50400001928E-02 0.  1.
    10030    2    1    2    0    0  0.00000000000E+00  0.00000000000E+00  0.64927795324E+02  0.36022810503E+04  0.36016958709E+04 0.  0.
        4    1    3    3  502    0 -0.70370580635E+03  0.78538106229E+02  0.16885353182E+04  0.18309896859E+04  0.12699999809E+01 0. -1.
       -4    1    3    3    0  502  0.70370580635E+03 -0.78538106229E+02 -0.16236075229E+04  0.17712913643E+04  0.12699999809E+01 0.  1.
</event>
<event>
 5   0  0.2482243E-08  0.3599860E+04  0.7818609E-02  0.8090524E-01
       -2   -1    0    0    0  501  0.00000000000E+00  0.00000000000E+00  0.19021791356E+04  0.19021791356E+04  0.25500000920E-02 0. -1.
        2   -1    0    0  501    0  0.00000000000E+00  0.00000000000E+00 -0.17031773880E+04  0.17031773880E+04  0.25500000920E-02 0.  1.
    10030    2    1    2    0    0  0.00000000000E+00  0.00000000000E+00  0.19900174761E+03  0.36053565236E+04  0.35998602704E+04 0.  0.
        5    1    3    3  502    0  0.67791604408E+03  0.16368962697E+04  0.41736036233E+03  0.18202228772E+04  0.46999998093E+01 0. -1.
       -5    1    3    3    0  502 -0.67791604408E+03 -0.16368962697E+04 -0.21835861472E+03  0.17851336464E+04  0.46999998093E+01 0.  1.
</event>
<event>
 5   0  0.8024500E-09  0.3600840E+04  0.7818609E-02  0.8090299E-01
        1   -1    0    0  501    0  0.00000000000E+00  0.00000000000E+00  0.17786341860E+04  0.17786341860E+04  0.50400001928E-02 0.  1.
       -1   -1    0    0    0  501  0.00000000000E+00  0.00000000000E+00 -0.18224725952E+04  0.18224725952E+04  0.50400001928E-02 0. -1.
    10030    2    1    2    0    0  0.00000000000E+00  0.00000000000E+00 -0.43838409160E+02  0.36011067813E+04  0.36008399359E+04 0.  0.
        5    1    3    3  502    0 -0.51537107376E+02  0.11316137637E+04  0.13775715746E+04  0.17835165591E+04  0.46999998093E+01 0.  1.
       -5    1    3    3    0  502  0.51537107376E+02 -0.11316137637E+04 -0.14214099837E+04  0.18175902221E+04  0.46999998093E+01 0. -1.
</event>
<event>
 5   0  0.8024500E-09  0.3601959E+04  0.7818609E-02  0.8090043E-01
       -1   -1    0    0    0  501  0.00000000000E+00  0.00000000000E+00  0.13571234964E+04  0.13571234964E+04  0.50400001928E-02 0.  1.
        1   -1    0    0  501    0  0.00000000000E+00  0.00000000000E+00 -0.23900017763E+04  0.23900017763E+04  0.50400001928E-02 0. -1.
    10030    2    1    2    0    0  0.00000000000E+00  0.00000000000E+00 -0.10328782799E+04  0.37471252728E+04  0.36019592264E+04 0.  0.
        1    1    3    3  502    0  0.15760743173E+04 -0.81915395366E+03 -0.20695303956E+03  0.17882541805E+04  0.50400001928E-02 0. -1.
       -1    1    3    3    0  502 -0.15760743173E+04  0.81915395366E+03 -0.82592524038E+03  0.19588710923E+04  0.50400001928E-02 0.  1.
</event>
<event>
 5   0  0.2476968E-08  0.3606485E+04  0.7818609E-02  0.8089008E-01
       -2   -1    0    0    0  501  0.00000000000E+00  0.00000000000E+00  0.16430738303E+04  0.16430738303E+04  0.25500000920E-02 0. -1.
        2   -1    0    0  501    0  0.00000000000E+00  0.00000000000E+00 -0.19790250275E+04  0.19790250275E+04  0.25500000920E-02 0.  1.
    10030    2    1    2    0    0  0.00000000000E+00  0.00000000000E+00 -0.33595119715E+03  0.36220988578E+04  0.36064853984E+04 0.  0.
        2    1    3    3  502    0  0.13070025173E+04 -0.58441400171E+03 -0.12690287596E+04  0.19131725741E+04  0.25500000920E-02 0.  1.
       -2    1    3    3    0  502 -0.13070025173E+04  0.58441400171E+03  0.93307756242E+03  0.17089262837E+04  0.25500000920E-02 0. -1.
</event>
<event>
 5   0  0.8024500E-09  0.3602324E+04  0.7818609E-02  0.8089960E-01
       -1   -1    0    0    0  501  0.00000000000E+00  0.00000000000E+00  0.20663678705E+04  0.20663678705E+04  0.50400001928E-02 0. -1.
        1   -1    0    0  501    0  0.00000000000E+00  0.00000000000E+00 -0.15699933317E+04  0.15699933317E+04  0.50400001928E-02 0.  1.
    10030    2    1    2    0    0  0.00000000000E+00  0.00000000000E+00  0.49637453881E+03  0.36363612021E+04  0.36023235709E+04 0.  0.
        5    1    3    3  502    0 -0.35805199255E+02  0.62468158613E+02  0.20649083466E+04  0.20661686410E+04  0.46999998093E+01 0. -1.
       -5    1    3    3    0  502  0.35805199255E+02 -0.62468158613E+02 -0.15685338078E+04  0.15701925612E+04  0.46999998093E+01 0.  1.
</event>
<event>
 5   0  0.2494592E-08  0.3599937E+04  0.7818609E-02  0.8090506E-01
        2   -1    0    0  501    0  0.00000000000E+00  0.00000000000E+00  0.12922849938E+04  0.12922849938E+04  0.25500000920E-02 0. -1.
       -2   -1    0    0    0  501  0.00000000000E+00  0.00000000000E+00 -0.25070990386E+04  0.25070990386E+04  0.25500000920E-02 0.  1.
    10030    2    1    2    0    0  0.00000000000E+00  0.00000000000E+00 -0.12148140448E+04  0.37993840324E+04  0.35999369248E+04 0.  0.
        1    1    3    3  502    0  0.48519185422E+03  0.46882815144E+03  0.11537804931E+04  0.13365703862E+04  0.50400001928E-02 0. -1.
       -1    1    3    3    0  502 -0.48519185422E+03 -0.46882815144E+03 -0.23685945379E+04  0.24628136462E+04  0.50400001928E-02 0.  1.
</event>
<event>
 5   0  0.8024500E-09  0.3600233E+04  0.7818609E-02  0.8090438E-01
       -1   -1    0    0    0  501  0.00000000000E+00  0.00000000000E+00  0.14496735559E+04  0.14496735559E+04  0.50400001928E-02 0.  1.
        1   -1    0    0  501    0  0.00000000000E+00  0.00000000000E+00 -0.22352752962E+04  0.22352752962E+04  0.50400001928E-02 0. -1.
    10030    2    1    2    0    0  0.00000000000E+00  0.00000000000E+00 -0.78560174033E+03  0.36849488522E+04  0.36002330409E+04 0.  0.
        1    1    3    3  502    0  0.37497819880E+03  0.17416351592E+04 -0.12882160120E+03  0.17861961488E+04  0.50400001928E-02 0. -1.
       -1    1    3    3    0  502 -0.37497819880E+03 -0.17416351592E+04 -0.65678013912E+03  0.18987527033E+04  0.50400001928E-02 0.  1.
</event>
<event>
 5   0  0.8063410E-09  0.3599612E+04  0.7818609E-02  0.8090581E-01
        1   -1    0    0  501    0  0.00000000000E+00  0.00000000000E+00  0.13884377859E+04  0.13884377859E+04  0.50400001928E-02 0. -1.
       -1   -1    0    0    0  501  0.00000000000E+00  0.00000000000E+00 -0.23330548753E+04  0.23330548753E+04  0.50400001928E-02 0.  1.
    10030    2    1    2    0    0  0.00000000000E+00  0.00000000000E+00 -0.94461708935E+03  0.37214926612E+04  0.35996119488E+04 0.  0.
        2    1    3    3  502    0  0.16675203877E+04 -0.27583236294E+03 -0.11117936766E+04  0.20230652276E+04  0.25500000920E-02 0.  1.
       -2    1    3    3    0  502 -0.16675203877E+04  0.27583236294E+03  0.16717658722E+03  0.16984274336E+04  0.25500000920E-02 0. -1.
</event>
<event>
 5   0  0.2590795E-08  0.3597024E+04  0.7818609E-02  0.8091174E-01
        2   -1    0    0  501    0  0.00000000000E+00  0.00000000000E+00  0.22183046311E+04  0.22183046311E+04  0.25500000920E-02 0. -1.
       -2   -1    0    0    0  501  0.00000000000E+00  0.00000000000E+00 -0.14581614075E+04  0.14581614075E+04  0.25500000920E-02 0.  1.
    10030    2    1    2    0    0  0.00000000000E+00  0.00000000000E+00  0.76014322362E+03  0.36764660386E+04  0.35970244387E+04 0.  0.
        4    1    3    3  502    0 -0.62366340447E+03  0.43691117780E+03  0.20454113417E+04  0.21825573507E+04  0.12699999809E+01 0. -1.
       -4    1    3    3    0  502  0.62366340447E+03 -0.43691117780E+03 -0.12852681181E+04  0.14939086879E+04  0.12699999809E+01 0.  1.
</event>
<event>
 5   0  0.2476968E-08  0.3600762E+04  0.7818609E-02  0.8090317E-01
        2   -1    0    0  501    0  0.00000000000E+00  0.00000000000E+00  0.18871673167E+04  0.18871673167E+04  0.25500000920E-02 0. -1.
       -2   -1    0    0    0  501  0.00000000000E+00  0.00000000000E+00 -0.17175862063E+04  0.17175862063E+04  0.25500000920E-02 0.  1.
    10030    2    1    2    0    0  0.00000000000E+00  0.00000000000E+00  0.16958111049E+03  0.36047535230E+04  0.36007624482E+04 0.  0.
        2    1    3    3  502    0 -0.14734624921E+04 -0.68256284730E+03 -0.69349560308E+03  0.17657632649E+04  0.25500000920E-02 0.  1.
       -2    1    3    3    0  502  0.14734624921E+04  0.68256284730E+03  0.86307671357E+03  0.18389902581E+04  0.25500000920E-02 0. -1.
</event>
<event>
 5   0  0.2590795E-08  0.3597088E+04  0.7818609E-02  0.8091159E-01
       -2   -1    0    0    0  501  0.00000000000E+00  0.00000000000E+00  0.12712427813E+04  0.12712427813E+04  0.25500000920E-02 0. -1.
        2   -1    0    0  501    0  0.00000000000E+00  0.00000000000E+00 -0.25445660526E+04  0.25445660526E+04  0.25500000920E-02 0.  1.
    10030    2    1    2    0    0  0.00000000000E+00  0.00000000000E+00 -0.12733232713E+04  0.38158088339E+04  0.35970883925E+04 0.  0.
        4    1    3    3  502    0  0.39025824396E+03  0.55357083097E+03 -0.24041094311E+04  0.24976961247E+04  0.12699999809E+01 0.  1.
       -4    1    3    3    0  502 -0.39025824396E+03 -0.55357083097E+03  0.11307861598E+04  0.13181127092E+04  0.12699999809E+01 0. -1.
</event>
<event>
 5   0  0.8063410E-09  0.3599174E+04  0.7818609E-02  0.8090681E-01
        1   -1    0    0  501    0  0.00000000000E+00  0.00000000000E+00  0.26582184001E+04  0.26582184002E+04  0.50400001928E-02 0.  1.
       -1   -1    0    0    0  501  0.00000000000E+00  0.00000000000E+00 -0.12183023432E+04  0.12183023433E+04  0.50400001928E-02 0. -1.
    10030    2    1    2    0    0  0.00000000000E+00  0.00000000000E+00  0.14399160569E+04  0.38765207434E+04  0.35991741863E+04 0.  0.
        2    1    3    3  502    0 -0.11606536532E+04 -0.12540202845E+04  0.13281193390E+04  0.21641591336E+04  0.25500000920E-02 0.  1.
       -2    1    3    3    0  502  0.11606536532E+04  0.12540202845E+04  0.11179671788E+03  0.17123616098E+04  0.25500000920E-02 0. -1.
</event>
<event>
 5   0  0.2494592E-08  0.3598793E+04  0.7818609E-02  0.8090768E-01
       -2   -1    0    0    0  501  0.00000000000E+00  0.00000000000E+00  0.13777482471E+04  0.13777482471E+04  0.25500000920E-02 0.  1.
        2   -1    0    0  501    0  0.00000000000E+00  0.00000000000E+00 -0.23500862421E+04  0.23500862421E+04  0.25500000920E-02 0. -1.
    10030    2    1    2    0    0  0.00000000000E+00  0.00000000000E+00 -0.97233799499E+03  0.37278344891E+04  0.35987926867E+04 0.  0.
        1    1    3    3  502    0  0.48938795975E+03 -0.43450921978E+03 -0.22224359662E+04  0.23167909835E+04  0.50400001928E-02 0. -1.
       -1    1    3    3    0  502 -0.48938795975E+03  0.43450921978E+03  0.12500979712E+04  0.14110435057E+04  0.50400001928E-02 0.  1.
</event>
<event>
 5   0  0.8146881E-09  0.3596512E+04  0.7818609E-02  0.8091291E-01
        1   -1    0    0  501    0  0.00000000000E+00  0.00000000000E+00  0.16892099552E+04  0.16892099552E+04  0.50400001928E-02 0. -1.
       -1   -1    0    0    0  501  0.00000000000E+00  0.00000000000E+00 -0.19143409604E+04  0.19143409604E+04  0.50400001928E-02 0.  1.
    10030    2    1    2    0    0  0.00000000000E+00  0.00000000000E+00 -0.22513100518E+03  0.36035509156E+04  0.35965115364E+04 0.  0.
        4    1    3    3  502    0  0.16911179067E+03 -0.12993281567E+04 -0.13465887708E+04  0.18788707744E+04  0.12699999809E+01 0.  1.
       -4    1    3    3    0  502 -0.16911179067E+03  0.12993281567E+04  0.11214577656E+04  0.17246801412E+04  0.12699999809E+01 0. -1.
</event>
<event>
 5   0  0.8063410E-09  0.3598346E+04  0.7818609E-02  0.8090871E-01
       -1   -1    0    0    0  501  0.00000000000E+00  0.00000000000E+00  0.14964249628E+04  0.14964249628E+04  0.50400001928E-02 0.  1.
        1   -1    0    0  501    0  0.00000000000E+00  0.00000000000E+00 -0.21631716203E+04  0.21631716203E+04  0.50400001928E-02 0. -1.
    10030    2    1    2    0    0  0.00000000000E+00  0.00000000000E+00 -0.66674665752E+03  0.36595965831E+04  0.35983462932E+04 0.  0.
        2    1    3    3  502    0 -0.11434903767E+04  0.69389617796E+03  0.89042207894E+03  0.16068334158E+04  0.25500000920E-02 0.  1.
       -2    1    3    3    0  502  0.11434903767E+04 -0.69389617796E+03 -0.15571687365E+04  0.20527631673E+04  0.25500000920E-02 0. -1.
</event>
<event>
 5   0  0.8024500E-09  0.3599967E+04  0.7818609E-02  0.8090499E-01
       -1   -1    0    0    0  501  0.00000000000E+00  0.00000000000E+00  0.16356198162E+04  0.16356198162E+04  0.50400001928E-02 0.  1.
        1   -1    0    0  501    0  0.00000000000E+00  0.00000000000E+00 -0.19808643448E+04  0.19808643448E+04  0.50400001928E-02 0. -1.
    10030    2    1    2    0    0  0.00000000000E+00  0.00000000000E+00 -0.34524452856E+03  0.36164841610E+04  0.35999672085E+04 0.  0.
        1    1    3    3  502    0 -0.28778698474E+03 -0.14405995758E+04  0.87224230659E+03  0.17084949891E+04  0.50400001928E-02 0.  1.
       -1    1    3    3    0  502  0.28778698474E+03  0.14405995758E+04 -0.12174868351E+04  0.19079891719E+04  0.50400001928E-02 0. -1.
</event>
<event>
 5   0  0.2494592E-08  0.3599483E+04  0.7818609E-02  0.8090610E-01
        2   -1    0    0  501    0  0.00000000000E+00  0.00000000000E+00  0.19300392438E+04  0.19300392438E+04  0.25500000920E-02 0. -1.
       -2   -1    0    0    0  501  0.00000000000E+00  0.00000000000E+00 -0.16782402035E+04  0.16782402035E+04  0.25500000920E-02 0.  1.
    10030    2    1    2    0    0  0.00000000000E+00  0.00000000000E+00  0.25179904035E+03  0.36082794473E+04  0.35994829925E+04 0.  0.
        1    1    3    3  502    0  0.19977411375E+03 -0.16590678602E+04 -0.54405520439E+03  0.17573878135E+04  0.50400001928E-02 0.  1.
       -1    1    3    3    0  502 -0.19977411375E+03  0.16590678602E+04  0.79585424475E+03  0.18508916339E+04  0.50400001928E-02 0. -1.
</event>
<event>
 5   0  0.8247570E-09  0.3600315E+04  0.7818609E-02  0.8090419E-01
       -1   -1    0    0    0  501  0.00000000000E+00  0.00000000000E+00  0.15550041279E+04  0.15550041279E+04  0.50400001928E-02 0.  1.
        1   -1    0    0  501    0  0.00000000000E+00  0.00000000000E+00 -0.20839609728E+04  0.20839609728E+04  0.50400001928E-02 0. -1.
    10030    2    1    2    0    0  0.00000000000E+00  0.00000000000E+00 -0.52895684490E+03  0.36389651007E+04  0.36003154945E+04 0.  0.
        3    1    3    3  502    0 -0.78873036781E+03  0.76231227993E+03 -0.17071597072E+04  0.20291894641E+04  0.10100000352E+00 0. -1.
       -3    1    3    3    0  502  0.78873036781E+03 -0.76231227993E+03  0.11782028623E+04  0.16097756366E+04  0.10100000352E+00 0.  1.
</event>
<event>
 5   0  0.8024500E-09  0.3599261E+04  0.7818609E-02  0.8090661E-01
       -1   -1    0    0    0  501  0.00000000000E+00  0.00000000000E+00  0.21741540011E+04  0.21741540011E+04  0.50400001928E-02 0. -1.
        1   -1    0    0  501    0  0.00000000000E+00  0.00000000000E+00 -0.14896226755E+04  0.14896226755E+04  0.50400001928E-02 0.  1.
    10030    2    1    2    0    0  0.00000000000E+00  0.00000000000E+00  0.68453132557E+03  0.36637766766E+04  0.35992605352E+04 0.  0.
        5    1    3    3  502    0  0.45782527325E+02 -0.11272089965E+03  0.21699567061E+04  0.21733697885E+04  0.46999998093E+01 0. -1.
       -5    1    3    3    0  502 -0.45782527325E+02  0.11272089965E+03 -0.14854253805E+04  0.14904068881E+04  0.46999998093E+01 0.  1.
</event>
<event>
 5   0  0.8247570E-09  0.3600402E+04  0.7818609E-02  0.8090400E-01
        1   -1    0    0  501    0  0.00000000000E+00  0.00000000000E+00  0.19616044879E+04  0.19616044879E+04  0.50400001928E-02 0.  1.
       -1   -1    0    0    0  501  0.00000000000E+00  0.00000000000E+00 -0.16520784532E+04  0.16520784532E+04  0.50400001928E-02 0. -1.
    10030    2    1    2    0    0  0.00000000000E+00  0.00000000000E+00  0.30952603468E+03  0.36136829412E+04  0.36004024821E+04 0.  0.
        3    1    3    3  502    0 -0.17237598674E+04 -0.35954581245E+03 -0.22092129592E+03  0.17746626443E+04  0.10100000352E+00 0. -1.
       -3    1    3    3    0  502  0.17237598674E+04  0.35954581245E+03  0.53044733060E+03  0.18390202969E+04  0.10100000352E+00 0.  1.
</event>
<event>
 5   0  0.2476968E-08  0.3599219E+04  0.7818609E-02  0.8090671E-01
        2   -1    0    0  501    0  0.00000000000E+00  0.00000000000E+00  0.14836841133E+04  0.14836841133E+04  0.25500000920E-02 0. -1.
       -2   -1    0    0    0  501  0.00000000000E+00  0.00000000000E+00 -0.21828056661E+04  0.21828056661E+04  0.25500000920E-02 0.  1.
    10030    2    1    2    0    0  0.00000000000E+00  0.00000000000E+00 -0.69912155276E+03  0.36664897793E+04  0.35992188537E+04 0.  0.
        2    1    3    3  502    0  0.89465145845E+03  0.41149910554E+03 -0.18839876690E+04  0.21258274349E+04  0.25500000920E-02 0.  1.
       -2    1    3    3    0  502 -0.89465145845E+03 -0.41149910554E+03  0.11848661163E+04  0.15406623444E+04  0.25500000920E-02 0. -1.
</event>
<event>
 5   0  0.2476968E-08  0.3600442E+04  0.7818609E-02  0.8090390E-01
       -2   -1    0    0    0  501  0.00000000000E+00  0.00000000000E+00  0.15380526627E+04  0.15380526627E+04  0.25500000920E-02 0.  1.
        2   -1    0    0  501    0  0.00000000000E+00  0.00000000000E+00 -0.21070771402E+04  0.21070771402E+04  0.25500000920E-02 0. -1.
    10030    2    1    2    0    0  0.00000000000E+00  0.00000000000E+00 -0.56902447750E+03  0.36451298029E+04  0.36004419762E+04 0.  0.
        2    1    3    3  502    0  0.59891587990E+03  0.16960544265E+04 -0.35955890898E+03  0.18342800926E+04  0.25500000920E-02 0. -1.
       -2    1    3    3    0  502 -0.59891587990E+03 -0.16960544265E+04 -0.20946556852E+03  0.18108497103E+04  0.25500000920E-02 0.  1.
</event>
<event>
 5   0  0.2590795E-08  0.3599072E+04  0.7818609E-02  0.8090704E-01
       -2   -1    0    0    0  501  0.00000000000E+00  0.00000000000E+00  0.10617860950E+04  0.10617860950E+04  0.25500000920E-02 0. -1.
        2   -1    0    0  501    0  0.00000000000E+00  0.00000000000E+00 -0.30498892139E+04  0.30498892139E+04  0.25500000920E-02 0.  1.
    10030    2    1    2    0    0  0.00000000000E+00  0.00000000000E+00 -0.19881031189E+04  0.41116753090E+04  0.35990720797E+04 0.  0.
        4    1    3    3  502    0  0.53703344731E+03 -0.16774310417E+04 -0.14155876214E+04  0.22596614238E+04  0.12699999809E+01 0. -1.
       -4    1    3    3    0  502 -0.53703344731E+03  0.16774310417E+04 -0.57251549747E+03  0.18520138852E+04  0.12699999809E+01 0.  1.
</event>
<event>
 5   0  0.8247570E-09  0.3600644E+04  0.7818609E-02  0.8090344E-01
        1   -1    0    0  501    0  0.00000000000E+00  0.00000000000E+00  0.23797751743E+04  0.23797751743E+04  0.50400001928E-02 0. -1.
       -1   -1    0    0    0  501  0.00000000000E+00  0.00000000000E+00 -0.13619602842E+04  0.13619602842E+04  0.50400001928E-02 0.  1.
    10030    2    1    2    0    0  0.00000000000E+00  0.00000000000E+00  0.10178148900E+04  0.37417354585E+04  0.36006439828E+04 0.  0.
        3    1    3    3  502    0 -0.84386155492E+03 -0.96082290923E+03 -0.80798085273E+03  0.15126519941E+04  0.10100000352E+00 0.  1.
       -3    1    3    3    0  502  0.84386155492E+03  0.96082290923E+03  0.18257957428E+04  0.22290834644E+04  0.10100000352E+00 0. -1.
</event>
<event>
 5   0  0.8146881E-09  0.3599197E+04  0.7818609E-02  0.8090676E-01
       -1   -1    0    0    0  501  0.00000000000E+00  0.00000000000E+00  0.19993268765E+04  0.19993268765E+04  0.50400001928E-02 0. -1.
        1   -1    0    0  501    0  0.00000000000E+00  0.00000000000E+00 -0.16198229128E+04  0.16198229128E+04  0.50400001928E-02 0.  1.
    10030    2    1    2    0    0  0.00000000000E+00  0.00000000000E+00  0.37950396369E+03  0.36191497892E+04  0.35991974020E+04 0.  0.
        4    1    3    3  502    0  0.22796044443E+03  0.45686192436E+03  0.19249674106E+04  0.19915295446E+04  0.12699999809E+01 0. -1.
       -4    1    3    3    0  502 -0.22796044443E+03 -0.45686192436E+03 -0.15454634469E+04  0.16276202447E+04  0.12699999809E+01 0.  1.
</event>
<event>
 5   0  0.2482243E-08  0.3602007E+04  0.7818609E-02  0.8090032E-01
        2   -1    0    0  501    0  0.00000000000E+00  0.00000000000E+00  0.19239672931E+04  0.19239672931E+04  0.25500000920E-02 0. -1.
       -2   -1    0    0    0  501  0.00000000000E+00  0.00000000000E+00 -0.16858987783E+04  0.16858987783E+04  0.25500000920E-02 0.  1.
    10030    2    1    2    0    0  0.00000000000E+00  0.00000000000E+00  0.23806851484E+03  0.36098660714E+04  0.36020072787E+04 0.  0.
        5    1    3    3  502    0 -0.31368425804E+03  0.88261875216E+03 -0.14225605581E+04  0.17032657769E+04  0.46999998093E+01 0.  1.
       -5    1    3    3    0  502  0.31368425804E+03 -0.88261875216E+03  0.16606290729E+04  0.19066002945E+04  0.46999998093E+01 0. -1.
</event>
<event>
 5   0  0.8024500E-09  0.3599995E+04  0.7818609E-02  0.8090493E-01
       -1   -1    0    0    0  501  0.00000000000E+00  0.00000000000E+00  0.21488843230E+04  0.21488843230E+04  0.50400001928E-02 0. -1.
        1   -1    0    0  501    0  0.00000000000E+00  0.00000000000E+00 -0.15077547957E+04  0.15077547957E+04  0.50400001928E-02 0.  1.
    10030    2    1    2    0    0  0.00000000000E+00  0.00000000000E+00  0.64112952734E+03  0.36566391187E+04  0.35999948018E+04 0.  0.
        5    1    3    3  502    0  0.10923237524E+03  0.16109695391E+04 -0.48744807559E+03  0.16866482396E+04  0.46999998093E+01 0.  1.
       -5    1    3    3    0  502 -0.10923237524E+03 -0.16109695391E+04  0.11285776029E+04  0.19699908791E+04  0.46999998093E+01 0. -1.
</event>
<event>
 5   0  0.8063410E-09  0.3599903E+04  0.7818609E-02  0.8090514E-01
        1   -1    0    0  501    0  0.00000000000E+00  0.00000000000E+00  0.10276098087E+04  0.10276098087E+04  0.50400001928E-02 0.  1.
       -1   -1    0    0    0  501  0.00000000000E+00  0.00000000000E+00 -0.31527786097E+04  0.31527786097E+04  0.50400001928E-02 0. -1.
    10030    2    1    2    0    0  0.00000000000E+00  0.00000000000E+00 -0.21251688010E+04  0.41803884184E+04  0.35999034565E+04 0.  0.
        2    1    3    3  502    0 -0.97727037817E+03  0.69737676069E+02  0.69082852653E+03  0.11988180799E+04  0.25500000920E-02 0.  1.
       -2    1    3    3    0  502  0.97727037817E+03 -0.69737676069E+02 -0.28159973275E+04  0.29815703386E+04  0.25500000920E-02 0. -1.
</event>
<event>
 5   0  0.2608070E-08  0.3594005E+04  0.7818609E-02  0.8091866E-01
        2   -1    0    0  501    0  0.00000000000E+00  0.00000000000E+00  0.30621733338E+04  0.30621733338E+04  0.25500000920E-02 0. -1.
       -2   -1    0    0    0  501  0.00000000000E+00  0.00000000000E+00 -0.10545510275E+04  0.10545510275E+04  0.25500000920E-02 0.  1.
    10030    2    1    2    0    0  0.00000000000E+00  0.00000000000E+00  0.20076223063E+04  0.41167243613E+04  0.35940050282E+04 0.  0.
        3    1    3    3  502    0 -0.49590423790E+03  0.44325315627E+03 -0.90836480250E+03  0.11258423506E+04  0.10100000352E+00 0.  1.
       -3    1    3    3    0  502  0.49590423790E+03 -0.44325315627E+03  0.29159871088E+04  0.29908820108E+04  0.10100000352E+00 0. -1.
</event>
<event>
 5   0  0.8247570E-09  0.3600476E+04  0.7818609E-02  0.8090383E-01
       -1   -1    0    0    0  501  0.00000000000E+00  0.00000000000E+00  0.15843315692E+04  0.15843315692E+04  0.50400001928E-02 0.  1.
        1   -1    0    0  501    0  0.00000000000E+00  0.00000000000E+00 -0.20455673521E+04  0.20455673521E+04  0.50400001928E-02 0. -1.
    10030    2    1    2    0    0  0.00000000000E+00  0.00000000000E+00 -0.46123578291E+03  0.36298989213E+04  0.36004760423E+04 0.  0.
        3    1    3    3  502    0  0.92527853722E+03  0.93549573258E+03 -0.14693015624E+04  0.19723437146E+04  0.10100000352E+00 0. -1.
       -3    1    3    3    0  502 -0.92527853722E+03 -0.93549573258E+03  0.10080657795E+04  0.16575552067E+04  0.10100000352E+00 0.  1.
</event>
<event>
 5   0  0.8247570E-09  0.3599483E+04  0.7818609E-02  0.8090610E-01
       -1   -1    0    0    0  501  0.00000000000E+00  0.00000000000E+00  0.13544413325E+04  0.13544413325E+04  0.50400001928E-02 0. -1.
        1   -1    0    0  501    0  0.00000000000E+00  0.00000000000E+00 -0.23914426243E+04  0.23914426243E+04  0.50400001928E-02 0.  1.
    10030    2    1    2    0    0  0.00000000000E+00  0.00000000000E+00 -0.10370012918E+04  0.37458839569E+04  0.35994825933E+04 0.  0.
        3    1    3    3  502    0 -0.11853532711E+04  0.62253520930E+03  0.73310321558E+03  0.15264510470E+04  0.10100000352E+00 0. -1.
       -3    1    3    3    0  502  0.11853532711E+04 -0.62253520930E+03 -0.17701045074E+04  0.22194329098E+04  0.10100000352E+00 0.  1.
</event>
<event>
 5   0  0.8247570E-09  0.3599717E+04  0.7818609E-02  0.8090557E-01
        1   -1    0    0  501    0  0.00000000000E+00  0.00000000000E+00  0.25859090655E+04  0.25859090655E+04  0.50400001928E-02 0. -1.
       -1   -1    0    0    0  501  0.00000000000E+00  0.00000000000E+00 -0.12527471663E+04  0.12527471663E+04  0.50400001928E-02 0.  1.
    10030    2    1    2    0    0  0.00000000000E+00  0.00000000000E+00  0.13331618992E+04  0.38386562319E+04  0.35997167968E+04 0.  0.
        3    1    3    3  502    0 -0.16575678392E+04 -0.20743156131E+03 -0.47916700984E+02  0.16711837166E+04  0.10100000352E+00 0. -1.
       -3    1    3    3    0  502  0.16575678392E+04  0.20743156131E+03  0.13810786002E+04  0.21674725152E+04  0.10100000352E+00 0.  1.
</event>
<event>
 5   0  0.8063410E-09  0.3601316E+04  0.7818609E-02  0.8090190E-01
       -1   -1    0    0    0  501  0.00000000000E+00  0.00000000000E+00  0.16270012808E+04  0.16270012808E+04  0.50400001928E-02 0. -1.
        1   -1    0    0  501    0  0.00000000000E+00  0.00000000000E+00 -0.19928502837E+04  0.19928502837E+04  0.50400001928E-02 0.  1.
    10030    2    1    2    0    0  0.00000000000E+00  0.00000000000E+00 -0.36584900294E+03  0.36198515646E+04  0.36013164061E+04 0.  0.
        2    1    3    3  502    0 -0.52862514101E+03  0.14022382228E+04 -0.11863879484E+04  0.19113432286E+04  0.25500000920E-02 0.  1.
       -2    1    3    3    0  502  0.52862514101E+03 -0.14022382228E+04  0.82053894548E+03  0.17085083360E+04  0.25500000920E-02 0. -1.
</event>
<event>
 5   0  0.8146881E-09  0.3600197E+04  0.7818609E-02  0.8090446E-01
        1   -1    0    0  501    0  0.00000000000E+00  0.00000000000E+00  0.16682340880E+04  0.16682340880E+04  0.50400001928E-02 0. -1.
       -1   -1    0    0    0  501  0.00000000000E+00  0.00000000000E+00 -0.19423864778E+04  0.19423864778E+04  0.50400001928E-02 0.  1.
    10030    2    1    2    0    0  0.00000000000E+00  0.00000000000E+00 -0.27415238981E+03  0.36106205658E+04  0.36001974026E+04 0.  0.
        4    1    3    3  502    0  0.79446583520E+03 -0.86709192549E+03  0.12297081577E+04  0.17015311154E+04  0.12699999809E+01 0. -1.
       -4    1    3    3    0  502 -0.79446583520E+03  0.86709192549E+03 -0.15038605475E+04  0.19090894504E+04  0.12699999809E+01 0.  1.
</event>
<event>
 5   0  0.8146881E-09  0.3600122E+04  0.7818609E-02  0.8090464E-01
       -1   -1    0    0    0  501  0.00000000000E+00  0.00000000000E+00  0.26137180311E+04  0.26137180311E+04  0.50400001928E-02 0.  1.
        1   -1    0    0  501    0  0.00000000000E+00  0.00000000000E+00 -0.12396975918E+04  0.12396975918E+04  0.50400001928E-02 0. -1.
    10030    2    1    2    0    0  0.00000000000E+00  0.00000000000E+00  0.13740204393E+04  0.38534156228E+04  0.36001221917E+04 0.  0.
        4    1    3    3  502    0 -0.21643815633E+03 -0.13620816742E+04  0.19251621298E+04  0.23681982184E+04  0.12699999809E+01 0.  1.
       -4    1    3    3    0  502  0.21643815633E+03  0.13620816742E+04 -0.55114169052E+03  0.14852174045E+04  0.12699999809E+01 0. -1.
</event>
<event>
 5   0  0.2608070E-08  0.3600526E+04  0.7818609E-02  0.8090371E-01
       -2   -1    0    0    0  501  0.00000000000E+00  0.00000000000E+00  0.14925202887E+04  0.14925202887E+04  0.25500000920E-02 0.  1.
        2   -1    0    0  501    0  0.00000000000E+00  0.00000000000E+00 -0.21714591922E+04  0.21714591922E+04  0.25500000920E-02 0. -1.
    10030    2    1    2    0    0  0.00000000000E+00  0.00000000000E+00 -0.67893890345E+03  0.36639794809E+04  0.36005260173E+04 0.  0.
        3    1    3    3  502    0  0.42844032986E+03 -0.15468777996E+04 -0.11690384129E+04  0.19857096627E+04  0.10100000352E+00 0. -1.
       -3    1    3    3    0  502 -0.42844032986E+03  0.15468777996E+04  0.49009950948E+03  0.16782698182E+04  0.10100000352E+00 0.  1.
</event>
<event>
 5   0  0.2590795E-08  0.3599329E+04  0.7818609E-02  0.8090646E-01
       -2   -1    0    0    0  501  0.00000000000E+00  0.00000000000E+00  0.11225350007E+04  0.11225350007E+04  0.25500000920E-02 0. -1.
        2   -1    0    0  501    0  0.00000000000E+00  0.00000000000E+00 -0.28852476983E+04  0.28852476983E+04  0.25500000920E-02 0.  1.
    10030    2    1    2    0    0  0.00000000000E+00  0.00000000000E+00 -0.17627126975E+04  0.40077826990E+04  0.35993285636E+04 0.  0.
        4    1    3    3  502    0 -0.21097828234E+03 -0.11028776056E+04  0.68463416653E+03  0.13151336067E+04  0.12699999809E+01 0. -1.
       -4    1    3    3    0  502  0.21097828234E+03  0.11028776056E+04 -0.24473468640E+04  0.26926490923E+04  0.12699999809E+01 0.  1.
</event>
<event>
 5   0  0.2590795E-08  0.3600604E+04  0.7818609E-02  0.8090353E-01
        2   -1    0    0  501    0  0.00000000000E+00  0.00000000000E+00  0.17054848739E+04  0.17054848739E+04  0.25500000920E-02 0. -1.
       -2   -1    0    0    0  501  0.00000000000E+00  0.00000000000E+00 -0.19003902614E+04  0.19003902614E+04  0.25500000920E-02 0.  1.
    10030    2    1    2    0    0  0.00000000000E+00  0.00000000000E+00 -0.19490538749E+03  0.36058751353E+04  0.36006037523E+04 0.  0.
        4    1    3    3  502    0  0.16363650715E+04  0.49584202262E+02 -0.84750578901E+03  0.18434795675E+04  0.12699999809E+01 0.  1.
       -4    1    3    3    0  502 -0.16363650715E+04 -0.49584202262E+02  0.65260040152E+03  0.17623955678E+04  0.12699999809E+01 0. -1.
</event>
<event>
 5   0  0.8024500E-09  0.3599866E+04  0.7818609E-02  0.8090522E-01
       -1   -1    0    0    0  501  0.00000000000E+00  0.00000000000E+00  0.10459911597E+04  0.10459911597E+04  0.50400001928E-02 0. -1.
        1   -1    0    0  501    0  0.00000000000E+00  0.00000000000E+00 -0.30973099515E+04  0.30973099515E+04  0.50400001928E-02 0.  1.
    10030    2    1    2    0    0  0.00000000000E+00  0.00000000000E+00 -0.20513187917E+04  0.41433011112E+04  0.35998660131E+04 0.  0.
        5    1    3    3  502    0  0.53753141645E+03  0.12781776204E+04  0.29521865374E+03  0.14176932660E+04  0.46999998093E+01 0. -1.
       -5    1    3    3    0  502 -0.53753141645E+03 -0.12781776204E+04 -0.23465374455E+04  0.27256078452E+04  0.46999998093E+01 0.  1.
</event>
<event>
 5   0  0.8247570E-09  0.3600225E+04  0.7818609E-02  0.8090440E-01
       -1   -1    0    0    0  501  0.00000000000E+00  0.00000000000E+00  0.11844065782E+04  0.11844065782E+04  0.50400001928E-02 0.  1.
        1   -1    0    0  501    0  0.00000000000E+00  0.00000000000E+00 -0.27358896924E+04  0.27358896924E+04  0.50400001928E-02 0. -1.
    10030    2    1    2    0    0  0.00000000000E+00  0.00000000000E+00 -0.15514831142E+04  0.39202962706E+04  0.36002254090E+04 0.  0.
        3    1    3    3  502    0  0.80170938576E+03  0.65176714288E+03  0.82937216647E+03  0.13249137891E+04  0.10100000352E+00 0.  1.
       -3    1    3    3    0  502 -0.80170938576E+03 -0.65176714288E+03 -0.23808552807E+04  0.25953824815E+04  0.10100000352E+00 0. -1.
</event>
<event>
 5   0  0.2590795E-08  0.3591129E+04  0.7818609E-02  0.8092527E-01
        2   -1    0    0  501    0  0.00000000000E+00  0.00000000000E+00  0.12476229709E+04  0.12476229709E+04  0.25500000920E-02 0. -1.
       -2   -1    0    0    0  501  0.00000000000E+00  0.00000000000E+00 -0.25841552844E+04  0.25841552844E+04  0.25500000920E-02 0.  1.
    10030    2    1    2    0    0  0.00000000000E+00  0.00000000000E+00 -0.13365323134E+04  0.38317782553E+04  0.35911287881E+04 0.  0.
        4    1    3    3  502    0  0.29283712895E+03 -0.65738292636E+02 -0.25572016897E+04  0.25747538139E+04  0.12699999809E+01 0.  1.
       -4    1    3    3    0  502 -0.29283712895E+03  0.65738292636E+02  0.12206693763E+04  0.12570244414E+04  0.12699999809E+01 0. -1.
</event>
<event>
 5   0  0.2482243E-08  0.3602603E+04  0.7818609E-02  0.8089896E-01
       -2   -1    0    0    0  501  0.00000000000E+00  0.00000000000E+00  0.11369659930E+04  0.11369659930E+04  0.25500000920E-02 0. -1.
        2   -1    0    0  501    0  0.00000000000E+00  0.00000000000E+00 -0.28538123770E+04  0.28538123770E+04  0.25500000920E-02 0.  1.
    10030    2    1    2    0    0  0.00000000000E+00  0.00000000000E+00 -0.17168463839E+04  0.39907783700E+04  0.36026032938E+04 0.  0.
        5    1    3    3  502    0  0.63282122758E+03  0.14480421965E+03 -0.27197157854E+04  0.27961235687E+04  0.46999998093E+01 0.  1.
       -5    1    3    3    0  502 -0.63282122758E+03 -0.14480421965E+03  0.10028694014E+04  0.11946548014E+04  0.46999998093E+01 0. -1.
</event>
<event>
 5   0  0.8024500E-09  0.3598882E+04  0.7818609E-02  0.8090748E-01
        1   -1    0    0  501    0  0.00000000000E+00  0.00000000000E+00  0.22874521411E+04  0.22874521411E+04  0.50400001928E-02 0. -1.
       -1   -1    0    0    0  501  0.00000000000E+00  0.00000000000E+00 -0.14155432867E+04  0.14155432867E+04  0.50400001928E-02 0.  1.
    10030    2    1    2    0    0  0.00000000000E+00  0.00000000000E+00  0.87190885445E+03  0.37029954278E+04  0.35988817830E+04 0.  0.
        5    1    3    3  502    0  0.61993387742E+03  0.12730733131E+03  0.21691555363E+04  0.22595979730E+04  0.46999998093E+01 0. -1.
       -5    1    3    3    0  502 -0.61993387742E+03 -0.12730733131E+03 -0.12972466819E+04  0.14433974548E+04  0.46999998093E+01 0.  1.
</event>
<event>
 5   0  0.8247570E-09  0.3580004E+04  0.7818609E-02  0.8095087E-01
       -1   -1    0    0    0  501  0.00000000000E+00  0.00000000000E+00  0.13082047470E+04  0.13082047470E+04  0.50400001928E-02 0. -1.
        1   -1    0    0  501    0  0.00000000000E+00  0.00000000000E+00 -0.24492401816E+04  0.24492401816E+04  0.50400001928E-02 0.  1.
    10030    2    1    2    0    0  0.00000000000E+00  0.00000000000E+00 -0.11410354346E+04  0.37574449286E+04  0.35800042637E+04 0.  0.
        3    1    3    3  502    0 -0.50147413893E+03 -0.12665943108E+03  0.12280659348E+04  0.13325407588E+04  0.10100000352E+00 0. -1.
       -3    1    3    3    0  502  0.50147413893E+03  0.12665943108E+03 -0.23691013694E+04  0.24249041697E+04  0.10100000352E+00 0.  1.
</event>
<event>
 5   0  0.2476968E-08  0.3599380E+04  0.7818609E-02  0.8090634E-01
       -2   -1    0    0    0  501  0.00000000000E+00  0.00000000000E+00  0.13202218547E+04  0.13202218547E+04  0.25500000920E-02 0.  1.
        2   -1    0    0  501    0  0.00000000000E+00  0.00000000000E+00 -0.24532875828E+04  0.24532875828E+04  0.25500000920E-02 0. -1.
    10030    2    1    2    0    0  0.00000000000E+00  0.00000000000E+00 -0.11330657282E+04  0.37735094375E+04  0.35993798814E+04 0.  0.
        2    1    3    3  502    0 -0.79130662199E+03  0.11994195976E+04 -0.17025168583E+04  0.22278548413E+04  0.25500000920E-02 0. -1.
       -2    1    3    3    0  502  0.79130662199E+03 -0.11994195976E+04  0.56945113010E+03  0.15456545962E+04  0.25500000920E-02 0.  1.
</event>
<event>
 5   0  0.2482243E-08  0.3598691E+04  0.7818609E-02  0.8090792E-01
        2   -1    0    0  501    0  0.00000000000E+00  0.00000000000E+00  0.28264315430E+04  0.28264315430E+04  0.25500000920E-02 0. -1.
       -2   -1    0    0    0  501  0.00000000000E+00  0.00000000000E+00 -0.11454880259E+04  0.11454880259E+04  0.25500000920E-02 0.  1.
    10030    2    1    2    0    0  0.00000000000E+00  0.00000000000E+00  0.16809435171E+04  0.39719195690E+04  0.35986905889E+04 0.  0.
        5    1    3    3  502    0 -0.12029819706E+04 -0.53988012428E+03 -0.51083706931E+03  0.14140766498E+04  0.46999998093E+01 0.  1.
       -5    1    3    3    0  502  0.12029819706E+04  0.53988012428E+03  0.21917805864E+04  0.25578429191E+04  0.46999998093E+01 0. -1.
</event>
<event>
 5   0  0.2494592E-08  0.3599167E+04  0.7818609E-02  0.8090682E-01
       -2   -1    0    0    0  501  0.00000000000E+00  0.00000000000E+00  0.14873147528E+04  0.14873147528E+04  0.25500000920E-02 0.  1.
        2   -1    0    0  501    0  0.00000000000E+00  0.00000000000E+00 -0.21774150343E+04  0.21774150343E+04  0.25500000920E-02 0. -1.
    10030    2    1    2    0    0  0.00000000000E+00  0.00000000000E+00 -0.69010028154E+03  0.36647297871E+04  0.35991674057E+04 0.  0.
        1    1    3    3  502    0  0.79555918566E+02 -0.25312601271E+03 -0.21573886685E+04  0.21736438966E+04  0.50400001928E-02 0. -1.
       -1    1    3    3    0  502 -0.79555918566E+02  0.25312601271E+03  0.14672883869E+04  0.14910858905E+04  0.50400001928E-02 0.  1.
</event>
<event>
 5   0  0.2590795E-08  0.3597698E+04  0.7818609E-02  0.8091019E-01
        2   -1    0    0  501    0  0.00000000000E+00  0.00000000000E+00  0.31723699260E+04  0.31723699260E+04  0.25500000920E-02 0. -1.
       -2   -1    0    0    0  501  0.00000000000E+00  0.00000000000E+00 -0.10200128004E+04  0.10200128004E+04  0.25500000920E-02 0.  1.
    10030    2    1    2    0    0  0.00000000000E+00  0.00000000000E+00  0.21523571256E+04  0.41923827265E+04  0.35976981153E+04 0.  0.
        4    1    3    3  502    0  0.77646784470E+02 -0.11175638622E+04 -0.56390170140E+03  0.12541789150E+04  0.12699999809E+01 0.  1.
       -4    1    3    3    0  502 -0.77646784470E+02  0.11175638622E+04  0.27162588270E+04  0.29382038114E+04  0.12699999809E+01 0. -1.
</event>
<event>
 5   0  0.2482243E-08  0.3599805E+04  0.7818609E-02  0.8090536E-01
        2   -1    0    0  501    0  0.00000000000E+00  0.00000000000E+00  0.16513463168E+04  0.16513463168E+04  0.25500000920E-02 0.  1.
       -2   -1    0    0    0  501  0.00000000000E+00  0.00000000000E+00 -0.19618228362E+04  0.19618228363E+04  0.25500000920E-02 0. -1.
    10030    2    1    2    0    0  0.00000000000E+00  0.00000000000E+00 -0.31047651941E+03  0.36131691531E+04  0.35998049475E+04 0.  0.
        5    1    3    3  502    0  0.21642861294E+03  0.17640488866E+03  0.16294705748E+04  0.16532260805E+04  0.46999998093E+01 0.  1.
       -5    1    3    3    0  502 -0.21642861294E+03 -0.17640488866E+03 -0.19399470942E+04  0.19599430725E+04  0.46999998093E+01 0. -1.
</event>
<event>
 5   0  0.2608070E-08  0.3597074E+04  0.7818609E-02  0.8091162E-01
        2   -1    0    0  501    0  0.00000000000E+00  0.00000000000E+00  0.18199059520E+04  0.18199059520E+04  0.25500000920E-02 0. -1.
       -2   -1    0    0    0  501  0.00000000000E+00  0.00000000000E+00 -0.17774184871E+04  0.17774184871E+04  0.25500000920E-02 0.  1.
    10030    2    1    2    0    0  0.00000000000E+00  0.00000000000E+00  0.42487464912E+02  0.35973244391E+04  0.35970735238E+04 0.  0.
        3    1    3    3  502    0  0.17240514064E+04  0.51218840166E+03  0.27897228666E+02  0.17987408030E+04  0.10100000352E+00 0.  1.
       -3    1    3    3    0  502 -0.17240514064E+04 -0.51218840166E+03  0.14590236246E+02  0.17985836361E+04  0.10100000352E+00 0. -1.
</event>
<event>
 5   0  0.8146881E-09  0.3597433E+04  0.7818609E-02  0.8091080E-01
       -1   -1    0    0    0  501  0.00000000000E+00  0.00000000000E+00  0.20356668685E+04  0.20356668685E+04  0.50400001928E-02 0.  1.
        1   -1    0    0  501    0  0.00000000000E+00  0.00000000000E+00 -0.15893466714E+04  0.15893466714E+04  0.50400001928E-02 0. -1.
    10030    2    1    2    0    0  0.00000000000E+00  0.00000000000E+00  0.44632019709E+03  0.36250135399E+04  0.35974326187E+04 0.  0.
        4    1    3    3  502    0 -0.14214680482E+04 -0.98544929480E+03 -0.27428147405E+03  0.17512605930E+04  0.12699999809E+01 0.  1.
       -4    1    3    3    0  502  0.14214680482E+04  0.98544929480E+03  0.72060167114E+03  0.18737529469E+04  0.12699999809E+01 0. -1.
</event>
<event>
 5   0  0.2482243E-08  0.3601423E+04  0.7818609E-02  0.8090166E-01
       -2   -1    0    0    0  501  0.00000000000E+00  0.00000000000E+00  0.10324750697E+04  0.10324750697E+04  0.25500000920E-02 0.  1.
        2   -1    0    0  501    0  0.00000000000E+00  0.00000000000E+00 -0.31405714857E+04  0.31405714857E+04  0.25500000920E-02 0. -1.
    10030    2    1    2    0    0  0.00000000000E+00  0.00000000000E+00 -0.21080964159E+04  0.41730465554E+04  0.36014229208E+04 0.  0.
        5    1    3    3  502    0 -0.30429213463E+03 -0.97405804225E+03 -0.27731619260E+04  0.29549673316E+04  0.46999998093E+01 0. -1.
       -5    1    3    3    0  502  0.30429213463E+03  0.97405804225E+03  0.66506551006E+03  0.12180792238E+04  0.46999998093E+01 0.  1.
</event>
<event>
 5   0  0.8024500E-09  0.3601452E+04  0.7818609E-02  0.8090159E-01
       -1   -1    0    0    0  501  0.00000000000E+00  0.00000000000E+00  0.13987840594E+04  0.13987840594E+04  0.50400001928E-02 0. -1.
        1   -1    0    0  501    0  0.00000000000E+00  0.00000000000E+00 -0.23181660817E+04  0.23181660817E+04  0.50400001928E-02 0.  1.
    10030    2    1    2    0    0  0.00000000000E+00  0.00000000000E+00 -0.91938202229E+03  0.37169501411E+04  0.36014517973E+04 0.  0.
        5    1    3    3  502    0  0.43036406557E+03 -0.89782784735E+03  0.10888554244E+04  0.14754444407E+04  0.46999998093E+01 0. -1.
       -5    1    3    3    0  502 -0.43036406557E+03  0.89782784735E+03 -0.20082374467E+04  0.22415057004E+04  0.46999998093E+01 0.  1.
</event>
<event>
 5   0  0.8024500E-09  0.3600788E+04  0.7818609E-02  0.8090311E-01
       -1   -1    0    0    0  501  0.00000000000E+00  0.00000000000E+00  0.98145143935E+03  0.98145143936E+03  0.50400001928E-02 0. -1.
        1   -1    0    0  501    0  0.00000000000E+00  0.00000000000E+00 -0.33026777002E+04  0.33026777002E+04  0.50400001928E-02 0.  1.
    10030    2    1    2    0    0  0.00000000000E+00  0.00000000000E+00 -0.23212262609E+04  0.42841291396E+04  0.36007875708E+04 0.  0.
        5    1    3    3  502    0  0.11755467649E+04  0.74326617219E+03  0.19960838653E+03  0.14050695346E+04  0.46999998093E+01 0. -1.
       -5    1    3    3    0  502 -0.11755467649E+04 -0.74326617219E+03 -0.25208346474E+04  0.28790596049E+04  0.46999998093E+01 0.  1.
</event>
<event>
 5   0  0.8024500E-09  0.3597796E+04  0.7818609E-02  0.8090997E-01
        1   -1    0    0  501    0  0.00000000000E+00  0.00000000000E+00  0.17797063157E+04  0.17797063157E+04  0.50400001928E-02 0.  1.
       -1   -1    0    0    0  501  0.00000000000E+00  0.00000000000E+00 -0.18182962966E+04  0.18182962966E+04  0.50400001928E-02 0. -1.
    10030    2    1    2    0    0  0.00000000000E+00  0.00000000000E+00 -0.38589980917E+02  0.35980026123E+04  0.35977956600E+04 0.  0.
        5    1    3    3  502    0  0.18724988807E+03  0.17807998690E+04 -0.19164357883E+03  0.18008498119E+04  0.46999998093E+01 0.  1.
       -5    1    3    3    0  502 -0.18724988807E+03 -0.17807998690E+04  0.15305359791E+03  0.17971528003E+04  0.46999998093E+01 0. -1.
</event>
<event>
 5   0  0.8024500E-09  0.3599984E+04  0.7818609E-02  0.8090495E-01
       -1   -1    0    0    0  501  0.00000000000E+00  0.00000000000E+00  0.14190192465E+04  0.14190192465E+04  0.50400001928E-02 0.  1.
        1   -1    0    0  501    0  0.00000000000E+00  0.00000000000E+00 -0.22832461986E+04  0.22832461986E+04  0.50400001928E-02 0. -1.
    10030    2    1    2    0    0  0.00000000000E+00  0.00000000000E+00 -0.86422695208E+03  0.37022654451E+04  0.35999835002E+04 0.  0.
        1    1    3    3  502    0  0.17743844232E+04 -0.23717936995E+03 -0.23895768670E+03  0.18060439947E+04  0.50400001928E-02 0. -1.
       -1    1    3    3    0  502 -0.17743844232E+04  0.23717936995E+03 -0.62526926538E+03  0.18962214504E+04  0.50400001928E-02 0.  1.
</event>
<event>
 5   0  0.2608070E-08  0.3600516E+04  0.7818609E-02  0.8090373E-01
        2   -1    0    0  501    0  0.00000000000E+00  0.00000000000E+00  0.13658710014E+04  0.13658710014E+04  0.25500000920E-02 0.  1.
       -2   -1    0    0    0  501  0.00000000000E+00  0.00000000000E+00 -0.23727932454E+04  0.23727932454E+04  0.25500000920E-02 0. -1.
    10030    2    1    2    0    0  0.00000000000E+00  0.00000000000E+00 -0.10069222440E+04  0.37386642468E+04  0.36005163442E+04 0.  0.
        3    1    3    3  502    0  0.99397596998E+03 -0.15009774046E+04 -0.50641235794E+03  0.18701269701E+04  0.10100000352E+00 0. -1.
       -3    1    3    3    0  502 -0.99397596998E+03  0.15009774046E+04 -0.50050988606E+03  0.18685372766E+04  0.10100000352E+00 0.  1.
</event>
<event>
 5   0  0.8024500E-09  0.3599945E+04  0.7818609E-02  0.8090504E-01
       -4   -1    0    0    0  501  0.00000000000E+00  0.00000000000E+00  0.21491213056E+04  0.21491216808E+04  0.12699999809E+01 0.  1.
        4   -1    0    0  501    0  0.00000000000E+00  0.00000000000E+00 -0.15075460164E+04  0.15075465513E+04  0.12699999809E+01 0. -1.
    10030    2    1    2    0    0  0.00000000000E+00  0.00000000000E+00  0.64157528922E+03  0.36566682322E+04  0.35999449591E+04 0.  0.
        5    1    3    3  502    0 -0.16279680323E+04 -0.22460275501E+02 -0.45883091065E+03  0.16915473013E+04  0.46999998093E+01 0.  1.
       -5    1    3    3    0  502  0.16279680323E+04  0.22460275501E+02  0.11004061999E+04  0.19651209308E+04  0.46999998093E+01 0. -1.
</event>
<event>
 5   0  0.8146881E-09  0.3601152E+04  0.7818609E-02  0.8090228E-01
       -1   -1    0    0    0  501  0.00000000000E+00  0.00000000000E+00  0.17998655699E+04  0.17998655700E+04  0.50400001928E-02 0. -1.
        1   -1    0    0  501    0  0.00000000000E+00  0.00000000000E+00 -0.18012868755E+04  0.18012868755E+04  0.50400001928E-02 0.  1.
    10030    2    1    2    0    0  0.00000000000E+00  0.00000000000E+00 -0.14213055806E+01  0.36011524455E+04  0.36011521650E+04 0.  0.
        4    1    3    3  502    0 -0.93915303902E+03 -0.12682666912E+04  0.86621720029E+03  0.18002340630E+04  0.12699999809E+01 0. -1.
       -4    1    3    3    0  502  0.93915303902E+03  0.12682666912E+04 -0.86763850587E+03  0.18009183825E+04  0.12699999809E+01 0.  1.
</event>
<event>
 5   0  0.2476968E-08  0.3593117E+04  0.7818609E-02  0.8092070E-01
        2   -1    0    0  501    0  0.00000000000E+00  0.00000000000E+00  0.22509132341E+04  0.22509132341E+04  0.25500000920E-02 0. -1.
       -2   -1    0    0    0  501  0.00000000000E+00  0.00000000000E+00 -0.14339168579E+04  0.14339168579E+04  0.25500000920E-02 0.  1.
    10030    2    1    2    0    0  0.00000000000E+00  0.00000000000E+00  0.81699637616E+03  0.36848300920E+04  0.35931169934E+04 0.  0.
        2    1    3    3  502    0  0.83839665030E+03 -0.15835084138E+04  0.54305152638E+03  0.18722480605E+04  0.25500000920E-02 0.  1.
       -2    1    3    3    0  502 -0.83839665030E+03  0.15835084138E+04  0.27394484978E+03  0.18125820314E+04  0.25500000920E-02 0. -1.
</event>
<event>
 5   0  0.2476968E-08  0.3603124E+04  0.7818609E-02  0.8089776E-01
       -2   -1    0    0    0  501  0.00000000000E+00  0.00000000000E+00  0.13787785887E+04  0.13787785887E+04  0.25500000920E-02 0.  1.
        2   -1    0    0  501    0  0.00000000000E+00  0.00000000000E+00 -0.23539864852E+04  0.23539864852E+04  0.25500000920E-02 0. -1.
    10030    2    1    2    0    0  0.00000000000E+00  0.00000000000E+00 -0.97520789653E+03  0.37327650739E+04  0.36031242908E+04 0.  0.
        2    1    3    3  502    0  0.57087339836E+03 -0.58609790607E+02 -0.22567639529E+04  0.23285864990E+04  0.25500000920E-02 0. -1.
       -2    1    3    3    0  502 -0.57087339836E+03  0.58609790607E+02  0.12815560563E+04  0.14041785748E+04  0.25500000920E-02 0.  1.
</event>
<event>
 5   0  0.8024500E-09  0.3600301E+04  0.7818609E-02  0.8090423E-01
        1   -1    0    0  501    0  0.00000000000E+00  0.00000000000E+00  0.19349947926E+04  0.19349947926E+04  0.50400001928E-02 0. -1.
       -1   -1    0    0    0  501  0.00000000000E+00  0.00000000000E+00 -0.16747032767E+04  0.16747032767E+04  0.50400001928E-02 0.  1.
    10030    2    1    2    0    0  0.00000000000E+00  0.00000000000E+00  0.26029151592E+03  0.36096980693E+04  0.36003011649E+04 0.  0.
        1    1    3    3  502    0 -0.59336307131E+03  0.13958106383E+04 -0.84201123932E+03  0.17347478202E+04  0.50400001928E-02 0. -1.
       -1    1    3    3    0  502  0.59336307131E+03 -0.13958106383E+04  0.11023027552E+04  0.18749502491E+04  0.50400001928E-02 0.  1.
</event>
<event>
 5   0  0.2482243E-08  0.3598318E+04  0.7818609E-02  0.8090877E-01
        2   -1    0    0  501    0  0.00000000000E+00  0.00000000000E+00  0.17513374641E+04  0.17513374641E+04  0.25500000920E-02 0.  1.
       -2   -1    0    0    0  501  0.00000000000E+00  0.00000000000E+00 -0.18482864126E+04  0.18482864126E+04  0.25500000920E-02 0. -1.
    10030    2    1    2    0    0  0.00000000000E+00  0.00000000000E+00 -0.96948948454E+02  0.35996238767E+04  0.35983180731E+04 0.  0.
        5    1    3    3  502    0 -0.15865216555E+04 -0.69371818720E+03 -0.53717530909E+03  0.18129741557E+04  0.46999998093E+01 0.  1.
       -5    1    3    3    0  502  0.15865216555E+04  0.69371818720E+03  0.44022636064E+03  0.17866497209E+04  0.46999998093E+01 0. -1.
</event>
<event>
 5   0  0.8247570E-09  0.3594041E+04  0.7818609E-02  0.8091858E-01
       -1   -1    0    0    0  501  0.00000000000E+00  0.00000000000E+00  0.14802654413E+04  0.14802654413E+04  0.50400001928E-02 0. -1.
        1   -1    0    0  501    0  0.00000000000E+00  0.00000000000E+00 -0.21815569514E+04  0.21815569514E+04  0.50400001928E-02 0.  1.
    10030    2    1    2    0    0  0.00000000000E+00  0.00000000000E+00 -0.70129151011E+03  0.36618223927E+04  0.35940413818E+04 0.  0.
        3    1    3    3  502    0 -0.14139545007E+04 -0.36975957914E+03  0.71468057458E+03  0.16268859242E+04  0.10100000352E+00 0. -1.
       -3    1    3    3    0  502  0.14139545007E+04  0.36975957914E+03 -0.14159720847E+04  0.20349364686E+04  0.10100000352E+00 0.  1.
</event>
<event>
 5   0  0.2590795E-08  0.3600748E+04  0.7818609E-02  0.8090320E-01
        2   -1    0    0  501    0  0.00000000000E+00  0.00000000000E+00  0.18616639078E+04  0.18616639078E+04  0.25500000920E-02 0. -1.
       -2   -1    0    0    0  501  0.00000000000E+00  0.00000000000E+00 -0.17411016016E+04  0.17411016016E+04  0.25500000920E-02 0.  1.
    10030    2    1    2    0    0  0.00000000000E+00  0.00000000000E+00  0.12056230618E+03  0.36027655095E+04  0.36007477066E+04 0.  0.
        4    1    3    3  502    0  0.96324500850E+03  0.19468851920E+02  0.15820293649E+04  0.18523062671E+04  0.12699999809E+01 0. -1.
       -4    1    3    3    0  502 -0.96324500850E+03 -0.19468851920E+02 -0.14614670588E+04  0.17504592424E+04  0.12699999809E+01 0.  1.
</event>
<event>
 5   0  0.8024500E-09  0.3599806E+04  0.7818609E-02  0.8090536E-01
       -4   -1    0    0    0  501  0.00000000000E+00  0.00000000000E+00  0.12656449103E+04  0.12656455474E+04  0.12699999809E+01 0. -1.
        4   -1    0    0  501    0  0.00000000000E+00  0.00000000000E+00 -0.25596827284E+04  0.25596830434E+04  0.12699999809E+01 0.  1.
    10030    2    1    2    0    0  0.00000000000E+00  0.00000000000E+00 -0.12940378181E+04  0.38253285909E+04  0.35998062383E+04 0.  0.
        5    1    3    3  502    0 -0.14902100022E+04  0.78482911986E+03 -0.13215676597E+04  0.21408516453E+04  0.46999998093E+01 0.  1.
       -5    1    3    3    0  502  0.14902100022E+04 -0.78482911986E+03  0.27529841572E+02  0.16844769456E+04  0.46999998093E+01 0. -1.
</event>
<event>
 5   0  0.8247570E-09  0.3599018E+04  0.7818609E-02  0.8090717E-01
        1   -1    0    0  501    0  0.00000000000E+00  0.00000000000E+00  0.16080341549E+04  0.16080341549E+04  0.50400001928E-02 0. -1.
       -1   -1    0    0    0  501  0.00000000000E+00  0.00000000000E+00 -0.20137839512E+04  0.20137839512E+04  0.50400001928E-02 0.  1.
    10030    2    1    2    0    0  0.00000000000E+00  0.00000000000E+00 -0.40574979634E+03  0.36218181061E+04  0.35990184073E+04 0.  0.
        3    1    3    3  502    0  0.76627187953E+03  0.11063386728E+04  0.99929554065E+03  0.16762307240E+04  0.10100000352E+00 0. -1.
       -3    1    3    3    0  502 -0.76627187953E+03 -0.11063386728E+04 -0.14050453370E+04  0.19455873821E+04  0.10100000352E+00 0.  1.
</event>
<event>
 5   0  0.8024500E-09  0.3600174E+04  0.7818609E-02  0.8090452E-01
        1   -1    0    0  501    0  0.00000000000E+00  0.00000000000E+00  0.18819596480E+04  0.18819596480E+04  0.50400001928E-02 0.  1.
       -1   -1    0    0    0  501  0.00000000000E+00  0.00000000000E+00 -0.17217757147E+04  0.17217757147E+04  0.50400001928E-02 0. -1.
    10030    2    1    2    0    0  0.00000000000E+00  0.00000000000E+00  0.16018393329E+03  0.36037353627E+04  0.36001735613E+04 0.  0.
        1    1    3    3  502    0 -0.15922244621E+04 -0.34513075879E+03 -0.68618380475E+03  0.17678071706E+04  0.50400001928E-02 0. -1.
       -1    1    3    3    0  502  0.15922244621E+04  0.34513075879E+03  0.84636773804E+03  0.18359281921E+04  0.50400001928E-02 0.  1.
</event>
<event>
 5   0  0.8247570E-09  0.3599045E+04  0.7818609E-02  0.8090711E-01
        1   -1    0    0  501    0  0.00000000000E+00  0.00000000000E+00  0.18262207081E+04  0.18262207081E+04  0.50400001928E-02 0.  1.
       -1   -1    0    0    0  501  0.00000000000E+00  0.00000000000E+00 -0.17732142782E+04  0.17732142782E+04  0.50400001928E-02 0. -1.
    10030    2    1    2    0    0  0.00000000000E+00  0.00000000000E+00  0.53006429907E+02  0.35994349863E+04  0.35990446703E+04 0.  0.
        3    1    3    3  502    0 -0.13629160555E+04  0.10810676788E+04 -0.43401726924E+03  0.17929357213E+04  0.10100000352E+00 0. -1.
       -3    1    3    3    0  502  0.13629160555E+04 -0.10810676788E+04  0.48702369915E+03  0.18064992650E+04  0.10100000352E+00 0.  1.
</event>
<event>
 5   0  0.2590795E-08  0.3599256E+04  0.7818609E-02  0.8090662E-01
       -2   -1    0    0    0  501  0.00000000000E+00  0.00000000000E+00  0.13965064205E+04  0.13965064205E+04  0.25500000920E-02 0. -1.
        2   -1    0    0  501    0  0.00000000000E+00  0.00000000000E+00 -0.23191159460E+04  0.23191159460E+04  0.25500000920E-02 0.  1.
    10030    2    1    2    0    0  0.00000000000E+00  0.00000000000E+00 -0.92260952554E+03  0.37156223665E+04  0.35992556500E+04 0.  0.
        4    1    3    3  502    0 -0.76453084106E+02 -0.17918308244E+04 -0.61496579649E+03  0.18959660654E+04  0.12699999809E+01 0. -1.
       -4    1    3    3    0  502  0.76453084106E+02  0.17918308244E+04 -0.30764372905E+03  0.18196563011E+04  0.12699999809E+01 0.  1.
</event>
<event>
 5   0  0.2494592E-08  0.3600665E+04  0.7818609E-02  0.8090339E-01
       -2   -1    0    0    0  501  0.00000000000E+00  0.00000000000E+00  0.15248236515E+04  0.15248236516E+04  0.25500000920E-02 0. -1.
        2   -1    0    0  501    0  0.00000000000E+00  0.00000000000E+00 -0.21256212649E+04  0.21256212649E+04  0.25500000920E-02 0.  1.
    10030    2    1    2    0    0  0.00000000000E+00  0.00000000000E+00 -0.60079761338E+03  0.36504449165E+04  0.36006652602E+04 0.  0.
        1    1    3    3  502    0  0.78069254717E+03 -0.13639930421E+04 -0.11907426120E+04  0.19717570439E+04  0.50400001928E-02 0.  1.
       -1    1    3    3    0  502 -0.78069254717E+03  0.13639930421E+04  0.58994499863E+03  0.16786878726E+04  0.50400001928E-02 0. -1.
</event>
<event>
 5   0  0.8063410E-09  0.3600395E+04  0.7818609E-02  0.8090401E-01
       -1   -1    0    0    0  501  0.00000000000E+00  0.00000000000E+00  0.14787443641E+04  0.14787443641E+04  0.50400001928E-02 0.  1.
        1   -1    0    0  501    0  0.00000000000E+00  0.00000000000E+00 -0.21915288944E+04  0.21915288944E+04  0.50400001928E-02 0. -1.
    10030    2    1    2    0    0  0.00000000000E+00  0.00000000000E+00 -0.71278453030E+03  0.36702732586E+04  0.36003949791E+04 0.  0.
        2    1    3    3  502    0 -0.97149925691E+03 -0.10861947151E+04 -0.14338261519E+04  0.20443794166E+04  0.25500000920E-02 0. -1.
       -2    1    3    3    0  502  0.97149925691E+03  0.10861947151E+04  0.72104162156E+03  0.16258938420E+04  0.25500000920E-02 0.  1.
</event>
<event>
 5   0  0.8063410E-09  0.3599869E+04  0.7818609E-02  0.8090522E-01
       -1   -1    0    0    0  501  0.00000000000E+00  0.00000000000E+00  0.16920553817E+04  0.16920553817E+04  0.50400001928E-02 0.  1.
        1   -1    0    0  501    0  0.00000000000E+00  0.00000000000E+00 -0.19146914392E+04  0.19146914392E+04  0.50400001928E-02 0. -1.
    10030    2    1    2    0    0  0.00000000000E+00  0.00000000000E+00 -0.22263605756E+03  0.36067468209E+04  0.35998688610E+04 0.  0.
        2    1    3    3  502    0 -0.10210027526E+04 -0.96362312647E+03 -0.12398571772E+04  0.18730354963E+04  0.25500000920E-02 0. -1.
       -2    1    3    3    0  502  0.10210027526E+04  0.96362312647E+03  0.10172211197E+04  0.17337113246E+04  0.25500000920E-02 0.  1.
</event>
<event>
 5   0  0.8024500E-09  0.3603379E+04  0.7818609E-02  0.8089718E-01
       -3   -1    0    0    0  501  0.00000000000E+00  0.00000000000E+00  0.18256954972E+04  0.18256954999E+04  0.10100000352E+00 0. -1.
        3   -1    0    0  501    0  0.00000000000E+00  0.00000000000E+00 -0.17779992026E+04  0.17779992054E+04  0.10100000352E+00 0.  1.
    10030    2    1    2    0    0  0.00000000000E+00  0.00000000000E+00  0.47696294584E+02  0.36036947054E+04  0.36033790521E+04 0.  0.
        3    1    3    3  502    0  0.91808972368E+02 -0.70217739126E+02 -0.17742875854E+04  0.17780483301E+04  0.10100000352E+00 0.  1.
       -3    1    3    3    0  502 -0.91808972368E+02  0.70217739126E+02  0.18219838800E+04  0.18256463753E+04  0.10100000352E+00 0. -1.
</event>
<event>
 5   0  0.2590795E-08  0.3608769E+04  0.7818609E-02  0.8088486E-01
        2   -1    0    0  501    0  0.00000000000E+00  0.00000000000E+00  0.24162014754E+04  0.24162014754E+04  0.25500000920E-02 0. -1.
       -2   -1    0    0    0  501  0.00000000000E+00  0.00000000000E+00 -0.13474880277E+04  0.13474880277E+04  0.25500000920E-02 0.  1.
    10030    2    1    2    0    0  0.00000000000E+00  0.00000000000E+00  0.10687134476E+04  0.37636895031E+04  0.36087685216E+04 0.  0.
        4    1    3    3  502    0  0.46339216172E+03  0.16711432980E+04  0.14617212719E+02  0.17342628099E+04  0.12699999809E+01 0. -1.
       -4    1    3    3    0  502 -0.46339216172E+03 -0.16711432980E+04  0.10540962349E+04  0.20294266932E+04  0.12699999809E+01 0.  1.
</event>
<event>
 5   0  0.8247570E-09  0.3599654E+04  0.7818609E-02  0.8090571E-01
       -1   -1    0    0    0  501  0.00000000000E+00  0.00000000000E+00  0.23368878205E+04  0.23368878205E+04  0.50400001928E-02 0. -1.
        1   -1    0    0  501    0  0.00000000000E+00  0.00000000000E+00 -0.13861929474E+04  0.13861929474E+04  0.50400001928E-02 0.  1.
    10030    2    1    2    0    0  0.00000000000E+00  0.00000000000E+00  0.95069487306E+03  0.37230807679E+04  0.35996541032E+04 0.  0.
        3    1    3    3  502    0 -0.16432134369E+03 -0.14297953839E+03  0.23232052631E+04  0.23333939567E+04  0.10100000352E+00 0. -1.
       -3    1    3    3    0  502  0.16432134369E+03  0.14297953839E+03 -0.13725103900E+04  0.13896868112E+04  0.10100000352E+00 0.  1.
</event>
<event>
 5   0  0.2590795E-08  0.3572333E+04  0.7818609E-02  0.8096859E-01
        2   -1    0    0  501    0  0.00000000000E+00  0.00000000000E+00  0.20139587723E+04  0.20139587723E+04  0.25500000920E-02 0.  1.
       -2   -1    0    0    0  501  0.00000000000E+00  0.00000000000E+00 -0.15841392324E+04  0.15841392324E+04  0.25500000920E-02 0. -1.
    10030    2    1    2    0    0  0.00000000000E+00  0.00000000000E+00  0.42981953991E+03  0.35980980046E+04  0.35723331891E+04 0.  0.
        4    1    3    3  502    0  0.94179027456E+03 -0.13503719965E+04  0.91266590360E+03  0.18824011567E+04  0.12699999809E+01 0.  1.
       -4    1    3    3    0  502 -0.94179027456E+03  0.13503719965E+04 -0.48284636369E+03  0.17156968479E+04  0.12699999809E+01 0. -1.
</event>
<event>
 5   0  0.8247570E-09  0.3599811E+04  0.7818609E-02  0.8090535E-01
       -1   -1    0    0    0  501  0.00000000000E+00  0.00000000000E+00  0.29535235679E+04  0.29535235679E+04  0.50400001928E-02 0. -1.
        1   -1    0    0  501    0  0.00000000000E+00  0.00000000000E+00 -0.10968796907E+04  0.10968796907E+04  0.50400001928E-02 0.  1.
    10030    2    1    2    0    0  0.00000000000E+00  0.00000000000E+00  0.18566438772E+04  0.40504032586E+04  0.35998111160E+04 0.  0.
        3    1    3    3  502    0  0.16308350445E+04 -0.60220761023E+03  0.40371817938E+03  0.17847311637E+04  0.10100000352E+00 0. -1.
       -3    1    3    3    0  502 -0.16308350445E+04  0.60220761023E+03  0.14529256978E+04  0.22656720949E+04  0.10100000352E+00 0.  1.
</event>
<event>
 5   0  0.8247570E-09  0.3601243E+04  0.7818609E-02  0.8090207E-01
       -1   -1    0    0    0  501  0.00000000000E+00  0.00000000000E+00  0.16012451327E+04  0.16012451327E+04  0.50400001928E-02 0.  1.
        1   -1    0    0  501    0  0.00000000000E+00  0.00000000000E+00 -0.20248224078E+04  0.20248224079E+04  0.50400001928E-02 0. -1.
    10030    2    1    2    0    0  0.00000000000E+00  0.00000000000E+00 -0.42357727513E+03  0.36260675406E+04  0.36012425773E+04 0.  0.
        3    1    3    3  502    0  0.11265093345E+03  0.85490268198E+00 -0.20212705817E+04  0.20244075031E+04  0.10100000352E+00 0. -1.
       -3    1    3    3    0  502 -0.11265093345E+03 -0.85490268198E+00  0.15976933066E+04  0.16016600375E+04  0.10100000352E+00 0.  1.
</event>
<event>
 5   0  0.2590795E-08  0.3600432E+04  0.7818609E-02  0.8090393E-01
        2   -1    0    0  501    0  0.00000000000E+00  0.00000000000E+00  0.21358195341E+04  0.21358195341E+04  0.25500000920E-02 0.  1.
       -2   -1    0    0    0  501  0.00000000000E+00  0.00000000000E+00 -0.15173463953E+04  0.15173463953E+04  0.25500000920E-02 0. -1.
    10030    2    1    2    0    0  0.00000000000E+00  0.00000000000E+00  0.61847313883E+03  0.36531659294E+04  0.36004322357E+04 0.  0.
        4    1    3    3  502    0  0.16483322891E+04 -0.72292732792E+03  0.27478037103E+03  0.18207496044E+04  0.12699999809E+01 0. -1.
       -4    1    3    3    0  502 -0.16483322891E+04  0.72292732792E+03  0.34369276780E+03  0.18324163250E+04  0.12699999809E+01 0.  1.
</event>
<event>
 5   0  0.2494592E-08  0.3600036E+04  0.7818609E-02  0.8090483E-01
       -2   -1    0    0    0  501  0.00000000000E+00  0.00000000000E+00  0.17848215672E+04  0.17848215672E+04  0.25500000920E-02 0. -1.
        2   -1    0    0  501    0  0.00000000000E+00  0.00000000000E+00 -0.18153442982E+04  0.18153442982E+04  0.25500000920E-02 0.  1.
    10030    2    1    2    0    0  0.00000000000E+00  0.00000000000E+00 -0.30522731054E+02  0.36001658654E+04  0.36000364750E+04 0.  0.
        1    1    3    3  502    0 -0.16167400764E+04  0.34155824638E+03 -0.72911833583E+03  0.18061351162E+04  0.50400001928E-02 0.  1.
       -1    1    3    3    0  502  0.16167400764E+04 -0.34155824638E+03  0.69859560477E+03  0.17940307493E+04  0.50400001928E-02 0. -1.
</event>
<event>
 5   0  0.2476968E-08  0.3602227E+04  0.7818609E-02  0.8089982E-01
       -2   -1    0    0    0  501  0.00000000000E+00  0.00000000000E+00  0.19149103625E+04  0.19149103625E+04  0.25500000920E-02 0.  1.
        2   -1    0    0  501    0  0.00000000000E+00  0.00000000000E+00 -0.16940788432E+04  0.16940788432E+04  0.25500000920E-02 0. -1.
    10030    2    1    2    0    0  0.00000000000E+00  0.00000000000E+00  0.22083151930E+03  0.36089892057E+04  0.36022266068E+04 0.  0.
        2    1    3    3  502    0 -0.15153142124E+04  0.87096205527E+03  0.54626932882E+03  0.18311641772E+04  0.25500000920E-02 0.  1.
       -2    1    3    3    0  502  0.15153142124E+04 -0.87096205527E+03 -0.32543780952E+03  0.17778250285E+04  0.25500000920E-02 0. -1.
</event>
<event>
 5   0  0.2590795E-08  0.3602075E+04  0.7818609E-02  0.8090017E-01
        2   -1    0    0  501    0  0.00000000000E+00  0.00000000000E+00  0.24182134783E+04  0.24182134783E+04  0.25500000920E-02 0.  1.
       -2   -1    0    0    0  501  0.00000000000E+00  0.00000000000E+00 -0.13413767397E+04  0.13413767397E+04  0.25500000920E-02 0. -1.
    10030    2    1    2    0    0  0.00000000000E+00  0.00000000000E+00  0.10768367386E+04  0.37595902180E+04  0.36020745752E+04 0.  0.
        4    1    3    3  502    0 -0.77174016619E+03  0.15330309107E+04  0.11081520906E+04  0.20429805007E+04  0.12699999809E+01 0. -1.
       -4    1    3    3    0  502  0.77174016619E+03 -0.15330309107E+04 -0.31315351983E+02  0.17166097173E+04  0.12699999809E+01 0.  1.
</event>
<event>
 5   0  0.8024500E-09  0.3598644E+04  0.7818609E-02  0.8090802E-01
        1   -1    0    0  501    0  0.00000000000E+00  0.00000000000E+00  0.23177833334E+04  0.23177833334E+04  0.50400001928E-02 0.  1.
       -1   -1    0    0    0  501  0.00000000000E+00  0.00000000000E+00 -0.13968348414E+04  0.13968348414E+04  0.50400001928E-02 0. -1.
    10030    2    1    2    0    0  0.00000000000E+00  0.00000000000E+00  0.92094849194E+03  0.37146181748E+04  0.35986444753E+04 0.  0.
        1    1    3    3  502    0 -0.86918228482E+03  0.15205025836E+04  0.34682697079E+02  0.17517445135E+04  0.50400001928E-02 0. -1.
       -1    1    3    3    0  502  0.86918228482E+03 -0.15205025836E+04  0.88626579486E+03  0.19628736613E+04  0.50400001928E-02 0.  1.
</event>
<event>
 5   0  0.8247570E-09  0.3600444E+04  0.7818609E-02  0.8090390E-01
       -1   -1    0    0    0  501  0.00000000000E+00  0.00000000000E+00  0.17952284041E+04  0.17952284041E+04  0.50400001928E-02 0.  1.
        1   -1    0    0  501    0  0.00000000000E+00  0.00000000000E+00 -0.18052290433E+04  0.18052290433E+04  0.50400001928E-02 0. -1.
    10030    2    1    2    0    0  0.00000000000E+00  0.00000000000E+00 -0.10000639216E+02  0.36004574474E+04  0.36004435585E+04 0.  0.
        3    1    3    3  502    0 -0.63951112529E+03 -0.16653812108E+04  0.23651538897E+03  0.17995578891E+04  0.10100000352E+00 0.  1.
       -3    1    3    3    0  502  0.63951112529E+03  0.16653812108E+04 -0.24651602819E+03  0.18008995583E+04  0.10100000352E+00 0. -1.
</event>
<event>
 5   0  0.2476968E-08  0.3606529E+04  0.7818609E-02  0.8088998E-01
       -2   -1    0    0    0  501  0.00000000000E+00  0.00000000000E+00  0.20085976478E+04  0.20085976478E+04  0.25500000920E-02 0.  1.
        2   -1    0    0  501    0  0.00000000000E+00  0.00000000000E+00 -0.16189221100E+04  0.16189221100E+04  0.25500000920E-02 0. -1.
    10030    2    1    2    0    0  0.00000000000E+00  0.00000000000E+00  0.38967553780E+03  0.36275197578E+04  0.36065291581E+04 0.  0.
        2    1    3    3  502    0  0.15287023551E+04  0.83798299668E+03  0.65862530736E+03  0.18635808780E+04  0.25500000920E-02 0.  1.
       -2    1    3    3    0  502 -0.15287023551E+04 -0.83798299668E+03 -0.26894976957E+03  0.17639388798E+04  0.25500000920E-02 0. -1.
</event>
<event>
 5   0  0.8063410E-09  0.3600448E+04  0.7818609E-02  0.8090389E-01
       -1   -1    0    0    0  501  0.00000000000E+00  0.00000000000E+00  0.15587793322E+04  0.15587793322E+04  0.50400001928E-02 0.  1.
        1   -1    0    0  501    0  0.00000000000E+00  0.00000000000E+00 -0.20790665305E+04  0.20790665305E+04  0.50400001928E-02 0. -1.
    10030    2    1    2    0    0  0.00000000000E+00  0.00000000000E+00 -0.52028719829E+03  0.36378458627E+04  0.36004477155E+04 0.  0.
        2    1    3    3  502    0  0.41843624798E+03  0.57253366390E+03  0.14117103701E+04  0.15798132355E+04  0.25500000920E-02 0.  1.
       -2    1    3    3    0  502 -0.41843624798E+03 -0.57253366390E+03 -0.19319975684E+04  0.20580326271E+04  0.25500000920E-02 0. -1.
</event>
<event>
 5   0  0.8146881E-09  0.3596819E+04  0.7818609E-02  0.8091221E-01
        1   -1    0    0  501    0  0.00000000000E+00  0.00000000000E+00  0.19128753481E+04  0.19128753481E+04  0.50400001928E-02 0. -1.
       -1   -1    0    0    0  501  0.00000000000E+00  0.00000000000E+00 -0.16907931400E+04  0.16907931400E+04  0.50400001928E-02 0.  1.
    10030    2    1    2    0    0  0.00000000000E+00  0.00000000000E+00  0.22208220812E+03  0.36036684881E+04  0.35968188813E+04 0.  0.
        4    1    3    3  502    0  0.16458487023E+04 -0.12131785344E+03 -0.60497987053E+03  0.17577082320E+04  0.12699999809E+01 0.  1.
       -4    1    3    3    0  502 -0.16458487023E+04  0.12131785344E+03  0.82706207864E+03  0.18459602561E+04  0.12699999809E+01 0. -1.
</event>
<event>
 5   0  0.8146881E-09  0.3600622E+04  0.7818609E-02  0.8090349E-01
        1   -1    0    0  501    0  0.00000000000E+00  0.00000000000E+00  0.31617984770E+04  0.31617984770E+04  0.50400001928E-02 0.  1.
       -1   -1    0    0    0  501  0.00000000000E+00  0.00000000000E+00 -0.10250872055E+04  0.10250872055E+04  0.50400001928E-02 0. -1.
    10030    2    1    2    0    0  0.00000000000E+00  0.00000000000E+00  0.21367112715E+04  0.41868856824E+04  0.36006217047E+04 0.  0.
        4    1    3    3  502    0  0.94160494163E+03 -0.49012083654E+03 -0.62245426426E+03  0.12305645958E+04  0.12699999809E+01 0. -1.
       -4    1    3    3    0  502 -0.94160494163E+03  0.49012083654E+03  0.27591655358E+04  0.29563210866E+04  0.12699999809E+01 0.  1.
</event>
<event>
 5   0  0.2476968E-08  0.3601667E+04  0.7818609E-02  0.8090110E-01
       -2   -1    0    0    0  501  0.00000000000E+00  0.00000000000E+00  0.12104379019E+04  0.12104379019E+04  0.25500000920E-02 0. -1.
        2   -1    0    0  501    0  0.00000000000E+00  0.00000000000E+00 -0.26791960960E+04  0.26791960960E+04  0.25500000920E-02 0.  1.
    10030    2    1    2    0    0  0.00000000000E+00  0.00000000000E+00 -0.14687581941E+04  0.38896339979E+04  0.36016665594E+04 0.  0.
        2    1    3    3  502    0  0.68089368726E+03 -0.74483153917E+03 -0.23451441645E+04  0.25530553044E+04  0.25500000920E-02 0.  1.
       -2    1    3    3    0  502 -0.68089368726E+03  0.74483153917E+03  0.87638597034E+03  0.13365786936E+04  0.25500000920E-02 0. -1.
</event>
<event>
 5   0  0.8024500E-09  0.3599004E+04  0.7818609E-02  0.8090720E-01
        1   -1    0    0  501    0  0.00000000000E+00  0.00000000000E+00  0.19801156796E+04  0.19801156796E+04  0.50400001928E-02 0. -1.
       -1   -1    0    0    0  501  0.00000000000E+00  0.00000000000E+00 -0.16353629096E+04  0.16353629096E+04  0.50400001928E-02 0.  1.
    10030    2    1    2    0    0  0.00000000000E+00  0.00000000000E+00  0.34475277002E+03  0.36154785892E+04  0.35990041618E+04 0.  0.
        1    1    3    3  502    0 -0.17588672247E+04  0.26007355833E+03 -0.10630212079E+03  0.17811659975E+04  0.50400001928E-02 0. -1.
       -1    1    3    3    0  502  0.17588672247E+04 -0.26007355833E+03  0.45105489081E+03  0.18343125917E+04  0.50400001928E-02 0.  1.
</event>
<event>
 5   0  0.2476968E-08  0.3593533E+04  0.7818609E-02  0.8091975E-01
       -2   -1    0    0    0  501  0.00000000000E+00  0.00000000000E+00  0.14221427554E+04  0.14221427554E+04  0.25500000920E-02 0. -1.
        2   -1    0    0  501    0  0.00000000000E+00  0.00000000000E+00 -0.22700745446E+04  0.22700745446E+04  0.25500000920E-02 0.  1.
    10030    2    1    2    0    0  0.00000000000E+00  0.00000000000E+00 -0.84793178917E+03  0.36922173000E+04  0.35935331182E+04 0.  0.
        2    1    3    3  502    0  0.90329551458E+03  0.38866960528E+03  0.11211133666E+04  0.14912753030E+04  0.25500000920E-02 0. -1.
       -2    1    3    3    0  502 -0.90329551458E+03 -0.38866960528E+03 -0.19690451558E+04  0.22009419970E+04  0.25500000920E-02 0.  1.
</event>
<event>
 5   0  0.2476968E-08  0.3601394E+04  0.7818609E-02  0.8090172E-01
        2   -1    0    0  501    0  0.00000000000E+00  0.00000000000E+00  0.26875792451E+04  0.26875792451E+04  0.25500000920E-02 0.  1.
       -2   -1    0    0    0  501  0.00000000000E+00  0.00000000000E+00 -0.12064798214E+04  0.12064798214E+04  0.25500000920E-02 0. -1.
    10030    2    1    2    0    0  0.00000000000E+00  0.00000000000E+00  0.14810994237E+04  0.38940590666E+04  0.36013942454E+04 0.  0.
        2    1    3    3  502    0 -0.55077321449E+03  0.15938689674E+04  0.57775425807E+02  0.16873373755E+04  0.25500000920E-02 0. -1.
       -2    1    3    3    0  502  0.55077321449E+03 -0.15938689674E+04  0.14233239979E+04  0.22067216911E+04  0.25500000920E-02 0.  1.
</event>
<event>
 5   0  0.2476968E-08  0.3601217E+04  0.7818609E-02  0.8090213E-01
        2   -1    0    0  501    0  0.00000000000E+00  0.00000000000E+00  0.11292834559E+04  0.11292834559E+04  0.25500000920E-02 0. -1.
       -2   -1    0    0    0  501  0.00000000000E+00  0.00000000000E+00 -0.28710167780E+04  0.28710167780E+04  0.25500000920E-02 0.  1.
    10030    2    1    2    0    0  0.00000000000E+00  0.00000000000E+00 -0.17417333221E+04  0.40003002339E+04  0.36012174325E+04 0.  0.
        2    1    3    3  502    0  0.94736654206E+03 -0.53135914874E+03 -0.24660991691E+04  0.26947153879E+04  0.25500000920E-02 0.  1.
       -2    1    3    3    0  502 -0.94736654206E+03  0.53135914874E+03  0.72436584695E+03  0.13055848460E+04  0.25500000920E-02 0. -1.
</event>
<event>
 5   0  0.2494592E-08  0.3599490E+04  0.7818609E-02  0.8090609E-01
       -2   -1    0    0    0  501  0.00000000000E+00  0.00000000000E+00  0.16550596996E+04  0.16550596996E+04  0.25500000920E-02 0.  1.
        2   -1    0    0  501    0  0.00000000000E+00  0.00000000000E+00 -0.19570785706E+04  0.19570785706E+04  0.25500000920E-02 0. -1.
    10030    2    1    2    0    0  0.00000000000E+00  0.00000000000E+00 -0.30201887097E+03  0.36121382702E+04  0.35994898923E+04 0.  0.
        1    1    3    3  502    0  0.83596505034E+03 -0.68708157119E+03  0.12921549851E+04  0.16854029656E+04  0.50400001928E-02 0.  1.
       -1    1    3    3    0  502 -0.83596505034E+03  0.68708157119E+03 -0.15941738561E+04  0.19267353047E+04  0.50400001928E-02 0. -1.
</event>
<event>
 5   0  0.8063410E-09  0.3599958E+04  0.7818609E-02  0.8090501E-01
       -1   -1    0    0    0  501  0.00000000000E+00  0.00000000000E+00  0.16061640319E+04  0.16061640319E+04  0.50400001928E-02 0. -1.
        1   -1    0    0  501    0  0.00000000000E+00  0.00000000000E+00 -0.20171815532E+04  0.20171815532E+04  0.50400001928E-02 0.  1.
    10030    2    1    2    0    0  0.00000000000E+00  0.00000000000E+00 -0.41101752133E+03  0.36233455852E+04  0.35999580312E+04 0.  0.
        2    1    3    3  502    0  0.10144121027E+03 -0.15189386302E+04  0.76117849194E+03  0.17020157397E+04  0.25500000920E-02 0. -1.
       -2    1    3    3    0  502 -0.10144121027E+03  0.15189386302E+04 -0.11721960133E+04  0.19213298455E+04  0.25500000920E-02 0.  1.
</event>
<event>
 5   0  0.2590795E-08  0.3601097E+04  0.7818609E-02  0.8090240E-01
       -2   -1    0    0    0  501  0.00000000000E+00  0.00000000000E+00  0.17366819138E+04  0.17366819138E+04  0.25500000920E-02 0.  1.
        2   -1    0    0  501    0  0.00000000000E+00  0.00000000000E+00 -0.18667635963E+04  0.18667635963E+04  0.25500000920E-02 0. -1.
    10030    2    1    2    0    0  0.00000000000E+00  0.00000000000E+00 -0.13008168251E+03  0.36034455101E+04  0.36010968190E+04 0.  0.
        4    1    3    3  502    0 -0.32331192295E+03  0.84379988921E+03  0.14933586472E+04  0.17454657014E+04  0.12699999809E+01 0.  1.
       -4    1    3    3    0  502  0.32331192295E+03 -0.84379988921E+03 -0.16234403297E+04  0.18579798087E+04  0.12699999809E+01 0. -1.
</event>
<event>
 5   0  0.2482243E-08  0.3599320E+04  0.7818609E-02  0.8090647E-01
       -2   -1    0    0    0  501  0.00000000000E+00  0.00000000000E+00  0.18364205618E+04  0.18364205618E+04  0.25500000920E-02 0.  1.
        2   -1    0    0  501    0  0.00000000000E+00  0.00000000000E+00 -0.17636355241E+04  0.17636355241E+04  0.25500000920E-02 0. -1.
    10030    2    1    2    0    0  0.00000000000E+00  0.00000000000E+00  0.72785037723E+02  0.36000560859E+04  0.35993202358E+04 0.  0.
        5    1    3    3  502    0 -0.15479034560E+04 -0.28778222447E+03  0.90831079863E+03  0.18176562697E+04  0.46999998093E+01 0.  1.
       -5    1    3    3    0  502  0.15479034560E+04  0.28778222447E+03 -0.83552576091E+03  0.17823998162E+04  0.46999998093E+01 0. -1.
</event>
<event>
 5   0  0.8024500E-09  0.3600915E+04  0.7818609E-02  0.8090282E-01
        1   -1    0    0  501    0  0.00000000000E+00  0.00000000000E+00  0.19644415489E+04  0.19644415489E+04  0.50400001928E-02 0.  1.
       -1   -1    0    0    0  501  0.00000000000E+00  0.00000000000E+00 -0.16501621535E+04  0.16501621535E+04  0.50400001928E-02 0. -1.
    10030    2    1    2    0    0  0.00000000000E+00  0.00000000000E+00  0.31427939547E+03  0.36146037024E+04  0.36009149375E+04 0.  0.
        5    1    3    3  502    0  0.15683986119E+04  0.45025238394E+03  0.92096836901E+03  0.18737145572E+04  0.46999998093E+01 0.  1.
       -5    1    3    3    0  502 -0.15683986119E+04 -0.45025238394E+03 -0.60668897354E+03  0.17408891452E+04  0.46999998093E+01 0. -1.
</event>
<event>
 5   0  0.2482243E-08  0.3601536E+04  0.7818609E-02  0.8090140E-01
       -2   -1    0    0    0  501  0.00000000000E+00  0.00000000000E+00  0.15698770188E+04  0.15698770188E+04  0.25500000920E-02 0.  1.
        2   -1    0    0  501    0  0.00000000000E+00  0.00000000000E+00 -0.20656178843E+04  0.20656178843E+04  0.25500000920E-02 0. -1.
    10030    2    1    2    0    0  0.00000000000E+00  0.00000000000E+00 -0.49574086552E+03  0.36354949031E+04  0.36015363645E+04 0.  0.
        5    1    3    3  502    0 -0.79741942132E+03  0.96219016607E+03  0.10609102193E+04  0.16392804009E+04  0.46999998093E+01 0.  1.
       -5    1    3    3    0  502  0.79741942132E+03 -0.96219016607E+03 -0.15566510848E+04  0.19962145023E+04  0.46999998093E+01 0. -1.
</event>
<event>
 5   0  0.8024500E-09  0.3601745E+04  0.7818609E-02  0.8090092E-01
        1   -1    0    0  501    0  0.00000000000E+00  0.00000000000E+00  0.13790438724E+04  0.13790438724E+04  0.50400001928E-02 0. -1.
       -1   -1    0    0    0  501  0.00000000000E+00  0.00000000000E+00 -0.23517317477E+04  0.23517317477E+04  0.50400001928E-02 0.  1.
    10030    2    1    2    0    0  0.00000000000E+00  0.00000000000E+00 -0.97268787530E+03  0.37307756202E+04  0.36017447196E+04 0.  0.
        5    1    3    3  502    0  0.97590689289E+03  0.12182522453E+04 -0.14166195616E+04  0.21079292846E+04  0.46999998093E+01 0.  1.
       -5    1    3    3    0  502 -0.97590689289E+03 -0.12182522453E+04  0.44393168626E+03  0.16228463355E+04  0.46999998093E+01 0. -1.
</event>
<event>
 5   0  0.2482243E-08  0.3601078E+04  0.7818609E-02  0.8090245E-01
        2   -1    0    0  501    0  0.00000000000E+00  0.00000000000E+00  0.27830402301E+04  0.27830402301E+04  0.25500000920E-02 0. -1.
       -2   -1    0    0    0  501  0.00000000000E+00  0.00000000000E+00 -0.11648919446E+04  0.11648919446E+04  0.25500000920E-02 0.  1.
    10030    2    1    2    0    0  0.00000000000E+00  0.00000000000E+00  0.16181482854E+04  0.39479321747E+04  0.36010782527E+04 0.  0.
        5    1    3    3  502    0 -0.11622310589E+04 -0.13274209493E+04  0.12029743333E+04  0.21354148889E+04  0.46999998093E+01 0.  1.
       -5    1    3    3    0  502  0.11622310589E+04  0.13274209493E+04  0.41517395211E+03  0.18125172858E+04  0.46999998093E+01 0. -1.
</event>
<event>
 5   0  0.2476968E-08  0.3600223E+04  0.7818609E-02  0.8090441E-01
       -2   -1    0    0    0  501  0.00000000000E+00  0.00000000000E+00  0.22265705560E+04  0.22265705560E+04  0.25500000920E-02 0. -1.
        2   -1    0    0  501    0  0.00000000000E+00  0.00000000000E+00 -0.14553325371E+04  0.14553325371E+04  0.25500000920E-02 0.  1.
    10030    2    1    2    0    0  0.00000000000E+00  0.00000000000E+00  0.77123801889E+03  0.36819030931E+04  0.36002225355E+04 0.  0.
        2    1    3    3  502    0 -0.67542750135E+03  0.89861782269E+03  0.18234626519E+04  0.21421326625E+04  0.25500000920E-02 0. -1.
       -2    1    3    3    0  502  0.67542750135E+03 -0.89861782269E+03 -0.10522246330E+04  0.15397704307E+04  0.25500000920E-02 0.  1.
</event>
<event>
 5   0  0.8024500E-09  0.3597776E+04  0.7818609E-02  0.8091001E-01
        1   -1    0    0  501    0  0.00000000000E+00  0.00000000000E+00  0.15531215343E+04  0.15531215343E+04  0.50400001928E-02 0.  1.
       -1   -1    0    0    0  501  0.00000000000E+00  0.00000000000E+00 -0.20835442498E+04  0.20835442498E+04  0.50400001928E-02 0. -1.
    10030    2    1    2    0    0  0.00000000000E+00  0.00000000000E+00 -0.53042271553E+03  0.36366657841E+04  0.35977756696E+04 0.  0.
        1    1    3    3  502    0 -0.76972840782E+03  0.15337238233E+04 -0.81068039852E+03  0.18978918032E+04  0.50400001928E-02 0.  1.
       -1    1    3    3    0  502  0.76972840782E+03 -0.15337238233E+04  0.28025768299E+03  0.17387739810E+04  0.50400001928E-02 0. -1.
</event>
<event>
 5   0  0.8247570E-09  0.3600071E+04  0.7818609E-02  0.8090475E-01
        1   -1    0    0  501    0  0.00000000000E+00  0.00000000000E+00  0.19577221242E+04  0.19577221242E+04  0.50400001928E-02 0. -1.
       -1   -1    0    0    0  501  0.00000000000E+00  0.00000000000E+00 -0.16550496564E+04  0.16550496564E+04  0.50400001928E-02 0.  1.
    10030    2    1    2    0    0  0.00000000000E+00  0.00000000000E+00  0.30267246782E+03  0.36127717807E+04  0.36000707377E+04 0.  0.
        3    1    3    3  502    0  0.16150077509E+04  0.78786666919E+03  0.45401529860E+02  0.17975108436E+04  0.10100000352E+00 0. -1.
       -3    1    3    3    0  502 -0.16150077509E+04 -0.78786666919E+03  0.25727093796E+03  0.18152609370E+04  0.10100000352E+00 0.  1.
</event>
<event>
 5   0  0.2590795E-08  0.3590516E+04  0.7818609E-02  0.8092668E-01
        2   -1    0    0  501    0  0.00000000000E+00  0.00000000000E+00  0.28953826043E+04  0.28953826043E+04  0.25500000920E-02 0.  1.
       -2   -1    0    0    0  501  0.00000000000E+00  0.00000000000E+00 -0.11131348597E+04  0.11131348597E+04  0.25500000920E-02 0. -1.
    10030    2    1    2    0    0  0.00000000000E+00  0.00000000000E+00  0.17822477446E+04  0.40085174641E+04  0.35905160126E+04 0.  0.
        4    1    3    3  502    0 -0.69053501998E+03  0.16514958824E+04  0.10436791954E+04  0.20720871457E+04  0.12699999809E+01 0.  1.
       -4    1    3    3    0  502  0.69053501998E+03 -0.16514958824E+04  0.73856854914E+03  0.19364303184E+04  0.12699999809E+01 0. -1.
</event>
<event>
 5   0  0.2590795E-08  0.3599487E+04  0.7818609E-02  0.8090609E-01
        2   -1    0    0  501    0  0.00000000000E+00  0.00000000000E+00  0.23194025911E+04  0.23194025911E+04  0.25500000920E-02 0.  1.
       -2   -1    0    0    0  501  0.00000000000E+00  0.00000000000E+00 -0.13965136079E+04  0.13965136079E+04  0.25500000920E-02 0. -1.
    10030    2    1    2    0    0  0.00000000000E+00  0.00000000000E+00  0.92288898325E+03  0.37159161990E+04  0.35994873417E+04 0.  0.
        4    1    3    3  502    0 -0.43387332911E+03 -0.12302049802E+04  0.17414807559E+04  0.21758692964E+04  0.12699999809E+01 0.  1.
       -4    1    3    3    0  502  0.43387332911E+03  0.12302049802E+04 -0.81859177269E+03  0.15400469026E+04  0.12699999809E+01 0. -1.
</event>
<event>
 5   0  0.2494592E-08  0.3596339E+04  0.7818609E-02  0.8091331E-01
        2   -1    0    0  501    0  0.00000000000E+00  0.00000000000E+00  0.20784641906E+04  0.20784641906E+04  0.25500000920E-02 0. -1.
       -2   -1    0    0    0  501  0.00000000000E+00  0.00000000000E+00 -0.15556743280E+04  0.15556743280E+04  0.25500000920E-02 0.  1.
    10030    2    1    2    0    0  0.00000000000E+00  0.00000000000E+00  0.52278986264E+03  0.36341385186E+04  0.35963389067E+04 0.  0.
        1    1    3    3  502    0  0.10150088695E+04  0.43637685359E+03 -0.11722292260E+04  0.16108349145E+04  0.50400001928E-02 0.  1.
       -1    1    3    3    0  502 -0.10150088695E+04 -0.43637685359E+03  0.16950190886E+04  0.20233036041E+04  0.50400001928E-02 0. -1.
</event>
<event>
 5   0  0.2482243E-08  0.3600070E+04  0.7818609E-02  0.8090476E-01
       -2   -1    0    0    0  501  0.00000000000E+00  0.00000000000E+00  0.16860684928E+04  0.16860684928E+04  0.25500000920E-02 0. -1.
        2   -1    0    0  501    0  0.00000000000E+00  0.00000000000E+00 -0.19217049450E+04  0.19217049450E+04  0.25500000920E-02 0.  1.
    10030    2    1    2    0    0  0.00000000000E+00  0.00000000000E+00 -0.23563645218E+03  0.36077734378E+04  0.36000700883E+04 0.  0.
        5    1    3    3  502    0 -0.23004565150E+03  0.38554689552E+03  0.16290515910E+04  0.16897924685E+04  0.46999998093E+01 0. -1.
       -5    1    3    3    0  502  0.23004565150E+03 -0.38554689552E+03 -0.18646880432E+04  0.19179809693E+04  0.46999998093E+01 0.  1.
</event>
<event>
 5   0  0.8247570E-09  0.3600500E+04  0.7818609E-02  0.8090377E-01
       -1   -1    0    0    0  501  0.00000000000E+00  0.00000000000E+00  0.15720017578E+04  0.15720017579E+04  0.50400001928E-02 0.  1.
        1   -1    0    0  501    0  0.00000000000E+00  0.00000000000E+00 -0.20616388376E+04  0.20616388376E+04  0.50400001928E-02 0. -1.
    10030    2    1    2    0    0  0.00000000000E+00  0.00000000000E+00 -0.48963707974E+03  0.36336405954E+04  0.36004998968E+04 0.  0.
        3    1    3    3  502    0  0.44628977945E+03  0.15893907160E+04 -0.96945437285E+03  0.19144657758E+04  0.10100000352E+00 0. -1.
       -3    1    3    3    0  502 -0.44628977945E+03 -0.15893907160E+04  0.47981729311E+03  0.17191748196E+04  0.10100000352E+00 0.  1.
</event>
<event>
 5   0  0.8024500E-09  0.3597556E+04  0.7818609E-02  0.8091052E-01
        1   -1    0    0  501    0  0.00000000000E+00  0.00000000000E+00  0.25274087184E+04  0.25274087184E+04  0.50400001928E-02 0. -1.
       -1   -1    0    0    0  501  0.00000000000E+00  0.00000000000E+00 -0.12802053912E+04  0.12802053912E+04  0.50400001928E-02 0.  1.
    10030    2    1    2    0    0  0.00000000000E+00  0.00000000000E+00  0.12472033272E+04  0.38076141097E+04  0.35975559855E+04 0.  0.
        1    1    3    3  502    0  0.93579827946E+03  0.14294683291E+04  0.12190376330E+04  0.20988451287E+04  0.50400001928E-02 0. -1.
       -1    1    3    3    0  502 -0.93579827946E+03 -0.14294683291E+04  0.28165694225E+02  0.17087689809E+04  0.50400001928E-02 0.  1.
</event>
<event>
 5   0  0.2476968E-08  0.3598286E+04  0.7818609E-02  0.8090884E-01
        2   -1    0    0  501    0  0.00000000000E+00  0.00000000000E+00  0.28268015517E+04  0.28268015517E+04  0.25500000920E-02 0.  1.
       -2   -1    0    0    0  501  0.00000000000E+00  0.00000000000E+00 -0.11450803948E+04  0.11450803948E+04  0.25500000920E-02 0. -1.
    10030    2    1    2    0    0  0.00000000000E+00  0.00000000000E+00  0.16817211569E+04  0.39718819464E+04  0.35982857233E+04 0.  0.
        2    1    3    3  502    0 -0.32231925912E+03  0.14622593943E+04  0.19418256731E+04  0.24520968957E+04  0.25500000920E-02 0.  1.
       -2    1    3    3    0  502  0.32231925912E+03 -0.14622593943E+04 -0.26010451618E+03  0.15197850508E+04  0.25500000920E-02 0. -1.
</event>
<event>
 5   0  0.8024500E-09  0.3594526E+04  0.7818609E-02  0.8091747E-01
       -1   -1    0    0    0  501  0.00000000000E+00  0.00000000000E+00  0.17169913772E+04  0.17169913772E+04  0.50400001928E-02 0.  1.
        1   -1    0    0  501    0  0.00000000000E+00  0.00000000000E+00 -0.18812872585E+04  0.18812872585E+04  0.50400001928E-02 0. -1.
    10030    2    1    2    0    0  0.00000000000E+00  0.00000000000E+00 -0.16429588132E+03  0.35982786357E+04  0.35945258385E+04 0.  0.
        5    1    3    3  502    0 -0.85193076292E+03 -0.12589822373E+04  0.87765943080E+03  0.17553149191E+04  0.46999998093E+01 0.  1.
       -5    1    3    3    0  502  0.85193076292E+03  0.12589822373E+04 -0.10419553121E+04  0.18429637167E+04  0.46999998093E+01 0. -1.
</event>
<event>
 5   0  0.8247570E-09  0.3600462E+04  0.7818609E-02  0.8090386E-01
       -1   -1    0    0    0  501  0.00000000000E+00  0.00000000000E+00  0.22009307746E+04  0.22009307747E+04  0.50400001928E-02 0.  1.
        1   -1    0    0  501    0  0.00000000000E+00  0.00000000000E+00 -0.14724826642E+04  0.14724826642E+04  0.50400001928E-02 0. -1.
    10030    2    1    2    0    0  0.00000000000E+00  0.00000000000E+00  0.72844811046E+03  0.36734134388E+04  0.36004624207E+04 0.  0.
        3    1    3    3  502    0  0.18106228212E+03 -0.10224178065E+04  0.18646367862E+04  0.21342427406E+04  0.10100000352E+00 0.  1.
       -3    1    3    3    0  502 -0.18106228212E+03  0.10224178065E+04 -0.11361886758E+04  0.15391706982E+04  0.10100000352E+00 0. -1.
</event>
<event>
 5   0  0.8063410E-09  0.3599747E+04  0.7818609E-02  0.8090550E-01
       -1   -1    0    0    0  501  0.00000000000E+00  0.00000000000E+00  0.12655859230E+04  0.12655859231E+04  0.50400001928E-02 0.  1.
        1   -1    0    0  501    0  0.00000000000E+00  0.00000000000E+00 -0.25597188097E+04  0.25597188097E+04  0.50400001928E-02 0. -1.
    10030    2    1    2    0    0  0.00000000000E+00  0.00000000000E+00 -0.12941328867E+04  0.38253047328E+04  0.35997467092E+04 0.  0.
        2    1    3    3  502    0  0.11916246866E+04  0.10058681877E+04 -0.16021625262E+04  0.22357694347E+04  0.25500000920E-02 0. -1.
       -2    1    3    3    0  502 -0.11916246866E+04 -0.10058681877E+04  0.30802963958E+03  0.15895352980E+04  0.25500000920E-02 0.  1.
</event>
<event>
 5   0  0.2476968E-08  0.3599893E+04  0.7818609E-02  0.8090516E-01
        2   -1    0    0  501    0  0.00000000000E+00  0.00000000000E+00  0.17730151675E+04  0.17730151675E+04  0.25500000920E-02 0. -1.
       -2   -1    0    0    0  501  0.00000000000E+00  0.00000000000E+00 -0.18272870832E+04  0.18272870832E+04  0.25500000920E-02 0.  1.
    10030    2    1    2    0    0  0.00000000000E+00  0.00000000000E+00 -0.54271915629E+02  0.36003022507E+04  0.35998931728E+04 0.  0.
        2    1    3    3  502    0  0.95672018998E+03  0.95938543346E+03 -0.12122068026E+04  0.18180151991E+04  0.25500000920E-02 0.  1.
       -2    1    3    3    0  502 -0.95672018998E+03 -0.95938543346E+03  0.11579348870E+04  0.17822870516E+04  0.25500000920E-02 0. -1.
</event>
<event>
 5   0  0.2608070E-08  0.3618146E+04  0.7818609E-02  0.8086348E-01
        2   -1    0    0  501    0  0.00000000000E+00  0.00000000000E+00  0.19332197216E+04  0.19332197216E+04  0.25500000920E-02 0. -1.
       -2   -1    0    0    0  501  0.00000000000E+00  0.00000000000E+00 -0.16928983184E+04  0.16928983184E+04  0.25500000920E-02 0.  1.
    10030    2    1    2    0    0  0.00000000000E+00  0.00000000000E+00  0.24032140326E+03  0.36261180400E+04  0.36181456111E+04 0.  0.
        3    1    3    3  502    0  0.18209547123E+03 -0.12445523006E+04  0.14232854407E+04  0.18994237667E+04  0.10100000352E+00 0. -1.
       -3    1    3    3    0  502 -0.18209547123E+03  0.12445523006E+04 -0.11829640374E+04  0.17266942733E+04  0.10100000352E+00 0.  1.
</event>
<event>
 5   0  0.8024500E-09  0.3598741E+04  0.7818609E-02  0.8090780E-01
        1   -1    0    0  501    0  0.00000000000E+00  0.00000000000E+00  0.23796391620E+04  0.23796391620E+04  0.50400001928E-02 0.  1.
       -1   -1    0    0    0  501  0.00000000000E+00  0.00000000000E+00 -0.13605987633E+04  0.13605987634E+04  0.50400001928E-02 0. -1.
    10030    2    1    2    0    0  0.00000000000E+00  0.00000000000E+00  0.10190403987E+04  0.37402379254E+04  0.35987409471E+04 0.  0.
        5    1    3    3  502    0  0.53785112590E+03 -0.52667302875E+03  0.22081124592E+04  0.23329061351E+04  0.46999998093E+01 0.  1.
       -5    1    3    3    0  502 -0.53785112590E+03  0.52667302875E+03 -0.11890720605E+04  0.14073317903E+04  0.46999998093E+01 0. -1.
</event>
<event>
 5   0  0.8024500E-09  0.3601091E+04  0.7818609E-02  0.8090242E-01
        1   -1    0    0  501    0  0.00000000000E+00  0.00000000000E+00  0.22882218796E+04  0.22882218796E+04  0.50400001928E-02 0. -1.
       -1   -1    0    0    0  501  0.00000000000E+00  0.00000000000E+00 -0.14168052690E+04  0.14168052690E+04  0.50400001928E-02 0.  1.
    10030    2    1    2    0    0  0.00000000000E+00  0.00000000000E+00  0.87141661063E+03  0.37050271486E+04  0.36010913988E+04 0.  0.
        1    1    3    3  502    0 -0.83237097772E+03  0.13747575347E+03 -0.12008697278E+04  0.14675929717E+04  0.50400001928E-02 0.  1.
       -1    1    3    3    0  502  0.83237097772E+03 -0.13747575347E+03  0.20722863384E+04  0.22374341769E+04  0.50400001928E-02 0. -1.
</event>
<event>
 5   0  0.8024500E-09  0.3599460E+04  0.7818609E-02  0.8090615E-01
        1   -1    0    0  501    0  0.00000000000E+00  0.00000000000E+00  0.29821335833E+04  0.29821335833E+04  0.50400001928E-02 0. -1.
       -1   -1    0    0    0  501  0.00000000000E+00  0.00000000000E+00 -0.10861444599E+04  0.10861444599E+04  0.50400001928E-02 0.  1.
    10030    2    1    2    0    0  0.00000000000E+00  0.00000000000E+00  0.18959891234E+04  0.40682780433E+04  0.35994598874E+04 0.  0.
        5    1    3    3  502    0 -0.90788385272E+03 -0.15506058181E+04  0.10631149959E+04  0.20877899985E+04  0.46999998093E+01 0.  1.
       -5    1    3    3    0  502  0.90788385272E+03  0.15506058181E+04  0.83287412745E+03  0.19804880448E+04  0.46999998093E+01 0. -1.
</event>
<event>
 5   0  0.2482243E-08  0.3601188E+04  0.7818609E-02  0.8090220E-01
       -2   -1    0    0    0  501  0.00000000000E+00  0.00000000000E+00  0.12723733812E+04  0.12723733812E+04  0.25500000920E-02 0.  1.
        2   -1    0    0  501    0  0.00000000000E+00  0.00000000000E+00 -0.25481026441E+04  0.25481026441E+04  0.25500000920E-02 0. -1.
    10030    2    1    2    0    0  0.00000000000E+00  0.00000000000E+00 -0.12757292629E+04  0.38204760252E+04  0.36011875690E+04 0.  0.
        5    1    3    3  502    0  0.47020405237E+03  0.16783440464E+04 -0.15848015089E+03  0.17501624603E+04  0.46999998093E+01 0.  1.
       -5    1    3    3    0  502 -0.47020405237E+03 -0.16783440464E+04 -0.11172491120E+04  0.20703135650E+04  0.46999998093E+01 0. -1.
</event>
<event>
 5   0  0.2476968E-08  0.3588918E+04  0.7818609E-02  0.8093035E-01
        2   -1    0    0  501    0  0.00000000000E+00  0.00000000000E+00  0.32101479302E+04  0.32101479302E+04  0.25500000920E-02 0. -1.
       -2   -1    0    0    0  501  0.00000000000E+00  0.00000000000E+00 -0.10030950950E+04  0.10030950950E+04  0.25500000920E-02 0.  1.
    10030    2    1    2    0    0  0.00000000000E+00  0.00000000000E+00  0.22070528352E+04  0.42132430253E+04  0.35889183012E+04 0.  0.
        2    1    3    3  502    0 -0.16732454400E+04  0.65332012700E+02  0.18607664516E+04  0.25032919050E+04  0.25500000920E-02 0.  1.
       -2    1    3    3    0  502  0.16732454400E+04 -0.65332012700E+02  0.34628638353E+03  0.17099511202E+04  0.25500000920E-02 0. -1.
</event>
<event>
 5   0  0.2476968E-08  0.3600164E+04  0.7818609E-02  0.8090454E-01
       -2   -1    0    0    0  501  0.00000000000E+00  0.00000000000E+00  0.15629879026E+04  0.15629879026E+04  0.25500000920E-02 0. -1.
        2   -1    0    0  501    0  0.00000000000E+00  0.00000000000E+00 -0.20731413822E+04  0.20731413822E+04  0.25500000920E-02 0.  1.
    10030    2    1    2    0    0  0.00000000000E+00  0.00000000000E+00 -0.51015347961E+03  0.36361292847E+04  0.36001638299E+04 0.  0.
        2    1    3    3  502    0 -0.85435398796E+03  0.15714467919E+04 -0.45940732715E+03  0.18467324789E+04  0.25500000920E-02 0. -1.
       -2    1    3    3    0  502  0.85435398796E+03 -0.15714467919E+04 -0.50746152467E+02  0.17893968058E+04  0.25500000920E-02 0.  1.
</event>
<event>
 5   0  0.2482243E-08  0.3597844E+04  0.7818609E-02  0.8090986E-01
       -2   -1    0    0    0  501  0.00000000000E+00  0.00000000000E+00  0.14610580120E+04  0.14610580120E+04  0.25500000920E-02 0.  1.
        2   -1    0    0  501    0  0.00000000000E+00  0.00000000000E+00 -0.22149155608E+04  0.22149155608E+04  0.25500000920E-02 0. -1.
    10030    2    1    2    0    0  0.00000000000E+00  0.00000000000E+00 -0.75385754883E+03  0.36759735728E+04  0.35978438688E+04 0.  0.
        5    1    3    3  502    0 -0.82135318904E+02  0.16484967746E+04  0.35401595709E+03  0.16880868503E+04  0.46999998093E+01 0.  1.
       -5    1    3    3    0  502  0.82135318904E+02 -0.16484967746E+04 -0.11078735059E+04  0.19878867225E+04  0.46999998093E+01 0. -1.
</event>
<event>
 5   0  0.2494592E-08  0.3599362E+04  0.7818609E-02  0.8090638E-01
       -2   -1    0    0    0  501  0.00000000000E+00  0.00000000000E+00  0.19915256434E+04  0.19915256435E+04  0.25500000920E-02 0. -1.
        2   -1    0    0  501    0  0.00000000000E+00  0.00000000000E+00 -0.16263171027E+04  0.16263171027E+04  0.25500000920E-02 0.  1.
    10030    2    1    2    0    0  0.00000000000E+00  0.00000000000E+00  0.36520854075E+03  0.36178427462E+04  0.35993622849E+04 0.  0.
        1    1    3    3  502    0  0.32034926070E+03  0.17538777920E+04  0.42910055160E+03  0.18338043084E+04  0.50400001928E-02 0.  1.
       -1    1    3    3    0  502 -0.32034926070E+03 -0.17538777920E+04 -0.63892010852E+02  0.17840384377E+04  0.50400001928E-02 0. -1.
</event>
<event>
 5   0  0.2476968E-08  0.3601019E+04  0.7818609E-02  0.8090258E-01
        2   -1    0    0  501    0  0.00000000000E+00  0.00000000000E+00  0.14590296683E+04  0.14590296683E+04  0.25500000920E-02 0.  1.
       -2   -1    0    0    0  501  0.00000000000E+00  0.00000000000E+00 -0.22219107485E+04  0.22219107485E+04  0.25500000920E-02 0. -1.
    10030    2    1    2    0    0  0.00000000000E+00  0.00000000000E+00 -0.76288108012E+03  0.36809404168E+04  0.36010185794E+04 0.  0.
        2    1    3    3  502    0 -0.77670948431E+03 -0.13306437846E+04  0.57087106648E+03  0.16431020294E+04  0.25500000920E-02 0.  1.
       -2    1    3    3    0  502  0.77670948431E+03  0.13306437846E+04 -0.13337521466E+04  0.20378383874E+04  0.25500000920E-02 0. -1.
</event>
<event>
 5   0  0.2494592E-08  0.3600408E+04  0.7818609E-02  0.8090398E-01
        2   -1    0    0  501    0  0.00000000000E+00  0.00000000000E+00  0.27950120523E+04  0.27950120523E+04  0.25500000920E-02 0.  1.
       -2   -1    0    0    0  501  0.00000000000E+00  0.00000000000E+00 -0.11594706898E+04  0.11594706898E+04  0.25500000920E-02 0. -1.
    10030    2    1    2    0    0  0.00000000000E+00  0.00000000000E+00  0.16355413625E+04  0.39544827421E+04  0.36004080615E+04 0.  0.
        1    1    3    3  502    0  0.93878321253E+03 -0.57493629775E+03 -0.74669107118E+03  0.13301929268E+04  0.50400001928E-02 0. -1.
       -1    1    3    3    0  502 -0.93878321253E+03  0.57493629775E+03  0.23822324337E+04  0.26242898153E+04  0.50400001928E-02 0.  1.
</event>
<event>
 5   0  0.8146881E-09  0.3597852E+04  0.7818609E-02  0.8090984E-01
        1   -1    0    0  501    0  0.00000000000E+00  0.00000000000E+00  0.19356710591E+04  0.19356710591E+04  0.50400001928E-02 0.  1.
       -1   -1    0    0    0  501  0.00000000000E+00  0.00000000000E+00 -0.16718417101E+04  0.16718417101E+04  0.50400001928E-02 0. -1.
    10030    2    1    2    0    0  0.00000000000E+00  0.00000000000E+00  0.26382934897E+03  0.36075127693E+04  0.35978524782E+04 0.  0.
        4    1    3    3  502    0  0.93687843986E+03  0.16187501976E+03 -0.13993364518E+04  0.16917709216E+04  0.12699999809E+01 0. -1.
       -4    1    3    3    0  502 -0.93687843986E+03 -0.16187501976E+03  0.16631658007E+04  0.19157418476E+04  0.12699999809E+01 0.  1.
</event>
<event>
 5   0  0.8024500E-09  0.3603661E+04  0.7818609E-02  0.8089654E-01
        1   -1    0    0  501    0  0.00000000000E+00  0.00000000000E+00  0.16651920948E+04  0.16651920949E+04  0.50400001928E-02 0.  1.
       -1   -1    0    0    0  501  0.00000000000E+00  0.00000000000E+00 -0.19496806100E+04  0.19496806100E+04  0.50400001928E-02 0. -1.
    10030    2    1    2    0    0  0.00000000000E+00  0.00000000000E+00 -0.28448851516E+03  0.36148727049E+04  0.36036607716E+04 0.  0.
        1    1    3    3  502    0  0.29334695656E+03 -0.12066958502E+04  0.11673540605E+04  0.17043716773E+04  0.50400001928E-02 0.  1.
       -1    1    3    3    0  502 -0.29334695656E+03  0.12066958502E+04 -0.14518425756E+04  0.19105010276E+04  0.50400001928E-02 0. -1.
</event>
<event>
 5   0  0.8146881E-09  0.3602113E+04  0.7818609E-02  0.8090008E-01
       -1   -1    0    0    0  501  0.00000000000E+00  0.00000000000E+00  0.23963416295E+04  0.23963416295E+04  0.50400001928E-02 0.  1.
        1   -1    0    0  501    0  0.00000000000E+00  0.00000000000E+00 -0.13536484442E+04  0.13536484442E+04  0.50400001928E-02 0. -1.
    10030    2    1    2    0    0  0.00000000000E+00  0.00000000000E+00  0.10426931853E+04  0.37499900737E+04  0.36021127792E+04 0.  0.
        4    1    3    3  502    0  0.16867650376E+04  0.55654851304E+03  0.83171303129E+03  0.19612931241E+04  0.12699999809E+01 0.  1.
       -4    1    3    3    0  502 -0.16867650376E+04 -0.55654851304E+03  0.21098015405E+03  0.17886969496E+04  0.12699999809E+01 0. -1.
</event>
<event>
 5   0  0.2590795E-08  0.3600379E+04  0.7818609E-02  0.8090405E-01
        2   -1    0    0  501    0  0.00000000000E+00  0.00000000000E+00  0.24999207878E+04  0.24999207878E+04  0.25500000920E-02 0. -1.
       -2   -1    0    0    0  501  0.00000000000E+00  0.00000000000E+00 -0.12963139078E+04  0.12963139078E+04  0.25500000920E-02 0.  1.
    10030    2    1    2    0    0  0.00000000000E+00  0.00000000000E+00  0.12036068800E+04  0.37962346957E+04  0.36003789166E+04 0.  0.
        4    1    3    3  502    0 -0.12116048615E+04  0.10557922765E+03 -0.79762914311E+03  0.14544233141E+04  0.12699999809E+01 0.  1.
       -4    1    3    3    0  502  0.12116048615E+04 -0.10557922765E+03  0.20012360231E+04  0.23418113816E+04  0.12699999809E+01 0. -1.
</event>
<event>
 5   0  0.8024500E-09  0.3597780E+04  0.7818609E-02  0.8091000E-01
       -1   -1    0    0    0  501  0.00000000000E+00  0.00000000000E+00  0.15004519526E+04  0.15004519526E+04  0.50400001928E-02 0. -1.
        1   -1    0    0  501    0  0.00000000000E+00  0.00000000000E+00 -0.21566865447E+04  0.21566865447E+04  0.50400001928E-02 0.  1.
    10030    2    1    2    0    0  0.00000000000E+00  0.00000000000E+00 -0.65623459208E+03  0.36571384973E+04  0.35977796137E+04 0.  0.
        5    1    3    3  502    0 -0.17136457906E+04  0.26706813058E+03  0.15733420695E+03  0.17414601415E+04  0.46999998093E+01 0. -1.
       -5    1    3    3    0  502  0.17136457906E+04 -0.26706813058E+03 -0.81356879903E+03  0.19156783557E+04  0.46999998093E+01 0.  1.
</event>
<event>
 5   0  0.8063410E-09  0.3600837E+04  0.7818609E-02  0.8090300E-01
        1   -1    0    0  501    0  0.00000000000E+00  0.00000000000E+00  0.14192177312E+04  0.14192177312E+04  0.50400001928E-02 0.  1.
       -1   -1    0    0    0  501  0.00000000000E+00  0.00000000000E+00 -0.22840090039E+04  0.22840090039E+04  0.50400001928E-02 0. -1.
    10030    2    1    2    0    0  0.00000000000E+00  0.00000000000E+00 -0.86479127265E+03  0.37032267351E+04  0.36008366120E+04 0.  0.
        2    1    3    3  502    0  0.14240030459E+03  0.41788168079E+02 -0.22777079792E+04  0.22825375652E+04  0.25500000920E-02 0. -1.
       -2    1    3    3    0  502 -0.14240030459E+03 -0.41788168079E+02  0.14129167066E+04  0.14206891699E+04  0.25500000920E-02 0.  1.
</event>
<event>
 5   0  0.8146881E-09  0.3598439E+04  0.7818609E-02  0.8090849E-01
       -1   -1    0    0    0  501  0.00000000000E+00  0.00000000000E+00  0.15190990086E+04  0.15190990086E+04  0.50400001928E-02 0. -1.
        1   -1    0    0  501    0  0.00000000000E+00  0.00000000000E+00 -0.21309938045E+04  0.21309938045E+04  0.50400001928E-02 0.  1.
    10030    2    1    2    0    0  0.00000000000E+00  0.00000000000E+00 -0.61189479585E+03  0.36500928131E+04  0.35984388703E+04 0.  0.
        4    1    3    3  502    0  0.51114686913E+03  0.14253179618E+04  0.67979781042E+03  0.16597979063E+04  0.12699999809E+01 0. -1.
       -4    1    3    3    0  502 -0.51114686913E+03 -0.14253179618E+04 -0.12916926063E+04  0.19902949068E+04  0.12699999809E+01 0.  1.
</event>
<event>
 5   0  0.8146881E-09  0.3594208E+04  0.7818609E-02  0.8091820E-01
        1   -1    0    0  501    0  0.00000000000E+00  0.00000000000E+00  0.24575995708E+04  0.24575995708E+04  0.50400001928E-02 0.  1.
       -1   -1    0    0    0  501  0.00000000000E+00  0.00000000000E+00 -0.13141206821E+04  0.13141206821E+04  0.50400001928E-02 0. -1.
    10030    2    1    2    0    0  0.00000000000E+00  0.00000000000E+00  0.11434788887E+04  0.37717202529E+04  0.35942077983E+04 0.  0.
        4    1    3    3  502    0  0.17533739827E+04  0.14482455396E+03  0.95628890345E+03  0.20024446446E+04  0.12699999809E+01 0.  1.
       -4    1    3    3    0  502 -0.17533739827E+04 -0.14482455396E+03  0.18718998523E+03  0.17692756083E+04  0.12699999809E+01 0. -1.
</event>
<event>
 5   0  0.2608070E-08  0.3600570E+04  0.7818609E-02  0.8090361E-01
       -2   -1    0    0    0  501  0.00000000000E+00  0.00000000000E+00  0.16297315944E+04  0.16297315944E+04  0.25500000920E-02 0. -1.
        2   -1    0    0  501    0  0.00000000000E+00  0.00000000000E+00 -0.19886872543E+04  0.19886872543E+04  0.25500000920E-02 0.  1.
    10030    2    1    2    0    0  0.00000000000E+00  0.00000000000E+00 -0.35895565987E+03  0.36184188487E+04  0.36005702047E+04 0.  0.
        3    1    3    3  502    0 -0.16743213235E+04 -0.64754751882E+03 -0.31563656918E+03  0.18227166915E+04  0.10100000352E+00 0. -1.
       -3    1    3    3    0  502  0.16743213235E+04  0.64754751882E+03 -0.43319090693E+02  0.17957021572E+04  0.10100000352E+00 0.  1.
</event>
<event>
 5   0  0.8063410E-09  0.3592145E+04  0.7818609E-02  0.8092293E-01
       -1   -1    0    0    0  501  0.00000000000E+00  0.00000000000E+00  0.14875960516E+04  0.14875960516E+04  0.50400001928E-02 0. -1.
        1   -1    0    0  501    0  0.00000000000E+00  0.00000000000E+00 -0.21685158795E+04  0.21685158795E+04  0.50400001928E-02 0.  1.
    10030    2    1    2    0    0  0.00000000000E+00  0.00000000000E+00 -0.68091982793E+03  0.36561119311E+04  0.35921445740E+04 0.  0.
        2    1    3    3  502    0 -0.15613274462E+04 -0.79412451007E+03 -0.74438788265E+03  0.19032841227E+04  0.25500000920E-02 0.  1.
       -2    1    3    3    0  502  0.15613274462E+04  0.79412451007E+03  0.63468054721E+02  0.17528278084E+04  0.25500000920E-02 0. -1.
</event>
<event>
 5   0  0.2608070E-08  0.3603521E+04  0.7818609E-02  0.8089686E-01
       -2   -1    0    0    0  501  0.00000000000E+00  0.00000000000E+00  0.26142649423E+04  0.26142649423E+04  0.25500000920E-02 0. -1.
        2   -1    0    0  501    0  0.00000000000E+00  0.00000000000E+00 -0.12417795200E+04  0.12417795200E+04  0.25500000920E-02 0.  1.
    10030    2    1    2    0    0  0.00000000000E+00  0.00000000000E+00  0.13724854223E+04  0.38560444622E+04  0.36035208699E+04 0.  0.
        3    1    3    3  502    0  0.16200767336E+04 -0.78455129079E+03  0.60217998454E+03  0.18981017082E+04  0.10100000352E+00 0.  1.
       -3    1    3    3    0  502 -0.16200767336E+04  0.78455129079E+03  0.77030543775E+03  0.19579427541E+04  0.10100000352E+00 0. -1.
</event>
<event>
 5   0  0.8024500E-09  0.3599411E+04  0.7818609E-02  0.8090627E-01
       -1   -1    0    0    0  501  0.00000000000E+00  0.00000000000E+00  0.14334240925E+04  0.14334240925E+04  0.50400001928E-02 0.  1.
        1   -1    0    0  501    0  0.00000000000E+00  0.00000000000E+00 -0.22595827964E+04  0.22595827964E+04  0.50400001928E-02 0. -1.
    10030    2    1    2    0    0  0.00000000000E+00  0.00000000000E+00 -0.82615870396E+03  0.36930068889E+04  0.35994112959E+04 0.  0.
        5    1    3    3  502    0  0.78878637141E+03  0.55235903277E+03  0.11468616337E+04  0.14975306800E+04  0.46999998093E+01 0.  1.
       -5    1    3    3    0  502 -0.78878637141E+03 -0.55235903277E+03 -0.19730203377E+04  0.21954762089E+04  0.46999998093E+01 0. -1.
</event>
<event>
 5   0  0.2608070E-08  0.3604154E+04  0.7818609E-02  0.8089541E-01
       -2   -1    0    0    0  501  0.00000000000E+00  0.00000000000E+00  0.18783145690E+04  0.18783145690E+04  0.25500000920E-02 0. -1.
        2   -1    0    0  501    0  0.00000000000E+00  0.00000000000E+00 -0.17289340018E+04  0.17289340018E+04  0.25500000920E-02 0.  1.
    10030    2    1    2    0    0  0.00000000000E+00  0.00000000000E+00  0.14938056717E+03  0.36072485708E+04  0.36041542278E+04 0.  0.
        3    1    3    3  502    0  0.61183342061E+03 -0.96182926295E+03 -0.13222251170E+04  0.17457763132E+04  0.10100000352E+00 0. -1.
       -3    1    3    3    0  502 -0.61183342061E+03  0.96182926295E+03  0.14716056842E+04  0.18614722575E+04  0.10100000352E+00 0.  1.
</event>
<event>
 5   0  0.8247570E-09  0.3600021E+04  0.7818609E-02  0.8090487E-01
        1   -1    0    0  501    0  0.00000000000E+00  0.00000000000E+00  0.16933652859E+04  0.16933652859E+04  0.50400001928E-02 0.  1.
       -1   -1    0    0    0  501  0.00000000000E+00  0.00000000000E+00 -0.19133717914E+04  0.19133717914E+04  0.50400001928E-02 0. -1.
    10030    2    1    2    0    0  0.00000000000E+00  0.00000000000E+00 -0.22000650552E+03  0.36067370773E+04  0.36000207614E+04 0.  0.
        3    1    3    3  502    0 -0.11879038736E+04  0.10813369795E+04 -0.92369584971E+03  0.18530027817E+04  0.10100000352E+00 0.  1.
       -3    1    3    3    0  502  0.11879038736E+04 -0.10813369795E+04  0.70368934419E+03  0.17537342956E+04  0.10100000352E+00 0. -1.
</event>
<event>
 5   0  0.8024500E-09  0.3599648E+04  0.7818609E-02  0.8090572E-01
       -1   -1    0    0    0  501  0.00000000000E+00  0.00000000000E+00  0.13800241496E+04  0.13800241496E+04  0.50400001928E-02 0. -1.
        1   -1    0    0  501    0  0.00000000000E+00  0.00000000000E+00 -0.23473258950E+04  0.23473258950E+04  0.50400001928E-02 0.  1.
    10030    2    1    2    0    0  0.00000000000E+00  0.00000000000E+00 -0.96730174547E+03  0.37273500446E+04  0.35996479951E+04 0.  0.
        5    1    3    3  502    0 -0.41099312346E+03  0.11438915785E+04  0.89082092288E+03  0.15069795279E+04  0.46999998093E+01 0. -1.
       -5    1    3    3    0  502  0.41099312346E+03 -0.11438915785E+04 -0.18581226684E+04  0.22203705167E+04  0.46999998093E+01 0.  1.
</event>
<event>
 5   0  0.2482243E-08  0.3603391E+04  0.7818609E-02  0.8089715E-01
       -2   -1    0    0    0  501  0.00000000000E+00  0.00000000000E+00  0.15387624400E+04  0.15387624400E+04  0.25500000920E-02 0.  1.
        2   -1    0    0  501    0  0.00000000000E+00  0.00000000000E+00 -0.21095567476E+04  0.21095567476E+04  0.25500000920E-02 0. -1.
    10030    2    1    2    0    0  0.00000000000E+00  0.00000000000E+00 -0.57079430762E+03  0.36483191877E+04  0.36033910076E+04 0.  0.
        5    1    3    3  502    0 -0.15407016956E+04 -0.92371497353E+03 -0.42522606876E+03  0.18460363937E+04  0.46999998093E+01 0. -1.
       -5    1    3    3    0  502  0.15407016956E+04  0.92371497353E+03 -0.14556823886E+03  0.18022827940E+04  0.46999998093E+01 0.  1.
</event>
<event>
 5   0  0.8247570E-09  0.3601569E+04  0.7818609E-02  0.8090132E-01
       -1   -1    0    0    0  501  0.00000000000E+00  0.00000000000E+00  0.32415460767E+04  0.32415460767E+04  0.50400001928E-02 0. -1.
        1   -1    0    0  501    0  0.00000000000E+00  0.00000000000E+00 -0.10003946959E+04  0.10003946960E+04  0.50400001928E-02 0.  1.
    10030    2    1    2    0    0  0.00000000000E+00  0.00000000000E+00  0.22411513808E+04  0.42419407727E+04  0.36015693812E+04 0.  0.
        3    1    3    3  502    0 -0.23925238310E+03 -0.70720775974E+02 -0.97994100607E+03  0.10112010268E+04  0.10100000352E+00 0.  1.
       -3    1    3    3    0  502  0.23925238310E+03  0.70720775974E+02  0.32210923869E+04  0.32307397459E+04  0.10100000352E+00 0. -1.
</event>
<event>
 5   0  0.8063410E-09  0.3596763E+04  0.7818609E-02  0.8091234E-01
       -1   -1    0    0    0  501  0.00000000000E+00  0.00000000000E+00  0.12630806908E+04  0.12630806908E+04  0.50400001928E-02 0.  1.
        1   -1    0    0  501    0  0.00000000000E+00  0.00000000000E+00 -0.25605453658E+04  0.25605453658E+04  0.50400001928E-02 0. -1.
    10030    2    1    2    0    0  0.00000000000E+00  0.00000000000E+00 -0.12974646750E+04  0.38236260566E+04  0.35967626607E+04 0.  0.
        2    1    3    3  502    0 -0.17480517912E+04  0.36536656098E+03 -0.42322617897E+03  0.18352923983E+04  0.25500000920E-02 0. -1.
       -2    1    3    3    0  502  0.17480517912E+04 -0.36536656098E+03 -0.87423849605E+03  0.19883336583E+04  0.25500000920E-02 0.  1.
</event>
<event>
 5   0  0.2476968E-08  0.3595054E+04  0.7818609E-02  0.8091626E-01
        2   -1    0    0  501    0  0.00000000000E+00  0.00000000000E+00  0.23371250246E+04  0.23371250246E+04  0.25500000920E-02 0.  1.
       -2   -1    0    0    0  501  0.00000000000E+00  0.00000000000E+00 -0.13825117908E+04  0.13825117908E+04  0.25500000920E-02 0. -1.
    10030    2    1    2    0    0  0.00000000000E+00  0.00000000000E+00  0.95461323380E+03  0.37196368155E+04  0.35950537705E+04 0.  0.
        2    1    3    3  502    0  0.24611710160E+03 -0.62359201240E+02 -0.13638661193E+04  0.13872970443E+04  0.25500000920E-02 0. -1.
       -2    1    3    3    0  502 -0.24611710160E+03  0.62359201240E+02  0.23184793531E+04  0.23323397712E+04  0.25500000920E-02 0.  1.
</event>
<event>
 5   0  0.2476968E-08  0.3599032E+04  0.7818609E-02  0.8090713E-01
       -2   -1    0    0    0  501  0.00000000000E+00  0.00000000000E+00  0.17819391201E+04  0.17819391201E+04  0.25500000920E-02 0. -1.
        2   -1    0    0  501    0  0.00000000000E+00  0.00000000000E+00 -0.18172661713E+04  0.18172661713E+04  0.25500000920E-02 0.  1.
    10030    2    1    2    0    0  0.00000000000E+00  0.00000000000E+00 -0.35327051160E+02  0.35992052914E+04  0.35990319156E+04 0.  0.
        2    1    3    3  502    0  0.15591675366E+04  0.18491887360E+03 -0.89694378131E+03  0.18082329894E+04  0.25500000920E-02 0.  1.
       -2    1    3    3    0  502 -0.15591675366E+04 -0.18491887360E+03  0.86161673015E+03  0.17909723020E+04  0.25500000920E-02 0. -1.
</event>
<event>
 5   0  0.2590795E-08  0.3601717E+04  0.7818609E-02  0.8090099E-01
        2   -1    0    0  501    0  0.00000000000E+00  0.00000000000E+00  0.19681931072E+04  0.19681931072E+04  0.25500000920E-02 0.  1.
       -2   -1    0    0    0  501  0.00000000000E+00  0.00000000000E+00 -0.16477505270E+04  0.16477505270E+04  0.25500000920E-02 0. -1.
    10030    2    1    2    0    0  0.00000000000E+00  0.00000000000E+00  0.32044258020E+03  0.36159436342E+04  0.36017169404E+04 0.  0.
        4    1    3    3  502    0  0.33420932080E+03  0.17695710840E+04  0.15675434631E+03  0.18076645788E+04  0.12699999809E+01 0. -1.
       -4    1    3    3    0  502 -0.33420932080E+03 -0.17695710840E+04  0.16368823389E+03  0.18082790554E+04  0.12699999809E+01 0.  1.
</event>
<event>
 5   0  0.2494592E-08  0.3613183E+04  0.7818609E-02  0.8087479E-01
        2   -1    0    0  501    0  0.00000000000E+00  0.00000000000E+00  0.15557604123E+04  0.15557604123E+04  0.25500000920E-02 0.  1.
       -2   -1    0    0    0  501  0.00000000000E+00  0.00000000000E+00 -0.20978628841E+04  0.20978628841E+04  0.25500000920E-02 0. -1.
    10030    2    1    2    0    0  0.00000000000E+00  0.00000000000E+00 -0.54210247180E+03  0.36536232964E+04  0.36131825448E+04 0.  0.
        1    1    3    3  502    0  0.10937070208E+03 -0.33704931559E+03  0.15202751184E+04  0.15610255050E+04  0.50400001928E-02 0.  1.
       -1    1    3    3    0  502 -0.10937070208E+03  0.33704931559E+03 -0.20623775902E+04  0.20925977913E+04  0.50400001928E-02 0. -1.
</event>
<event>
 5   0  0.8063410E-09  0.3599476E+04  0.7818609E-02  0.8090612E-01
        1   -1    0    0  501    0  0.00000000000E+00  0.00000000000E+00  0.20391782854E+04  0.20391782855E+04  0.50400001928E-02 0.  1.
       -1   -1    0    0    0  501  0.00000000000E+00  0.00000000000E+00 -0.15884128526E+04  0.15884128526E+04  0.50400001928E-02 0. -1.
    10030    2    1    2    0    0  0.00000000000E+00  0.00000000000E+00  0.45076543288E+03  0.36275911380E+04  0.35994760715E+04 0.  0.
        2    1    3    3  502    0 -0.26174494517E+03 -0.15992660782E+04 -0.56360807800E+03  0.17157553645E+04  0.25500000920E-02 0.  1.
       -2    1    3    3    0  502  0.26174494517E+03  0.15992660782E+04  0.10143735109E+04  0.19118357735E+04  0.25500000920E-02 0. -1.
</event>
<event>
 5   0  0.2476968E-08  0.3595654E+04  0.7818609E-02  0.8091488E-01
        2   -1    0    0  501    0  0.00000000000E+00  0.00000000000E+00  0.22261525837E+04  0.22261525837E+04  0.25500000920E-02 0.  1.
       -2   -1    0    0    0  501  0.00000000000E+00  0.00000000000E+00 -0.14519138974E+04  0.14519138974E+04  0.25500000920E-02 0. -1.
    10030    2    1    2    0    0  0.00000000000E+00  0.00000000000E+00  0.77423868631E+03  0.36780664811E+04  0.35956539733E+04 0.  0.
        2    1    3    3  502    0  0.17645832021E+04 -0.22269555949E+03  0.65549637647E+03  0.18955270214E+04  0.25500000920E-02 0. -1.
       -2    1    3    3    0  502 -0.17645832021E+04  0.22269555949E+03  0.11874230984E+03  0.17825394597E+04  0.25500000920E-02 0.  1.
</event>
<event>
 5   0  0.2608070E-08  0.3602348E+04  0.7818609E-02  0.8089954E-01
        2   -1    0    0  501    0  0.00000000000E+00  0.00000000000E+00  0.26352002414E+04  0.26352002414E+04  0.25500000920E-02 0. -1.
       -2   -1    0    0    0  501  0.00000000000E+00  0.00000000000E+00 -0.12311124325E+04  0.12311124325E+04  0.25500000920E-02 0.  1.
    10030    2    1    2    0    0  0.00000000000E+00  0.00000000000E+00  0.14040878089E+04  0.38663126739E+04  0.36023480006E+04 0.  0.
        3    1    3    3  502    0  0.34840377359E+03  0.10599358716E+04  0.22196491532E+04  0.24842889556E+04  0.10100000352E+00 0. -1.
       -3    1    3    3    0  502 -0.34840377359E+03 -0.10599358716E+04 -0.81556134434E+03  0.13820237183E+04  0.10100000352E+00 0.  1.
</event>
<event>
 5   0  0.8247570E-09  0.3599297E+04  0.7818609E-02  0.8090653E-01
        1   -1    0    0  501    0  0.00000000000E+00  0.00000000000E+00  0.20279095825E+04  0.20279095825E+04  0.50400001928E-02 0.  1.
       -1   -1    0    0    0  501  0.00000000000E+00  0.00000000000E+00 -0.15970806665E+04  0.15970806665E+04  0.50400001928E-02 0. -1.
    10030    2    1    2    0    0  0.00000000000E+00  0.00000000000E+00  0.43082891601E+03  0.36249902490E+04  0.35992972579E+04 0.  0.
        3    1    3    3  502    0  0.38293710665E+03  0.41494381763E+03 -0.15055595232E+04  0.16079579247E+04  0.10100000352E+00 0. -1.
       -3    1    3    3    0  502 -0.38293710665E+03 -0.41494381763E+03  0.19363884393E+04  0.20170323243E+04  0.10100000352E+00 0.  1.
</event>
<event>
 5   0  0.2482243E-08  0.3601125E+04  0.7818609E-02  0.8090234E-01
        2   -1    0    0  501    0  0.00000000000E+00  0.00000000000E+00  0.18434530427E+04  0.18434530427E+04  0.25500000920E-02 0.  1.
       -2   -1    0    0    0  501  0.00000000000E+00  0.00000000000E+00 -0.17586702652E+04  0.17586702652E+04  0.25500000920E-02 0. -1.
    10030    2    1    2    0    0  0.00000000000E+00  0.00000000000E+00  0.84782777539E+02  0.36021233080E+04  0.36011254083E+04 0.  0.
        5    1    3    3  502    0  0.23142026608E+03 -0.17116553784E+03  0.18202839821E+04  0.18429077151E+04  0.46999998093E+01 0.  1.
       -5    1    3    3    0  502 -0.23142026608E+03  0.17116553784E+03 -0.17355012046E+04  0.17592155928E+04  0.46999998093E+01 0. -1.
</event>
<event>
 5   0  0.8146881E-09  0.3603143E+04  0.7818609E-02  0.8089772E-01
        1   -1    0    0  501    0  0.00000000000E+00  0.00000000000E+00  0.26043731910E+04  0.26043731910E+04  0.50400001928E-02 0. -1.
       -1   -1    0    0    0  501  0.00000000000E+00  0.00000000000E+00 -0.12462344981E+04  0.12462344981E+04  0.50400001928E-02 0.  1.
    10030    2    1    2    0    0  0.00000000000E+00  0.00000000000E+00  0.13581386929E+04  0.38506076891E+04  0.36031429150E+04 0.  0.
        4    1    3    3  502    0 -0.17979829779E+04  0.10578264447E+03  0.63467925718E+03  0.19096471216E+04  0.12699999809E+01 0. -1.
       -4    1    3    3    0  502  0.17979829779E+04 -0.10578264447E+03  0.72345943575E+03  0.19409605675E+04  0.12699999809E+01 0.  1.
</event>
<event>
 5   0  0.2494592E-08  0.3600672E+04  0.7818609E-02  0.8090338E-01
        2   -1    0    0  501    0  0.00000000000E+00  0.00000000000E+00  0.28561125936E+04  0.28561125936E+04  0.25500000920E-02 0.  1.
       -2   -1    0    0    0  501  0.00000000000E+00  0.00000000000E+00 -0.11348324028E+04  0.11348324028E+04  0.25500000920E-02 0. -1.
    10030    2    1    2    0    0  0.00000000000E+00  0.00000000000E+00  0.17212801908E+04  0.39909449965E+04  0.36006716692E+04 0.  0.
        1    1    3    3  502    0  0.29791353254E+02 -0.15323274162E+04 -0.18635892596E+03  0.15439055945E+04  0.50400001928E-02 0.  1.
       -1    1    3    3    0  502 -0.29791353254E+02  0.15323274162E+04  0.19076391168E+04  0.24470394020E+04  0.50400001928E-02 0. -1.
</event>
<event>
 5   0  0.2476968E-08  0.3605243E+04  0.7818609E-02  0.8089292E-01
       -2   -1    0    0    0  501  0.00000000000E+00  0.00000000000E+00  0.15176601775E+04  0.15176601775E+04  0.25500000920E-02 0.  1.
        2   -1    0    0  501    0  0.00000000000E+00  0.00000000000E+00 -0.21410879511E+04  0.21410879511E+04  0.25500000920E-02 0. -1.
    10030    2    1    2    0    0  0.00000000000E+00  0.00000000000E+00 -0.62342777358E+03  0.36587481286E+04  0.36052428045E+04 0.  0.
        2    1    3    3  502    0 -0.17848639618E+04  0.21418290714E+03 -0.44722552364E+03  0.18524643988E+04  0.25500000920E-02 0.  1.
       -2    1    3    3    0  502  0.17848639618E+04 -0.21418290714E+03 -0.17620224994E+03  0.18062837298E+04  0.25500000920E-02 0. -1.
</event>
<event>
 5   0  0.8024500E-09  0.3600864E+04  0.7818609E-02  0.8090294E-01
        1   -1    0    0  501    0  0.00000000000E+00  0.00000000000E+00  0.16499056895E+04  0.16499056895E+04  0.50400001928E-02 0.  1.
       -1   -1    0    0    0  501  0.00000000000E+00  0.00000000000E+00 -0.19646916802E+04  0.19646916803E+04  0.50400001928E-02 0. -1.
    10030    2    1    2    0    0  0.00000000000E+00  0.00000000000E+00 -0.31478599076E+03  0.36145973698E+04  0.36008643303E+04 0.  0.
        5    1    3    3  502    0 -0.17003288644E+04 -0.22337894054E+03  0.39289247770E+03  0.17593757380E+04  0.46999998093E+01 0.  1.
       -5    1    3    3    0  502  0.17003288644E+04  0.22337894054E+03 -0.70767846846E+03  0.18552216318E+04  0.46999998093E+01 0. -1.
</event>
<event>
 5   0  0.2590795E-08  0.3599922E+04  0.7818609E-02  0.8090509E-01
        2   -1    0    0  501    0  0.00000000000E+00  0.00000000000E+00  0.20552808087E+04  0.20552808087E+04  0.25500000920E-02 0. -1.
       -2   -1    0    0    0  501  0.00000000000E+00  0.00000000000E+00 -0.15763589294E+04  0.15763589294E+04  0.25500000920E-02 0.  1.
    10030    2    1    2    0    0  0.00000000000E+00  0.00000000000E+00  0.47892187931E+03  0.36316397380E+04  0.35999223631E+04 0.  0.
        4    1    3    3  502    0 -0.12180894935E+04  0.64466313597E+03  0.14074728111E+04  0.19698512380E+04  0.12699999809E+01 0. -1.
       -4    1    3    3    0  502  0.12180894935E+04 -0.64466313597E+03 -0.92855093180E+03  0.16617885000E+04  0.12699999809E+01 0.  1.
</event>
<event>
 5   0  0.2482243E-08  0.3600086E+04  0.7818609E-02  0.8090472E-01
        2   -1    0    0  501    0  0.00000000000E+00  0.00000000000E+00  0.12410786895E+04  0.12410786895E+04  0.25500000920E-02 0. -1.
       -2   -1    0    0    0  501  0.00000000000E+00  0.00000000000E+00 -0.26107574041E+04  0.26107574041E+04  0.25500000920E-02 0.  1.
    10030    2    1    2    0    0  0.00000000000E+00  0.00000000000E+00 -0.13696787146E+04  0.38518360936E+04  0.36000863199E+04 0.  0.
        5    1    3    3  502    0  0.14716944960E+04 -0.13401121853E+03  0.41479014853E+03  0.15348995581E+04  0.46999998093E+01 0. -1.
       -5    1    3    3    0  502 -0.14716944960E+04  0.13401121853E+03 -0.17844688631E+04  0.23169365355E+04  0.46999998093E+01 0.  1.
</event>
<event>
 5   0  0.8146881E-09  0.3607594E+04  0.7818609E-02  0.8088754E-01
       -1   -1    0    0    0  501  0.00000000000E+00  0.00000000000E+00  0.16050947127E+04  0.16050947127E+04  0.50400001928E-02 0. -1.
        1   -1    0    0  501    0  0.00000000000E+00  0.00000000000E+00 -0.20270974723E+04  0.20270974723E+04  0.50400001928E-02 0.  1.
    10030    2    1    2    0    0  0.00000000000E+00  0.00000000000E+00 -0.42200275957E+03  0.36321921850E+04  0.36075938990E+04 0.  0.
        4    1    3    3  502    0  0.24919796938E+03  0.46024845131E+03 -0.19489676730E+04  0.20180200366E+04  0.12699999809E+01 0.  1.
       -4    1    3    3    0  502 -0.24919796938E+03 -0.46024845131E+03  0.15269649134E+04  0.16141721484E+04  0.12699999809E+01 0. -1.
</event>
<event>
 5   0  0.2608070E-08  0.3598612E+04  0.7818609E-02  0.8090810E-01
       -2   -1    0    0    0  501  0.00000000000E+00  0.00000000000E+00  0.15130613566E+04  0.15130613566E+04  0.25500000920E-02 0. -1.
        2   -1    0    0  501    0  0.00000000000E+00  0.00000000000E+00 -0.21397032862E+04  0.21397032862E+04  0.25500000920E-02 0.  1.
    10030    2    1    2    0    0  0.00000000000E+00  0.00000000000E+00 -0.62664192959E+03  0.36527646427E+04  0.35986121529E+04 0.  0.
        3    1    3    3  502    0 -0.62383115618E+03  0.11469096919E+04 -0.15700699569E+04  0.20419811049E+04  0.10100000352E+00 0.  1.
       -3    1    3    3    0  502  0.62383115618E+03 -0.11469096919E+04  0.94342802736E+03  0.16107835378E+04  0.10100000352E+00 0. -1.
</event>
<event>
 5   0  0.8024500E-09  0.3601265E+04  0.7818609E-02  0.8090202E-01
       -3   -1    0    0    0  501  0.00000000000E+00  0.00000000000E+00  0.18367624096E+04  0.18367624124E+04  0.10100000352E+00 0.  1.
        3   -1    0    0  501    0  0.00000000000E+00  0.00000000000E+00 -0.17652133720E+04  0.17652133749E+04  0.10100000352E+00 0. -1.
    10030    2    1    2    0    0  0.00000000000E+00  0.00000000000E+00  0.71549037615E+02  0.36019757873E+04  0.36012650982E+04 0.  0.
        1    1    3    3  502    0 -0.76601154840E+01 -0.22836348066E+03 -0.17506543850E+04  0.17655025722E+04  0.50400001928E-02 0. -1.
       -1    1    3    3    0  502  0.76601154840E+01  0.22836348066E+03  0.18222034226E+04  0.18364732152E+04  0.50400001928E-02 0.  1.
</event>
<event>
 5   0  0.8247570E-09  0.3599663E+04  0.7818609E-02  0.8090569E-01
        1   -1    0    0  501    0  0.00000000000E+00  0.00000000000E+00  0.18270751004E+04  0.18270751004E+04  0.50400001928E-02 0. -1.
       -1   -1    0    0    0  501  0.00000000000E+00  0.00000000000E+00 -0.17729945091E+04  0.17729945091E+04  0.50400001928E-02 0.  1.
    10030    2    1    2    0    0  0.00000000000E+00  0.00000000000E+00  0.54080591319E+02  0.36000696095E+04  0.35996633847E+04 0.  0.
        3    1    3    3  502    0 -0.64099763454E+03 -0.17589321330E+03  0.16998251515E+04  0.18251635395E+04  0.10100000352E+00 0. -1.
       -3    1    3    3    0  502  0.64099763454E+03  0.17589321330E+03 -0.16457445602E+04  0.17749060701E+04  0.10100000352E+00 0.  1.
</event>
<event>
 5   0  0.8247570E-09  0.3601326E+04  0.7818609E-02  0.8090188E-01
        1   -1    0    0  501    0  0.00000000000E+00  0.00000000000E+00  0.13260971546E+04  0.13260971546E+04  0.50400001928E-02 0.  1.
       -1   -1    0    0    0  501  0.00000000000E+00  0.00000000000E+00 -0.24450607115E+04  0.24450607115E+04  0.50400001928E-02 0. -1.
    10030    2    1    2    0    0  0.00000000000E+00  0.00000000000E+00 -0.11189635569E+04  0.37711578661E+04  0.36013264514E+04 0.  0.
        3    1    3    3  502    0  0.13619022952E+04  0.11686706643E+04 -0.40480317955E+03  0.18396832901E+04  0.10100000352E+00 0. -1.
       -3    1    3    3    0  502 -0.13619022952E+04 -0.11686706643E+04 -0.71416037730E+03  0.19314745761E+04  0.10100000352E+00 0.  1.
</event>
<event>
 5   0  0.8024500E-09  0.3599892E+04  0.7818609E-02  0.8090516E-01
       -1   -1    0    0    0  501  0.00000000000E+00  0.00000000000E+00  0.16945703454E+04  0.16945703454E+04  0.50400001928E-02 0.  1.
        1   -1    0    0  501    0  0.00000000000E+00  0.00000000000E+00 -0.19118743596E+04  0.19118743596E+04  0.50400001928E-02 0. -1.
    10030    2    1    2    0    0  0.00000000000E+00  0.00000000000E+00 -0.21730401416E+03  0.36064447050E+04  0.35998919950E+04 0.  0.
        1    1    3    3  502    0  0.10080391704E+03  0.14221080259E+03  0.16860944351E+04  0.16950810560E+04  0.50400001928E-02 0.  1.
       -1    1    3    3    0  502 -0.10080391704E+03 -0.14221080259E+03 -0.19033984493E+04  0.19113636490E+04  0.50400001928E-02 0. -1.
</event>
<event>
 5   0  0.2608070E-08  0.3600436E+04  0.7818609E-02  0.8090392E-01
        2   -1    0    0  501    0  0.00000000000E+00  0.00000000000E+00  0.10434423998E+04  0.10434423998E+04  0.25500000920E-02 0.  1.
       -2   -1    0    0    0  501  0.00000000000E+00  0.00000000000E+00 -0.31058595573E+04  0.31058595573E+04  0.25500000920E-02 0. -1.
    10030    2    1    2    0    0  0.00000000000E+00  0.00000000000E+00 -0.20624171575E+04  0.41493019571E+04  0.36004363902E+04 0.  0.
        3    1    3    3  502    0 -0.36255124016E+03  0.14968828929E+03 -0.30560157942E+04  0.30810846353E+04  0.10100000352E+00 0. -1.
       -3    1    3    3    0  502  0.36255124016E+03 -0.14968828929E+03  0.99359863662E+03  0.10682173218E+04  0.10100000352E+00 0.  1.
</event>
<event>
 5   0  0.2608070E-08  0.3597754E+04  0.7818609E-02  0.8091006E-01
        2   -1    0    0  501    0  0.00000000000E+00  0.00000000000E+00  0.19424037038E+04  0.19424037038E+04  0.25500000920E-02 0. -1.
       -2   -1    0    0    0  501  0.00000000000E+00  0.00000000000E+00 -0.16659559093E+04  0.16659559093E+04  0.25500000920E-02 0.  1.
    10030    2    1    2    0    0  0.00000000000E+00  0.00000000000E+00  0.27644779443E+03  0.36083596131E+04  0.35977542599E+04 0.  0.
        3    1    3    3  502    0  0.82563491719E+03  0.84227639880E+03  0.15004826194E+04  0.19085467377E+04  0.10100000352E+00 0. -1.
       -3    1    3    3    0  502 -0.82563491719E+03 -0.84227639880E+03 -0.12240348250E+04  0.16998128754E+04  0.10100000352E+00 0.  1.
</event>
<event>
 5   0  0.2482243E-08  0.3592191E+04  0.7818609E-02  0.8092283E-01
        2   -1    0    0  501    0  0.00000000000E+00  0.00000000000E+00  0.25179775604E+04  0.25179775604E+04  0.25500000920E-02 0.  1.
       -2   -1    0    0    0  501  0.00000000000E+00  0.00000000000E+00 -0.12811709314E+04  0.12811709314E+04  0.25500000920E-02 0. -1.
    10030    2    1    2    0    0  0.00000000000E+00  0.00000000000E+00  0.12368066290E+04  0.37991484917E+04  0.35921913402E+04 0.  0.
        5    1    3    3  502    0  0.31526581339E+03  0.11654914870E+04  0.20247402532E+04  0.23574049551E+04  0.46999998093E+01 0.  1.
       -5    1    3    3    0  502 -0.31526581339E+03 -0.11654914870E+04 -0.78793362419E+03  0.14417435367E+04  0.46999998093E+01 0. -1.
</event>
<event>
 5   0  0.8063410E-09  0.3598741E+04  0.7818609E-02  0.8090780E-01
        1   -1    0    0  501    0  0.00000000000E+00  0.00000000000E+00  0.24674889449E+04  0.24674889449E+04  0.50400001928E-02 0.  1.
       -1   -1    0    0    0  501  0.00000000000E+00  0.00000000000E+00 -0.13121575978E+04  0.13121575978E+04  0.50400001928E-02 0. -1.
    10030    2    1    2    0    0  0.00000000000E+00  0.00000000000E+00  0.11553313471E+04  0.37796465427E+04  0.35987410946E+04 0.  0.
        2    1    3    3  502    0 -0.43366464950E+02  0.28076124926E+03  0.24437863375E+04  0.24602437263E+04  0.25500000920E-02 0.  1.
       -2    1    3    3    0  502  0.43366464950E+02 -0.28076124926E+03 -0.12884549904E+04  0.13194028163E+04  0.25500000920E-02 0. -1.
</event>
<event>
 5   0  0.8146881E-09  0.3600193E+04  0.7818609E-02  0.8090447E-01
       -1   -1    0    0    0  501  0.00000000000E+00  0.00000000000E+00  0.13623708302E+04  0.13623708302E+04  0.50400001928E-02 0. -1.
        1   -1    0    0  501    0  0.00000000000E+00  0.00000000000E+00 -0.23784627235E+04  0.23784627235E+04  0.50400001928E-02 0.  1.
    10030    2    1    2    0    0  0.00000000000E+00  0.00000000000E+00 -0.10160918933E+04  0.37408335537E+04  0.36001934588E+04 0.  0.
        4    1    3    3  502    0 -0.48279067800E+03  0.10280689382E+04  0.94305306737E+03  0.14762666701E+04  0.12699999809E+01 0. -1.
       -4    1    3    3    0  502  0.48279067800E+03 -0.10280689382E+04 -0.19591449607E+04  0.22645668836E+04  0.12699999809E+01 0.  1.
</event>
<event>
 5   0  0.2476968E-08  0.3602925E+04  0.7818609E-02  0.8089822E-01
       -2   -1    0    0    0  501  0.00000000000E+00  0.00000000000E+00  0.14506393307E+04  0.14506393307E+04  0.25500000920E-02 0.  1.
        2   -1    0    0  501    0  0.00000000000E+00  0.00000000000E+00 -0.22371290714E+04  0.22371290714E+04  0.25500000920E-02 0. -1.
    10030    2    1    2    0    0  0.00000000000E+00  0.00000000000E+00 -0.78648974075E+03  0.36877684021E+04  0.36029251553E+04 0.  0.
        2    1    3    3  502    0  0.12117492214E+04  0.13154599689E+04 -0.17253708278E+03  0.17968138887E+04  0.25500000920E-02 0.  1.
       -2    1    3    3    0  502 -0.12117492214E+04 -0.13154599689E+04 -0.61395265797E+03  0.18909545134E+04  0.25500000920E-02 0. -1.
</event>
<event>
 5   0  0.2608070E-08  0.3601843E+04  0.7818609E-02  0.8090070E-01
       -2   -1    0    0    0  501  0.00000000000E+00  0.00000000000E+00  0.11989597436E+04  0.11989597436E+04  0.25500000920E-02 0.  1.
        2   -1    0    0  501    0  0.00000000000E+00  0.00000000000E+00 -0.27051102466E+04  0.27051102466E+04  0.25500000920E-02 0. -1.
    10030    2    1    2    0    0  0.00000000000E+00  0.00000000000E+00 -0.15061505031E+04  0.39040699902E+04  0.36018430214E+04 0.  0.
        3    1    3    3  502    0 -0.72481224690E+03 -0.74610240425E+03 -0.23465676923E+04  0.25667881751E+04  0.10100000352E+00 0. -1.
       -3    1    3    3    0  502  0.72481224690E+03  0.74610240425E+03  0.84041718925E+03  0.13372818151E+04  0.10100000352E+00 0.  1.
</event>
<event>
 5   0  0.8024500E-09  0.3600599E+04  0.7818609E-02  0.8090354E-01
       -1   -1    0    0    0  501  0.00000000000E+00  0.00000000000E+00  0.31351775953E+04  0.31351775953E+04  0.50400001928E-02 0.  1.
        1   -1    0    0  501    0  0.00000000000E+00  0.00000000000E+00 -0.10337784958E+04  0.10337784958E+04  0.50400001928E-02 0. -1.
    10030    2    1    2    0    0  0.00000000000E+00  0.00000000000E+00  0.21013990995E+04  0.41689560911E+04  0.36005994938E+04 0.  0.
        1    1    3    3  502    0  0.16823214498E+03  0.75900151745E+02  0.31241950057E+04  0.31296417241E+04  0.50400001928E-02 0.  1.
       -1    1    3    3    0  502 -0.16823214498E+03 -0.75900151745E+02 -0.10227959062E+04  0.10393143670E+04  0.50400001928E-02 0. -1.
</event>
<event>
 5   0  0.2482243E-08  0.3599029E+04  0.7818609E-02  0.8090714E-01
       -2   -1    0    0    0  501  0.00000000000E+00  0.00000000000E+00  0.16353099169E+04  0.16353099169E+04  0.25500000920E-02 0. -1.
        2   -1    0    0  501    0  0.00000000000E+00  0.00000000000E+00 -0.19802070768E+04  0.19802070768E+04  0.25500000920E-02 0.  1.
    10030    2    1    2    0    0  0.00000000000E+00  0.00000000000E+00 -0.34489715993E+03  0.36155169937E+04  0.35990289081E+04 0.  0.
        5    1    3    3  502    0 -0.74290773966E+03  0.94949759813E+03 -0.15145227409E+04  0.19357837744E+04  0.46999998093E+01 0.  1.
       -5    1    3    3    0  502  0.74290773966E+03 -0.94949759813E+03  0.11696255810E+04  0.16797332193E+04  0.46999998093E+01 0. -1.
</event>
<event>
 5   0  0.8146881E-09  0.3601339E+04  0.7818609E-02  0.8090185E-01
        1   -1    0    0  501    0  0.00000000000E+00  0.00000000000E+00  0.18719174332E+04  0.18719174332E+04  0.50400001928E-02 0.  1.
       -1   -1    0    0    0  501  0.00000000000E+00  0.00000000000E+00 -0.17321330494E+04  0.17321330494E+04  0.50400001928E-02 0. -1.
    10030    2    1    2    0    0  0.00000000000E+00  0.00000000000E+00  0.13978438381E+03  0.36040504826E+04  0.36013386688E+04 0.  0.
        4    1    3    3  502    0  0.67039592876E+02  0.11709449109E+03  0.18668508727E+04  0.18717209248E+04  0.12699999809E+01 0.  1.
       -4    1    3    3    0  502 -0.67039592876E+02 -0.11709449109E+03 -0.17270664888E+04  0.17323295577E+04  0.12699999809E+01 0. -1.
</event>
<event>
 5   0  0.8024500E-09  0.3599772E+04  0.7818609E-02  0.8090544E-01
       -1   -1    0    0    0  501  0.00000000000E+00  0.00000000000E+00  0.16021528294E+04  0.16021528294E+04  0.50400001928E-02 0.  1.
        1   -1    0    0  501    0  0.00000000000E+00  0.00000000000E+00 -0.20220231262E+04  0.20220231262E+04  0.50400001928E-02 0. -1.
    10030    2    1    2    0    0  0.00000000000E+00  0.00000000000E+00 -0.41987029676E+03  0.36241759556E+04  0.35997722554E+04 0.  0.
        5    1    3    3  502    0  0.17529637084E+04  0.38271173140E+03 -0.35308892562E+03  0.18286727186E+04  0.46999998093E+01 0. -1.
       -5    1    3    3    0  502 -0.17529637084E+04 -0.38271173140E+03 -0.66781371142E+02  0.17955032370E+04  0.46999998093E+01 0.  1.
</event>
<event>
 5   0  0.2476968E-08  0.3590938E+04  0.7818609E-02  0.8092571E-01
       -2   -1    0    0    0  501  0.00000000000E+00  0.00000000000E+00  0.13391679345E+04  0.13391679345E+04  0.25500000920E-02 0. -1.
        2   -1    0    0  501    0  0.00000000000E+00  0.00000000000E+00 -0.24072472478E+04  0.24072472478E+04  0.25500000920E-02 0.  1.
    10030    2    1    2    0    0  0.00000000000E+00  0.00000000000E+00 -0.10680793133E+04  0.37464151823E+04  0.35909376629E+04 0.  0.
        2    1    3    3  502    0 -0.10992711296E+04  0.13545195746E+04 -0.97739558435E+03  0.19996055668E+04  0.25500000920E-02 0. -1.
       -2    1    3    3    0  502  0.10992711296E+04 -0.13545195746E+04 -0.90683728956E+02  0.17468096156E+04  0.25500000920E-02 0.  1.
</event>
<event>
 5   0  0.8024500E-09  0.3599231E+04  0.7818609E-02  0.8090668E-01
       -1   -1    0    0    0  501  0.00000000000E+00  0.00000000000E+00  0.21650185672E+04  0.21650185672E+04  0.50400001928E-02 0.  1.
        1   -1    0    0  501    0  0.00000000000E+00  0.00000000000E+00 -0.14958839126E+04  0.14958839126E+04  0.50400001928E-02 0. -1.
    10030    2    1    2    0    0  0.00000000000E+00  0.00000000000E+00  0.66913465460E+03  0.36609024798E+04  0.35992312763E+04 0.  0.
        1    1    3    3  502    0 -0.13032136949E+04  0.13607825773E+03  0.15892897714E+04  0.20597876600E+04  0.50400001928E-02 0.  1.
       -1    1    3    3    0  502  0.13032136949E+04 -0.13607825773E+03 -0.92015511683E+03  0.16011148197E+04  0.50400001928E-02 0. -1.
</event>
<event>
 5   0  0.8063410E-09  0.3600738E+04  0.7818609E-02  0.8090323E-01
        1   -1    0    0  501    0  0.00000000000E+00  0.00000000000E+00  0.19824970743E+04  0.19824970743E+04  0.50400001928E-02 0. -1.
       -1   -1    0    0    0  501  0.00000000000E+00  0.00000000000E+00 -0.16349729339E+04  0.16349729339E+04  0.50400001928E-02 0.  1.
    10030    2    1    2    0    0  0.00000000000E+00  0.00000000000E+00  0.34752414041E+03  0.36174700082E+04  0.36007382899E+04 0.  0.
        2    1    3    3  502    0 -0.12955932698E+04  0.12403376316E+04  0.17057475398E+02  0.17936806624E+04  0.25500000920E-02 0.  1.
       -2    1    3    3    0  502  0.12955932698E+04 -0.12403376316E+04  0.33046666501E+03  0.18237893458E+04  0.25500000920E-02 0. -1.
</event>
<event>
 5   0  0.2482243E-08  0.3598423E+04  0.7818609E-02  0.8090853E-01
       -2   -1    0    0    0  501  0.00000000000E+00  0.00000000000E+00  0.14737740677E+04  0.14737740677E+04  0.25500000920E-02 0.  1.
        2   -1    0    0  501    0  0.00000000000E+00  0.00000000000E+00 -0.21965111813E+04  0.21965111813E+04  0.25500000920E-02 0. -1.
    10030    2    1    2    0    0  0.00000000000E+00  0.00000000000E+00 -0.72273711363E+03  0.36702852490E+04  0.35984225535E+04 0.  0.
        5    1    3    3  502    0  0.56658445500E+03  0.13290520210E+02  0.13803472306E+04  0.14921712870E+04  0.46999998093E+01 0.  1.
       -5    1    3    3    0  502 -0.56658445500E+03 -0.13290520210E+02 -0.21030843442E+04  0.21781139620E+04  0.46999998093E+01 0. -1.
</event>
<event>
 5   0  0.2590795E-08  0.3599670E+04  0.7818609E-02  0.8090567E-01
       -2   -1    0    0    0  501  0.00000000000E+00  0.00000000000E+00  0.17842316793E+04  0.17842316793E+04  0.25500000920E-02 0. -1.
        2   -1    0    0  501    0  0.00000000000E+00  0.00000000000E+00 -0.18155749972E+04  0.18155749972E+04  0.25500000920E-02 0.  1.
    10030    2    1    2    0    0  0.00000000000E+00  0.00000000000E+00 -0.31343317890E+02  0.35998066765E+04  0.35996702216E+04 0.  0.
        4    1    3    3  502    0 -0.11672065345E+04 -0.67957357474E+03 -0.12053442073E+04  0.18102617514E+04  0.12699999809E+01 0.  1.
       -4    1    3    3    0  502  0.11672065345E+04  0.67957357474E+03  0.11740008894E+04  0.17895449251E+04  0.12699999809E+01 0. -1.
</event>
<event>
 5   0  0.8063410E-09  0.3598543E+04  0.7818609E-02  0.8090826E-01
        1   -1    0    0  501    0  0.00000000000E+00  0.00000000000E+00  0.10508084067E+04  0.10508084067E+04  0.50400001928E-02 0.  1.
       -1   -1    0    0    0  501  0.00000000000E+00  0.00000000000E+00 -0.30808450113E+04  0.30808450113E+04  0.50400001928E-02 0. -1.
    10030    2    1    2    0    0  0.00000000000E+00  0.00000000000E+00 -0.20300366047E+04  0.41316534180E+04  0.35985429483E+04 0.  0.
        2    1    3    3  502    0  0.11230741287E+04 -0.13174285169E+04 -0.45199985330E+03  0.17891945850E+04  0.25500000920E-02 0. -1.
       -2    1    3    3    0  502 -0.11230741287E+04  0.13174285169E+04 -0.15780367514E+04  0.23424588330E+04  0.25500000920E-02 0.  1.
</event>
<event>
 5   0  0.8247570E-09  0.3585802E+04  0.7818609E-02  0.8093752E-01
       -1   -1    0    0    0  501  0.00000000000E+00  0.00000000000E+00  0.14216201052E+04  0.14216201053E+04  0.50400001928E-02 0. -1.
        1   -1    0    0  501    0  0.00000000000E+00  0.00000000000E+00 -0.22611484022E+04  0.22611484022E+04  0.50400001928E-02 0.  1.
    10030    2    1    2    0    0  0.00000000000E+00  0.00000000000E+00 -0.83952829694E+03  0.36827685074E+04  0.35858020188E+04 0.  0.
        3    1    3    3  502    0 -0.41842831418E+03 -0.29877870343E+03 -0.21838091134E+04  0.22435180458E+04  0.10100000352E+00 0.  1.
       -3    1    3    3    0  502  0.41842831418E+03  0.29877870343E+03  0.13442808165E+04  0.14392504617E+04  0.10100000352E+00 0. -1.
</event>
<event>
 5   0  0.8063410E-09  0.3599980E+04  0.7818609E-02  0.8090496E-01
        1   -1    0    0  501    0  0.00000000000E+00  0.00000000000E+00  0.19954590477E+04  0.19954590477E+04  0.50400001928E-02 0.  1.
       -1   -1    0    0    0  501  0.00000000000E+00  0.00000000000E+00 -0.16236681991E+04  0.16236681991E+04  0.50400001928E-02 0. -1.
    10030    2    1    2    0    0  0.00000000000E+00  0.00000000000E+00  0.37179084853E+03  0.36191272468E+04  0.35999796657E+04 0.  0.
        2    1    3    3  502    0  0.93780720739E+03  0.88195101082E+03  0.14506182252E+04  0.19394878651E+04  0.25500000920E-02 0.  1.
       -2    1    3    3    0  502 -0.93780720739E+03 -0.88195101082E+03 -0.10788273767E+04  0.16796393817E+04  0.25500000920E-02 0. -1.
</event>
<event>
 5   0  0.2608070E-08  0.3604356E+04  0.7818609E-02  0.8089495E-01
        2   -1    0    0  501    0  0.00000000000E+00  0.00000000000E+00  0.18333695780E+04  0.18333695780E+04  0.25500000920E-02 0. -1.
       -2   -1    0    0    0  501  0.00000000000E+00  0.00000000000E+00 -0.17715169437E+04  0.17715169437E+04  0.25500000920E-02 0.  1.
    10030    2    1    2    0    0  0.00000000000E+00  0.00000000000E+00  0.61852634243E+02  0.36048865217E+04  0.36043558490E+04 0.  0.
        3    1    3    3  502    0  0.37663040264E+03 -0.15494575421E+04 -0.80894497602E+03  0.17880327512E+04  0.10100000352E+00 0.  1.
       -3    1    3    3    0  502 -0.37663040264E+03  0.15494575421E+04  0.87079761026E+03  0.18168537705E+04  0.10100000352E+00 0. -1.
</event>
<event>
 5   0  0.8024500E-09  0.3604088E+04  0.7818609E-02  0.8089556E-01
        3   -1    0    0  501    0  0.00000000000E+00  0.00000000000E+00  0.14481462294E+04  0.14481462329E+04  0.10100000352E+00 0. -1.
       -3   -1    0    0    0  501  0.00000000000E+00  0.00000000000E+00 -0.22424275561E+04  0.22424275583E+04  0.10100000352E+00 0.  1.
    10030    2    1    2    0    0  0.00000000000E+00  0.00000000000E+00 -0.79428132671E+03  0.36905737912E+04  0.36040882457E+04 0.  0.
        3    1    3    3  502    0  0.98462403566E+03 -0.40537177583E+03  0.10915517348E+04  0.15248921169E+04  0.10100000352E+00 0. -1.
       -3    1    3    3    0  502 -0.98462403566E+03  0.40537177583E+03 -0.18858330615E+04  0.21656816743E+04  0.10100000352E+00 0.  1.
</event>
<event>
 5   0  0.8146881E-09  0.3600046E+04  0.7818609E-02  0.8090481E-01
       -1   -1    0    0    0  501  0.00000000000E+00  0.00000000000E+00  0.16465137543E+04  0.16465137543E+04  0.50400001928E-02 0. -1.
        1   -1    0    0  501    0  0.00000000000E+00  0.00000000000E+00 -0.19678447543E+04  0.19678447543E+04  0.50400001928E-02 0.  1.
    10030    2    1    2    0    0  0.00000000000E+00  0.00000000000E+00 -0.32133099998E+03  0.36143585086E+04  0.36000463631E+04 0.  0.
        4    1    3    3  502    0 -0.14021893986E+04  0.69302353887E+03  0.73375506795E+03  0.17276616705E+04  0.12699999809E+01 0. -1.
       -4    1    3    3    0  502  0.14021893986E+04 -0.69302353887E+03 -0.10550860679E+04  0.18866968381E+04  0.12699999809E+01 0.  1.
</event>
<event>
 5   0  0.8247570E-09  0.3599690E+04  0.7818609E-02  0.8090563E-01
       -1   -1    0    0    0  501  0.00000000000E+00  0.00000000000E+00  0.11141849467E+04  0.11141849467E+04  0.50400001928E-02 0. -1.
        1   -1    0    0  501    0  0.00000000000E+00  0.00000000000E+00 -0.29074544949E+04  0.29074544949E+04  0.50400001928E-02 0.  1.
    10030    2    1    2    0    0  0.00000000000E+00  0.00000000000E+00 -0.17932695482E+04  0.40216394416E+04  0.35996900041E+04 0.  0.
        3    1    3    3  502    0  0.12832317078E+04 -0.82888831603E+01 -0.23065844601E+04  0.26395234803E+04  0.10100000352E+00 0.  1.
       -3    1    3    3    0  502 -0.12832317078E+04  0.82888831603E+01  0.51331491190E+03  0.13821159613E+04  0.10100000352E+00 0. -1.
</event>
<event>
 5   0  0.2494592E-08  0.3601319E+04  0.7818609E-02  0.8090190E-01
        2   -1    0    0  501    0  0.00000000000E+00  0.00000000000E+00  0.28020193465E+04  0.28020193465E+04  0.25500000920E-02 0. -1.
       -2   -1    0    0    0  501  0.00000000000E+00  0.00000000000E+00 -0.11571565223E+04  0.11571565223E+04  0.25500000920E-02 0.  1.
    10030    2    1    2    0    0  0.00000000000E+00  0.00000000000E+00  0.16448628243E+04  0.39591758688E+04  0.36013191818E+04 0.  0.
        1    1    3    3  502    0 -0.33694367666E+03 -0.16989755242E+04  0.28124950786E+03  0.17547507397E+04  0.50400001928E-02 0.  1.
       -1    1    3    3    0  502  0.33694367666E+03  0.16989755242E+04  0.13636133164E+04  0.22044251291E+04  0.50400001928E-02 0. -1.
</event>
<event>
 5   0  0.8024500E-09  0.3593746E+04  0.7818609E-02  0.8091926E-01
        1   -1    0    0  501    0  0.00000000000E+00  0.00000000000E+00  0.17437068823E+04  0.17437068823E+04  0.50400001928E-02 0. -1.
       -1   -1    0    0    0  501  0.00000000000E+00  0.00000000000E+00 -0.18516597758E+04  0.18516597758E+04  0.50400001928E-02 0.  1.
    10030    2    1    2    0    0  0.00000000000E+00  0.00000000000E+00 -0.10795289353E+03  0.35953666581E+04  0.35937456197E+04 0.  0.
        1    1    3    3  502    0  0.10101016410E+04  0.11198039693E+04  0.92344205000E+03  0.17683357924E+04  0.50400001928E-02 0. -1.
       -1    1    3    3    0  502 -0.10101016410E+04 -0.11198039693E+04 -0.10313949435E+04  0.18270308657E+04  0.50400001928E-02 0.  1.
</event>
<event>
 5   0  0.2608070E-08  0.3598341E+04  0.7818609E-02  0.8090872E-01
        2   -1    0    0  501    0  0.00000000000E+00  0.00000000000E+00  0.15602062539E+04  0.15602062539E+04  0.25500000920E-02 0. -1.
       -2   -1    0    0    0  501  0.00000000000E+00  0.00000000000E+00 -0.20747354869E+04  0.20747354869E+04  0.25500000920E-02 0.  1.
    10030    2    1    2    0    0  0.00000000000E+00  0.00000000000E+00 -0.51452923298E+03  0.36349417407E+04  0.35983414411E+04 0.  0.
        3    1    3    3  502    0 -0.12981572170E+04 -0.81877540261E+02  0.99839886858E+03  0.16397305884E+04  0.10100000352E+00 0. -1.
       -3    1    3    3    0  502  0.12981572170E+04  0.81877540261E+02 -0.15129281016E+04  0.19952111523E+04  0.10100000352E+00 0.  1.
</event>
<event>
 5   0  0.2608070E-08  0.3615460E+04  0.7818609E-02  0.8086960E-01
        2   -1    0    0  501    0  0.00000000000E+00  0.00000000000E+00  0.20716101646E+04  0.20716101646E+04  0.25500000920E-02 0.  1.
       -2   -1    0    0    0  501  0.00000000000E+00  0.00000000000E+00 -0.15774625992E+04  0.15774625992E+04  0.25500000920E-02 0. -1.
    10030    2    1    2    0    0  0.00000000000E+00  0.00000000000E+00  0.49414756534E+03  0.36490727638E+04  0.36154598904E+04 0.  0.
        3    1    3    3  502    0 -0.10573947250E+04 -0.14380576317E+04 -0.41581957124E+02  0.17854474022E+04  0.10100000352E+00 0. -1.
       -3    1    3    3    0  502  0.10573947250E+04  0.14380576317E+04  0.53572952247E+03  0.18636253615E+04  0.10100000352E+00 0.  1.
</event>
<event>
 5   0  0.2590795E-08  0.3598338E+04  0.7818609E-02  0.8090872E-01
       -2   -1    0    0    0  501  0.00000000000E+00  0.00000000000E+00  0.21882458548E+04  0.21882458548E+04  0.25500000920E-02 0. -1.
        2   -1    0    0  501    0  0.00000000000E+00  0.00000000000E+00 -0.14792714093E+04  0.14792714093E+04  0.25500000920E-02 0.  1.
    10030    2    1    2    0    0  0.00000000000E+00  0.00000000000E+00  0.70897444551E+03  0.36675172641E+04  0.35983382439E+04 0.  0.
        4    1    3    3  502    0  0.76083481722E+03  0.15683640871E+04 -0.99465675116E+02  0.17460041701E+04  0.12699999809E+01 0.  1.
       -4    1    3    3    0  502 -0.76083481722E+03 -0.15683640871E+04  0.80844012062E+03  0.19215130939E+04  0.12699999809E+01 0. -1.
</event>
<event>
 5   0  0.8024500E-09  0.3598490E+04  0.7818609E-02  0.8090838E-01
        1   -1    0    0  501    0  0.00000000000E+00  0.00000000000E+00  0.28246845930E+04  0.28246845930E+04  0.50400001928E-02 0. -1.
       -1   -1    0    0    0  501  0.00000000000E+00  0.00000000000E+00 -0.11460689605E+04  0.11460689605E+04  0.50400001928E-02 0.  1.
    10030    2    1    2    0    0  0.00000000000E+00  0.00000000000E+00  0.16786156326E+04  0.39707535535E+04  0.35984904253E+04 0.  0.
        5    1    3    3  502    0  0.16464362155E+04  0.36090228465E+03  0.14469639786E+03  0.16917333739E+04  0.46999998093E+01 0.  1.
       -5    1    3    3    0  502 -0.16464362155E+04 -0.36090228465E+03  0.15339192347E+04  0.22790201796E+04  0.46999998093E+01 0. -1.
</event>
<event>
 5   0  0.2590795E-08  0.3598771E+04  0.7818609E-02  0.8090773E-01
        2   -1    0    0  501    0  0.00000000000E+00  0.00000000000E+00  0.27171511808E+04  0.27171511808E+04  0.25500000920E-02 0.  1.
       -2   -1    0    0    0  501  0.00000000000E+00  0.00000000000E+00 -0.11916110374E+04  0.11916110374E+04  0.25500000920E-02 0. -1.
    10030    2    1    2    0    0  0.00000000000E+00  0.00000000000E+00  0.15255401434E+04  0.39087622182E+04  0.35987705330E+04 0.  0.
        4    1    3    3  502    0 -0.72064673436E+03 -0.14773919875E+04 -0.32240759113E+02  0.16440985006E+04  0.12699999809E+01 0.  1.
       -4    1    3    3    0  502  0.72064673436E+03  0.14773919875E+04  0.15577809026E+04  0.22646637176E+04  0.12699999809E+01 0. -1.
</event>
<event>
 5   0  0.8024500E-09  0.3600165E+04  0.7818609E-02  0.8090454E-01
       -1   -1    0    0    0  501  0.00000000000E+00  0.00000000000E+00  0.17771818653E+04  0.17771818653E+04  0.50400001928E-02 0.  1.
        1   -1    0    0  501    0  0.00000000000E+00  0.00000000000E+00 -0.18232786953E+04  0.18232786954E+04  0.50400001928E-02 0. -1.
    10030    2    1    2    0    0  0.00000000000E+00  0.00000000000E+00 -0.46096830030E+02  0.36004605607E+04  0.36001654589E+04 0.  0.
        5    1    3    3  502    0  0.11506869187E+04 -0.12922570994E+04  0.47324516862E+03  0.17938762152E+04  0.46999998093E+01 0. -1.
       -5    1    3    3    0  502 -0.11506869187E+04  0.12922570994E+04 -0.51934199865E+03  0.18065843455E+04  0.46999998093E+01 0.  1.
</event>
<event>
 5   0  0.2494592E-08  0.3599497E+04  0.7818609E-02  0.8090607E-01
        2   -1    0    0  501    0  0.00000000000E+00  0.00000000000E+00  0.21318144647E+04  0.21318144647E+04  0.25500000920E-02 0.  1.
       -2   -1    0    0    0  501  0.00000000000E+00  0.00000000000E+00 -0.15194075426E+04  0.15194075426E+04  0.25500000920E-02 0. -1.
    10030    2    1    2    0    0  0.00000000000E+00  0.00000000000E+00  0.61240692211E+03  0.36512220073E+04  0.35994971744E+04 0.  0.
        1    1    3    3  502    0 -0.96693184707E+03 -0.92240148355E+03 -0.91665452735E+03  0.16205052349E+04  0.50400001928E-02 0. -1.
       -1    1    3    3    0  502  0.96693184707E+03  0.92240148355E+03  0.15290614495E+04  0.20307167725E+04  0.50400001928E-02 0.  1.
</event>
<event>
 5   0  0.8063410E-09  0.3599241E+04  0.7818609E-02  0.8090666E-01
       -1   -1    0    0    0  501  0.00000000000E+00  0.00000000000E+00  0.23605576796E+04  0.23605576796E+04  0.50400001928E-02 0. -1.
        1   -1    0    0  501    0  0.00000000000E+00  0.00000000000E+00 -0.13719780585E+04  0.13719780585E+04  0.50400001928E-02 0.  1.
    10030    2    1    2    0    0  0.00000000000E+00  0.00000000000E+00  0.98857962107E+03  0.37325357381E+04  0.35992406656E+04 0.  0.
        2    1    3    3  502    0 -0.49587940968E+02  0.72598313391E+03  0.22011872965E+04  0.23183476851E+04  0.25500000920E-02 0. -1.
       -2    1    3    3    0  502  0.49587940968E+02 -0.72598313391E+03 -0.12126076754E+04  0.14141880530E+04  0.25500000920E-02 0.  1.
</event>
<event>
 5   0  0.2482243E-08  0.3600883E+04  0.7818609E-02  0.8090289E-01
        2   -1    0    0  501    0  0.00000000000E+00  0.00000000000E+00  0.22600839487E+04  0.22600839487E+04  0.25500000920E-02 0.  1.
       -2   -1    0    0    0  501  0.00000000000E+00  0.00000000000E+00 -0.14342787500E+04  0.14342787500E+04  0.25500000920E-02 0. -1.
    10030    2    1    2    0    0  0.00000000000E+00  0.00000000000E+00  0.82580519870E+03  0.36943626986E+04  0.36008834365E+04 0.  0.
        5    1    3    3  502    0  0.35718850117E+03 -0.11518909528E+03 -0.13936951807E+04  0.14433504425E+04  0.46999998093E+01 0. -1.
       -5    1    3    3    0  502 -0.35718850117E+03  0.11518909528E+03  0.22195003794E+04  0.22510122562E+04  0.46999998093E+01 0.  1.
</event>
<event>
 5   0  0.8247570E-09  0.3598423E+04  0.7818609E-02  0.8090853E-01
       -1   -1    0    0    0  501  0.00000000000E+00  0.00000000000E+00  0.22415665084E+04  0.22415665084E+04  0.50400001928E-02 0. -1.
        1   -1    0    0  501    0  0.00000000000E+00  0.00000000000E+00 -0.14441518069E+04  0.14441518069E+04  0.50400001928E-02 0.  1.
    10030    2    1    2    0    0  0.00000000000E+00  0.00000000000E+00  0.79741470157E+03  0.36857183153E+04  0.35984231677E+04 0.  0.
        3    1    3    3  502    0 -0.12974404589E+04 -0.29488925289E+03  0.16392248415E+04  0.21112483290E+04  0.10100000352E+00 0. -1.
       -3    1    3    3    0  502  0.12974404589E+04  0.29488925289E+03 -0.84181013988E+03  0.15744699863E+04  0.10100000352E+00 0.  1.
</event>
<event>
 5   0  0.8247570E-09  0.3599372E+04  0.7818609E-02  0.8090636E-01
        1   -1    0    0  501    0  0.00000000000E+00  0.00000000000E+00  0.16168126860E+04  0.16168126860E+04  0.50400001928E-02 0.  1.
       -1   -1    0    0    0  501  0.00000000000E+00  0.00000000000E+00 -0.20032434204E+04  0.20032434204E+04  0.50400001928E-02 0. -1.
    10030    2    1    2    0    0  0.00000000000E+00  0.00000000000E+00 -0.38643073436E+03  0.36200561064E+04  0.35993718203E+04 0.  0.
        3    1    3    3  502    0 -0.30167020164E+02  0.17779834950E+04 -0.47181627652E+03  0.18397679110E+04  0.10100000352E+00 0. -1.
       -3    1    3    3    0  502  0.30167020164E+02 -0.17779834950E+04  0.85385542153E+02  0.17802881954E+04  0.10100000352E+00 0.  1.
</event>
<event>
 5   0  0.8247570E-09  0.3598971E+04  0.7818609E-02  0.8090728E-01
        1   -1    0    0  501    0  0.00000000000E+00  0.00000000000E+00  0.21783087409E+04  0.21783087410E+04  0.50400001928E-02 0. -1.
       -1   -1    0    0    0  501  0.00000000000E+00  0.00000000000E+00 -0.14865419448E+04  0.14865419449E+04  0.50400001928E-02 0.  1.
    10030    2    1    2    0    0  0.00000000000E+00  0.00000000000E+00  0.69176679610E+03  0.36648506858E+04  0.35989705819E+04 0.  0.
        3    1    3    3  502    0 -0.97305621659E+03 -0.54105438188E+03 -0.10937024481E+04  0.15606932114E+04  0.10100000352E+00 0.  1.
       -3    1    3    3    0  502  0.97305621659E+03  0.54105438188E+03  0.17854692442E+04  0.21041574744E+04  0.10100000352E+00 0. -1.
</event>
<event>
 5   0  0.8063410E-09  0.3601567E+04  0.7818609E-02  0.8090133E-01
       -1   -1    0    0    0  501  0.00000000000E+00  0.00000000000E+00  0.13367916493E+04  0.13367916493E+04  0.50400001928E-02 0. -1.
        1   -1    0    0  501    0  0.00000000000E+00  0.00000000000E+00 -0.24258238125E+04  0.24258238125E+04  0.50400001928E-02 0.  1.
    10030    2    1    2    0    0  0.00000000000E+00  0.00000000000E+00 -0.10890321632E+04  0.37626154617E+04  0.36015668896E+04 0.  0.
        2    1    3    3  502    0 -0.54043697385E+03 -0.32038513471E+03  0.12185806477E+04  0.13710060366E+04  0.25500000920E-02 0. -1.
       -2    1    3    3    0  502  0.54043697385E+03  0.32038513471E+03 -0.23076128110E+04  0.23916094252E+04  0.25500000920E-02 0.  1.
</event>
<event>
 5   0  0.8024500E-09  0.3603088E+04  0.7818609E-02  0.8089785E-01
        1   -1    0    0  501    0  0.00000000000E+00  0.00000000000E+00  0.24409437794E+04  0.24409437794E+04  0.50400001928E-02 0.  1.
       -1   -1    0    0    0  501  0.00000000000E+00  0.00000000000E+00 -0.13296335557E+04  0.13296335557E+04  0.50400001928E-02 0. -1.
    10030    2    1    2    0    0  0.00000000000E+00  0.00000000000E+00  0.11113102237E+04  0.37705773351E+04  0.36030879849E+04 0.  0.
        5    1    3    3  502    0  0.29702054136E+03  0.55871530563E+03  0.23208226244E+04  0.24055402176E+04  0.46999998093E+01 0.  1.
       -5    1    3    3    0  502 -0.29702054136E+03 -0.55871530563E+03 -0.12095124007E+04  0.13650371175E+04  0.46999998093E+01 0. -1.
</event>
<event>
 5   0  0.2482243E-08  0.3601342E+04  0.7818609E-02  0.8090184E-01
        2   -1    0    0  501    0  0.00000000000E+00  0.00000000000E+00  0.21260077010E+04  0.21260077010E+04  0.25500000920E-02 0. -1.
       -2   -1    0    0    0  501  0.00000000000E+00  0.00000000000E+00 -0.15251194533E+04  0.15251194533E+04  0.25500000920E-02 0.  1.
    10030    2    1    2    0    0  0.00000000000E+00  0.00000000000E+00  0.60088824772E+03  0.36511271543E+04  0.36013418070E+04 0.  0.
        5    1    3    3  502    0  0.33358308958E+03  0.51752742996E+03  0.20159595330E+04  0.21078964033E+04  0.46999998093E+01 0. -1.
       -5    1    3    3    0  502 -0.33358308958E+03 -0.51752742996E+03 -0.14150712853E+04  0.15432307510E+04  0.46999998093E+01 0.  1.
</event>
<event>
 5   0  0.8024500E-09  0.3599227E+04  0.7818609E-02  0.8090669E-01
        3   -1    0    0  501    0  0.00000000000E+00  0.00000000000E+00  0.23769745234E+04  0.23769745255E+04  0.10100000352E+00 0.  1.
       -3   -1    0    0    0  501  0.00000000000E+00  0.00000000000E+00 -0.13624918334E+04  0.13624918372E+04  0.10100000352E+00 0. -1.
    10030    2    1    2    0    0  0.00000000000E+00  0.00000000000E+00  0.10144826899E+04  0.37394663627E+04  0.35992267988E+04 0.  0.
        1    1    3    3  502    0 -0.44531152140E+03 -0.13553031826E+04  0.16470084652E+04  0.21789414752E+04  0.50400001928E-02 0.  1.
       -1    1    3    3    0  502  0.44531152140E+03  0.13553031826E+04 -0.63252577529E+03  0.15605248875E+04  0.50400001928E-02 0. -1.
</event>
<event>
 5   0  0.2494592E-08  0.3600799E+04  0.7818609E-02  0.8090309E-01
        2   -1    0    0  501    0  0.00000000000E+00  0.00000000000E+00  0.25046620605E+04  0.25046620605E+04  0.25500000920E-02 0. -1.
       -2   -1    0    0    0  501  0.00000000000E+00  0.00000000000E+00 -0.12941621775E+04  0.12941621775E+04  0.25500000920E-02 0.  1.
    10030    2    1    2    0    0  0.00000000000E+00  0.00000000000E+00  0.12104998830E+04  0.37988242380E+04  0.36007993036E+04 0.  0.
        1    1    3    3  502    0  0.13624856876E+04  0.71031171872E+03 -0.38472020105E+03  0.15839569501E+04  0.50400001928E-02 0.  1.
       -1    1    3    3    0  502 -0.13624856876E+04 -0.71031171872E+03  0.15952200840E+04  0.22148672879E+04  0.50400001928E-02 0. -1.
</event>
<event>
 5   0  0.8024500E-09  0.3600731E+04  0.7818609E-02  0.8090324E-01
       -1   -1    0    0    0  501  0.00000000000E+00  0.00000000000E+00  0.19004643905E+04  0.19004643905E+04  0.50400001928E-02 0.  1.
        1   -1    0    0  501    0  0.00000000000E+00  0.00000000000E+00 -0.17055390944E+04  0.17055390944E+04  0.50400001928E-02 0. -1.
    10030    2    1    2    0    0  0.00000000000E+00  0.00000000000E+00  0.19492529606E+03  0.36060034849E+04  0.36007312121E+04 0.  0.
        1    1    3    3  502    0 -0.36877471873E+03 -0.17597541162E+04  0.46610448577E+01  0.17979852803E+04  0.50400001928E-02 0.  1.
       -1    1    3    3    0  502  0.36877471873E+03  0.17597541162E+04  0.19026425120E+03  0.18080182046E+04  0.50400001928E-02 0. -1.
</event>
<event>
 5   0  0.2590795E-08  0.3596089E+04  0.7818609E-02  0.8091388E-01
        2   -1    0    0  501    0  0.00000000000E+00  0.00000000000E+00  0.24283817263E+04  0.24283817263E+04  0.25500000920E-02 0.  1.
       -2   -1    0    0    0  501  0.00000000000E+00  0.00000000000E+00 -0.13313241059E+04  0.13313241060E+04  0.25500000920E-02 0. -1.
    10030    2    1    2    0    0  0.00000000000E+00  0.00000000000E+00  0.10970576203E+04  0.37597058323E+04  0.35960885032E+04 0.  0.
        4    1    3    3  502    0  0.11999410310E+03 -0.11410153288E+03 -0.13233354416E+04  0.13336551460E+04  0.12699999809E+01 0. -1.
       -4    1    3    3    0  502 -0.11999410310E+03  0.11410153288E+03  0.24203930620E+04  0.24260506862E+04  0.12699999809E+01 0.  1.
</event>
<event>
 5   0  0.2608070E-08  0.3601011E+04  0.7818609E-02  0.8090260E-01
       -2   -1    0    0    0  501  0.00000000000E+00  0.00000000000E+00  0.15544368356E+04  0.15544368356E+04  0.25500000920E-02 0.  1.
        2   -1    0    0  501    0  0.00000000000E+00  0.00000000000E+00 -0.20855269252E+04  0.20855269252E+04  0.25500000920E-02 0. -1.
    10030    2    1    2    0    0  0.00000000000E+00  0.00000000000E+00 -0.53109008958E+03  0.36399637608E+04  0.36010108993E+04 0.  0.
        3    1    3    3  502    0 -0.12049396385E+04  0.23710580242E+03 -0.15964966064E+04  0.20141747984E+04  0.10100000352E+00 0. -1.
       -3    1    3    3    0  502  0.12049396385E+04 -0.23710580242E+03  0.10654065168E+04  0.16257889624E+04  0.10100000352E+00 0.  1.
</event>
<event>
 5   0  0.8247570E-09  0.3604225E+04  0.7818609E-02  0.8089525E-01
       -1   -1    0    0    0  501  0.00000000000E+00  0.00000000000E+00  0.17059380334E+04  0.17059380334E+04  0.50400001928E-02 0. -1.
        1   -1    0    0  501    0  0.00000000000E+00  0.00000000000E+00 -0.19037085749E+04  0.19037085749E+04  0.50400001928E-02 0.  1.
    10030    2    1    2    0    0  0.00000000000E+00  0.00000000000E+00 -0.19777054149E+03  0.36096466084E+04  0.36042246670E+04 0.  0.
        3    1    3    3  502    0 -0.97884704159E+03 -0.12415557443E+04 -0.96506010583E+03  0.18522805444E+04  0.10100000352E+00 0.  1.
       -3    1    3    3    0  502  0.97884704159E+03  0.12415557443E+04  0.76728956434E+03  0.17573660640E+04  0.10100000352E+00 0. -1.
</event>
<event>
 5   0  0.8024500E-09  0.3606748E+04  0.7818609E-02  0.8088948E-01
        1   -1    0    0  501    0  0.00000000000E+00  0.00000000000E+00  0.15376076114E+04  0.15376076114E+04  0.50400001928E-02 0.  1.
       -1   -1    0    0    0  501  0.00000000000E+00  0.00000000000E+00 -0.21150762548E+04  0.21150762548E+04  0.50400001928E-02 0. -1.
    10030    2    1    2    0    0  0.00000000000E+00  0.00000000000E+00 -0.57746864335E+03  0.36526838662E+04  0.36067477584E+04 0.  0.
        5    1    3    3  502    0  0.48493872954E+03  0.17095143337E+04 -0.60010816789E+03  0.18755683757E+04  0.46999998093E+01 0.  1.
       -5    1    3    3    0  502 -0.48493872954E+03 -0.17095143337E+04  0.22639524538E+02  0.17771154906E+04  0.46999998093E+01 0. -1.
</event>
<event>
 5   0  0.8146881E-09  0.3600144E+04  0.7818609E-02  0.8090459E-01
        1   -1    0    0  501    0  0.00000000000E+00  0.00000000000E+00  0.21390589461E+04  0.21390589461E+04  0.50400001928E-02 0.  1.
       -1   -1    0    0    0  501  0.00000000000E+00  0.00000000000E+00 -0.15148063196E+04  0.15148063196E+04  0.50400001928E-02 0. -1.
    10030    2    1    2    0    0  0.00000000000E+00  0.00000000000E+00  0.62425262651E+03  0.36538652658E+04  0.36001444469E+04 0.  0.
        4    1    3    3  502    0 -0.66655715324E+03  0.13041236897E+03  0.20040203911E+04  0.21159879880E+04  0.12699999809E+01 0.  1.
       -4    1    3    3    0  502  0.66655715324E+03 -0.13041236897E+03 -0.13797677646E+04  0.15378772778E+04  0.12699999809E+01 0. -1.
</event>
<event>
 5   0  0.2482243E-08  0.3600072E+04  0.7818609E-02  0.8090475E-01
        2   -1    0    0  501    0  0.00000000000E+00  0.00000000000E+00  0.28718564613E+04  0.28718564613E+04  0.25500000920E-02 0.  1.
       -2   -1    0    0    0  501  0.00000000000E+00  0.00000000000E+00 -0.11282352655E+04  0.11282352655E+04  0.25500000920E-02 0. -1.
    10030    2    1    2    0    0  0.00000000000E+00  0.00000000000E+00  0.17436211958E+04  0.40000917268E+04  0.36000720755E+04 0.  0.
        5    1    3    3  502    0  0.15468945629E+04 -0.53342082618E+03  0.17052849238E+04  0.23633534074E+04  0.46999998093E+01 0. -1.
       -5    1    3    3    0  502 -0.15468945629E+04  0.53342082618E+03  0.38336271965E+02  0.16367383195E+04  0.46999998093E+01 0.  1.
</event>
<event>
 5   0  0.2476968E-08  0.3600240E+04  0.7818609E-02  0.8090437E-01
       -2   -1    0    0    0  501  0.00000000000E+00  0.00000000000E+00  0.13551657985E+04  0.13551657985E+04  0.25500000920E-02 0. -1.
        2   -1    0    0  501    0  0.00000000000E+00  0.00000000000E+00 -0.23911705933E+04  0.23911705933E+04  0.25500000920E-02 0.  1.
    10030    2    1    2    0    0  0.00000000000E+00  0.00000000000E+00 -0.10360047948E+04  0.37463363918E+04  0.36002403289E+04 0.  0.
        2    1    3    3  502    0 -0.72446678094E+03 -0.14310535326E+04  0.33226396658E+03  0.16380371404E+04  0.25500000920E-02 0. -1.
       -2    1    3    3    0  502  0.72446678094E+03  0.14310535326E+04 -0.13682687613E+04  0.21082992513E+04  0.25500000920E-02 0.  1.
</event>
<event>
 5   0  0.2608070E-08  0.3599489E+04  0.7818609E-02  0.8090609E-01
        2   -1    0    0  501    0  0.00000000000E+00  0.00000000000E+00  0.25717686769E+04  0.25717686769E+04  0.25500000920E-02 0.  1.
       -2   -1    0    0    0  501  0.00000000000E+00  0.00000000000E+00 -0.12594755344E+04  0.12594755344E+04  0.25500000920E-02 0. -1.
    10030    2    1    2    0    0  0.00000000000E+00  0.00000000000E+00  0.13122931425E+04  0.38312442113E+04  0.35994887019E+04 0.  0.
        3    1    3    3  502    0  0.65717779695E+03  0.14676619196E+03  0.24326367931E+04  0.25241126657E+04  0.10100000352E+00 0.  1.
       -3    1    3    3    0  502 -0.65717779695E+03 -0.14676619196E+03 -0.11203436506E+04  0.13071315456E+04  0.10100000352E+00 0. -1.
</event>
<event>
 5   0  0.2476968E-08  0.3602042E+04  0.7818609E-02  0.8090024E-01
       -2   -1    0    0    0  501  0.00000000000E+00  0.00000000000E+00  0.16526114064E+04  0.16526114064E+04  0.25500000920E-02 0. -1.
        2   -1    0    0  501    0  0.00000000000E+00  0.00000000000E+00 -0.19627580339E+04  0.19627580339E+04  0.25500000920E-02 0.  1.
    10030    2    1    2    0    0  0.00000000000E+00  0.00000000000E+00 -0.31014662747E+03  0.36153694403E+04  0.36020418181E+04 0.  0.
        2    1    3    3  502    0  0.42010638309E+02  0.13053324021E+04 -0.13998307974E+04  0.19144669846E+04  0.25500000920E-02 0.  1.
       -2    1    3    3    0  502 -0.42010638309E+02 -0.13053324021E+04  0.10896841699E+04  0.17009024557E+04  0.25500000920E-02 0. -1.
</event>
<event>
 5   0  0.2608070E-08  0.3611020E+04  0.7818609E-02  0.8087972E-01
       -2   -1    0    0    0  501  0.00000000000E+00  0.00000000000E+00  0.21038173876E+04  0.21038173876E+04  0.25500000920E-02 0.  1.
        2   -1    0    0  501    0  0.00000000000E+00  0.00000000000E+00 -0.15495006237E+04  0.15495006237E+04  0.25500000920E-02 0. -1.
    10030    2    1    2    0    0  0.00000000000E+00  0.00000000000E+00  0.55431676384E+03  0.36533180113E+04  0.36110199967E+04 0.  0.
        3    1    3    3  502    0 -0.93153500226E+03  0.41448138836E+03  0.17846843065E+04  0.20553954281E+04  0.10100000352E+00 0.  1.
       -3    1    3    3    0  502  0.93153500226E+03 -0.41448138836E+03 -0.12303675426E+04  0.15979225832E+04  0.10100000352E+00 0. -1.
</event>
<event>
 5   0  0.2482243E-08  0.3599888E+04  0.7818609E-02  0.8090517E-01
       -2   -1    0    0    0  501  0.00000000000E+00  0.00000000000E+00  0.23834212113E+04  0.23834212113E+04  0.25500000920E-02 0. -1.
        2   -1    0    0  501    0  0.00000000000E+00  0.00000000000E+00 -0.13593061121E+04  0.13593061121E+04  0.25500000920E-02 0.  1.
    10030    2    1    2    0    0  0.00000000000E+00  0.00000000000E+00  0.10241150993E+04  0.37427273234E+04  0.35998883428E+04 0.  0.
        5    1    3    3  502    0 -0.17683322891E+04  0.19702038373E+03  0.79480584682E+03  0.19487315209E+04  0.46999998093E+01 0.  1.
       -5    1    3    3    0  502  0.17683322891E+04 -0.19702038373E+03  0.22930925247E+03  0.17939958025E+04  0.46999998093E+01 0. -1.
</event>
<event>
 5   0  0.2590795E-08  0.3602793E+04  0.7818609E-02  0.8089852E-01
       -2   -1    0    0    0  501  0.00000000000E+00  0.00000000000E+00  0.19237189189E+04  0.19237189189E+04  0.25500000920E-02 0. -1.
        2   -1    0    0  501    0  0.00000000000E+00  0.00000000000E+00 -0.16868525389E+04  0.16868525389E+04  0.25500000920E-02 0.  1.
    10030    2    1    2    0    0  0.00000000000E+00  0.00000000000E+00  0.23686637997E+03  0.36105714578E+04  0.36027934398E+04 0.  0.
        4    1    3    3  502    0  0.10665477181E+04  0.13323881056E+04 -0.45921942461E+03  0.17673896547E+04  0.12699999809E+01 0.  1.
       -4    1    3    3    0  502 -0.10665477181E+04 -0.13323881056E+04  0.69608580458E+03  0.18431818031E+04  0.12699999809E+01 0. -1.
</event>
<event>
 5   0  0.2590795E-08  0.3599379E+04  0.7818609E-02  0.8090634E-01
       -2   -1    0    0    0  501  0.00000000000E+00  0.00000000000E+00  0.14828299473E+04  0.14828299473E+04  0.25500000920E-02 0. -1.
        2   -1    0    0  501    0  0.00000000000E+00  0.00000000000E+00 -0.21842570124E+04  0.21842570124E+04  0.25500000920E-02 0.  1.
    10030    2    1    2    0    0  0.00000000000E+00  0.00000000000E+00 -0.70142706506E+03  0.36670869597E+04  0.35993786745E+04 0.  0.
        4    1    3    3  502    0 -0.81523917967E+03 -0.64101484042E+03 -0.18492198713E+04  0.21201723258E+04  0.12699999809E+01 0.  1.
       -4    1    3    3    0  502  0.81523917967E+03  0.64101484042E+03  0.11477928062E+04  0.15469146339E+04  0.12699999809E+01 0. -1.
</event>
<event>
 5   0  0.8024500E-09  0.3602555E+04  0.7818609E-02  0.8089907E-01
        1   -1    0    0  501    0  0.00000000000E+00  0.00000000000E+00  0.21461482648E+04  0.21461482648E+04  0.50400001928E-02 0.  1.
       -1   -1    0    0    0  501  0.00000000000E+00  0.00000000000E+00 -0.15118249012E+04  0.15118249012E+04  0.50400001928E-02 0. -1.
    10030    2    1    2    0    0  0.00000000000E+00  0.00000000000E+00  0.63432336356E+03  0.36579731660E+04  0.36025548648E+04 0.  0.
        1    1    3    3  502    0 -0.16232052810E+04 -0.53423851951E+03 -0.26115598240E+03  0.17287014280E+04  0.50400001928E-02 0. -1.
       -1    1    3    3    0  502  0.16232052810E+04  0.53423851951E+03  0.89547934596E+03  0.19292717380E+04  0.50400001928E-02 0.  1.
</event>
<event>
 5   0  0.2476968E-08  0.3602350E+04  0.7818609E-02  0.8089954E-01
        2   -1    0    0  501    0  0.00000000000E+00  0.00000000000E+00  0.19827002150E+04  0.19827002150E+04  0.25500000920E-02 0.  1.
       -2   -1    0    0    0  501  0.00000000000E+00  0.00000000000E+00 -0.16362691794E+04  0.16362691794E+04  0.25500000920E-02 0. -1.
    10030    2    1    2    0    0  0.00000000000E+00  0.00000000000E+00  0.34643103566E+03  0.36189693944E+04  0.36023499296E+04 0.  0.
        2    1    3    3  502    0  0.41123274732E+03 -0.11819380215E+04  0.14746229657E+04  0.19340637916E+04  0.25500000920E-02 0.  1.
       -2    1    3    3    0  502 -0.41123274732E+03  0.11819380215E+04 -0.11281919301E+04  0.16849056028E+04  0.25500000920E-02 0. -1.
</event>
<event>
 5   0  0.8024500E-09  0.3600697E+04  0.7818609E-02  0.8090332E-01
       -1   -1    0    0    0  501  0.00000000000E+00  0.00000000000E+00  0.20715295951E+04  0.20715295951E+04  0.50400001928E-02 0. -1.
        1   -1    0    0  501    0  0.00000000000E+00  0.00000000000E+00 -0.15646675231E+04  0.15646675231E+04  0.50400001928E-02 0.  1.
    10030    2    1    2    0    0  0.00000000000E+00  0.00000000000E+00  0.50686207202E+03  0.36361971182E+04  0.36006971995E+04 0.  0.
        5    1    3    3  502    0 -0.68811035704E+03 -0.95335061299E+03 -0.11234110339E+04  0.16261757888E+04  0.46999998093E+01 0.  1.
       -5    1    3    3    0  502  0.68811035704E+03  0.95335061299E+03  0.16302731060E+04  0.20100213294E+04  0.46999998093E+01 0. -1.
</event>
<event>
 5   0  0.8024500E-09  0.3601008E+04  0.7818609E-02  0.8090261E-01
        1   -1    0    0  501    0  0.00000000000E+00  0.00000000000E+00  0.31594598759E+04  0.31594598759E+04  0.50400001928E-02 0. -1.
       -1   -1    0    0    0  501  0.00000000000E+00  0.00000000000E+00 -0.10260659949E+04  0.10260659949E+04  0.50400001928E-02 0.  1.
    10030    2    1    2    0    0  0.00000000000E+00  0.00000000000E+00  0.21333938810E+04  0.41855258708E+04  0.36010078260E+04 0.  0.
        1    1    3    3  502    0  0.17768224103E+04  0.27135146496E+03  0.11890714000E+04  0.21551381138E+04  0.50400001928E-02 0. -1.
       -1    1    3    3    0  502 -0.17768224103E+04 -0.27135146496E+03  0.94432248100E+03  0.20303877569E+04  0.50400001928E-02 0.  1.
</event>
<event>
 5   0  0.8024500E-09  0.3600413E+04  0.7818609E-02  0.8090397E-01
        1   -1    0    0  501    0  0.00000000000E+00  0.00000000000E+00  0.22476328215E+04  0.22476328215E+04  0.50400001928E-02 0.  1.
       -1   -1    0    0    0  501  0.00000000000E+00  0.00000000000E+00 -0.14418472539E+04  0.14418472539E+04  0.50400001928E-02 0. -1.
    10030    2    1    2    0    0  0.00000000000E+00  0.00000000000E+00  0.80578556752E+03  0.36894800754E+04  0.36004128716E+04 0.  0.
        5    1    3    3  502    0 -0.52984988743E+02 -0.15348300458E+03  0.22401074213E+04  0.22459892677E+04  0.46999998093E+01 0.  1.
       -5    1    3    3    0  502  0.52984988743E+02  0.15348300458E+03 -0.14343218538E+04  0.14434908077E+04  0.46999998093E+01 0. -1.
</event>
<event>
 5   0  0.2494592E-08  0.3599417E+04  0.7818609E-02  0.8090625E-01
       -2   -1    0    0    0  501  0.00000000000E+00  0.00000000000E+00  0.12323963045E+04  0.12323963045E+04  0.25500000920E-02 0. -1.
        2   -1    0    0  501    0  0.00000000000E+00  0.00000000000E+00 -0.26281731659E+04  0.26281731659E+04  0.25500000920E-02 0.  1.
    10030    2    1    2    0    0  0.00000000000E+00  0.00000000000E+00 -0.13957768614E+04  0.38605694703E+04  0.35994171179E+04 0.  0.
        1    1    3    3  502    0 -0.74719757376E+03  0.46773662505E+03 -0.23807627213E+04  0.25387226906E+04  0.50400001928E-02 0.  1.
       -1    1    3    3    0  502  0.74719757376E+03 -0.46773662505E+03  0.98498585995E+03  0.13218467797E+04  0.50400001928E-02 0. -1.
</event>
<event>
 5   0  0.2608070E-08  0.3602168E+04  0.7818609E-02  0.8089995E-01
       -2   -1    0    0    0  501  0.00000000000E+00  0.00000000000E+00  0.15559253583E+04  0.15559253583E+04  0.25500000920E-02 0. -1.
        2   -1    0    0  501    0  0.00000000000E+00  0.00000000000E+00 -0.20848711051E+04  0.20848711051E+04  0.25500000920E-02 0.  1.
    10030    2    1    2    0    0  0.00000000000E+00  0.00000000000E+00 -0.52894574676E+03  0.36407964634E+04  0.36021681367E+04 0.  0.
        3    1    3    3  502    0  0.30537324461E+02  0.33220957888E+03  0.15244246059E+04  0.15605018814E+04  0.10100000352E+00 0. -1.
       -3    1    3    3    0  502 -0.30537324461E+02 -0.33220957888E+03 -0.20533703527E+04  0.20802945820E+04  0.10100000352E+00 0.  1.
</event>
<event>
 5   0  0.2482243E-08  0.3615380E+04  0.7818609E-02  0.8086978E-01
       -2   -1    0    0    0  501  0.00000000000E+00  0.00000000000E+00  0.12992243430E+04  0.12992243431E+04  0.25500000920E-02 0.  1.
        2   -1    0    0  501    0  0.00000000000E+00  0.00000000000E+00 -0.25151496388E+04  0.25151496388E+04  0.25500000920E-02 0. -1.
    10030    2    1    2    0    0  0.00000000000E+00  0.00000000000E+00 -0.12159252958E+04  0.38143739819E+04  0.36153802772E+04 0.  0.
        5    1    3    3  502    0 -0.35284492081E+03  0.17720269602E+04 -0.66710577193E+03  0.19260403129E+04  0.46999998093E+01 0. -1.
       -5    1    3    3    0  502  0.35284492081E+03 -0.17720269602E+04 -0.54881952387E+03  0.18883336690E+04  0.46999998093E+01 0.  1.
</event>
<event>
 5   0  0.8024500E-09  0.3591491E+04  0.7818609E-02  0.8092443E-01
       -1   -1    0    0    0  501  0.00000000000E+00  0.00000000000E+00  0.15458871862E+04  0.15458871862E+04  0.50400001928E-02 0.  1.
        1   -1    0    0  501    0  0.00000000000E+00  0.00000000000E+00 -0.20859884166E+04  0.20859884166E+04  0.50400001928E-02 0. -1.
    10030    2    1    2    0    0  0.00000000000E+00  0.00000000000E+00 -0.54010123039E+03  0.36318756028E+04  0.35914914806E+04 0.  0.
        5    1    3    3  502    0  0.28381206654E+03 -0.13149429445E+04  0.93288672231E+03  0.16370473307E+04  0.46999998093E+01 0.  1.
       -5    1    3    3    0  502 -0.28381206654E+03  0.13149429445E+04 -0.14729879527E+04  0.19948282721E+04  0.46999998093E+01 0. -1.
</event>
<event>
 5   0  0.2608070E-08  0.3600707E+04  0.7818609E-02  0.8090330E-01
        2   -1    0    0  501    0  0.00000000000E+00  0.00000000000E+00  0.19175125792E+04  0.19175125792E+04  0.25500000920E-02 0. -1.
       -2   -1    0    0    0  501  0.00000000000E+00  0.00000000000E+00 -0.16903530967E+04  0.16903530967E+04  0.25500000920E-02 0.  1.
    10030    2    1    2    0    0  0.00000000000E+00  0.00000000000E+00  0.22715948254E+03  0.36078656759E+04  0.36007073339E+04 0.  0.
        3    1    3    3  502    0  0.13525677654E+04  0.37955988412E+03  0.12417702404E+04  0.18749662946E+04  0.10100000352E+00 0. -1.
       -3    1    3    3    0  502 -0.13525677654E+04 -0.37955988412E+03 -0.10146107579E+04  0.17328993813E+04  0.10100000352E+00 0.  1.
</event>
<event>
 5   0  0.2590795E-08  0.3600769E+04  0.7818609E-02  0.8090316E-01
       -2   -1    0    0    0  501  0.00000000000E+00  0.00000000000E+00  0.25395865526E+04  0.25395865526E+04  0.25500000920E-02 0.  1.
        2   -1    0    0  501    0  0.00000000000E+00  0.00000000000E+00 -0.12763432222E+04  0.12763432222E+04  0.25500000920E-02 0. -1.
    10030    2    1    2    0    0  0.00000000000E+00  0.00000000000E+00  0.12632433305E+04  0.38159297748E+04  0.36007688532E+04 0.  0.
        4    1    3    3  502    0 -0.17392054866E+04 -0.33474449937E+03  0.97419097371E+03  0.20213706416E+04  0.12699999809E+01 0. -1.
       -4    1    3    3    0  502  0.17392054866E+04  0.33474449937E+03  0.28905235676E+03  0.17945591332E+04  0.12699999809E+01 0.  1.
</event>
<event>
 5   0  0.2482243E-08  0.3599173E+04  0.7818609E-02  0.8090681E-01
       -2   -1    0    0    0  501  0.00000000000E+00  0.00000000000E+00  0.14664221846E+04  0.14664221846E+04  0.25500000920E-02 0.  1.
        2   -1    0    0  501    0  0.00000000000E+00  0.00000000000E+00 -0.22084445453E+04  0.22084445453E+04  0.25500000920E-02 0. -1.
    10030    2    1    2    0    0  0.00000000000E+00  0.00000000000E+00 -0.74202236071E+03  0.36748667299E+04  0.35991732799E+04 0.  0.
        5    1    3    3  502    0  0.75385195739E+03 -0.63869183663E+03 -0.19067276830E+04  0.21475224290E+04  0.46999998093E+01 0. -1.
       -5    1    3    3    0  502 -0.75385195739E+03  0.63869183663E+03  0.11647053223E+04  0.15273443009E+04  0.46999998093E+01 0.  1.
</event>
<event>
 5   0  0.8024500E-09  0.3595687E+04  0.7818609E-02  0.8091480E-01
        1   -1    0    0  501    0  0.00000000000E+00  0.00000000000E+00  0.13599919767E+04  0.13599919768E+04  0.50400001928E-02 0.  1.
       -1   -1    0    0    0  501  0.00000000000E+00  0.00000000000E+00 -0.23766619605E+04  0.23766619605E+04  0.50400001928E-02 0. -1.
    10030    2    1    2    0    0  0.00000000000E+00  0.00000000000E+00 -0.10166699837E+04  0.37366539372E+04  0.35956869706E+04 0.  0.
        5    1    3    3  502    0  0.96260198244E+03 -0.14020386452E+04 -0.11142047109E+04  0.20331721932E+04  0.46999998093E+01 0. -1.
       -5    1    3    3    0  502 -0.96260198244E+03  0.14020386452E+04  0.97534727185E+02  0.17034817440E+04  0.46999998093E+01 0.  1.
</event>
<event>
 5   0  0.2608070E-08  0.3597980E+04  0.7818609E-02  0.8090955E-01
       -2   -1    0    0    0  501  0.00000000000E+00  0.00000000000E+00  0.30374983434E+04  0.30374983434E+04  0.25500000920E-02 0. -1.
        2   -1    0    0  501    0  0.00000000000E+00  0.00000000000E+00 -0.10654704911E+04  0.10654704911E+04  0.25500000920E-02 0.  1.
    10030    2    1    2    0    0  0.00000000000E+00  0.00000000000E+00  0.19720278523E+04  0.41029688345E+04  0.35979799064E+04 0.  0.
        3    1    3    3  502    0  0.91081763782E+03 -0.97422484408E+03 -0.39077671266E+03  0.13897515122E+04  0.10100000352E+00 0.  1.
       -3    1    3    3    0  502 -0.91081763782E+03  0.97422484408E+03  0.23628045649E+04  0.27132173224E+04  0.10100000352E+00 0. -1.
</event>
<event>
 5   0  0.2494592E-08  0.3600993E+04  0.7818609E-02  0.8090264E-01
       -2   -1    0    0    0  501  0.00000000000E+00  0.00000000000E+00  0.11127430610E+04  0.11127430610E+04  0.25500000920E-02 0. -1.
        2   -1    0    0  501    0  0.00000000000E+00  0.00000000000E+00 -0.29133297062E+04  0.29133297062E+04  0.25500000920E-02 0.  1.
    10030    2    1    2    0    0  0.00000000000E+00  0.00000000000E+00 -0.18005866452E+04  0.40260727672E+04  0.36009928714E+04 0.  0.
        1    1    3    3  502    0  0.47827827238E+03  0.73861387241E+03 -0.26565451229E+04  0.27984875466E+04  0.50400001928E-02 0.  1.
       -1    1    3    3    0  502 -0.47827827238E+03 -0.73861387241E+03  0.85595847767E+03  0.12275852206E+04  0.50400001928E-02 0. -1.
</event>
<event>
 5   0  0.2590795E-08  0.3599020E+04  0.7818609E-02  0.8090716E-01
       -2   -1    0    0    0  501  0.00000000000E+00  0.00000000000E+00  0.12558501193E+04  0.12558501193E+04  0.25500000920E-02 0. -1.
        2   -1    0    0  501    0  0.00000000000E+00  0.00000000000E+00 -0.25785210165E+04  0.25785210165E+04  0.25500000920E-02 0.  1.
    10030    2    1    2    0    0  0.00000000000E+00  0.00000000000E+00 -0.13226708971E+04  0.38343711358E+04  0.35990198256E+04 0.  0.
        4    1    3    3  502    0 -0.12559929838E+04 -0.10770091230E+04  0.92589097092E+02  0.16571183965E+04  0.12699999809E+01 0. -1.
       -4    1    3    3    0  502  0.12559929838E+04  0.10770091230E+04 -0.14152599942E+04  0.21772527392E+04  0.12699999809E+01 0.  1.
</event>
<event>
 5   0  0.2494592E-08  0.3600001E+04  0.7818609E-02  0.8090491E-01
       -2   -1    0    0    0  501  0.00000000000E+00  0.00000000000E+00  0.24408319627E+04  0.24408319627E+04  0.25500000920E-02 0.  1.
        2   -1    0    0  501    0  0.00000000000E+00  0.00000000000E+00 -0.13274171419E+04  0.13274171419E+04  0.25500000920E-02 0. -1.
    10030    2    1    2    0    0  0.00000000000E+00  0.00000000000E+00  0.11134148208E+04  0.37682491046E+04  0.36000012155E+04 0.  0.
        1    1    3    3  502    0  0.21051288297E+03 -0.16795148180E+04  0.11976280072E+04  0.20734991058E+04  0.50400001928E-02 0.  1.
       -1    1    3    3    0  502 -0.21051288297E+03  0.16795148180E+04 -0.84213186389E+02  0.16947499989E+04  0.50400001928E-02 0. -1.
</event>
<event>
 5   0  0.2608070E-08  0.3599505E+04  0.7818609E-02  0.8090605E-01
        2   -1    0    0  501    0  0.00000000000E+00  0.00000000000E+00  0.25096971683E+04  0.25096971683E+04  0.25500000920E-02 0. -1.
       -2   -1    0    0    0  501  0.00000000000E+00  0.00000000000E+00 -0.12906374607E+04  0.12906374607E+04  0.25500000920E-02 0.  1.
    10030    2    1    2    0    0  0.00000000000E+00  0.00000000000E+00  0.12190597076E+04  0.38003346291E+04  0.35995050663E+04 0.  0.
        3    1    3    3  502    0 -0.11260550841E+03  0.10945410455E+04 -0.89415498785E+03  0.14178198946E+04  0.10100000352E+00 0.  1.
       -3    1    3    3    0  502  0.11260550841E+03 -0.10945410455E+04  0.21132146955E+04  0.23825147345E+04  0.10100000352E+00 0. -1.
</event>
<event>
 5   0  0.2476968E-08  0.3598997E+04  0.7818609E-02  0.8090721E-01
       -2   -1    0    0    0  501  0.00000000000E+00  0.00000000000E+00  0.11090060137E+04  0.11090060137E+04  0.25500000920E-02 0. -1.
        2   -1    0    0  501    0  0.00000000000E+00  0.00000000000E+00 -0.29199074031E+04  0.29199074031E+04  0.25500000920E-02 0.  1.
    10030    2    1    2    0    0  0.00000000000E+00  0.00000000000E+00 -0.18109013895E+04  0.40289134168E+04  0.35989970100E+04 0.  0.
        2    1    3    3  502    0  0.72523357828E+03  0.32946267956E+03 -0.27117957232E+04  0.28263661201E+04  0.25500000920E-02 0.  1.
       -2    1    3    3    0  502 -0.72523357828E+03 -0.32946267956E+03  0.90089433374E+03  0.12025472967E+04  0.25500000920E-02 0. -1.
</event>
<event>
 5   0  0.2494592E-08  0.3594847E+04  0.7818609E-02  0.8091673E-01
       -2   -1    0    0    0  501  0.00000000000E+00  0.00000000000E+00  0.17427251518E+04  0.17427251518E+04  0.25500000920E-02 0. -1.
        2   -1    0    0  501    0  0.00000000000E+00  0.00000000000E+00 -0.18538383305E+04  0.18538383305E+04  0.25500000920E-02 0.  1.
    10030    2    1    2    0    0  0.00000000000E+00  0.00000000000E+00 -0.11111317868E+03  0.35965634823E+04  0.35948466927E+04 0.  0.
        1    1    3    3  502    0 -0.59616746534E+03 -0.15216171267E+04  0.69312983437E+03  0.17751516258E+04  0.50400001928E-02 0. -1.
       -1    1    3    3    0  502  0.59616746534E+03  0.15216171267E+04 -0.80424301304E+03  0.18214118565E+04  0.50400001928E-02 0.  1.
</event>
<event>
 5   0  0.2476968E-08  0.3598745E+04  0.7818609E-02  0.8090779E-01
        2   -1    0    0  501    0  0.00000000000E+00  0.00000000000E+00  0.18039656982E+04  0.18039656982E+04  0.25500000920E-02 0. -1.
       -2   -1    0    0    0  501  0.00000000000E+00  0.00000000000E+00 -0.17947912455E+04  0.17947912455E+04  0.25500000920E-02 0.  1.
    10030    2    1    2    0    0  0.00000000000E+00  0.00000000000E+00  0.91744526902E+01  0.35987569436E+04  0.35987452492E+04 0.  0.
        2    1    3    3  502    0 -0.13501959033E+04  0.11401630892E+04 -0.33414827598E+03  0.17985149201E+04  0.25500000920E-02 0.  1.
       -2    1    3    3    0  502  0.13501959033E+04 -0.11401630892E+04  0.34332272867E+03  0.18002420236E+04  0.25500000920E-02 0. -1.
</event>
<event>
 5   0  0.8024500E-09  0.3599785E+04  0.7818609E-02  0.8090541E-01
        1   -1    0    0  501    0  0.00000000000E+00  0.00000000000E+00  0.18338534456E+04  0.18338534456E+04  0.50400001928E-02 0. -1.
       -1   -1    0    0    0  501  0.00000000000E+00  0.00000000000E+00 -0.17665608555E+04  0.17665608555E+04  0.50400001928E-02 0.  1.
    10030    2    1    2    0    0  0.00000000000E+00  0.00000000000E+00  0.67292590067E+02  0.36004143011E+04  0.35997853890E+04 0.  0.
        1    1    3    3  502    0  0.13856664083E+04  0.63097081809E+03  0.99371927675E+03  0.18181511404E+04  0.50400001928E-02 0. -1.
       -1    1    3    3    0  502 -0.13856664083E+04 -0.63097081809E+03 -0.92642668669E+03  0.17822631607E+04  0.50400001928E-02 0.  1.
</event>
<event>
 5   0  0.8063410E-09  0.3597164E+04  0.7818609E-02  0.8091142E-01
       -1   -1    0    0    0  501  0.00000000000E+00  0.00000000000E+00  0.27293461356E+04  0.27293461356E+04  0.50400001928E-02 0.  1.
        1   -1    0    0  501    0  0.00000000000E+00  0.00000000000E+00 -0.11852281336E+04  0.11852281336E+04  0.50400001928E-02 0. -1.
    10030    2    1    2    0    0  0.00000000000E+00  0.00000000000E+00  0.15441180020E+04  0.39145742692E+04  0.35971643423E+04 0.  0.
        2    1    3    3  502    0 -0.14238321862E+03 -0.17536805475E+04  0.36599947226E+03  0.17971154825E+04  0.25500000920E-02 0.  1.
       -2    1    3    3    0  502  0.14238321862E+03  0.17536805475E+04  0.11781185297E+04  0.21174587868E+04  0.25500000920E-02 0. -1.
</event>
<event>
 5   0  0.8146881E-09  0.3601604E+04  0.7818609E-02  0.8090124E-01
        1   -1    0    0  501    0  0.00000000000E+00  0.00000000000E+00  0.14519367720E+04  0.14519367720E+04  0.50400001928E-02 0. -1.
       -1   -1    0    0    0  501  0.00000000000E+00  0.00000000000E+00 -0.22334906592E+04  0.22334906592E+04  0.50400001928E-02 0.  1.
    10030    2    1    2    0    0  0.00000000000E+00  0.00000000000E+00 -0.78155388725E+03  0.36854274313E+04  0.36016036529E+04 0.  0.
        4    1    3    3  502    0  0.84745478563E+03  0.14710362021E+04 -0.10053877929E+04  0.19730517856E+04  0.12699999809E+01 0.  1.
       -4    1    3    3    0  502 -0.84745478563E+03 -0.14710362021E+04  0.22383390565E+03  0.17123756457E+04  0.12699999809E+01 0. -1.
</event>
<event>
 5   0  0.8024500E-09  0.3599025E+04  0.7818609E-02  0.8090715E-01
        3   -1    0    0  501    0  0.00000000000E+00  0.00000000000E+00  0.94646069412E+03  0.94646069951E+03  0.10100000352E+00 0.  1.
       -3   -1    0    0    0  501  0.00000000000E+00  0.00000000000E+00 -0.34214254229E+04  0.34214254244E+04  0.10100000352E+00 0. -1.
    10030    2    1    2    0    0  0.00000000000E+00  0.00000000000E+00 -0.24749647288E+04  0.43678861239E+04  0.35990246988E+04 0.  0.
        4    1    3    3  502    0 -0.27297731604E+03 -0.94608844896E+03  0.59048976923E+03  0.11481636420E+04  0.12699999809E+01 0.  1.
       -4    1    3    3    0  502  0.27297731604E+03  0.94608844896E+03 -0.30654544980E+04  0.32197224819E+04  0.12699999809E+01 0. -1.
</event>
<event>
 5   0  0.2608070E-08  0.3603394E+04  0.7818609E-02  0.8089715E-01
        2   -1    0    0  501    0  0.00000000000E+00  0.00000000000E+00  0.28662186439E+04  0.28662186439E+04  0.25500000920E-02 0. -1.
       -2   -1    0    0    0  501  0.00000000000E+00  0.00000000000E+00 -0.11325419894E+04  0.11325419894E+04  0.25500000920E-02 0.  1.
    10030    2    1    2    0    0  0.00000000000E+00  0.00000000000E+00  0.17336766545E+04  0.39987606334E+04  0.36033944914E+04 0.  0.
        3    1    3    3  502    0  0.16655060820E+04 -0.27492859557E+03  0.16796397431E+03  0.16963808973E+04  0.10100000352E+00 0.  1.
       -3    1    3    3    0  502 -0.16655060820E+04  0.27492859557E+03  0.15657126802E+04  0.23023797360E+04  0.10100000352E+00 0. -1.
</event>
<event>
 5   0  0.2608070E-08  0.3600136E+04  0.7818609E-02  0.8090460E-01
        2   -1    0    0  501    0  0.00000000000E+00  0.00000000000E+00  0.21707263409E+04  0.21707263409E+04  0.25500000920E-02 0. -1.
       -2   -1    0    0    0  501  0.00000000000E+00  0.00000000000E+00 -0.14927011089E+04  0.14927011089E+04  0.25500000920E-02 0.  1.
    10030    2    1    2    0    0  0.00000000000E+00  0.00000000000E+00  0.67802523199E+03  0.36634274498E+04  0.36001364508E+04 0.  0.
        3    1    3    3  502    0  0.59699508084E+03  0.27924968353E+03 -0.13655061801E+04  0.15162422796E+04  0.10100000352E+00 0.  1.
       -3    1    3    3    0  502 -0.59699508084E+03 -0.27924968353E+03  0.20435314121E+04  0.21471851701E+04  0.10100000352E+00 0. -1.
</event>
<event>
 5   0  0.8247570E-09  0.3611136E+04  0.7818609E-02  0.8087946E-01
        1   -1    0    0  501    0  0.00000000000E+00  0.00000000000E+00  0.11925847085E+04  0.11925847085E+04  0.50400001928E-02 0.  1.
       -1   -1    0    0    0  501  0.00000000000E+00  0.00000000000E+00 -0.27336220992E+04  0.27336220992E+04  0.50400001928E-02 0. -1.
    10030    2    1    2    0    0  0.00000000000E+00  0.00000000000E+00 -0.15410373907E+04  0.39262068077E+04  0.36111360619E+04 0.  0.
        3    1    3    3  502    0 -0.11438071162E+03  0.17909157162E+04 -0.55412088066E+03  0.18781671944E+04  0.10100000352E+00 0.  1.
       -3    1    3    3    0  502  0.11438071162E+03 -0.17909157162E+04 -0.98691651007E+03  0.20480396133E+04  0.10100000352E+00 0. -1.
</event>
<event>
 5   0  0.8146881E-09  0.3596275E+04  0.7818609E-02  0.8091346E-01
       -1   -1    0    0    0  501  0.00000000000E+00  0.00000000000E+00  0.17116267048E+04  0.17116267048E+04  0.50400001928E-02 0. -1.
        1   -1    0    0  501    0  0.00000000000E+00  0.00000000000E+00 -0.18890206234E+04  0.18890206234E+04  0.50400001928E-02 0.  1.
    10030    2    1    2    0    0  0.00000000000E+00  0.00000000000E+00 -0.17739391863E+03  0.36006473282E+04  0.35962748199E+04 0.  0.
        4    1    3    3  502    0  0.82590957958E+03  0.15306580103E+04  0.36820858358E+03  0.17778131938E+04  0.12699999809E+01 0. -1.
       -4    1    3    3    0  502 -0.82590957958E+03 -0.15306580103E+04 -0.54560250221E+03  0.18228341344E+04  0.12699999809E+01 0.  1.
</event>
<event>
 5   0  0.8024500E-09  0.3598274E+04  0.7818609E-02  0.8090887E-01
       -1   -1    0    0    0  501  0.00000000000E+00  0.00000000000E+00  0.10960324891E+04  0.10960324892E+04  0.50400001928E-02 0. -1.
        1   -1    0    0  501    0  0.00000000000E+00  0.00000000000E+00 -0.29532833857E+04  0.29532833857E+04  0.50400001928E-02 0.  1.
    10030    2    1    2    0    0  0.00000000000E+00  0.00000000000E+00 -0.18572508966E+04  0.40493158749E+04  0.35982743311E+04 0.  0.
        5    1    3    3  502    0 -0.11202130906E+03 -0.96502938881E+03 -0.26327188148E+04  0.28062538985E+04  0.46999998093E+01 0.  1.
       -5    1    3    3    0  502  0.11202130906E+03  0.96502938881E+03  0.77546791824E+03  0.12430619764E+04  0.46999998093E+01 0. -1.
</event>
<event>
 5   0  0.2590795E-08  0.3601411E+04  0.7818609E-02  0.8090169E-01
        2   -1    0    0  501    0  0.00000000000E+00  0.00000000000E+00  0.14037687995E+04  0.14037687995E+04  0.25500000920E-02 0. -1.
       -2   -1    0    0    0  501  0.00000000000E+00  0.00000000000E+00 -0.23098822451E+04  0.23098822451E+04  0.25500000920E-02 0.  1.
    10030    2    1    2    0    0  0.00000000000E+00  0.00000000000E+00 -0.90611344562E+03  0.37136510446E+04  0.36014111824E+04 0.  0.
        4    1    3    3  502    0  0.15175771171E+04 -0.59402212166E+03  0.33673558012E+03  0.16641199029E+04  0.12699999809E+01 0. -1.
       -4    1    3    3    0  502 -0.15175771171E+04  0.59402212166E+03 -0.12428490257E+04  0.20495311418E+04  0.12699999809E+01 0.  1.
</event>
<event>
 5   0  0.2590795E-08  0.3597450E+04  0.7818609E-02  0.8091076E-01
       -2   -1    0    0    0  501  0.00000000000E+00  0.00000000000E+00  0.16459187610E+04  0.16459187610E+04  0.25500000920E-02 0.  1.
        2   -1    0    0  501    0  0.00000000000E+00  0.00000000000E+00 -0.19657175938E+04  0.19657175938E+04  0.25500000920E-02 0. -1.
    10030    2    1    2    0    0  0.00000000000E+00  0.00000000000E+00 -0.31979883287E+03  0.36116363548E+04  0.35974499115E+04 0.  0.
        4    1    3    3  502    0  0.99106308118E+03  0.65080104802E+02 -0.16654693632E+04  0.19391315746E+04  0.12699999809E+01 0. -1.
       -4    1    3    3    0  502 -0.99106308118E+03 -0.65080104802E+02  0.13456705303E+04  0.16725047802E+04  0.12699999809E+01 0.  1.
</event>
<event>
 5   0  0.2608070E-08  0.3600350E+04  0.7818609E-02  0.8090411E-01
       -2   -1    0    0    0  501  0.00000000000E+00  0.00000000000E+00  0.17066101259E+04  0.17066101260E+04  0.25500000920E-02 0.  1.
        2   -1    0    0  501    0  0.00000000000E+00  0.00000000000E+00 -0.18988699323E+04  0.18988699323E+04  0.25500000920E-02 0. -1.
    10030    2    1    2    0    0  0.00000000000E+00  0.00000000000E+00 -0.19225980636E+03  0.36054800583E+04  0.36003503465E+04 0.  0.
        3    1    3    3  502    0 -0.33579255833E+03 -0.26652582437E+03 -0.18470024980E+04  0.18961041362E+04  0.10100000352E+00 0. -1.
       -3    1    3    3    0  502  0.33579255833E+03  0.26652582437E+03  0.16547426917E+04  0.17093759221E+04  0.10100000352E+00 0.  1.
</event>
<event>
 5   0  0.8024500E-09  0.3599269E+04  0.7818609E-02  0.8090659E-01
       -1   -1    0    0    0  501  0.00000000000E+00  0.00000000000E+00  0.91687557108E+03  0.91687557110E+03  0.50400001928E-02 0. -1.
        1   -1    0    0  501    0  0.00000000000E+00  0.00000000000E+00 -0.35323050965E+04  0.35323050965E+04  0.50400001928E-02 0.  1.
    10030    2    1    2    0    0  0.00000000000E+00  0.00000000000E+00 -0.26154295255E+04  0.44491806676E+04  0.35992689550E+04 0.  0.
        1    1    3    3  502    0  0.17830741061E+04 -0.82836286492E+02 -0.15908654963E+04  0.23910391351E+04  0.50400001928E-02 0.  1.
       -1    1    3    3    0  502 -0.17830741061E+04  0.82836286492E+02 -0.10245640292E+04  0.20581415326E+04  0.50400001928E-02 0. -1.
</event>
<event>
 5   0  0.2590795E-08  0.3601836E+04  0.7818609E-02  0.8090071E-01
        2   -1    0    0  501    0  0.00000000000E+00  0.00000000000E+00  0.26557773605E+04  0.26557773605E+04  0.25500000920E-02 0. -1.
       -2   -1    0    0    0  501  0.00000000000E+00  0.00000000000E+00 -0.12212267133E+04  0.12212267133E+04  0.25500000920E-02 0.  1.
    10030    2    1    2    0    0  0.00000000000E+00  0.00000000000E+00  0.14345506472E+04  0.38770040738E+04  0.36018363412E+04 0.  0.
        4    1    3    3  502    0 -0.28273690700E+03 -0.18822897357E+03  0.26209866581E+04  0.26429042699E+04  0.12699999809E+01 0. -1.
       -4    1    3    3    0  502  0.28273690700E+03  0.18822897357E+03 -0.11864360109E+04  0.12340998039E+04  0.12699999809E+01 0.  1.
</event>
<event>
 5   0  0.8146881E-09  0.3599456E+04  0.7818609E-02  0.8090616E-01
        1   -1    0    0  501    0  0.00000000000E+00  0.00000000000E+00  0.21151971849E+04  0.21151971849E+04  0.50400001928E-02 0.  1.
       -1   -1    0    0    0  501  0.00000000000E+00  0.00000000000E+00 -0.15313093626E+04  0.15313093626E+04  0.50400001928E-02 0. -1.
    10030    2    1    2    0    0  0.00000000000E+00  0.00000000000E+00  0.58388782232E+03  0.36465065475E+04  0.35994562105E+04 0.  0.
        4    1    3    3  502    0  0.24863766421E+03  0.11146839339E+04  0.17010527077E+04  0.20488833270E+04  0.12699999809E+01 0.  1.
       -4    1    3    3    0  502 -0.24863766421E+03 -0.11146839339E+04 -0.11171648853E+04  0.15976232204E+04  0.12699999809E+01 0. -1.
</event>
<event>
 5   0  0.2494592E-08  0.3603509E+04  0.7818609E-02  0.8089688E-01
        2   -1    0    0  501    0  0.00000000000E+00  0.00000000000E+00  0.16069610772E+04  0.16069610772E+04  0.25500000920E-02 0. -1.
       -2   -1    0    0    0  501  0.00000000000E+00  0.00000000000E+00 -0.20201601551E+04  0.20201601551E+04  0.25500000920E-02 0.  1.
    10030    2    1    2    0    0  0.00000000000E+00  0.00000000000E+00 -0.41319907786E+03  0.36271212323E+04  0.36035087007E+04 0.  0.
        1    1    3    3  502    0 -0.64127148048E+03 -0.72454695365E+03  0.13232682211E+04  0.16392791662E+04  0.50400001928E-02 0. -1.
       -1    1    3    3    0  502  0.64127148048E+03  0.72454695365E+03 -0.17364672989E+04  0.19878420661E+04  0.50400001928E-02 0.  1.
</event>
<event>
 5   0  0.2482243E-08  0.3600262E+04  0.7818609E-02  0.8090432E-01
        2   -1    0    0  501    0  0.00000000000E+00  0.00000000000E+00  0.13667169909E+04  0.13667169909E+04  0.25500000920E-02 0. -1.
       -2   -1    0    0    0  501  0.00000000000E+00  0.00000000000E+00 -0.23709891790E+04  0.23709891790E+04  0.25500000920E-02 0.  1.
    10030    2    1    2    0    0  0.00000000000E+00  0.00000000000E+00 -0.10042721882E+04  0.37377061699E+04  0.36002617661E+04 0.  0.
        5    1    3    3  502    0 -0.55178445148E+03 -0.10388386433E+04  0.91252798732E+03  0.14887515660E+04  0.46999998093E+01 0. -1.
       -5    1    3    3    0  502  0.55178445148E+03  0.10388386433E+04 -0.19168001755E+04  0.22489546039E+04  0.46999998093E+01 0.  1.
</event>
<event>
 5   0  0.8024500E-09  0.3609209E+04  0.7818609E-02  0.8088385E-01
        1   -1    0    0  501    0  0.00000000000E+00  0.00000000000E+00  0.19496938498E+04  0.19496938498E+04  0.50400001928E-02 0.  1.
       -1   -1    0    0    0  501  0.00000000000E+00  0.00000000000E+00 -0.16703123606E+04  0.16703123606E+04  0.50400001928E-02 0. -1.
    10030    2    1    2    0    0  0.00000000000E+00  0.00000000000E+00  0.27938148920E+03  0.36200062103E+04  0.36092091857E+04 0.  0.
        1    1    3    3  502    0 -0.85881502132E+03 -0.15413231114E+04 -0.24006780931E+03  0.17806944509E+04  0.50400001928E-02 0. -1.
       -1    1    3    3    0  502  0.85881502132E+03  0.15413231114E+04  0.51944929851E+03  0.18393117594E+04  0.50400001928E-02 0.  1.
</event>
<event>
 5   0  0.8024500E-09  0.3597575E+04  0.7818609E-02  0.8091047E-01
       -1   -1    0    0    0  501  0.00000000000E+00  0.00000000000E+00  0.13406643237E+04  0.13406643238E+04  0.50400001928E-02 0.  1.
        1   -1    0    0  501    0  0.00000000000E+00  0.00000000000E+00 -0.24134576102E+04  0.24134576102E+04  0.50400001928E-02 0. -1.
    10030    2    1    2    0    0  0.00000000000E+00  0.00000000000E+00 -0.10727932865E+04  0.37541219340E+04  0.35975750249E+04 0.  0.
        1    1    3    3  502    0  0.99092113172E+03 -0.50771426137E+03 -0.20106497241E+04  0.22983495760E+04  0.50400001928E-02 0. -1.
       -1    1    3    3    0  502 -0.99092113172E+03  0.50771426137E+03  0.93785643765E+03  0.14557723579E+04  0.50400001928E-02 0.  1.
</event>
<event>
 5   0  0.8146881E-09  0.3599350E+04  0.7818609E-02  0.8090641E-01
       -1   -1    0    0    0  501  0.00000000000E+00  0.00000000000E+00  0.18326175531E+04  0.18326175531E+04  0.50400001928E-02 0.  1.
        1   -1    0    0  501    0  0.00000000000E+00  0.00000000000E+00 -0.17673248044E+04  0.17673248044E+04  0.50400001928E-02 0. -1.
    10030    2    1    2    0    0  0.00000000000E+00  0.00000000000E+00  0.65292748690E+02  0.35999423575E+04  0.35993501961E+04 0.  0.
        4    1    3    3  502    0  0.12818643211E+04 -0.27854258535E+03 -0.11996548383E+04  0.17776207283E+04  0.12699999809E+01 0. -1.
       -4    1    3    3    0  502 -0.12818643211E+04  0.27854258535E+03  0.12649475870E+04  0.18223216292E+04  0.12699999809E+01 0.  1.
</event>
<event>
 5   0  0.2590795E-08  0.3601906E+04  0.7818609E-02  0.8090055E-01
        2   -1    0    0  501    0  0.00000000000E+00  0.00000000000E+00  0.11410600898E+04  0.11410600898E+04  0.25500000920E-02 0. -1.
       -2   -1    0    0    0  501  0.00000000000E+00  0.00000000000E+00 -0.28424729421E+04  0.28424729421E+04  0.25500000920E-02 0.  1.
    10030    2    1    2    0    0  0.00000000000E+00  0.00000000000E+00 -0.17014128523E+04  0.39835330319E+04  0.36019064010E+04 0.  0.
        4    1    3    3  502    0  0.35729984512E+03 -0.17402609405E+04 -0.52401152792E+03  0.18522313610E+04  0.12699999809E+01 0.  1.
       -4    1    3    3    0  502 -0.35729984512E+03  0.17402609405E+04 -0.11774013244E+04  0.21313016708E+04  0.12699999809E+01 0. -1.
</event>
<event>
 5   0  0.8024500E-09  0.3600301E+04  0.7818609E-02  0.8090423E-01
        1   -1    0    0  501    0  0.00000000000E+00  0.00000000000E+00  0.23555732840E+04  0.23555732840E+04  0.50400001928E-02 0. -1.
       -1   -1    0    0    0  501  0.00000000000E+00  0.00000000000E+00 -0.13756913927E+04  0.13756913927E+04  0.50400001928E-02 0.  1.
    10030    2    1    2    0    0  0.00000000000E+00  0.00000000000E+00  0.97988189131E+03  0.37312646766E+04  0.36003010383E+04 0.  0.
        1    1    3    3  502    0 -0.71184922339E+02 -0.17808872042E+04  0.22792973388E+03  0.17968245576E+04  0.50400001928E-02 0.  1.
       -1    1    3    3    0  502  0.71184922339E+02  0.17808872042E+04  0.75195215743E+03  0.19344401191E+04  0.50400001928E-02 0. -1.
</event>
<event>
 5   0  0.2494592E-08  0.3600515E+04  0.7818609E-02  0.8090374E-01
       -2   -1    0    0    0  501  0.00000000000E+00  0.00000000000E+00  0.10056362512E+04  0.10056362512E+04  0.25500000920E-02 0. -1.
        2   -1    0    0  501    0  0.00000000000E+00  0.00000000000E+00 -0.32227622606E+04  0.32227622606E+04  0.25500000920E-02 0.  1.
    10030    2    1    2    0    0  0.00000000000E+00  0.00000000000E+00 -0.22171260094E+04  0.42283985118E+04  0.36005147178E+04 0.  0.
        1    1    3    3  502    0  0.15023830509E+04 -0.91407956483E+03 -0.15607101353E+04  0.23512788879E+04  0.50400001928E-02 0.  1.
       -1    1    3    3    0  502 -0.15023830509E+04  0.91407956483E+03 -0.65641587417E+03  0.18771196239E+04  0.50400001928E-02 0. -1.
</event>
<event>
 5   0  0.8024500E-09  0.3601525E+04  0.7818609E-02  0.8090142E-01
       -3   -1    0    0    0  501  0.00000000000E+00  0.00000000000E+00  0.11138747516E+04  0.11138747561E+04  0.10100000352E+00 0.  1.
        3   -1    0    0  501    0  0.00000000000E+00  0.00000000000E+00 -0.29112302204E+04  0.29112302221E+04  0.10100000352E+00 0. -1.
    10030    2    1    2    0    0  0.00000000000E+00  0.00000000000E+00 -0.17973554688E+04  0.40251049783E+04  0.36015251498E+04 0.  0.
        4    1    3    3  502    0 -0.12405258069E+03  0.16802346568E+04 -0.16091890854E+04  0.23298215962E+04  0.12699999809E+01 0. -1.
       -4    1    3    3    0  502  0.12405258069E+03 -0.16802346568E+04 -0.18816638337E+03  0.16952833820E+04  0.12699999809E+01 0.  1.
</event>
<event>
 5   0  0.2608070E-08  0.3600130E+04  0.7818609E-02  0.8090462E-01
        2   -1    0    0  501    0  0.00000000000E+00  0.00000000000E+00  0.23556494919E+04  0.23556494919E+04  0.25500000920E-02 0. -1.
       -2   -1    0    0    0  501  0.00000000000E+00  0.00000000000E+00 -0.13755160030E+04  0.13755160030E+04  0.25500000920E-02 0.  1.
    10030    2    1    2    0    0  0.00000000000E+00  0.00000000000E+00  0.98013348887E+03  0.37311654949E+04  0.36001297607E+04 0.  0.
        3    1    3    3  502    0 -0.15300303129E+04 -0.55146864195E+03  0.12895875640E+04  0.20756075055E+04  0.10100000352E+00 0. -1.
       -3    1    3    3    0  502  0.15300303129E+04  0.55146864195E+03 -0.30945407517E+03  0.16555579894E+04  0.10100000352E+00 0.  1.
</event>
<event>
 5   0  0.8024500E-09  0.3600357E+04  0.7818609E-02  0.8090410E-01
        1   -1    0    0  501    0  0.00000000000E+00  0.00000000000E+00  0.25253033641E+04  0.25253033641E+04  0.50400001928E-02 0. -1.
       -1   -1    0    0    0  501  0.00000000000E+00  0.00000000000E+00 -0.12832687594E+04  0.12832687594E+04  0.50400001928E-02 0.  1.
    10030    2    1    2    0    0  0.00000000000E+00  0.00000000000E+00  0.12420346047E+04  0.38085721235E+04  0.36003571573E+04 0.  0.
        1    1    3    3  502    0 -0.18637250888E+03 -0.16752816288E+04  0.12894963891E+04  0.21222874889E+04  0.50400001928E-02 0. -1.
       -1    1    3    3    0  502  0.18637250888E+03  0.16752816288E+04 -0.47461784389E+02  0.16862846346E+04  0.50400001928E-02 0.  1.
</event>
<event>
 5   0  0.8024500E-09  0.3596129E+04  0.7818609E-02  0.8091379E-01
        3   -1    0    0  501    0  0.00000000000E+00  0.00000000000E+00  0.19542716850E+04  0.19542716876E+04  0.10100000352E+00 0. -1.
       -3   -1    0    0    0  501  0.00000000000E+00  0.00000000000E+00 -0.16543431723E+04  0.16543431753E+04  0.10100000352E+00 0.  1.
    10030    2    1    2    0    0  0.00000000000E+00  0.00000000000E+00  0.29992851272E+03  0.36086148629E+04  0.35961290461E+04 0.  0.
        4    1    3    3  502    0 -0.71128765366E+03  0.11300157734E+03 -0.15032798520E+04  0.16668987399E+04  0.12699999809E+01 0.  1.
       -4    1    3    3    0  502  0.71128765366E+03 -0.11300157734E+03  0.18032083648E+04  0.19417161230E+04  0.12699999809E+01 0. -1.
</event>
<event>
 5   0  0.2482243E-08  0.3598338E+04  0.7818609E-02  0.8090873E-01
       -2   -1    0    0    0  501  0.00000000000E+00  0.00000000000E+00  0.13700488045E+04  0.13700488045E+04  0.25500000920E-02 0.  1.
        2   -1    0    0  501    0  0.00000000000E+00  0.00000000000E+00 -0.23626961231E+04  0.23626961231E+04  0.25500000920E-02 0. -1.
    10030    2    1    2    0    0  0.00000000000E+00  0.00000000000E+00 -0.99264731857E+03  0.37327449277E+04  0.35983379491E+04 0.  0.
        5    1    3    3  502    0 -0.17526111890E+04 -0.14693729714E+03 -0.10301742046E+03  0.17617806980E+04  0.46999998093E+01 0.  1.
       -5    1    3    3    0  502  0.17526111890E+04  0.14693729714E+03 -0.88962989811E+03  0.19709642297E+04  0.46999998093E+01 0. -1.
</event>
<event>
 5   0  0.8024500E-09  0.3599817E+04  0.7818609E-02  0.8090534E-01
        1   -1    0    0  501    0  0.00000000000E+00  0.00000000000E+00  0.19472941073E+04  0.19472941073E+04  0.50400001928E-02 0.  1.
       -1   -1    0    0    0  501  0.00000000000E+00  0.00000000000E+00 -0.16636780716E+04  0.16636780716E+04  0.50400001928E-02 0. -1.
    10030    2    1    2    0    0  0.00000000000E+00  0.00000000000E+00  0.28361603573E+03  0.36109721789E+04  0.35998169427E+04 0.  0.
        1    1    3    3  502    0 -0.42503679277E+03  0.16132421836E+04  0.81952276793E+03  0.18587157354E+04  0.50400001928E-02 0.  1.
       -1    1    3    3    0  502  0.42503679277E+03 -0.16132421836E+04 -0.53590673220E+03  0.17522564435E+04  0.50400001928E-02 0. -1.
</event>
<event>
 5   0  0.8024500E-09  0.3600183E+04  0.7818609E-02  0.8090450E-01
        1   -1    0    0  501    0  0.00000000000E+00  0.00000000000E+00  0.12129064776E+04  0.12129064776E+04  0.50400001928E-02 0. -1.
       -1   -1    0    0    0  501  0.00000000000E+00  0.00000000000E+00 -0.26715407517E+04  0.26715407517E+04  0.50400001928E-02 0.  1.
    10030    2    1    2    0    0  0.00000000000E+00  0.00000000000E+00 -0.14586342741E+04  0.38844472293E+04  0.36001828192E+04 0.  0.
        5    1    3    3  502    0  0.12195385858E+04  0.63156832381E+03 -0.19848807255E+04  0.24136956093E+04  0.46999998093E+01 0.  1.
       -5    1    3    3    0  502 -0.12195385858E+04 -0.63156832381E+03  0.52624645139E+03  0.14707516200E+04  0.46999998093E+01 0. -1.
</event>
<event>
 5   0  0.8247570E-09  0.3600005E+04  0.7818609E-02  0.8090491E-01
        1   -1    0    0  501    0  0.00000000000E+00  0.00000000000E+00  0.22603686001E+04  0.22603686001E+04  0.50400001928E-02 0.  1.
       -1   -1    0    0    0  501  0.00000000000E+00  0.00000000000E+00 -0.14333986574E+04  0.14333986574E+04  0.50400001928E-02 0. -1.
    10030    2    1    2    0    0  0.00000000000E+00  0.00000000000E+00  0.82696994263E+03  0.36937672575E+04  0.36000051759E+04 0.  0.
        3    1    3    3  502    0  0.32672223331E+03  0.16900270577E+04 -0.12659925547E+03  0.17259682080E+04  0.10100000352E+00 0.  1.
       -3    1    3    3    0  502 -0.32672223331E+03 -0.16900270577E+04  0.95356919809E+03  0.19677990495E+04  0.10100000352E+00 0. -1.
</event>
<event>
 5   0  0.2590795E-08  0.3602572E+04  0.7818609E-02  0.8089903E-01
       -2   -1    0    0    0  501  0.00000000000E+00  0.00000000000E+00  0.12618362314E+04  0.12618362314E+04  0.25500000920E-02 0. -1.
        2   -1    0    0  501    0  0.00000000000E+00  0.00000000000E+00 -0.25713575557E+04  0.25713575557E+04  0.25500000920E-02 0.  1.
    10030    2    1    2    0    0  0.00000000000E+00  0.00000000000E+00 -0.13095213242E+04  0.38331937871E+04  0.36025724852E+04 0.  0.
        4    1    3    3  502    0  0.10014448302E+04  0.13016833851E+03 -0.22418195620E+04  0.24587785801E+04  0.12699999809E+01 0.  1.
       -4    1    3    3    0  502 -0.10014448302E+04 -0.13016833851E+03  0.93229823778E+03  0.13744152070E+04  0.12699999809E+01 0. -1.
</event>
<event>
 5   0  0.8063410E-09  0.3600198E+04  0.7818609E-02  0.8090446E-01
        1   -1    0    0  501    0  0.00000000000E+00  0.00000000000E+00  0.22753423089E+04  0.22753423089E+04  0.50400001928E-02 0.  1.
       -1   -1    0    0    0  501  0.00000000000E+00  0.00000000000E+00 -0.14241184950E+04  0.14241184950E+04  0.50400001928E-02 0. -1.
    10030    2    1    2    0    0  0.00000000000E+00  0.00000000000E+00  0.85122381392E+03  0.36994608038E+04  0.36001983637E+04 0.  0.
        2    1    3    3  502    0  0.13627067862E+04 -0.35372289493E+03  0.15782646053E+04  0.21149488967E+04  0.25500000920E-02 0.  1.
       -2    1    3    3    0  502 -0.13627067862E+04  0.35372289493E+03 -0.72704079134E+03  0.15845119071E+04  0.25500000920E-02 0. -1.
</event>
<event>
 5   0  0.2494592E-08  0.3599289E+04  0.7818609E-02  0.8090654E-01
        2   -1    0    0  501    0  0.00000000000E+00  0.00000000000E+00  0.21502873921E+04  0.21502873921E+04  0.25500000920E-02 0. -1.
       -2   -1    0    0    0  501  0.00000000000E+00  0.00000000000E+00 -0.15061805049E+04  0.15061805049E+04  0.25500000920E-02 0.  1.
    10030    2    1    2    0    0  0.00000000000E+00  0.00000000000E+00  0.64410688725E+03  0.36564678970E+04  0.35992893465E+04 0.  0.
        1    1    3    3  502    0  0.14258394931E+04  0.40613339641E+03 -0.71432878337E+03  0.16456695314E+04  0.50400001928E-02 0.  1.
       -1    1    3    3    0  502 -0.14258394931E+04 -0.40613339641E+03  0.13584356706E+04  0.20107983656E+04  0.50400001928E-02 0. -1.
</event>
<event>
 5   0  0.2590795E-08  0.3599978E+04  0.7818609E-02  0.8090497E-01
        2   -1    0    0  501    0  0.00000000000E+00  0.00000000000E+00  0.18934208158E+04  0.18934208158E+04  0.25500000920E-02 0. -1.
       -2   -1    0    0    0  501  0.00000000000E+00  0.00000000000E+00 -0.17111671998E+04  0.17111671998E+04  0.25500000920E-02 0.  1.
    10030    2    1    2    0    0  0.00000000000E+00  0.00000000000E+00  0.18225361597E+03  0.36045880157E+04  0.35999775530E+04 0.  0.
        4    1    3    3  502    0 -0.48904265982E+03 -0.10912577506E+04  0.14381942642E+04  0.18704038483E+04  0.12699999809E+01 0. -1.
       -4    1    3    3    0  502  0.48904265982E+03  0.10912577506E+04 -0.12559406483E+04  0.17341841673E+04  0.12699999809E+01 0.  1.
</event>
<event>
 5   0  0.2590795E-08  0.3594473E+04  0.7818609E-02  0.8091759E-01
       -2   -1    0    0    0  501  0.00000000000E+00  0.00000000000E+00  0.11163463327E+04  0.11163463327E+04  0.25500000920E-02 0.  1.
        2   -1    0    0  501    0  0.00000000000E+00  0.00000000000E+00 -0.28934200686E+04  0.28934200686E+04  0.25500000920E-02 0. -1.
    10030    2    1    2    0    0  0.00000000000E+00  0.00000000000E+00 -0.17770737360E+04  0.40097664013E+04  0.35944729140E+04 0.  0.
        4    1    3    3  502    0  0.40895048637E+03  0.12072813023E+03  0.10591024890E+04  0.11417160228E+04  0.12699999809E+01 0.  1.
       -4    1    3    3    0  502 -0.40895048637E+03 -0.12072813023E+03 -0.28361762249E+04  0.28680503785E+04  0.12699999809E+01 0. -1.
</event>
<event>
 5   0  0.2476968E-08  0.3597361E+04  0.7818609E-02  0.8091096E-01
       -2   -1    0    0    0  501  0.00000000000E+00  0.00000000000E+00  0.29469789024E+04  0.29469789024E+04  0.25500000920E-02 0. -1.
        2   -1    0    0  501    0  0.00000000000E+00  0.00000000000E+00 -0.10978196115E+04  0.10978196115E+04  0.25500000920E-02 0.  1.
    10030    2    1    2    0    0  0.00000000000E+00  0.00000000000E+00  0.18491592909E+04  0.40447985140E+04  0.35973608292E+04 0.  0.
        2    1    3    3  502    0 -0.73818768180E+03 -0.97766520844E+03  0.24053924416E+04  0.26993819869E+04  0.25500000920E-02 0. -1.
       -2    1    3    3    0  502  0.73818768180E+03  0.97766520844E+03 -0.55623315066E+03  0.13454165270E+04  0.25500000920E-02 0.  1.
</event>
<event>
 5   0  0.2608070E-08  0.3600364E+04  0.7818609E-02  0.8090408E-01
       -2   -1    0    0    0  501  0.00000000000E+00  0.00000000000E+00  0.18112655951E+04  0.18112655951E+04  0.25500000920E-02 0. -1.
        2   -1    0    0  501    0  0.00000000000E+00  0.00000000000E+00 -0.17891666576E+04  0.17891666576E+04  0.25500000920E-02 0.  1.
    10030    2    1    2    0    0  0.00000000000E+00  0.00000000000E+00  0.22098937467E+02  0.36004322527E+04  0.36003644320E+04 0.  0.
        3    1    3    3  502    0  0.14644634722E+04  0.74875129433E+03  0.74275597299E+03  0.18047072361E+04  0.10100000352E+00 0. -1.
       -3    1    3    3    0  502 -0.14644634722E+04 -0.74875129433E+03 -0.72065703552E+03  0.17957250166E+04  0.10100000352E+00 0.  1.
</event>
<event>
 5   0  0.8247570E-09  0.3599639E+04  0.7818609E-02  0.8090574E-01
        1   -1    0    0  501    0  0.00000000000E+00  0.00000000000E+00  0.12187905376E+04  0.12187905376E+04  0.50400001928E-02 0. -1.
       -1   -1    0    0    0  501  0.00000000000E+00  0.00000000000E+00 -0.26578393348E+04  0.26578393348E+04  0.50400001928E-02 0.  1.
    10030    2    1    2    0    0  0.00000000000E+00  0.00000000000E+00 -0.14390487972E+04  0.38766298724E+04  0.35996385550E+04 0.  0.
        3    1    3    3  502    0  0.11680355638E+04  0.10576385127E+04  0.21713906846E+03  0.15906148771E+04  0.10100000352E+00 0. -1.
       -3    1    3    3    0  502 -0.11680355638E+04 -0.10576385127E+04 -0.16561878657E+04  0.22860149953E+04  0.10100000352E+00 0.  1.
</event>
<event>
 5   0  0.8146881E-09  0.3601700E+04  0.7818609E-02  0.8090102E-01
       -1   -1    0    0    0  501  0.00000000000E+00  0.00000000000E+00  0.13552266004E+04  0.13552266004E+04  0.50400001928E-02 0.  1.
        1   -1    0    0  501    0  0.00000000000E+00  0.00000000000E+00 -0.23930022940E+04  0.23930022940E+04  0.50400001928E-02 0. -1.
    10030    2    1    2    0    0  0.00000000000E+00  0.00000000000E+00 -0.10377756936E+04  0.37482288944E+04  0.36016998007E+04 0.  0.
        4    1    3    3  502    0  0.55113475327E+03 -0.53659323614E+03  0.11756619246E+04  0.14049428427E+04  0.12699999809E+01 0.  1.
       -4    1    3    3    0  502 -0.55113475327E+03  0.53659323614E+03 -0.22134376182E+04  0.23432860517E+04  0.12699999809E+01 0. -1.
</event>
<event>
 5   0  0.2608070E-08  0.3598428E+04  0.7818609E-02  0.8090852E-01
       -2   -1    0    0    0  501  0.00000000000E+00  0.00000000000E+00  0.15944563011E+04  0.15944563011E+04  0.25500000920E-02 0.  1.
        2   -1    0    0  501    0  0.00000000000E+00  0.00000000000E+00 -0.20302666045E+04  0.20302666045E+04  0.25500000920E-02 0. -1.
    10030    2    1    2    0    0  0.00000000000E+00  0.00000000000E+00 -0.43581030342E+03  0.36247229055E+04  0.35984282015E+04 0.  0.
        3    1    3    3  502    0  0.13041804096E+04 -0.10968984556E+04 -0.79926947783E+03  0.18822604685E+04  0.10100000352E+00 0. -1.
       -3    1    3    3    0  502 -0.13041804096E+04  0.10968984556E+04  0.36345917440E+03  0.17424624370E+04  0.10100000352E+00 0.  1.
</event>
<event>
 5   0  0.2476968E-08  0.3601741E+04  0.7818609E-02  0.8090093E-01
       -2   -1    0    0    0  501  0.00000000000E+00  0.00000000000E+00  0.13742516547E+04  0.13742516547E+04  0.25500000920E-02 0.  1.
        2   -1    0    0  501    0  0.00000000000E+00  0.00000000000E+00 -0.23599279868E+04  0.23599279868E+04  0.25500000920E-02 0. -1.
    10030    2    1    2    0    0  0.00000000000E+00  0.00000000000E+00 -0.98567633214E+03  0.37341796415E+04  0.36017412127E+04 0.  0.
        2    1    3    3  502    0  0.99266884528E+03  0.14194984323E+04  0.17993908220E+02  0.17322502753E+04  0.25500000920E-02 0.  1.
       -2    1    3    3    0  502 -0.99266884528E+03 -0.14194984323E+04 -0.10036702404E+04  0.20019293661E+04  0.25500000920E-02 0. -1.
</event>
<event>
 5   0  0.8024500E-09  0.3599410E+04  0.7818609E-02  0.8090627E-01
        1   -1    0    0  501    0  0.00000000000E+00  0.00000000000E+00  0.21417407224E+04  0.21417407224E+04  0.50400001928E-02 0.  1.
       -1   -1    0    0    0  501  0.00000000000E+00  0.00000000000E+00 -0.15122919266E+04  0.15122919266E+04  0.50400001928E-02 0. -1.
    10030    2    1    2    0    0  0.00000000000E+00  0.00000000000E+00  0.62944879578E+03  0.36540326490E+04  0.35994095090E+04 0.  0.
        1    1    3    3  502    0  0.11936104523E+04  0.35036945924E+02  0.16816362511E+04  0.20624824800E+04  0.50400001928E-02 0.  1.
       -1    1    3    3    0  502 -0.11936104523E+04 -0.35036945924E+02 -0.10521874553E+04  0.15915501690E+04  0.50400001928E-02 0. -1.
</event>
<event>
 5   0  0.2494592E-08  0.3599756E+04  0.7818609E-02  0.8090548E-01
       -2   -1    0    0    0  501  0.00000000000E+00  0.00000000000E+00  0.13933954904E+04  0.13933954904E+04  0.25500000920E-02 0.  1.
        2   -1    0    0  501    0  0.00000000000E+00  0.00000000000E+00 -0.23249393203E+04  0.23249393203E+04  0.25500000920E-02 0. -1.
    10030    2    1    2    0    0  0.00000000000E+00  0.00000000000E+00 -0.93154382993E+03  0.37183348107E+04  0.35997555275E+04 0.  0.
        1    1    3    3  502    0  0.13156107736E+04 -0.53073320454E+03  0.67844063678E+03  0.15725110936E+04  0.50400001928E-02 0.  1.
       -1    1    3    3    0  502 -0.13156107736E+04  0.53073320454E+03 -0.16099844667E+04  0.21458237171E+04  0.50400001928E-02 0. -1.
</event>
<event>
 5   0  0.8063410E-09  0.3603941E+04  0.7818609E-02  0.8089590E-01
       -1   -1    0    0    0  501  0.00000000000E+00  0.00000000000E+00  0.11296435959E+04  0.11296435959E+04  0.50400001928E-02 0.  1.
        1   -1    0    0  501    0  0.00000000000E+00  0.00000000000E+00 -0.28744437562E+04  0.28744437562E+04  0.50400001928E-02 0. -1.
    10030    2    1    2    0    0  0.00000000000E+00  0.00000000000E+00 -0.17448001603E+04  0.40040873522E+04  0.36039406105E+04 0.  0.
        2    1    3    3  502    0 -0.19010796653E+02  0.17598676889E+04 -0.13021280133E+04  0.21892996724E+04  0.25500000920E-02 0. -1.
       -2    1    3    3    0  502  0.19010796653E+02 -0.17598676889E+04 -0.44267214702E+03  0.18147876797E+04  0.25500000920E-02 0.  1.
</event>
<event>
 5   0  0.2482243E-08  0.3596192E+04  0.7818609E-02  0.8091364E-01
       -2   -1    0    0    0  501  0.00000000000E+00  0.00000000000E+00  0.20608661790E+04  0.20608661790E+04  0.25500000920E-02 0.  1.
        2   -1    0    0  501    0  0.00000000000E+00  0.00000000000E+00 -0.15688304939E+04  0.15688304939E+04  0.25500000920E-02 0. -1.
    10030    2    1    2    0    0  0.00000000000E+00  0.00000000000E+00  0.49203568510E+03  0.36296966729E+04  0.35961922671E+04 0.  0.
        5    1    3    3  502    0  0.13122446150E+03  0.14854372063E+04  0.12600591630E+04  0.19523101028E+04  0.46999998093E+01 0. -1.
       -5    1    3    3    0  502 -0.13122446150E+03 -0.14854372063E+04 -0.76802347790E+03  0.16773865701E+04  0.46999998093E+01 0.  1.
</event>
<event>
 5   0  0.8063410E-09  0.3599943E+04  0.7818609E-02  0.8090505E-01
        1   -1    0    0  501    0  0.00000000000E+00  0.00000000000E+00  0.29682160401E+04  0.29682160401E+04  0.50400001928E-02 0. -1.
       -1   -1    0    0    0  501  0.00000000000E+00  0.00000000000E+00 -0.10915304271E+04  0.10915304271E+04  0.50400001928E-02 0.  1.
    10030    2    1    2    0    0  0.00000000000E+00  0.00000000000E+00  0.18766856130E+04  0.40597464672E+04  0.35999434007E+04 0.  0.
        2    1    3    3  502    0  0.15949757544E+04  0.83419555037E+03  0.94765926640E+03  0.20341799228E+04  0.25500000920E-02 0. -1.
       -2    1    3    3    0  502 -0.15949757544E+04 -0.83419555037E+03  0.92902634657E+03  0.20255665444E+04  0.25500000920E-02 0.  1.
</event>
<event>
 5   0  0.8247570E-09  0.3599888E+04  0.7818609E-02  0.8090517E-01
        1   -1    0    0  501    0  0.00000000000E+00  0.00000000000E+00  0.21220113761E+04  0.21220113761E+04  0.50400001928E-02 0.  1.
       -1   -1    0    0    0  501  0.00000000000E+00  0.00000000000E+00 -0.15267580267E+04  0.15267580267E+04  0.50400001928E-02 0. -1.
    10030    2    1    2    0    0  0.00000000000E+00  0.00000000000E+00  0.59525334943E+03  0.36487694028E+04  0.35998877211E+04 0.  0.
        3    1    3    3  502    0  0.10910806286E+03 -0.76355323331E+03  0.19460184170E+04  0.20933002171E+04  0.10100000352E+00 0.  1.
       -3    1    3    3    0  502 -0.10910806286E+03  0.76355323331E+03 -0.13507650676E+04  0.15554691857E+04  0.10100000352E+00 0. -1.
</event>
<event>
 5   0  0.8024500E-09  0.3587289E+04  0.7818609E-02  0.8093410E-01
       -1   -1    0    0    0  501  0.00000000000E+00  0.00000000000E+00  0.15384734282E+04  0.15384734282E+04  0.50400001928E-02 0. -1.
        1   -1    0    0  501    0  0.00000000000E+00  0.00000000000E+00 -0.20911381025E+04  0.20911381025E+04  0.50400001928E-02 0.  1.
    10030    2    1    2    0    0  0.00000000000E+00  0.00000000000E+00 -0.55266467427E+03  0.36296115307E+04  0.35872888957E+04 0.  0.
        5    1    3    3  502    0  0.84361686291E+03 -0.18696491666E+03  0.13139916469E+04  0.15726542626E+04  0.46999998093E+01 0. -1.
       -5    1    3    3    0  502 -0.84361686291E+03  0.18696491666E+03 -0.18666563212E+04  0.20569572681E+04  0.46999998093E+01 0.  1.
</event>
<event>
 5   0  0.2494592E-08  0.3599808E+04  0.7818609E-02  0.8090536E-01
        2   -1    0    0  501    0  0.00000000000E+00  0.00000000000E+00  0.20482894900E+04  0.20482894900E+04  0.25500000920E-02 0. -1.
       -2   -1    0    0    0  501  0.00000000000E+00  0.00000000000E+00 -0.15816385569E+04  0.15816385569E+04  0.25500000920E-02 0.  1.
    10030    2    1    2    0    0  0.00000000000E+00  0.00000000000E+00  0.46665093316E+03  0.36299280469E+04  0.35998075688E+04 0.  0.
        1    1    3    3  502    0 -0.77521804800E+03 -0.13284387603E+04 -0.70934479267E+03  0.16937776114E+04  0.50400001928E-02 0.  1.
       -1    1    3    3    0  502  0.77521804800E+03  0.13284387603E+04  0.11759957258E+04  0.19361504356E+04  0.50400001928E-02 0. -1.
</event>
<event>
 5   0  0.8247570E-09  0.3599567E+04  0.7818609E-02  0.8090591E-01
        1   -1    0    0  501    0  0.00000000000E+00  0.00000000000E+00  0.15783560721E+04  0.15783560721E+04  0.50400001928E-02 0. -1.
       -1   -1    0    0    0  501  0.00000000000E+00  0.00000000000E+00 -0.20522750710E+04  0.20522750710E+04  0.50400001928E-02 0.  1.
    10030    2    1    2    0    0  0.00000000000E+00  0.00000000000E+00 -0.47391899897E+03  0.36306311431E+04  0.35995670962E+04 0.  0.
        3    1    3    3  502    0  0.40111994393E+03 -0.16129688217E+04  0.45940081739E+03  0.17244172205E+04  0.10100000352E+00 0. -1.
       -3    1    3    3    0  502 -0.40111994393E+03  0.16129688217E+04 -0.93331981635E+03  0.19062139226E+04  0.10100000352E+00 0.  1.
</event>
<event>
 5   0  0.2476968E-08  0.3599292E+04  0.7818609E-02  0.8090654E-01
       -2   -1    0    0    0  501  0.00000000000E+00  0.00000000000E+00  0.18506683362E+04  0.18506683362E+04  0.25500000920E-02 0. -1.
        2   -1    0    0  501    0  0.00000000000E+00  0.00000000000E+00 -0.17500305827E+04  0.17500305827E+04  0.25500000920E-02 0.  1.
    10030    2    1    2    0    0  0.00000000000E+00  0.00000000000E+00  0.10063775345E+03  0.36006989189E+04  0.35992922564E+04 0.  0.
        2    1    3    3  502    0  0.86691934126E+03 -0.68471008670E+03  0.14715602552E+04  0.18400724528E+04  0.25500000920E-02 0. -1.
       -2    1    3    3    0  502 -0.86691934126E+03  0.68471008670E+03 -0.13709225017E+04  0.17606264660E+04  0.25500000920E-02 0.  1.
</event>
<event>
 5   0  0.8146881E-09  0.3599580E+04  0.7818609E-02  0.8090588E-01
       -1   -1    0    0    0  501  0.00000000000E+00  0.00000000000E+00  0.22556028545E+04  0.22556028545E+04  0.50400001928E-02 0. -1.
        1   -1    0    0  501    0  0.00000000000E+00  0.00000000000E+00 -0.14360879665E+04  0.14360879665E+04  0.50400001928E-02 0.  1.
    10030    2    1    2    0    0  0.00000000000E+00  0.00000000000E+00  0.81951488804E+03  0.36916908210E+04  0.35995800402E+04 0.  0.
        4    1    3    3  502    0 -0.15728674879E+04  0.86205570397E+03  0.25698135450E+03  0.18119307936E+04  0.12699999809E+01 0. -1.
       -4    1    3    3    0  502  0.15728674879E+04 -0.86205570397E+03  0.56253353354E+03  0.18797600274E+04  0.12699999809E+01 0.  1.
</event>
<event>
 5   0  0.8024500E-09  0.3600316E+04  0.7818609E-02  0.8090419E-01
        1   -1    0    0  501    0  0.00000000000E+00  0.00000000000E+00  0.14702799503E+04  0.14702799503E+04  0.50400001928E-02 0.  1.
       -1   -1    0    0    0  501  0.00000000000E+00  0.00000000000E+00 -0.22040484449E+04  0.22040484449E+04  0.50400001928E-02 0. -1.
    10030    2    1    2    0    0  0.00000000000E+00  0.00000000000E+00 -0.73376849459E+03  0.36743283953E+04  0.36003156740E+04 0.  0.
        5    1    3    3  502    0  0.29663549607E+03 -0.14509969126E+04 -0.14112297938E+04  0.20457214568E+04  0.46999998093E+01 0. -1.
       -5    1    3    3    0  502 -0.29663549607E+03  0.14509969126E+04  0.67746129922E+03  0.16286069384E+04  0.46999998093E+01 0.  1.
</event>
<event>
 5   0  0.2482243E-08  0.3593559E+04  0.7818609E-02  0.8091969E-01
       -2   -1    0    0    0  501  0.00000000000E+00  0.00000000000E+00  0.15102227844E+04  0.15102227844E+04  0.25500000920E-02 0. -1.
        2   -1    0    0  501    0  0.00000000000E+00  0.00000000000E+00 -0.21377088949E+04  0.21377088949E+04  0.25500000920E-02 0.  1.
    10030    2    1    2    0    0  0.00000000000E+00  0.00000000000E+00 -0.62748611053E+03  0.36479316792E+04  0.35935590600E+04 0.  0.
        5    1    3    3  502    0  0.68013704661E+03  0.13944944406E+04  0.60616547367E+03  0.16657310163E+04  0.46999998093E+01 0. -1.
       -5    1    3    3    0  502 -0.68013704661E+03 -0.13944944406E+04 -0.12336515842E+04  0.19822006630E+04  0.46999998093E+01 0.  1.
</event>
<event>
 5   0  0.8024500E-09  0.3600258E+04  0.7818609E-02  0.8090433E-01
        1   -1    0    0  501    0  0.00000000000E+00  0.00000000000E+00  0.14359149786E+04  0.14359149786E+04  0.50400001928E-02 0. -1.
       -1   -1    0    0    0  501  0.00000000000E+00  0.00000000000E+00 -0.22567240004E+04  0.22567240004E+04  0.50400001928E-02 0.  1.
    10030    2    1    2    0    0  0.00000000000E+00  0.00000000000E+00 -0.82080902184E+03  0.36926389790E+04  0.36002576546E+04 0.  0.
        5    1    3    3  502    0 -0.11497241922E+04  0.93938935634E+03  0.63361605841E+03  0.16142519879E+04  0.46999998093E+01 0. -1.
       -5    1    3    3    0  502  0.11497241922E+04 -0.93938935634E+03 -0.14544250802E+04  0.20783869912E+04  0.46999998093E+01 0.  1.
</event>
<event>
 5   0  0.8063410E-09  0.3598572E+04  0.7818609E-02  0.8090819E-01
        1   -1    0    0  501    0  0.00000000000E+00  0.00000000000E+00  0.24186062604E+04  0.24186062604E+04  0.50400001928E-02 0.  1.
       -1   -1    0    0    0  501  0.00000000000E+00  0.00000000000E+00 -0.13385518276E+04  0.13385518276E+04  0.50400001928E-02 0. -1.
    10030    2    1    2    0    0  0.00000000000E+00  0.00000000000E+00  0.10800544328E+04  0.37571580880E+04  0.35985718445E+04 0.  0.
        2    1    3    3  502    0 -0.54928413696E+03 -0.16828826350E+04  0.87611827669E+03  0.19751937275E+04  0.25500000920E-02 0. -1.
       -2    1    3    3    0  502  0.54928413696E+03  0.16828826350E+04  0.20393615615E+03  0.17819643605E+04  0.25500000920E-02 0.  1.
</event>
<event>
 5   0  0.2494592E-08  0.3599562E+04  0.7818609E-02  0.8090592E-01
        2   -1    0    0  501    0  0.00000000000E+00  0.00000000000E+00  0.25399644838E+04  0.25399644838E+04  0.25500000920E-02 0.  1.
       -2   -1    0    0    0  501  0.00000000000E+00  0.00000000000E+00 -0.12752977048E+04  0.12752977048E+04  0.25500000920E-02 0. -1.
    10030    2    1    2    0    0  0.00000000000E+00  0.00000000000E+00  0.12646667790E+04  0.38152621886E+04  0.35995615714E+04 0.  0.
        1    1    3    3  502    0  0.12077040766E+04  0.54945383271E+03 -0.65658065479E+03  0.14803873841E+04  0.50400001928E-02 0. -1.
       -1    1    3    3    0  502 -0.12077040766E+04 -0.54945383271E+03  0.19212474337E+04  0.23348748045E+04  0.50400001928E-02 0.  1.
</event>
<event>
 5   0  0.8146881E-09  0.3600106E+04  0.7818609E-02  0.8090468E-01
       -1   -1    0    0    0  501  0.00000000000E+00  0.00000000000E+00  0.22349508709E+04  0.22349508709E+04  0.50400001928E-02 0.  1.
        1   -1    0    0  501    0  0.00000000000E+00  0.00000000000E+00 -0.14497813018E+04  0.14497813018E+04  0.50400001928E-02 0. -1.
    10030    2    1    2    0    0  0.00000000000E+00  0.00000000000E+00  0.78516956901E+03  0.36847321727E+04  0.36001055446E+04 0.  0.
        4    1    3    3  502    0  0.28432254366E+02 -0.14643705286E+04  0.14636046862E+04  0.20705868078E+04  0.12699999809E+01 0.  1.
       -4    1    3    3    0  502 -0.28432254366E+02  0.14643705286E+04 -0.67843511723E+03  0.16141453649E+04  0.12699999809E+01 0. -1.
</event>
<event>
 5   0  0.2494592E-08  0.3599766E+04  0.7818609E-02  0.8090545E-01
       -2   -1    0    0    0  501  0.00000000000E+00  0.00000000000E+00  0.13032600696E+04  0.13032600696E+04  0.25500000920E-02 0.  1.
        2   -1    0    0  501    0  0.00000000000E+00  0.00000000000E+00 -0.24857502488E+04  0.24857502488E+04  0.25500000920E-02 0. -1.
    10030    2    1    2    0    0  0.00000000000E+00  0.00000000000E+00 -0.11824901792E+04  0.37890103185E+04  0.35997661271E+04 0.  0.
        1    1    3    3  502    0 -0.84994069823E+03  0.13326226033E+04  0.31500399103E+03  0.16116791578E+04  0.50400001928E-02 0.  1.
       -1    1    3    3    0  502  0.84994069823E+03 -0.13326226033E+04 -0.14974941702E+04  0.21773311607E+04  0.50400001928E-02 0. -1.
</event>
<event>
 5   0  0.2494592E-08  0.3607676E+04  0.7818609E-02  0.8088736E-01
        2   -1    0    0  501    0  0.00000000000E+00  0.00000000000E+00  0.18179022032E+04  0.18179022032E+04  0.25500000920E-02 0. -1.
       -2   -1    0    0    0  501  0.00000000000E+00  0.00000000000E+00 -0.17898823828E+04  0.17898823828E+04  0.25500000920E-02 0.  1.
    10030    2    1    2    0    0  0.00000000000E+00  0.00000000000E+00  0.28019820422E+02  0.36077845861E+04  0.36076757766E+04 0.  0.
        1    1    3    3  502    0 -0.36984662136E+03 -0.11413974103E+03  0.17758850374E+04  0.18175758774E+04  0.50400001928E-02 0. -1.
       -1    1    3    3    0  502  0.36984662136E+03  0.11413974103E+03 -0.17478652170E+04  0.17902087087E+04  0.50400001928E-02 0.  1.
</event>
<event>
 5   0  0.8146881E-09  0.3600984E+04  0.7818609E-02  0.8090266E-01
        1   -1    0    0  501    0  0.00000000000E+00  0.00000000000E+00  0.22080725208E+04  0.22080725208E+04  0.50400001928E-02 0. -1.
       -1   -1    0    0    0  501  0.00000000000E+00  0.00000000000E+00 -0.14681457677E+04  0.14681457677E+04  0.50400001928E-02 0.  1.
    10030    2    1    2    0    0  0.00000000000E+00  0.00000000000E+00  0.73992675309E+03  0.36762182884E+04  0.36009844910E+04 0.  0.
        4    1    3    3  502    0 -0.64998517037E+02  0.11544575422E+04 -0.10390065778E+04  0.15545202815E+04  0.12699999809E+01 0.  1.
       -4    1    3    3    0  502  0.64998517037E+02 -0.11544575422E+04  0.17789333309E+04  0.21216980069E+04  0.12699999809E+01 0. -1.
</event>
<event>
 5   0  0.8024500E-09  0.3600010E+04  0.7818609E-02  0.8090489E-01
        1   -1    0    0  501    0  0.00000000000E+00  0.00000000000E+00  0.21224844222E+04  0.21224844222E+04  0.50400001928E-02 0. -1.
       -1   -1    0    0    0  501  0.00000000000E+00  0.00000000000E+00 -0.15265212514E+04  0.15265212514E+04  0.50400001928E-02 0.  1.
    10030    2    1    2    0    0  0.00000000000E+00  0.00000000000E+00  0.59596317080E+03  0.36490056736E+04  0.36000097646E+04 0.  0.
        5    1    3    3  502    0 -0.13726856739E+04  0.19400353267E+03  0.14616888559E+04  0.20145619205E+04  0.46999998093E+01 0. -1.
       -5    1    3    3    0  502  0.13726856739E+04 -0.19400353267E+03 -0.86572568510E+03  0.16344437531E+04  0.46999998093E+01 0.  1.
</event>
<event>
 5   0  0.2590795E-08  0.3599256E+04  0.7818609E-02  0.8090662E-01
       -2   -1    0    0    0  501  0.00000000000E+00  0.00000000000E+00  0.17082155168E+04  0.17082155168E+04  0.25500000920E-02 0.  1.
        2   -1    0    0  501    0  0.00000000000E+00  0.00000000000E+00 -0.18959323221E+04  0.18959323221E+04  0.25500000920E-02 0. -1.
    10030    2    1    2    0    0  0.00000000000E+00  0.00000000000E+00 -0.18771680525E+03  0.36041478389E+04  0.35992560406E+04 0.  0.
        4    1    3    3  502    0 -0.82415288033E+02  0.17933188441E+04 -0.22002425570E+03  0.18086450847E+04  0.12699999809E+01 0. -1.
       -4    1    3    3    0  502  0.82415288033E+02 -0.17933188441E+04  0.32307450453E+02  0.17955027543E+04  0.12699999809E+01 0.  1.
</event>
<event>
 5   0  0.8146881E-09  0.3600780E+04  0.7818609E-02  0.8090313E-01
       -1   -1    0    0    0  501  0.00000000000E+00  0.00000000000E+00  0.17010834323E+04  0.17010834323E+04  0.50400001928E-02 0.  1.
        1   -1    0    0  501    0  0.00000000000E+00  0.00000000000E+00 -0.19054938980E+04  0.19054938980E+04  0.50400001928E-02 0. -1.
    10030    2    1    2    0    0  0.00000000000E+00  0.00000000000E+00 -0.20441046565E+03  0.36065773303E+04  0.36007799712E+04 0.  0.
        4    1    3    3  502    0  0.50169734575E+03 -0.13816202286E+04  0.93909728516E+03  0.17442706231E+04  0.12699999809E+01 0.  1.
       -4    1    3    3    0  502 -0.50169734575E+03  0.13816202286E+04 -0.11435077508E+04  0.18623067072E+04  0.12699999809E+01 0. -1.
</event>
<event>
 5   0  0.8024500E-09  0.3598921E+04  0.7818609E-02  0.8090739E-01
        1   -1    0    0  501    0  0.00000000000E+00  0.00000000000E+00  0.14168126084E+04  0.14168126084E+04  0.50400001928E-02 0. -1.
       -1   -1    0    0    0  501  0.00000000000E+00  0.00000000000E+00 -0.22854522647E+04  0.22854522647E+04  0.50400001928E-02 0.  1.
    10030    2    1    2    0    0  0.00000000000E+00  0.00000000000E+00 -0.86863965638E+03  0.37022648731E+04  0.35989207185E+04 0.  0.
        1    1    3    3  502    0 -0.85811967215E+03 -0.13677142642E+04 -0.12515147949E+04  0.20428658699E+04  0.50400001928E-02 0.  1.
       -1    1    3    3    0  502  0.85811967215E+03  0.13677142642E+04  0.38287513852E+03  0.16593990033E+04  0.50400001928E-02 0. -1.
</event>
<event>
 5   0  0.8024500E-09  0.3590433E+04  0.7818609E-02  0.8092687E-01
       -1   -1    0    0    0  501  0.00000000000E+00  0.00000000000E+00  0.15132059289E+04  0.15132059289E+04  0.50400001928E-02 0. -1.
        1   -1    0    0  501    0  0.00000000000E+00  0.00000000000E+00 -0.21297837782E+04  0.21297837782E+04  0.50400001928E-02 0.  1.
    10030    2    1    2    0    0  0.00000000000E+00  0.00000000000E+00 -0.61657784925E+03  0.36429897071E+04  0.35904325313E+04 0.  0.
        5    1    3    3  502    0 -0.17504512175E+03  0.10896066334E+04 -0.17449591533E+04  0.20646520159E+04  0.46999998093E+01 0.  1.
       -5    1    3    3    0  502  0.17504512175E+03 -0.10896066334E+04  0.11283813040E+04  0.15783376912E+04  0.46999998093E+01 0. -1.
</event>
<event>
 5   0  0.2590795E-08  0.3600810E+04  0.7818609E-02  0.8090306E-01
        2   -1    0    0  501    0  0.00000000000E+00  0.00000000000E+00  0.17016883988E+04  0.17016883988E+04  0.25500000920E-02 0.  1.
       -2   -1    0    0    0  501  0.00000000000E+00  0.00000000000E+00 -0.19048482277E+04  0.19048482277E+04  0.25500000920E-02 0. -1.
    10030    2    1    2    0    0  0.00000000000E+00  0.00000000000E+00 -0.20315982884E+03  0.36065366265E+04  0.36008099814E+04 0.  0.
        4    1    3    3  502    0 -0.55137312208E+03 -0.16558864611E+04  0.34125922952E+03  0.17783227397E+04  0.12699999809E+01 0.  1.
       -4    1    3    3    0  502  0.55137312208E+03  0.16558864611E+04 -0.54441905836E+03  0.18282138868E+04  0.12699999809E+01 0. -1.
</event>
<event>
 5   0  0.2476968E-08  0.3599446E+04  0.7818609E-02  0.8090619E-01
        2   -1    0    0  501    0  0.00000000000E+00  0.00000000000E+00  0.24393346107E+04  0.24393346107E+04  0.25500000920E-02 0.  1.
       -2   -1    0    0    0  501  0.00000000000E+00  0.00000000000E+00 -0.13278222284E+04  0.13278222284E+04  0.25500000920E-02 0. -1.
    10030    2    1    2    0    0  0.00000000000E+00  0.00000000000E+00  0.11115123824E+04  0.37671568391E+04  0.35994459121E+04 0.  0.
        2    1    3    3  502    0  0.16510295493E+04  0.34810956781E+03 -0.99451383743E+02  0.16902572058E+04  0.25500000920E-02 0. -1.
       -2    1    3    3    0  502 -0.16510295493E+04 -0.34810956781E+03  0.12109637661E+04  0.20768996333E+04  0.25500000920E-02 0.  1.
</event>
<event>
 5   0  0.8024500E-09  0.3600577E+04  0.7818609E-02  0.8090360E-01
        1   -1    0    0  501    0  0.00000000000E+00  0.00000000000E+00  0.21458901380E+04  0.21458901380E+04  0.50400001928E-02 0. -1.
       -1   -1    0    0    0  501  0.00000000000E+00  0.00000000000E+00 -0.15103466110E+04  0.15103466110E+04  0.50400001928E-02 0.  1.
    10030    2    1    2    0    0  0.00000000000E+00  0.00000000000E+00  0.63554352693E+03  0.36562367490E+04  0.36005765636E+04 0.  0.
        5    1    3    3  502    0 -0.40871129826E+03 -0.15982719414E+04  0.10496756726E+04  0.19553412060E+04  0.46999998093E+01 0. -1.
       -5    1    3    3    0  502  0.40871129826E+03  0.15982719414E+04 -0.41413214569E+03  0.17008955430E+04  0.46999998093E+01 0.  1.
</event>
<event>
 5   0  0.8024500E-09  0.3598355E+04  0.7818609E-02  0.8090869E-01
        1   -1    0    0  501    0  0.00000000000E+00  0.00000000000E+00  0.93484023391E+03  0.93484023392E+03  0.50400001928E-02 0. -1.
       -1   -1    0    0    0  501  0.00000000000E+00  0.00000000000E+00 -0.34626664088E+04  0.34626664088E+04  0.50400001928E-02 0.  1.
    10030    2    1    2    0    0  0.00000000000E+00  0.00000000000E+00 -0.25278261749E+04  0.43975066427E+04  0.35983551106E+04 0.  0.
        1    1    3    3  502    0 -0.12455100444E+04 -0.85661247975E+03 -0.24562850554E+04  0.28841665147E+04  0.50400001928E-02 0.  1.
       -1    1    3    3    0  502  0.12455100444E+04  0.85661247975E+03 -0.71541119445E+02  0.15133401280E+04  0.50400001928E-02 0. -1.
</event>
<event>
 5   0  0.2608070E-08  0.3599832E+04  0.7818609E-02  0.8090530E-01
        2   -1    0    0  501    0  0.00000000000E+00  0.00000000000E+00  0.18604988351E+04  0.18604988351E+04  0.25500000920E-02 0. -1.
       -2   -1    0    0    0  501  0.00000000000E+00  0.00000000000E+00 -0.17413055486E+04  0.17413055486E+04  0.25500000920E-02 0.  1.
    10030    2    1    2    0    0  0.00000000000E+00  0.00000000000E+00  0.11919328645E+03  0.36018043837E+04  0.35998316321E+04 0.  0.
        3    1    3    3  502    0 -0.99968056359E+03 -0.14189807398E+04 -0.41693042209E+03  0.17851326439E+04  0.10100000352E+00 0. -1.
       -3    1    3    3    0  502  0.99968056359E+03  0.14189807398E+04  0.53612370854E+03  0.18166717398E+04  0.10100000352E+00 0.  1.
</event>
<event>
 5   0  0.2590795E-08  0.3597709E+04  0.7818609E-02  0.8091017E-01
       -2   -1    0    0    0  501  0.00000000000E+00  0.00000000000E+00  0.31117742505E+04  0.31117742505E+04  0.25500000920E-02 0. -1.
        2   -1    0    0  501    0  0.00000000000E+00  0.00000000000E+00 -0.10398818334E+04  0.10398818334E+04  0.25500000920E-02 0.  1.
    10030    2    1    2    0    0  0.00000000000E+00  0.00000000000E+00  0.20718924172E+04  0.41516560839E+04  0.35977090003E+04 0.  0.
        4    1    3    3  502    0  0.17890449083E+04 -0.47244767453E+02  0.12454554044E+04  0.21803840324E+04  0.12699999809E+01 0.  1.
       -4    1    3    3    0  502 -0.17890449083E+04  0.47244767453E+02  0.82643701281E+03  0.19712720515E+04  0.12699999809E+01 0. -1.
</event>
<event>
 5   0  0.2590795E-08  0.3601937E+04  0.7818609E-02  0.8090048E-01
       -2   -1    0    0    0  501  0.00000000000E+00  0.00000000000E+00  0.21683154581E+04  0.21683154581E+04  0.25500000920E-02 0. -1.
        2   -1    0    0  501    0  0.00000000000E+00  0.00000000000E+00 -0.14958561757E+04  0.14958561757E+04  0.25500000920E-02 0.  1.
    10030    2    1    2    0    0  0.00000000000E+00  0.00000000000E+00  0.67245928237E+03  0.36641716338E+04  0.36019372948E+04 0.  0.
        4    1    3    3  502    0 -0.17597503192E+04  0.38306501530E+03  0.33099643956E+03  0.18311254047E+04  0.12699999809E+01 0.  1.
       -4    1    3    3    0  502  0.17597503192E+04 -0.38306501530E+03  0.34146284281E+03  0.18330462291E+04  0.12699999809E+01 0. -1.
</event>
<event>
 5   0  0.8247570E-09  0.3598360E+04  0.7818609E-02  0.8090867E-01
       -1   -1    0    0    0  501  0.00000000000E+00  0.00000000000E+00  0.16959743875E+04  0.16959743875E+04  0.50400001928E-02 0.  1.
        1   -1    0    0  501    0  0.00000000000E+00  0.00000000000E+00 -0.19086660771E+04  0.19086660771E+04  0.50400001928E-02 0. -1.
    10030    2    1    2    0    0  0.00000000000E+00  0.00000000000E+00 -0.21269168959E+03  0.36046404646E+04  0.35983600604E+04 0.  0.
        3    1    3    3  502    0  0.13640578539E+04 -0.85222284130E+03 -0.91404782990E+03  0.18499786608E+04  0.10100000352E+00 0. -1.
       -3    1    3    3    0  502 -0.13640578539E+04  0.85222284130E+03  0.70135614030E+03  0.17546618038E+04  0.10100000352E+00 0.  1.
</event>
<event>
 5   0  0.8024500E-09  0.3600404E+04  0.7818609E-02  0.8090399E-01
        1   -1    0    0  501    0  0.00000000000E+00  0.00000000000E+00  0.19551989631E+04  0.19551989631E+04  0.50400001928E-02 0.  1.
       -1   -1    0    0    0  501  0.00000000000E+00  0.00000000000E+00 -0.16574926804E+04  0.16574926804E+04  0.50400001928E-02 0. -1.
    10030    2    1    2    0    0  0.00000000000E+00  0.00000000000E+00  0.29770628273E+03  0.36126916436E+04  0.36004044052E+04 0.  0.
        5    1    3    3  502    0 -0.14481672660E+04  0.43125849513E+03  0.11307290682E+04  0.18872579674E+04  0.46999998093E+01 0.  1.
       -5    1    3    3    0  502  0.14481672660E+04 -0.43125849513E+03 -0.83302278544E+03  0.17254336762E+04  0.46999998093E+01 0. -1.
</event>
<event>
 5   0  0.8247570E-09  0.3597676E+04  0.7818609E-02  0.8091024E-01
        1   -1    0    0  501    0  0.00000000000E+00  0.00000000000E+00  0.14747381555E+04  0.14747381555E+04  0.50400001928E-02 0. -1.
       -1   -1    0    0    0  501  0.00000000000E+00  0.00000000000E+00 -0.21941649657E+04  0.21941649657E+04  0.50400001928E-02 0.  1.
    10030    2    1    2    0    0  0.00000000000E+00  0.00000000000E+00 -0.71942681016E+03  0.36689031213E+04  0.35976763581E+04 0.  0.
        3    1    3    3  502    0  0.12584581913E+04 -0.11269068246E+04 -0.99016203608E+03  0.19580747888E+04  0.10100000352E+00 0.  1.
       -3    1    3    3    0  502 -0.12584581913E+04  0.11269068246E+04  0.27073522592E+03  0.17108283325E+04  0.10100000352E+00 0. -1.
</event>
<event>
 5   0  0.8063410E-09  0.3596457E+04  0.7818609E-02  0.8091304E-01
       -1   -1    0    0    0  501  0.00000000000E+00  0.00000000000E+00  0.15365695694E+04  0.15365695694E+04  0.50400001928E-02 0. -1.
        1   -1    0    0  501    0  0.00000000000E+00  0.00000000000E+00 -0.21044447291E+04  0.21044447291E+04  0.50400001928E-02 0.  1.
    10030    2    1    2    0    0  0.00000000000E+00  0.00000000000E+00 -0.56787515965E+03  0.36410142985E+04  0.35964569962E+04 0.  0.
        2    1    3    3  502    0 -0.44275910420E+03  0.16481173024E+04 -0.85779303390E+03  0.19100092031E+04  0.25500000920E-02 0. -1.
       -2    1    3    3    0  502  0.44275910420E+03 -0.16481173024E+04  0.28991787425E+03  0.17310050955E+04  0.25500000920E-02 0.  1.
</event>
<event>
 5   0  0.2608070E-08  0.3597953E+04  0.7818609E-02  0.8090961E-01
       -2   -1    0    0    0  501  0.00000000000E+00  0.00000000000E+00  0.13252145538E+04  0.13252145538E+04  0.25500000920E-02 0.  1.
        2   -1    0    0  501    0  0.00000000000E+00  0.00000000000E+00 -0.24421076254E+04  0.24421076254E+04  0.25500000920E-02 0. -1.
    10030    2    1    2    0    0  0.00000000000E+00  0.00000000000E+00 -0.11168930715E+04  0.37673221792E+04  0.35979530665E+04 0.  0.
        3    1    3    3  502    0 -0.13379011936E+04  0.34960029351E+03 -0.17633170645E+04  0.22408674770E+04  0.10100000352E+00 0. -1.
       -3    1    3    3    0  502  0.13379011936E+04 -0.34960029351E+03  0.64642399301E+03  0.15264547022E+04  0.10100000352E+00 0.  1.
</event>
<event>
 5   0  0.2608070E-08  0.3600139E+04  0.7818609E-02  0.8090460E-01
       -2   -1    0    0    0  501  0.00000000000E+00  0.00000000000E+00  0.19826236815E+04  0.19826236815E+04  0.25500000920E-02 0. -1.
        2   -1    0    0  501    0  0.00000000000E+00  0.00000000000E+00 -0.16343240547E+04  0.16343240547E+04  0.25500000920E-02 0.  1.
    10030    2    1    2    0    0  0.00000000000E+00  0.00000000000E+00  0.34829962686E+03  0.36169477362E+04  0.36001386496E+04 0.  0.
        3    1    3    3  502    0 -0.79953079692E+03 -0.16109606880E+04  0.25070091250E+03  0.18158454756E+04  0.10100000352E+00 0. -1.
       -3    1    3    3    0  502  0.79953079692E+03  0.16109606880E+04  0.97598714356E+02  0.18011022605E+04  0.10100000352E+00 0.  1.
</event>
<event>
 5   0  0.8247570E-09  0.3599176E+04  0.7818609E-02  0.8090680E-01
        1   -1    0    0  501    0  0.00000000000E+00  0.00000000000E+00  0.13616164459E+04  0.13616164459E+04  0.50400001928E-02 0.  1.
       -1   -1    0    0    0  501  0.00000000000E+00  0.00000000000E+00 -0.23784355492E+04  0.23784355492E+04  0.50400001928E-02 0. -1.
    10030    2    1    2    0    0  0.00000000000E+00  0.00000000000E+00 -0.10168191033E+04  0.37400519951E+04  0.35991759942E+04 0.  0.
        3    1    3    3  502    0 -0.16909438459E+04 -0.28696270552E+03  0.57782486185E+02  0.17160936776E+04  0.10100000352E+00 0.  1.
       -3    1    3    3    0  502  0.16909438459E+04  0.28696270552E+03 -0.10746015895E+04  0.20239583175E+04  0.10100000352E+00 0. -1.
</event>
<event>
 5   0  0.2476968E-08  0.3600630E+04  0.7818609E-02  0.8090348E-01
        2   -1    0    0  501    0  0.00000000000E+00  0.00000000000E+00  0.24028897106E+04  0.24028897106E+04  0.25500000920E-02 0. -1.
       -2   -1    0    0    0  501  0.00000000000E+00  0.00000000000E+00 -0.13488481120E+04  0.13488481120E+04  0.25500000920E-02 0.  1.
    10030    2    1    2    0    0  0.00000000000E+00  0.00000000000E+00  0.10540415987E+04  0.37517378226E+04  0.36006295280E+04 0.  0.
        2    1    3    3  502    0 -0.11495699705E+04  0.13757025455E+04  0.69843830028E+03  0.19240282405E+04  0.25500000920E-02 0.  1.
       -2    1    3    3    0  502  0.11495699705E+04 -0.13757025455E+04  0.35560329839E+03  0.18277095821E+04  0.25500000920E-02 0. -1.
</event>
<event>
 5   0  0.2494592E-08  0.3601883E+04  0.7818609E-02  0.8090061E-01
       -2   -1    0    0    0  501  0.00000000000E+00  0.00000000000E+00  0.17602040021E+04  0.17602040021E+04  0.25500000920E-02 0. -1.
        2   -1    0    0  501    0  0.00000000000E+00  0.00000000000E+00 -0.18426217202E+04  0.18426217202E+04  0.25500000920E-02 0.  1.
    10030    2    1    2    0    0  0.00000000000E+00  0.00000000000E+00 -0.82417718176E+02  0.36028257223E+04  0.36018829111E+04 0.  0.
        1    1    3    3  502    0 -0.11481350898E+04  0.27626039034E+03 -0.14012912685E+04  0.18325259089E+04  0.50400001928E-02 0.  1.
       -1    1    3    3    0  502  0.11481350898E+04 -0.27626039034E+03  0.13188735503E+04  0.17702998134E+04  0.50400001928E-02 0. -1.
</event>
<event>
 5   0  0.2590795E-08  0.3600107E+04  0.7818609E-02  0.8090467E-01
       -2   -1    0    0    0  501  0.00000000000E+00  0.00000000000E+00  0.14004571324E+04  0.14004571324E+04  0.25500000920E-02 0.  1.
        2   -1    0    0  501    0  0.00000000000E+00  0.00000000000E+00 -0.23136673083E+04  0.23136673083E+04  0.25500000920E-02 0. -1.
    10030    2    1    2    0    0  0.00000000000E+00  0.00000000000E+00 -0.91321017596E+03  0.37141244407E+04  0.36001066006E+04 0.  0.
        4    1    3    3  502    0 -0.16045021664E+04  0.73403764816E+02  0.38176618271E+03  0.16509277227E+04  0.12699999809E+01 0.  1.
       -4    1    3    3    0  502  0.16045021664E+04 -0.73403764816E+02 -0.12949763587E+04  0.20631967180E+04  0.12699999809E+01 0. -1.
</event>
<event>
 5   0  0.8024500E-09  0.3599352E+04  0.7818609E-02  0.8090640E-01
        1   -1    0    0  501    0  0.00000000000E+00  0.00000000000E+00  0.24320030243E+04  0.24320030243E+04  0.50400001928E-02 0. -1.
       -1   -1    0    0    0  501  0.00000000000E+00  0.00000000000E+00 -0.13317553746E+04  0.13317553746E+04  0.50400001928E-02 0.  1.
    10030    2    1    2    0    0  0.00000000000E+00  0.00000000000E+00  0.11002476497E+04  0.37637583988E+04  0.35993516630E+04 0.  0.
        5    1    3    3  502    0  0.59419135682E+03  0.79257048262E+03 -0.10210310612E+04  0.14225884354E+04  0.46999998093E+01 0.  1.
       -5    1    3    3    0  502 -0.59419135682E+03 -0.79257048262E+03  0.21212787109E+04  0.23411699635E+04  0.46999998093E+01 0. -1.
</event>
<event>
 5   0  0.2494592E-08  0.3598295E+04  0.7818609E-02  0.8090882E-01
        2   -1    0    0  501    0  0.00000000000E+00  0.00000000000E+00  0.14041116414E+04  0.14041116414E+04  0.25500000920E-02 0. -1.
       -2   -1    0    0    0  501  0.00000000000E+00  0.00000000000E+00 -0.23053242207E+04  0.23053242207E+04  0.25500000920E-02 0.  1.
    10030    2    1    2    0    0  0.00000000000E+00  0.00000000000E+00 -0.90121257926E+03  0.37094358621E+04  0.35982954717E+04 0.  0.
        1    1    3    3  502    0 -0.12256246934E+04  0.60982132333E+03 -0.16540954578E+04  0.21471072910E+04  0.50400001928E-02 0.  1.
       -1    1    3    3    0  502  0.12256246934E+04 -0.60982132333E+03  0.75288287854E+03  0.15623285711E+04  0.50400001928E-02 0. -1.
</event>
<event>
 5   0  0.2608070E-08  0.3601575E+04  0.7818609E-02  0.8090131E-01
       -2   -1    0    0    0  501  0.00000000000E+00  0.00000000000E+00  0.16973490154E+04  0.16973490154E+04  0.25500000920E-02 0.  1.
        2   -1    0    0  501    0  0.00000000000E+00  0.00000000000E+00 -0.19105300481E+04  0.19105300481E+04  0.25500000920E-02 0. -1.
    10030    2    1    2    0    0  0.00000000000E+00  0.00000000000E+00 -0.21318103275E+03  0.36078790635E+04  0.36015753753E+04 0.  0.
        3    1    3    3  502    0 -0.14821029292E+04 -0.34809892819E+03  0.85687990958E+03  0.17470103452E+04  0.10100000352E+00 0.  1.
       -3    1    3    3    0  502  0.14821029292E+04  0.34809892819E+03 -0.10700609423E+04  0.18608687184E+04  0.10100000352E+00 0. -1.
</event>
<event>
 5   0  0.8146881E-09  0.3599733E+04  0.7818609E-02  0.8090553E-01
       -1   -1    0    0    0  501  0.00000000000E+00  0.00000000000E+00  0.20724410187E+04  0.20724410187E+04  0.50400001928E-02 0. -1.
        1   -1    0    0  501    0  0.00000000000E+00  0.00000000000E+00 -0.15631417222E+04  0.15631417222E+04  0.50400001928E-02 0.  1.
    10030    2    1    2    0    0  0.00000000000E+00  0.00000000000E+00  0.50929929657E+03  0.36355827409E+04  0.35997327807E+04 0.  0.
        4    1    3    3  502    0  0.80092666476E+03 -0.13825257938E+04 -0.58225018259E+03  0.17005522576E+04  0.12699999809E+01 0.  1.
       -4    1    3    3    0  502 -0.80092666476E+03  0.13825257938E+04  0.10915494792E+04  0.19350304833E+04  0.12699999809E+01 0. -1.
</event>
<event>
 5   0  0.2482243E-08  0.3599057E+04  0.7818609E-02  0.8090708E-01
       -2   -1    0    0    0  501  0.00000000000E+00  0.00000000000E+00  0.21807368925E+04  0.21807368925E+04  0.25500000920E-02 0.  1.
        2   -1    0    0  501    0  0.00000000000E+00  0.00000000000E+00 -0.14849581808E+04  0.14849581808E+04  0.25500000920E-02 0. -1.
    10030    2    1    2    0    0  0.00000000000E+00  0.00000000000E+00  0.69577871169E+03  0.36656950733E+04  0.35990571480E+04 0.  0.
        5    1    3    3  502    0  0.14524852444E+04 -0.45274121259E+03  0.13267207980E+04  0.20186376982E+04  0.46999998093E+01 0.  1.
       -5    1    3    3    0  502 -0.14524852444E+04  0.45274121259E+03 -0.63094208630E+03  0.16470573751E+04  0.46999998093E+01 0. -1.
</event>
<event>
 5   0  0.2476968E-08  0.3598257E+04  0.7818609E-02  0.8090891E-01
       -2   -1    0    0    0  501  0.00000000000E+00  0.00000000000E+00  0.13697857840E+04  0.13697857840E+04  0.25500000920E-02 0. -1.
        2   -1    0    0  501    0  0.00000000000E+00  0.00000000000E+00 -0.23630432876E+04  0.23630432876E+04  0.25500000920E-02 0.  1.
    10030    2    1    2    0    0  0.00000000000E+00  0.00000000000E+00 -0.99325750353E+03  0.37328290716E+04  0.35982568571E+04 0.  0.
        2    1    3    3  502    0  0.77709191046E+03 -0.94413009166E+03 -0.18656851884E+04  0.22307027345E+04  0.25500000920E-02 0.  1.
       -2    1    3    3    0  502 -0.77709191046E+03  0.94413009166E+03  0.87242768490E+03  0.15021263371E+04  0.25500000920E-02 0. -1.
</event>
<event>
 5   0  0.2476968E-08  0.3600169E+04  0.7818609E-02  0.8090453E-01
        2   -1    0    0  501    0  0.00000000000E+00  0.00000000000E+00  0.24908183563E+04  0.24908183563E+04  0.25500000920E-02 0. -1.
       -2   -1    0    0    0  501  0.00000000000E+00  0.00000000000E+00 -0.13008994384E+04  0.13008994384E+04  0.25500000920E-02 0.  1.
    10030    2    1    2    0    0  0.00000000000E+00  0.00000000000E+00  0.11899189179E+04  0.37917177946E+04  0.36001689964E+04 0.  0.
        2    1    3    3  502    0  0.21796487284E+03  0.78714972303E+03  0.22844241378E+04  0.24260476116E+04  0.25500000920E-02 0. -1.
       -2    1    3    3    0  502 -0.21796487284E+03 -0.78714972303E+03 -0.10945052199E+04  0.13656701830E+04  0.25500000920E-02 0.  1.
</event>
<event>
 5   0  0.8247570E-09  0.3600088E+04  0.7818609E-02  0.8090472E-01
        1   -1    0    0  501    0  0.00000000000E+00  0.00000000000E+00  0.15367530417E+04  0.15367530417E+04  0.50400001928E-02 0. -1.
       -1   -1    0    0    0  501  0.00000000000E+00  0.00000000000E+00 -0.21084445882E+04  0.21084445882E+04  0.50400001928E-02 0.  1.
    10030    2    1    2    0    0  0.00000000000E+00  0.00000000000E+00 -0.57169154650E+03  0.36451976299E+04  0.36000881290E+04 0.  0.
        3    1    3    3  502    0  0.19595076927E+03  0.16862318888E+04  0.32030716552E+03  0.17275333216E+04  0.10100000352E+00 0. -1.
       -3    1    3    3    0  502 -0.19595076927E+03 -0.16862318888E+04 -0.89199871202E+03  0.19176643083E+04  0.10100000352E+00 0.  1.
</event>
<event>
 5   0  0.8063410E-09  0.3599372E+04  0.7818609E-02  0.8090636E-01
        1   -1    0    0  501    0  0.00000000000E+00  0.00000000000E+00  0.18707133287E+04  0.18707133287E+04  0.50400001928E-02 0.  1.
       -1   -1    0    0    0  501  0.00000000000E+00  0.00000000000E+00 -0.17313556703E+04  0.17313556703E+04  0.50400001928E-02 0. -1.
    10030    2    1    2    0    0  0.00000000000E+00  0.00000000000E+00  0.13935765841E+03  0.36020689991E+04  0.35993722393E+04 0.  0.
        2    1    3    3  502    0 -0.15465072374E+04  0.33452344421E+02  0.99018668208E+03  0.18366473151E+04  0.25500000920E-02 0.  1.
       -2    1    3    3    0  502  0.15465072374E+04 -0.33452344421E+02 -0.85082902366E+03  0.17654216840E+04  0.25500000920E-02 0. -1.
</event>
<event>
 5   0  0.2494592E-08  0.3600501E+04  0.7818609E-02  0.8090377E-01
       -2   -1    0    0    0  501  0.00000000000E+00  0.00000000000E+00  0.14890130075E+04  0.14890130075E+04  0.25500000920E-02 0. -1.
        2   -1    0    0  501    0  0.00000000000E+00  0.00000000000E+00 -0.21765438709E+04  0.21765438709E+04  0.25500000920E-02 0.  1.
    10030    2    1    2    0    0  0.00000000000E+00  0.00000000000E+00 -0.68753086341E+03  0.36655568784E+04  0.36005011513E+04 0.  0.
        1    1    3    3  502    0 -0.79889327154E+03  0.12139419211E+04 -0.14255161428E+04  0.20356772142E+04  0.50400001928E-02 0.  1.
       -1    1    3    3    0  502  0.79889327154E+03 -0.12139419211E+04  0.73798527937E+03  0.16298796642E+04  0.50400001928E-02 0. -1.
</event>
<event>
 5   0  0.8063410E-09  0.3599555E+04  0.7818609E-02  0.8090594E-01
       -1   -1    0    0    0  501  0.00000000000E+00  0.00000000000E+00  0.13810207247E+04  0.13810207247E+04  0.50400001928E-02 0. -1.
        1   -1    0    0  501    0  0.00000000000E+00  0.00000000000E+00 -0.23455108197E+04  0.23455108197E+04  0.50400001928E-02 0.  1.
    10030    2    1    2    0    0  0.00000000000E+00  0.00000000000E+00 -0.96449009499E+03  0.37265315444E+04  0.35995550014E+04 0.  0.
        2    1    3    3  502    0 -0.15877182421E+04  0.54716888369E+02 -0.13578678624E+04  0.20898919317E+04  0.25500000920E-02 0.  1.
       -2    1    3    3    0  502  0.15877182421E+04 -0.54716888369E+02  0.39337776744E+03  0.16366396128E+04  0.25500000920E-02 0. -1.
</event>
<event>
 5   0  0.8024500E-09  0.3600119E+04  0.7818609E-02  0.8090464E-01
        1   -1    0    0  501    0  0.00000000000E+00  0.00000000000E+00  0.22262979972E+04  0.22262979972E+04  0.50400001928E-02 0.  1.
       -1   -1    0    0    0  501  0.00000000000E+00  0.00000000000E+00 -0.14554273989E+04  0.14554273989E+04  0.50400001928E-02 0. -1.
    10030    2    1    2    0    0  0.00000000000E+00  0.00000000000E+00  0.77087059833E+03  0.36817253961E+04  0.36001194998E+04 0.  0.
        5    1    3    3  502    0 -0.30494050179E+02 -0.12293905564E+04  0.17297130218E+04  0.21223242577E+04  0.46999998093E+01 0.  1.
       -5    1    3    3    0  502  0.30494050179E+02  0.12293905564E+04 -0.95884242345E+03  0.15594011383E+04  0.46999998093E+01 0. -1.
</event>
<event>
 5   0  0.2482243E-08  0.3588669E+04  0.7818609E-02  0.8093092E-01
        2   -1    0    0  501    0  0.00000000000E+00  0.00000000000E+00  0.15501649306E+04  0.15501649306E+04  0.25500000920E-02 0.  1.
       -2   -1    0    0    0  501  0.00000000000E+00  0.00000000000E+00 -0.20769634767E+04  0.20769634767E+04  0.25500000920E-02 0. -1.
    10030    2    1    2    0    0  0.00000000000E+00  0.00000000000E+00 -0.52679854614E+03  0.36271284073E+04  0.35886688027E+04 0.  0.
        5    1    3    3  502    0 -0.11244497931E+03 -0.11098333245E+04  0.11570949907E+04  0.16072538036E+04  0.46999998093E+01 0.  1.
       -5    1    3    3    0  502  0.11244497931E+03  0.11098333245E+04 -0.16838935369E+04  0.20198746038E+04  0.46999998093E+01 0. -1.
</event>
<event>
 5   0  0.8063410E-09  0.3599372E+04  0.7818609E-02  0.8090635E-01
        1   -1    0    0  501    0  0.00000000000E+00  0.00000000000E+00  0.23690765922E+04  0.23690765922E+04  0.50400001928E-02 0.  1.
       -1   -1    0    0    0  501  0.00000000000E+00  0.00000000000E+00 -0.13671446805E+04  0.13671446805E+04  0.50400001928E-02 0. -1.
    10030    2    1    2    0    0  0.00000000000E+00  0.00000000000E+00  0.10019319117E+04  0.37362212727E+04  0.35993724235E+04 0.  0.
        2    1    3    3  502    0 -0.77047031691E+03 -0.11442056421E+03  0.21850410067E+04  0.23197242887E+04  0.25500000920E-02 0.  1.
       -2    1    3    3    0  502  0.77047031691E+03  0.11442056421E+03 -0.11831090950E+04  0.14164969839E+04  0.25500000920E-02 0. -1.
</event>
<event>
 5   0  0.8247570E-09  0.3601045E+04  0.7818609E-02  0.8090252E-01
       -1   -1    0    0    0  501  0.00000000000E+00  0.00000000000E+00  0.22123421475E+04  0.22123421475E+04  0.50400001928E-02 0.  1.
        1   -1    0    0  501    0  0.00000000000E+00  0.00000000000E+00 -0.14653614321E+04  0.14653614321E+04  0.50400001928E-02 0. -1.
    10030    2    1    2    0    0  0.00000000000E+00  0.00000000000E+00  0.74698071540E+03  0.36777035795E+04  0.36010447692E+04 0.  0.
        3    1    3    3  502    0 -0.15233112282E+04 -0.49129466634E+03 -0.46870586990E+03  0.16677927778E+04  0.10100000352E+00 0. -1.
       -3    1    3    3    0  502  0.15233112282E+04  0.49129466634E+03  0.12156865853E+04  0.20099108017E+04  0.10100000352E+00 0.  1.
</event>
<event>
 5   0  0.8024500E-09  0.3600725E+04  0.7818609E-02  0.8090326E-01
        1   -1    0    0  501    0  0.00000000000E+00  0.00000000000E+00  0.18733375140E+04  0.18733375140E+04  0.50400001928E-02 0. -1.
       -1   -1    0    0    0  501  0.00000000000E+00  0.00000000000E+00 -0.17302300564E+04  0.17302300564E+04  0.50400001928E-02 0.  1.
    10030    2    1    2    0    0  0.00000000000E+00  0.00000000000E+00  0.14310745756E+03  0.36035675705E+04  0.36007248562E+04 0.  0.
        5    1    3    3  502    0 -0.82322385852E+03  0.14474820767E+04 -0.61337017161E+03  0.17745835965E+04  0.46999998093E+01 0.  1.
       -5    1    3    3    0  502  0.82322385852E+03 -0.14474820767E+04  0.75647762916E+03  0.18289839740E+04  0.46999998093E+01 0. -1.
</event>
<event>
 5   0  0.2476968E-08  0.3575306E+04  0.7818609E-02  0.8096172E-01
        2   -1    0    0  501    0  0.00000000000E+00  0.00000000000E+00  0.98542951783E+03  0.98542951784E+03  0.25500000920E-02 0.  1.
       -2   -1    0    0    0  501  0.00000000000E+00  0.00000000000E+00 -0.32429551846E+04  0.32429551846E+04  0.25500000920E-02 0. -1.
    10030    2    1    2    0    0  0.00000000000E+00  0.00000000000E+00 -0.22575256667E+04  0.42283847024E+04  0.35753062884E+04 0.  0.
        2    1    3    3  502    0  0.13730136263E+04 -0.62288224980E+03  0.71823781908E+01  0.15077136007E+04  0.25500000920E-02 0.  1.
       -2    1    3    3    0  502 -0.13730136263E+04  0.62288224980E+03 -0.22647080449E+04  0.27206711017E+04  0.25500000920E-02 0. -1.
</event>
<event>
 5   0  0.2494592E-08  0.3600201E+04  0.7818609E-02  0.8090446E-01
       -2   -1    0    0    0  501  0.00000000000E+00  0.00000000000E+00  0.24085790611E+04  0.24085790611E+04  0.25500000920E-02 0.  1.
        2   -1    0    0  501    0  0.00000000000E+00  0.00000000000E+00 -0.13453415944E+04  0.13453415944E+04  0.25500000920E-02 0. -1.
    10030    2    1    2    0    0  0.00000000000E+00  0.00000000000E+00  0.10632374667E+04  0.37539206555E+04  0.36002008802E+04 0.  0.
        1    1    3    3  502    0 -0.44979350215E+03 -0.13780050573E+04  0.16444996872E+04  0.21921659047E+04  0.50400001928E-02 0.  1.
       -1    1    3    3    0  502  0.44979350215E+03  0.13780050573E+04 -0.58126222050E+03  0.15617547508E+04  0.50400001928E-02 0. -1.
</event>
<event>
 5   0  0.8247570E-09  0.3583729E+04  0.7818609E-02  0.8094229E-01
        1   -1    0    0  501    0  0.00000000000E+00  0.00000000000E+00  0.11544139501E+04  0.11544139501E+04  0.50400001928E-02 0. -1.
       -1   -1    0    0    0  501  0.00000000000E+00  0.00000000000E+00 -0.27813054218E+04  0.27813054219E+04  0.50400001928E-02 0.  1.
    10030    2    1    2    0    0  0.00000000000E+00  0.00000000000E+00 -0.16268914717E+04  0.39357193720E+04  0.35837286608E+04 0.  0.
        3    1    3    3  502    0 -0.14126403290E+04 -0.25677303308E+03  0.36390083860E+03  0.14811849716E+04  0.10100000352E+00 0. -1.
       -3    1    3    3    0  502  0.14126403290E+04  0.25677303308E+03 -0.19907923103E+04  0.24545344004E+04  0.10100000352E+00 0.  1.
</event>
<event>
 5   0  0.2494592E-08  0.3598934E+04  0.7818609E-02  0.8090736E-01
       -2   -1    0    0    0  501  0.00000000000E+00  0.00000000000E+00  0.19706389331E+04  0.19706389331E+04  0.25500000920E-02 0.  1.
        2   -1    0    0  501    0  0.00000000000E+00  0.00000000000E+00 -0.16431635341E+04  0.16431635341E+04  0.25500000920E-02 0. -1.
    10030    2    1    2    0    0  0.00000000000E+00  0.00000000000E+00  0.32747539902E+03  0.36138024671E+04  0.35989343054E+04 0.  0.
        1    1    3    3  502    0  0.17121699056E+04 -0.21940571133E+03 -0.34671011878E+03  0.17606454948E+04  0.50400001928E-02 0. -1.
       -1    1    3    3    0  502 -0.17121699056E+04  0.21940571133E+03  0.67418551780E+03  0.18531569724E+04  0.50400001928E-02 0.  1.
</event>
<event>
 5   0  0.2494592E-08  0.3598887E+04  0.7818609E-02  0.8090747E-01
        2   -1    0    0  501    0  0.00000000000E+00  0.00000000000E+00  0.21532843827E+04  0.21532843827E+04  0.25500000920E-02 0.  1.
       -2   -1    0    0    0  501  0.00000000000E+00  0.00000000000E+00 -0.15037481429E+04  0.15037481429E+04  0.25500000920E-02 0. -1.
    10030    2    1    2    0    0  0.00000000000E+00  0.00000000000E+00  0.64953623971E+03  0.36570325256E+04  0.35988872678E+04 0.  0.
        1    1    3    3  502    0  0.13993406796E+04 -0.25511302508E+03 -0.79520059861E+03  0.16295953440E+04  0.50400001928E-02 0. -1.
       -1    1    3    3    0  502 -0.13993406796E+04  0.25511302508E+03  0.14447368383E+04  0.20274371816E+04  0.50400001928E-02 0.  1.
</event>
<event>
 5   0  0.2482243E-08  0.3623584E+04  0.7818609E-02  0.8085111E-01
       -2   -1    0    0    0  501  0.00000000000E+00  0.00000000000E+00  0.15802671522E+04  0.15802671522E+04  0.25500000920E-02 0.  1.
        2   -1    0    0  501    0  0.00000000000E+00  0.00000000000E+00 -0.20772374271E+04  0.20772374271E+04  0.25500000920E-02 0. -1.
    10030    2    1    2    0    0  0.00000000000E+00  0.00000000000E+00 -0.49697027484E+03  0.36575045793E+04  0.36235839018E+04 0.  0.
        5    1    3    3  502    0 -0.11945639042E+04  0.13240990078E+04 -0.57139689637E+03  0.18726285288E+04  0.46999998093E+01 0. -1.
       -5    1    3    3    0  502  0.11945639042E+04 -0.13240990078E+04  0.74426621530E+02  0.17848760505E+04  0.46999998093E+01 0.  1.
</event>
<event>
 5   0  0.2608070E-08  0.3596606E+04  0.7818609E-02  0.8091270E-01
       -2   -1    0    0    0  501  0.00000000000E+00  0.00000000000E+00  0.12481998018E+04  0.12481998018E+04  0.25500000920E-02 0. -1.
        2   -1    0    0  501    0  0.00000000000E+00  0.00000000000E+00 -0.25908454614E+04  0.25908454614E+04  0.25500000920E-02 0.  1.
    10030    2    1    2    0    0  0.00000000000E+00  0.00000000000E+00 -0.13426456596E+04  0.38390452633E+04  0.35966055061E+04 0.  0.
        3    1    3    3  502    0 -0.99132179303E+02 -0.22407662059E+03  0.12302982654E+04  0.12544605825E+04  0.10100000352E+00 0. -1.
       -3    1    3    3    0  502  0.99132179303E+02  0.22407662059E+03 -0.25729439250E+04  0.25845846808E+04  0.10100000352E+00 0.  1.
</event>
<event>
 5   0  0.8024500E-09  0.3600183E+04  0.7818609E-02  0.8090450E-01
        1   -1    0    0  501    0  0.00000000000E+00  0.00000000000E+00  0.19867823412E+04  0.19867823412E+04  0.50400001928E-02 0. -1.
       -1   -1    0    0    0  501  0.00000000000E+00  0.00000000000E+00 -0.16309435190E+04  0.16309435190E+04  0.50400001928E-02 0.  1.
    10030    2    1    2    0    0  0.00000000000E+00  0.00000000000E+00  0.35583882213E+03  0.36177258602E+04  0.36001832082E+04 0.  0.
        1    1    3    3  502    0 -0.10320482190E+04  0.32201415234E+03 -0.12683689752E+04  0.16666062817E+04  0.50400001928E-02 0.  1.
       -1    1    3    3    0  502  0.10320482190E+04 -0.32201415234E+03  0.16242077974E+04  0.19511195785E+04  0.50400001928E-02 0. -1.
</event>
<event>
 5   0  0.8024500E-09  0.3586976E+04  0.7818609E-02  0.8093482E-01
        1   -1    0    0  501    0  0.00000000000E+00  0.00000000000E+00  0.16260911513E+04  0.16260911513E+04  0.50400001928E-02 0.  1.
       -1   -1    0    0    0  501  0.00000000000E+00  0.00000000000E+00 -0.19781170474E+04  0.19781170475E+04  0.50400001928E-02 0. -1.
    10030    2    1    2    0    0  0.00000000000E+00  0.00000000000E+00 -0.35202589618E+03  0.36042081987E+04  0.35869756771E+04 0.  0.
        1    1    3    3  502    0  0.57151339353E+03 -0.12886146149E+04  0.93811666026E+03  0.16932861698E+04  0.50400001928E-02 0.  1.
       -1    1    3    3    0  502 -0.57151339353E+03  0.12886146149E+04 -0.12901425564E+04  0.19109220289E+04  0.50400001928E-02 0. -1.
</event>
<event>
 5   0  0.8247570E-09  0.3600406E+04  0.7818609E-02  0.8090399E-01
       -1   -1    0    0    0  501  0.00000000000E+00  0.00000000000E+00  0.15274266000E+04  0.15274266000E+04  0.50400001928E-02 0. -1.
        1   -1    0    0  501    0  0.00000000000E+00  0.00000000000E+00 -0.21216938625E+04  0.21216938625E+04  0.50400001928E-02 0.  1.
    10030    2    1    2    0    0  0.00000000000E+00  0.00000000000E+00 -0.59426726258E+03  0.36491204625E+04  0.36004064452E+04 0.  0.
        3    1    3    3  502    0 -0.55785508132E+03 -0.11973265827E+04  0.94250049712E+03  0.16226830974E+04  0.10100000352E+00 0. -1.
       -3    1    3    3    0  502  0.55785508132E+03  0.11973265827E+04 -0.15367677597E+04  0.20264373651E+04  0.10100000352E+00 0.  1.
</event>
<event>
 5   0  0.2482243E-08  0.3600196E+04  0.7818609E-02  0.8090447E-01
       -2   -1    0    0    0  501  0.00000000000E+00  0.00000000000E+00  0.12458010121E+04  0.12458010121E+04  0.25500000920E-02 0. -1.
        2   -1    0    0  501    0  0.00000000000E+00  0.00000000000E+00 -0.26010199119E+04  0.26010199119E+04  0.25500000920E-02 0.  1.
    10030    2    1    2    0    0  0.00000000000E+00  0.00000000000E+00 -0.13552188999E+04  0.38468209240E+04  0.36001962383E+04 0.  0.
        5    1    3    3  502    0  0.17588571618E+03 -0.84432777526E+03  0.10106613165E+04  0.13286397420E+04  0.46999998093E+01 0. -1.
       -5    1    3    3    0  502 -0.17588571618E+03  0.84432777526E+03 -0.23658802164E+04  0.25181811820E+04  0.46999998093E+01 0.  1.
</event>
<event>
 5   0  0.2494592E-08  0.3600805E+04  0.7818609E-02  0.8090307E-01
        2   -1    0    0  501    0  0.00000000000E+00  0.00000000000E+00  0.14643834509E+04  0.14643834509E+04  0.25500000920E-02 0.  1.
       -2   -1    0    0    0  501  0.00000000000E+00  0.00000000000E+00 -0.22135248172E+04  0.22135248172E+04  0.25500000920E-02 0. -1.
    10030    2    1    2    0    0  0.00000000000E+00  0.00000000000E+00 -0.74914136625E+03  0.36779082681E+04  0.36008049713E+04 0.  0.
        1    1    3    3  502    0 -0.70226152163E+03 -0.42434737907E+03 -0.20114487161E+04  0.21723645827E+04  0.50400001928E-02 0. -1.
       -1    1    3    3    0  502  0.70226152163E+03  0.42434737907E+03  0.12623073498E+04  0.15055436853E+04  0.50400001928E-02 0.  1.
</event>
<event>
 5   0  0.8024500E-09  0.3599243E+04  0.7818609E-02  0.8090665E-01
       -1   -1    0    0    0  501  0.00000000000E+00  0.00000000000E+00  0.13796162079E+04  0.13796162079E+04  0.50400001928E-02 0.  1.
        1   -1    0    0  501    0  0.00000000000E+00  0.00000000000E+00 -0.23474922102E+04  0.23474922102E+04  0.50400001928E-02 0. -1.
    10030    2    1    2    0    0  0.00000000000E+00  0.00000000000E+00 -0.96787600231E+03  0.37271084181E+04  0.35992434211E+04 0.  0.
        5    1    3    3  502    0 -0.12544843663E+04  0.65421797629E+03 -0.16356006899E+04  0.21626243069E+04  0.46999998093E+01 0. -1.
       -5    1    3    3    0  502  0.12544843663E+04 -0.65421797629E+03  0.66772468761E+03  0.15644841112E+04  0.46999998093E+01 0.  1.
</event>
<event>
 5   0  0.8024500E-09  0.3600340E+04  0.7818609E-02  0.8090414E-01
        1   -1    0    0  501    0  0.00000000000E+00  0.00000000000E+00  0.19122770447E+04  0.19122770447E+04  0.50400001928E-02 0. -1.
       -1   -1    0    0    0  501  0.00000000000E+00  0.00000000000E+00 -0.16946356605E+04  0.16946356605E+04  0.50400001928E-02 0.  1.
    10030    2    1    2    0    0  0.00000000000E+00  0.00000000000E+00  0.21764138420E+03  0.36069127052E+04  0.36003404687E+04 0.  0.
        5    1    3    3  502    0  0.72150490838E+03 -0.15615536806E+03 -0.15360159037E+04  0.17042067886E+04  0.46999998093E+01 0.  1.
       -5    1    3    3    0  502 -0.72150490838E+03  0.15615536806E+03  0.17536572879E+04  0.19027059166E+04  0.46999998093E+01 0. -1.
</event>
<event>
 5   0  0.2494592E-08  0.3599771E+04  0.7818609E-02  0.8090544E-01
       -2   -1    0    0    0  501  0.00000000000E+00  0.00000000000E+00  0.14692943338E+04  0.14692943338E+04  0.25500000920E-02 0. -1.
        2   -1    0    0  501    0  0.00000000000E+00  0.00000000000E+00 -0.22048595590E+04  0.22048595590E+04  0.25500000920E-02 0.  1.
    10030    2    1    2    0    0  0.00000000000E+00  0.00000000000E+00 -0.73556522528E+03  0.36741538928E+04  0.35997709132E+04 0.  0.
        1    1    3    3  502    0 -0.54004114598E+03 -0.14475515926E+04  0.57462601098E+03  0.16484068385E+04  0.50400001928E-02 0. -1.
       -1    1    3    3    0  502  0.54004114598E+03  0.14475515926E+04 -0.13101912363E+04  0.20257470543E+04  0.50400001928E-02 0.  1.
</event>
<event>
 5   0  0.8247570E-09  0.3597235E+04  0.7818609E-02  0.8091125E-01
        1   -1    0    0  501    0  0.00000000000E+00  0.00000000000E+00  0.18269924842E+04  0.18269924842E+04  0.50400001928E-02 0.  1.
       -1   -1    0    0    0  501  0.00000000000E+00  0.00000000000E+00 -0.17706833380E+04  0.17706833380E+04  0.50400001928E-02 0. -1.
    10030    2    1    2    0    0  0.00000000000E+00  0.00000000000E+00  0.56309146225E+02  0.35976758222E+04  0.35972351329E+04 0.  0.
        3    1    3    3  502    0 -0.23706667287E+03  0.87626653449E+02  0.18091439414E+04  0.18267131271E+04  0.10100000352E+00 0.  1.
       -3    1    3    3    0  502  0.23706667287E+03 -0.87626653449E+02 -0.17528347952E+04  0.17709626950E+04  0.10100000352E+00 0. -1.
</event>
<event>
 5   0  0.8063410E-09  0.3600065E+04  0.7818609E-02  0.8090477E-01
       -1   -1    0    0    0  501  0.00000000000E+00  0.00000000000E+00  0.16723137510E+04  0.16723137510E+04  0.50400001928E-02 0.  1.
        1   -1    0    0  501    0  0.00000000000E+00  0.00000000000E+00 -0.19375057115E+04  0.19375057115E+04  0.50400001928E-02 0. -1.
    10030    2    1    2    0    0  0.00000000000E+00  0.00000000000E+00 -0.26519196050E+03  0.36098194625E+04  0.36000652460E+04 0.  0.
        2    1    3    3  502    0  0.33646818430E+03  0.44508013986E+03  0.15834176376E+04  0.16788444196E+04  0.25500000920E-02 0.  1.
       -2    1    3    3    0  502 -0.33646818430E+03 -0.44508013986E+03 -0.18486095981E+04  0.19309750429E+04  0.25500000920E-02 0. -1.
</event>
<event>
 5   0  0.8146881E-09  0.3599000E+04  0.7818609E-02  0.8090721E-01
       -1   -1    0    0    0  501  0.00000000000E+00  0.00000000000E+00  0.30588108064E+04  0.30588108064E+04  0.50400001928E-02 0.  1.
        1   -1    0    0  501    0  0.00000000000E+00  0.00000000000E+00 -0.10586465067E+04  0.10586465067E+04  0.50400001928E-02 0. -1.
    10030    2    1    2    0    0  0.00000000000E+00  0.00000000000E+00  0.20001642997E+04  0.41174573131E+04  0.35989995137E+04 0.  0.
        4    1    3    3  502    0  0.68827951519E+03 -0.87822747249E+03 -0.61509880641E+03  0.12741115881E+04  0.12699999809E+01 0. -1.
       -4    1    3    3    0  502 -0.68827951519E+03  0.87822747249E+03  0.26152631062E+04  0.28433457250E+04  0.12699999809E+01 0.  1.
</event>
<event>
 5   0  0.8146881E-09  0.3597169E+04  0.7818609E-02  0.8091140E-01
        1   -1    0    0  501    0  0.00000000000E+00  0.00000000000E+00  0.27499831653E+04  0.27499831653E+04  0.50400001928E-02 0.  1.
       -1   -1    0    0    0  501  0.00000000000E+00  0.00000000000E+00 -0.11763368876E+04  0.11763368876E+04  0.50400001928E-02 0. -1.
    10030    2    1    2    0    0  0.00000000000E+00  0.00000000000E+00  0.15736462778E+04  0.39263200529E+04  0.35971692413E+04 0.  0.
        4    1    3    3  502    0 -0.96700295631E+03 -0.29697396132E+03  0.24100520321E+04  0.26137407410E+04  0.12699999809E+01 0.  1.
       -4    1    3    3    0  502  0.96700295631E+03  0.29697396132E+03 -0.83640575429E+03  0.13125793119E+04  0.12699999809E+01 0. -1.
</event>
<event>
 5   0  0.8024500E-09  0.3599728E+04  0.7818609E-02  0.8090554E-01
       -1   -1    0    0    0  501  0.00000000000E+00  0.00000000000E+00  0.18226948998E+04  0.18226948998E+04  0.50400001928E-02 0. -1.
        1   -1    0    0  501    0  0.00000000000E+00  0.00000000000E+00 -0.17773188053E+04  0.17773188054E+04  0.50400001928E-02 0.  1.
    10030    2    1    2    0    0  0.00000000000E+00  0.00000000000E+00  0.45376094422E+02  0.36000137051E+04  0.35997277240E+04 0.  0.
        1    1    3    3  502    0  0.15826861529E+03 -0.89953158835E+03 -0.15283393812E+04  0.17804570473E+04  0.50400001928E-02 0.  1.
       -1    1    3    3    0  502 -0.15826861529E+03  0.89953158835E+03  0.15737154756E+04  0.18195566579E+04  0.50400001928E-02 0. -1.
</event>
<event>
 5   0  0.8247570E-09  0.3595708E+04  0.7818609E-02  0.8091475E-01
       -1   -1    0    0    0  501  0.00000000000E+00  0.00000000000E+00  0.31355217422E+04  0.31355217422E+04  0.50400001928E-02 0. -1.
        1   -1    0    0  501    0  0.00000000000E+00  0.00000000000E+00 -0.10308585280E+04  0.10308585280E+04  0.50400001928E-02 0.  1.
    10030    2    1    2    0    0  0.00000000000E+00  0.00000000000E+00  0.21046632142E+04  0.41663802702E+04  0.35957081792E+04 0.  0.
        3    1    3    3  502    0  0.27013153648E+03  0.15101928233E+04  0.21384482543E+04  0.26318461879E+04  0.10100000352E+00 0. -1.
       -3    1    3    3    0  502 -0.27013153648E+03 -0.15101928233E+04 -0.33785040077E+02  0.15345340822E+04  0.10100000352E+00 0.  1.
</event>
<event>
 5   0  0.8146881E-09  0.3599475E+04  0.7818609E-02  0.8090612E-01
        1   -1    0    0  501    0  0.00000000000E+00  0.00000000000E+00  0.15366960106E+04  0.15366960106E+04  0.50400001928E-02 0.  1.
       -1   -1    0    0    0  501  0.00000000000E+00  0.00000000000E+00 -0.21078043546E+04  0.21078043546E+04  0.50400001928E-02 0. -1.
    10030    2    1    2    0    0  0.00000000000E+00  0.00000000000E+00 -0.57110834400E+03  0.36445003652E+04  0.35994747077E+04 0.  0.
        4    1    3    3  502    0 -0.68218032313E+03  0.16436464524E+04 -0.13663417572E+02  0.17796437722E+04  0.12699999809E+01 0.  1.
       -4    1    3    3    0  502  0.68218032313E+03 -0.16436464524E+04 -0.55744492642E+03  0.18648565931E+04  0.12699999809E+01 0. -1.
</event>
<event>
 5   0  0.2608070E-08  0.3596992E+04  0.7818609E-02  0.8091181E-01
        2   -1    0    0  501    0  0.00000000000E+00  0.00000000000E+00  0.25861972898E+04  0.25861972898E+04  0.25500000920E-02 0. -1.
       -2   -1    0    0    0  501  0.00000000000E+00  0.00000000000E+00 -0.12507122454E+04  0.12507122454E+04  0.25500000920E-02 0.  1.
    10030    2    1    2    0    0  0.00000000000E+00  0.00000000000E+00  0.13354850444E+04  0.38369095352E+04  0.35969924211E+04 0.  0.
        3    1    3    3  502    0  0.99361029439E+03  0.13815865419E+04  0.12883982455E+04  0.21344818666E+04  0.10100000352E+00 0. -1.
       -3    1    3    3    0  502 -0.99361029439E+03 -0.13815865419E+04  0.47086798933E+02  0.17024276685E+04  0.10100000352E+00 0.  1.
</event>
<event>
 5   0  0.8063410E-09  0.3601687E+04  0.7818609E-02  0.8090105E-01
       -1   -1    0    0    0  501  0.00000000000E+00  0.00000000000E+00  0.24626131984E+04  0.24626131984E+04  0.50400001928E-02 0. -1.
        1   -1    0    0  501    0  0.00000000000E+00  0.00000000000E+00 -0.13169087248E+04  0.13169087249E+04  0.50400001928E-02 0.  1.
    10030    2    1    2    0    0  0.00000000000E+00  0.00000000000E+00  0.11457044736E+04  0.37795219233E+04  0.36016867198E+04 0.  0.
        2    1    3    3  502    0 -0.69432952517E+01 -0.17999578392E+04  0.51404623218E+03  0.18719348175E+04  0.25500000920E-02 0. -1.
       -2    1    3    3    0  502  0.69432952517E+01  0.17999578392E+04  0.63165824137E+03  0.19075871058E+04  0.25500000920E-02 0.  1.
</event>
<event>
 5   0  0.8247570E-09  0.3599463E+04  0.7818609E-02  0.8090615E-01
       -1   -1    0    0    0  501  0.00000000000E+00  0.00000000000E+00  0.18777049227E+04  0.18777049227E+04  0.50400001928E-02 0. -1.
        1   -1    0    0  501    0  0.00000000000E+00  0.00000000000E+00 -0.17249959809E+04  0.17249959809E+04  0.50400001928E-02 0.  1.
    10030    2    1    2    0    0  0.00000000000E+00  0.00000000000E+00  0.15270894179E+03  0.36027009036E+04  0.35994629849E+04 0.  0.
        3    1    3    3  502    0 -0.67480515650E+03 -0.14282434801E+04 -0.78685510052E+03  0.17647612861E+04  0.10100000352E+00 0.  1.
       -3    1    3    3    0  502  0.67480515650E+03  0.14282434801E+04  0.93956404231E+03  0.18379396175E+04  0.10100000352E+00 0. -1.
</event>
<event>
 5   0  0.8063410E-09  0.3599701E+04  0.7818609E-02  0.8090560E-01
       -1   -1    0    0    0  501  0.00000000000E+00  0.00000000000E+00  0.14611352587E+04  0.14611352587E+04  0.50400001928E-02 0. -1.
        1   -1    0    0  501    0  0.00000000000E+00  0.00000000000E+00 -0.22170854575E+04  0.22170854575E+04  0.50400001928E-02 0.  1.
    10030    2    1    2    0    0  0.00000000000E+00  0.00000000000E+00 -0.75595019879E+03  0.36782207162E+04  0.35997009507E+04 0.  0.
        2    1    3    3  502    0  0.16956152939E+04 -0.59206589097E+03 -0.49804784656E+03  0.18637877835E+04  0.25500000920E-02 0.  1.
       -2    1    3    3    0  502 -0.16956152939E+04  0.59206589097E+03 -0.25790235224E+03  0.18144329328E+04  0.25500000920E-02 0. -1.
</event>
<event>
 5   0  0.2494592E-08  0.3600250E+04  0.7818609E-02  0.8090434E-01
        2   -1    0    0  501    0  0.00000000000E+00  0.00000000000E+00  0.33482504225E+04  0.33482504225E+04  0.25500000920E-02 0.  1.
       -2   -1    0    0    0  501  0.00000000000E+00  0.00000000000E+00 -0.96780397013E+03  0.96780397014E+03  0.25500000920E-02 0. -1.
    10030    2    1    2    0    0  0.00000000000E+00  0.00000000000E+00  0.23804464523E+04  0.43160543926E+04  0.36002500201E+04 0.  0.
        1    1    3    3  502    0  0.10766348872E+04  0.11609030396E+04  0.22170266645E+04  0.27243431830E+04  0.50400001928E-02 0.  1.
       -1    1    3    3    0  502 -0.10766348872E+04 -0.11609030396E+04  0.16341978780E+03  0.15917112096E+04  0.50400001928E-02 0. -1.
</event>
<event>
 5   0  0.8024500E-09  0.3600801E+04  0.7818609E-02  0.8090308E-01
       -1   -1    0    0    0  501  0.00000000000E+00  0.00000000000E+00  0.17273290249E+04  0.17273290249E+04  0.50400001928E-02 0. -1.
        1   -1    0    0  501    0  0.00000000000E+00  0.00000000000E+00 -0.18765634156E+04  0.18765634156E+04  0.50400001928E-02 0.  1.
    10030    2    1    2    0    0  0.00000000000E+00  0.00000000000E+00 -0.14923439062E+03  0.36038924405E+04  0.36008012746E+04 0.  0.
        1    1    3    3  502    0  0.14040264981E+04  0.10080515809E+03  0.10488393522E+04  0.17554247560E+04  0.50400001928E-02 0. -1.
       -1    1    3    3    0  502 -0.14040264981E+04 -0.10080515809E+03 -0.11980737428E+04  0.18484676845E+04  0.50400001928E-02 0.  1.
</event>
<event>
 5   0  0.2476968E-08  0.3601833E+04  0.7818609E-02  0.8090072E-01
       -2   -1    0    0    0  501  0.00000000000E+00  0.00000000000E+00  0.16097331608E+04  0.16097331608E+04  0.25500000920E-02 0. -1.
        2   -1    0    0  501    0  0.00000000000E+00  0.00000000000E+00 -0.20148059916E+04  0.20148059916E+04  0.25500000920E-02 0.  1.
    10030    2    1    2    0    0  0.00000000000E+00  0.00000000000E+00 -0.40507283080E+03  0.36245391524E+04  0.36018328764E+04 0.  0.
        2    1    3    3  502    0 -0.11391616071E+04 -0.26186826616E+03  0.11761500831E+04  0.16581897279E+04  0.25500000920E-02 0. -1.
       -2    1    3    3    0  502  0.11391616071E+04  0.26186826616E+03 -0.15812229139E+04  0.19663494245E+04  0.25500000920E-02 0.  1.
</event>
<event>
 5   0  0.8024500E-09  0.3595850E+04  0.7818609E-02  0.8091443E-01
        3   -1    0    0  501    0  0.00000000000E+00  0.00000000000E+00  0.16327324158E+04  0.16327324189E+04  0.10100000352E+00 0.  1.
       -3   -1    0    0    0  501  0.00000000000E+00  0.00000000000E+00 -0.19798312736E+04  0.19798312762E+04  0.10100000352E+00 0. -1.
    10030    2    1    2    0    0  0.00000000000E+00  0.00000000000E+00 -0.34709885786E+03  0.36125636951E+04  0.35958502241E+04 0.  0.
        3    1    3    3  502    0  0.17729410226E+04  0.23457437250E+03  0.12214554531E+02  0.17884334518E+04  0.10100000352E+00 0.  1.
       -3    1    3    3    0  502 -0.17729410226E+04 -0.23457437250E+03 -0.35931341239E+03  0.18241302433E+04  0.10100000352E+00 0. -1.
</event>
<event>
 5   0  0.8024500E-09  0.3606180E+04  0.7818609E-02  0.8089077E-01
       -1   -1    0    0    0  501  0.00000000000E+00  0.00000000000E+00  0.19688012118E+04  0.19688012118E+04  0.50400001928E-02 0. -1.
        1   -1    0    0  501    0  0.00000000000E+00  0.00000000000E+00 -0.16513267774E+04  0.16513267774E+04  0.50400001928E-02 0.  1.
    10030    2    1    2    0    0  0.00000000000E+00  0.00000000000E+00  0.31747443441E+03  0.36201279893E+04  0.36061803397E+04 0.  0.
        1    1    3    3  502    0 -0.18672710020E+03  0.16495986165E+04  0.86508606831E+03  0.18720086835E+04  0.50400001928E-02 0. -1.
       -1    1    3    3    0  502  0.18672710020E+03 -0.16495986165E+04 -0.54761163391E+03  0.17481193058E+04  0.50400001928E-02 0.  1.
</event>
<event>
 5   0  0.8247570E-09  0.3599686E+04  0.7818609E-02  0.8090564E-01
       -1   -1    0    0    0  501  0.00000000000E+00  0.00000000000E+00  0.13691395116E+04  0.13691395116E+04  0.50400001928E-02 0.  1.
        1   -1    0    0  501    0  0.00000000000E+00  0.00000000000E+00 -0.23660369259E+04  0.23660369259E+04  0.50400001928E-02 0. -1.
    10030    2    1    2    0    0  0.00000000000E+00  0.00000000000E+00 -0.99689741438E+03  0.37351764375E+04  0.35996858980E+04 0.  0.
        3    1    3    3  502    0  0.49104636274E+02  0.17859384630E+04 -0.72447121066E+03  0.19279123435E+04  0.10100000352E+00 0.  1.
       -3    1    3    3    0  502 -0.49104636274E+02 -0.17859384630E+04 -0.27242620372E+03  0.18072640940E+04  0.10100000352E+00 0. -1.
</event>
<event>
 5   0  0.2608070E-08  0.3599732E+04  0.7818609E-02  0.8090553E-01
        2   -1    0    0  501    0  0.00000000000E+00  0.00000000000E+00  0.12468747026E+04  0.12468747026E+04  0.25500000920E-02 0.  1.
       -2   -1    0    0    0  501  0.00000000000E+00  0.00000000000E+00 -0.25981097600E+04  0.25981097600E+04  0.25500000920E-02 0. -1.
    10030    2    1    2    0    0  0.00000000000E+00  0.00000000000E+00 -0.13512350575E+04  0.38449844626E+04  0.35997318424E+04 0.  0.
        3    1    3    3  502    0  0.12498633690E+04  0.12851262574E+04 -0.50401911408E+03  0.18621877500E+04  0.10100000352E+00 0.  1.
       -3    1    3    3    0  502 -0.12498633690E+04 -0.12851262574E+04 -0.84721594338E+03  0.19827967126E+04  0.10100000352E+00 0. -1.
</event>
<event>
 5   0  0.2590795E-08  0.3612847E+04  0.7818609E-02  0.8087555E-01
       -2   -1    0    0    0  501  0.00000000000E+00  0.00000000000E+00  0.10524891028E+04  0.10524891028E+04  0.25500000920E-02 0. -1.
        2   -1    0    0  501    0  0.00000000000E+00  0.00000000000E+00 -0.31004267052E+04  0.31004267052E+04  0.25500000920E-02 0.  1.
    10030    2    1    2    0    0  0.00000000000E+00  0.00000000000E+00 -0.20479376024E+04  0.41529158080E+04  0.36128467011E+04 0.  0.
        4    1    3    3  502    0  0.15463427199E+04  0.13932544428E+03 -0.20853471547E+04  0.25998580260E+04  0.12699999809E+01 0. -1.
       -4    1    3    3    0  502 -0.15463427199E+04 -0.13932544428E+03  0.37409552269E+02  0.15530577821E+04  0.12699999809E+01 0.  1.
</event>
<event>
 5   0  0.8024500E-09  0.3597867E+04  0.7818609E-02  0.8090980E-01
       -1   -1    0    0    0  501  0.00000000000E+00  0.00000000000E+00  0.27716519642E+04  0.27716519643E+04  0.50400001928E-02 0. -1.
        1   -1    0    0  501    0  0.00000000000E+00  0.00000000000E+00 -0.11675930204E+04  0.11675930204E+04  0.50400001928E-02 0.  1.
    10030    2    1    2    0    0  0.00000000000E+00  0.00000000000E+00  0.16040589438E+04  0.39392449847E+04  0.35978668617E+04 0.  0.
        1    1    3    3  502    0  0.14421681063E+04  0.88556345443E+03  0.13415951572E+03  0.16976661198E+04  0.50400001928E-02 0.  1.
       -1    1    3    3    0  502 -0.14421681063E+04 -0.88556345443E+03  0.14698994281E+04  0.22415788649E+04  0.50400001928E-02 0. -1.
</event>
<event>
 5   0  0.8024500E-09  0.3597842E+04  0.7818609E-02  0.8090986E-01
        1   -1    0    0  501    0  0.00000000000E+00  0.00000000000E+00  0.20104074431E+04  0.20104074431E+04  0.50400001928E-02 0.  1.
       -1   -1    0    0    0  501  0.00000000000E+00  0.00000000000E+00 -0.16096823011E+04  0.16096823011E+04  0.50400001928E-02 0. -1.
    10030    2    1    2    0    0  0.00000000000E+00  0.00000000000E+00  0.40072514197E+03  0.36200897442E+04  0.35978422863E+04 0.  0.
        5    1    3    3  502    0  0.63177243662E+03 -0.14205993905E+03 -0.14883413280E+04  0.16231141169E+04  0.46999998093E+01 0. -1.
       -5    1    3    3    0  502 -0.63177243662E+03  0.14205993905E+03  0.18890664700E+04  0.19969756273E+04  0.46999998093E+01 0.  1.
</event>
<event>
 5   0  0.2608070E-08  0.3599690E+04  0.7818609E-02  0.8090563E-01
        2   -1    0    0  501    0  0.00000000000E+00  0.00000000000E+00  0.16379524507E+04  0.16379524507E+04  0.25500000920E-02 0. -1.
       -2   -1    0    0    0  501  0.00000000000E+00  0.00000000000E+00 -0.19777385551E+04  0.19777385551E+04  0.25500000920E-02 0.  1.
    10030    2    1    2    0    0  0.00000000000E+00  0.00000000000E+00 -0.33978610431E+03  0.36156910058E+04  0.35996898273E+04 0.  0.
        3    1    3    3  502    0 -0.11036593594E+04  0.97901331411E+03 -0.12054514810E+04  0.19051625479E+04  0.10100000352E+00 0.  1.
       -3    1    3    3    0  502  0.11036593594E+04 -0.97901331411E+03  0.86566537669E+03  0.17105284579E+04  0.10100000352E+00 0. -1.
</event>
<event>
 5   0  0.8146881E-09  0.3600132E+04  0.7818609E-02  0.8090461E-01
        1   -1    0    0  501    0  0.00000000000E+00  0.00000000000E+00  0.20478924402E+04  0.20478924402E+04  0.50400001928E-02 0.  1.
       -1   -1    0    0    0  501  0.00000000000E+00  0.00000000000E+00 -0.15822305237E+04  0.15822305237E+04  0.50400001928E-02 0. -1.
    10030    2    1    2    0    0  0.00000000000E+00  0.00000000000E+00  0.46566191647E+03  0.36301229639E+04  0.36001321799E+04 0.  0.
        4    1    3    3  502    0  0.71840131154E+03  0.12542965687E+04 -0.84889475820E+03  0.16763007636E+04  0.12699999809E+01 0.  1.
       -4    1    3    3    0  502 -0.71840131154E+03 -0.12542965687E+04  0.13145566747E+04  0.19538222003E+04  0.12699999809E+01 0. -1.
</event>
<event>
 5   0  0.2608070E-08  0.3600548E+04  0.7818609E-02  0.8090366E-01
        2   -1    0    0  501    0  0.00000000000E+00  0.00000000000E+00  0.12381246951E+04  0.12381246951E+04  0.25500000920E-02 0. -1.
       -2   -1    0    0    0  501  0.00000000000E+00  0.00000000000E+00 -0.26176572215E+04  0.26176572215E+04  0.25500000920E-02 0.  1.
    10030    2    1    2    0    0  0.00000000000E+00  0.00000000000E+00 -0.13795325265E+04  0.38557819166E+04  0.36005477634E+04 0.  0.
        3    1    3    3  502    0 -0.15619781506E+04 -0.35506035539E+03  0.19015049735E+03  0.16130718585E+04  0.10100000352E+00 0. -1.
       -3    1    3    3    0  502  0.15619781506E+04  0.35506035539E+03 -0.15696830238E+04  0.22427100580E+04  0.10100000352E+00 0.  1.
</event>
<event>
 5   0  0.8024500E-09  0.3601201E+04  0.7818609E-02  0.8090217E-01
       -3   -1    0    0    0  501  0.00000000000E+00  0.00000000000E+00  0.19369136433E+04  0.19369136459E+04  0.10100000352E+00 0. -1.
        3   -1    0    0  501    0  0.00000000000E+00  0.00000000000E+00 -0.16738803401E+04  0.16738803431E+04  0.10100000352E+00 0.  1.
    10030    2    1    2    0    0  0.00000000000E+00  0.00000000000E+00  0.26303330321E+03  0.36107939890E+04  0.36012007320E+04 0.  0.
        1    1    3    3  502    0  0.49864648867E+03 -0.31845184259E+03  0.18366649953E+04  0.19296108939E+04  0.50400001928E-02 0. -1.
       -1    1    3    3    0  502 -0.49864648867E+03  0.31845184259E+03 -0.15736316921E+04  0.16811830951E+04  0.50400001928E-02 0.  1.
</event>
<event>
 5   0  0.8063410E-09  0.3600925E+04  0.7818609E-02  0.8090280E-01
        1   -1    0    0  501    0  0.00000000000E+00  0.00000000000E+00  0.19149362224E+04  0.19149362224E+04  0.50400001928E-02 0. -1.
       -1   -1    0    0    0  501  0.00000000000E+00  0.00000000000E+00 -0.16928314854E+04  0.16928314855E+04  0.50400001928E-02 0.  1.
    10030    2    1    2    0    0  0.00000000000E+00  0.00000000000E+00  0.22210473691E+03  0.36077677078E+04  0.36009245090E+04 0.  0.
        2    1    3    3  502    0  0.11927280842E+04  0.72325891846E+03  0.12516184352E+04  0.18741004384E+04  0.25500000920E-02 0. -1.
       -2    1    3    3    0  502 -0.11927280842E+04 -0.72325891846E+03 -0.10295136983E+04  0.17336672694E+04  0.25500000920E-02 0.  1.
</event>
<event>
 5   0  0.2482243E-08  0.3597868E+04  0.7818609E-02  0.8090980E-01
        2   -1    0    0  501    0  0.00000000000E+00  0.00000000000E+00  0.22256073834E+04  0.22256073834E+04  0.25500000920E-02 0. -1.
       -2   -1    0    0    0  501  0.00000000000E+00  0.00000000000E+00 -0.14540582121E+04  0.14540582121E+04  0.25500000920E-02 0.  1.
    10030    2    1    2    0    0  0.00000000000E+00  0.00000000000E+00  0.77154917134E+03  0.36796655955E+04  0.35978675310E+04 0.  0.
        5    1    3    3  502    0  0.66221684967E+03 -0.15233756445E+04 -0.32053203577E+03  0.16917350225E+04  0.46999998093E+01 0.  1.
       -5    1    3    3    0  502 -0.66221684967E+03  0.15233756445E+04  0.10920812071E+04  0.19879305730E+04  0.46999998093E+01 0. -1.
</event>
<event>
 5   0  0.8024500E-09  0.3602959E+04  0.7818609E-02  0.8089814E-01
       -1   -1    0    0    0  501  0.00000000000E+00  0.00000000000E+00  0.18009821293E+04  0.18009821293E+04  0.50400001928E-02 0.  1.
        1   -1    0    0  501    0  0.00000000000E+00  0.00000000000E+00 -0.18019774255E+04  0.18019774255E+04  0.50400001928E-02 0. -1.
    10030    2    1    2    0    0  0.00000000000E+00  0.00000000000E+00 -0.99529625178E+00  0.36029595548E+04  0.36029594173E+04 0.  0.
        1    1    3    3  502    0 -0.10473249286E+04 -0.16151838549E+02  0.14651690659E+04  0.18010748957E+04  0.50400001928E-02 0.  1.
       -1    1    3    3    0  502  0.10473249286E+04  0.16151838549E+02 -0.14661643622E+04  0.18018846592E+04  0.50400001928E-02 0. -1.
</event>
<event>
 5   0  0.8024500E-09  0.3601124E+04  0.7818609E-02  0.8090234E-01
        1   -1    0    0  501    0  0.00000000000E+00  0.00000000000E+00  0.25827768929E+04  0.25827768929E+04  0.50400001928E-02 0.  1.
       -1   -1    0    0    0  501  0.00000000000E+00  0.00000000000E+00 -0.12552469388E+04  0.12552469388E+04  0.50400001928E-02 0. -1.
    10030    2    1    2    0    0  0.00000000000E+00  0.00000000000E+00  0.13275299541E+04  0.38380238317E+04  0.36011235960E+04 0.  0.
        1    1    3    3  502    0  0.33177733394E+02  0.17849043398E+04  0.41372869629E+03  0.18325271344E+04  0.50400001928E-02 0.  1.
       -1    1    3    3    0  502 -0.33177733394E+02 -0.17849043398E+04  0.91380125781E+03  0.20054966973E+04  0.50400001928E-02 0. -1.
</event>
<event>
 5   0  0.2608070E-08  0.3600395E+04  0.7818609E-02  0.8090401E-01
        2   -1    0    0  501    0  0.00000000000E+00  0.00000000000E+00  0.19073930767E+04  0.19073930767E+04  0.25500000920E-02 0.  1.
       -2   -1    0    0    0  501  0.00000000000E+00  0.00000000000E+00 -0.16990260894E+04  0.16990260894E+04  0.25500000920E-02 0. -1.
    10030    2    1    2    0    0  0.00000000000E+00  0.00000000000E+00  0.20836698730E+03  0.36064191661E+04  0.36003947561E+04 0.  0.
        3    1    3    3  502    0 -0.16175366468E+04 -0.68262235989E+03 -0.29436730648E+03  0.17801826342E+04  0.10100000352E+00 0. -1.
       -3    1    3    3    0  502  0.16175366468E+04  0.68262235989E+03  0.50273429378E+03  0.18262365318E+04  0.10100000352E+00 0.  1.
</event>
<event>
 5   0  0.8146881E-09  0.3599757E+04  0.7818609E-02  0.8090547E-01
       -1   -1    0    0    0  501  0.00000000000E+00  0.00000000000E+00  0.15829600843E+04  0.15829600843E+04  0.50400001928E-02 0.  1.
        1   -1    0    0  501    0  0.00000000000E+00  0.00000000000E+00 -0.20465218457E+04  0.20465218458E+04  0.50400001928E-02 0. -1.
    10030    2    1    2    0    0  0.00000000000E+00  0.00000000000E+00 -0.46356176148E+03  0.36294819300E+04  0.35997568770E+04 0.  0.
        4    1    3    3  502    0 -0.15156723875E+04 -0.94787474901E+03 -0.20692460652E+02  0.17877805002E+04  0.12699999809E+01 0.  1.
       -4    1    3    3    0  502  0.15156723875E+04  0.94787474901E+03 -0.44286930082E+03  0.18417014298E+04  0.12699999809E+01 0. -1.
</event>
<event>
 5   0  0.8024500E-09  0.3606407E+04  0.7818609E-02  0.8089026E-01
        1   -1    0    0  501    0  0.00000000000E+00  0.00000000000E+00  0.22040030320E+04  0.22040030320E+04  0.50400001928E-02 0.  1.
       -1   -1    0    0    0  501  0.00000000000E+00  0.00000000000E+00 -0.14752894525E+04  0.14752894526E+04  0.50400001928E-02 0. -1.
    10030    2    1    2    0    0  0.00000000000E+00  0.00000000000E+00  0.72871357947E+03  0.36792924846E+04  0.36064067583E+04 0.  0.
        1    1    3    3  502    0  0.10037690976E+04 -0.25711933077E+03 -0.11412326019E+04  0.15414521087E+04  0.50400001928E-02 0. -1.
       -1    1    3    3    0  502 -0.10037690976E+04  0.25711933077E+03  0.18699461814E+04  0.21378403759E+04  0.50400001928E-02 0.  1.
</event>
<event>
 5   0  0.2482243E-08  0.3599976E+04  0.7818609E-02  0.8090497E-01
       -2   -1    0    0    0  501  0.00000000000E+00  0.00000000000E+00  0.14791034308E+04  0.14791034308E+04  0.25500000920E-02 0. -1.
        2   -1    0    0  501    0  0.00000000000E+00  0.00000000000E+00 -0.21904863797E+04  0.21904863797E+04  0.25500000920E-02 0.  1.
    10030    2    1    2    0    0  0.00000000000E+00  0.00000000000E+00 -0.71138294890E+03  0.36695898105E+04  0.35999755107E+04 0.  0.
        5    1    3    3  502    0 -0.20517305156E+03 -0.65852296283E+03 -0.20504255262E+04  0.21633343251E+04  0.46999998093E+01 0.  1.
       -5    1    3    3    0  502  0.20517305156E+03  0.65852296283E+03  0.13390425773E+04  0.15062554854E+04  0.46999998093E+01 0. -1.
</event>
<event>
 5   0  0.8024500E-09  0.3600998E+04  0.7818609E-02  0.8090263E-01
       -1   -1    0    0    0  501  0.00000000000E+00  0.00000000000E+00  0.13710227821E+04  0.13710227821E+04  0.50400001928E-02 0. -1.
        1   -1    0    0  501    0  0.00000000000E+00  0.00000000000E+00 -0.23645095298E+04  0.23645095298E+04  0.50400001928E-02 0.  1.
    10030    2    1    2    0    0  0.00000000000E+00  0.00000000000E+00 -0.99348674776E+03  0.37355323119E+04  0.36009978805E+04 0.  0.
        5    1    3    3  502    0 -0.32931273037E+03 -0.16886272297E+04  0.54001711111E+02  0.17212922674E+04  0.46999998093E+01 0. -1.
       -5    1    3    3    0  502  0.32931273037E+03  0.16886272297E+04 -0.10474884589E+04  0.20142400444E+04  0.46999998093E+01 0.  1.
</event>
<event>
 5   0  0.2608070E-08  0.3600259E+04  0.7818609E-02  0.8090432E-01
       -2   -1    0    0    0  501  0.00000000000E+00  0.00000000000E+00  0.15646707624E+04  0.15646707624E+04  0.25500000920E-02 0. -1.
        2   -1    0    0  501    0  0.00000000000E+00  0.00000000000E+00 -0.20710212367E+04  0.20710212367E+04  0.25500000920E-02 0.  1.
    10030    2    1    2    0    0  0.00000000000E+00  0.00000000000E+00 -0.50635047430E+03  0.36356919991E+04  0.36002590892E+04 0.  0.
        3    1    3    3  502    0  0.52867915018E+03  0.10182189847E+04 -0.16539807746E+04  0.20129391341E+04  0.10100000352E+00 0.  1.
       -3    1    3    3    0  502 -0.52867915018E+03 -0.10182189847E+04  0.11476303003E+04  0.16227528650E+04  0.10100000352E+00 0. -1.
</event>
<event>
 5   0  0.8063410E-09  0.3600862E+04  0.7818609E-02  0.8090294E-01
        1   -1    0    0  501    0  0.00000000000E+00  0.00000000000E+00  0.18628421161E+04  0.18628421161E+04  0.50400001928E-02 0.  1.
       -1   -1    0    0    0  501  0.00000000000E+00  0.00000000000E+00 -0.17401108330E+04  0.17401108330E+04  0.50400001928E-02 0. -1.
    10030    2    1    2    0    0  0.00000000000E+00  0.00000000000E+00  0.12273128312E+03  0.36029529491E+04  0.36008619781E+04 0.  0.
        2    1    3    3  502    0 -0.56690982986E+03 -0.36945598480E+03  0.17307670551E+04  0.18583431005E+04  0.25500000920E-02 0.  1.
       -2    1    3    3    0  502  0.56690982986E+03  0.36945598480E+03 -0.16080357720E+04  0.17446098486E+04  0.25500000920E-02 0. -1.
</event>
<event>
 5   0  0.8146881E-09  0.3598824E+04  0.7818609E-02  0.8090761E-01
       -1   -1    0    0    0  501  0.00000000000E+00  0.00000000000E+00  0.12943357855E+04  0.12943357855E+04  0.50400001928E-02 0.  1.
        1   -1    0    0  501    0  0.00000000000E+00  0.00000000000E+00 -0.25015793099E+04  0.25015793099E+04  0.50400001928E-02 0. -1.
    10030    2    1    2    0    0  0.00000000000E+00  0.00000000000E+00 -0.12072435245E+04  0.37959150954E+04  0.35988240418E+04 0.  0.
        4    1    3    3  502    0 -0.11885228911E+04  0.11829654254E+04  0.84719262032E+02  0.16790392570E+04  0.12699999809E+01 0.  1.
       -4    1    3    3    0  502  0.11885228911E+04 -0.11829654254E+04 -0.12919627865E+04  0.21168758384E+04  0.12699999809E+01 0. -1.
</event>
<event>
 5   0  0.8024500E-09  0.3596028E+04  0.7818609E-02  0.8091402E-01
       -1   -1    0    0    0  501  0.00000000000E+00  0.00000000000E+00  0.26092983208E+04  0.26092983208E+04  0.50400001928E-02 0.  1.
        1   -1    0    0  501    0  0.00000000000E+00  0.00000000000E+00 -0.12389743649E+04  0.12389743649E+04  0.50400001928E-02 0. -1.
    10030    2    1    2    0    0  0.00000000000E+00  0.00000000000E+00  0.13703239560E+04  0.38482726857E+04  0.35960276583E+04 0.  0.
        1    1    3    3  502    0 -0.13702622633E+04 -0.11444966211E+04  0.45723721260E+03  0.18429750553E+04  0.50400001928E-02 0. -1.
       -1    1    3    3    0  502  0.13702622633E+04  0.11444966211E+04  0.91308674335E+03  0.20052976304E+04  0.50400001928E-02 0.  1.
</event>
<event>
 5   0  0.8146881E-09  0.3599534E+04  0.7818609E-02  0.8090598E-01
        1   -1    0    0  501    0  0.00000000000E+00  0.00000000000E+00  0.29090024617E+04  0.29090024617E+04  0.50400001928E-02 0. -1.
       -1   -1    0    0    0  501  0.00000000000E+00  0.00000000000E+00 -0.11134953915E+04  0.11134953915E+04  0.50400001928E-02 0.  1.
    10030    2    1    2    0    0  0.00000000000E+00  0.00000000000E+00  0.17955070702E+04  0.40224978532E+04  0.35995337670E+04 0.  0.
        4    1    3    3  502    0  0.11662914636E+04 -0.13704191204E+04  0.86469958249E+03  0.19964947595E+04  0.12699999809E+01 0.  1.
       -4    1    3    3    0  502 -0.11662914636E+04  0.13704191204E+04  0.93080748767E+03  0.20260030937E+04  0.12699999809E+01 0. -1.
</event>
<event>
 5   0  0.2476968E-08  0.3598864E+04  0.7818609E-02  0.8090752E-01
        2   -1    0    0  501    0  0.00000000000E+00  0.00000000000E+00  0.19371780083E+04  0.19371780083E+04  0.25500000920E-02 0. -1.
       -2   -1    0    0    0  501  0.00000000000E+00  0.00000000000E+00 -0.16714802077E+04  0.16714802077E+04  0.25500000920E-02 0.  1.
    10030    2    1    2    0    0  0.00000000000E+00  0.00000000000E+00  0.26569780060E+03  0.36086582160E+04  0.35988635426E+04 0.  0.
        2    1    3    3  502    0 -0.49702611450E+03  0.68005676006E+03  0.17272842549E+04  0.19217239793E+04  0.25500000920E-02 0. -1.
       -2    1    3    3    0  502  0.49702611450E+03 -0.68005676006E+03 -0.14615864543E+04  0.16869342367E+04  0.25500000920E-02 0.  1.
</event>
<event>
 5   0  0.2494592E-08  0.3601877E+04  0.7818609E-02  0.8090062E-01
        2   -1    0    0  501    0  0.00000000000E+00  0.00000000000E+00  0.17539067758E+04  0.17539067758E+04  0.25500000920E-02 0.  1.
       -2   -1    0    0    0  501  0.00000000000E+00  0.00000000000E+00 -0.18492311416E+04  0.18492311417E+04  0.25500000920E-02 0. -1.
    10030    2    1    2    0    0  0.00000000000E+00  0.00000000000E+00 -0.95324365855E+02  0.36031379174E+04  0.36018767493E+04 0.  0.
        1    1    3    3  502    0 -0.14864344909E+04 -0.33837821766E+03  0.91152271237E+03  0.17761928299E+04  0.50400001928E-02 0.  1.
       -1    1    3    3    0  502  0.14864344909E+04  0.33837821766E+03 -0.10068470782E+04  0.18269450875E+04  0.50400001928E-02 0. -1.
</event>
<event>
 5   0  0.2608070E-08  0.3588877E+04  0.7818609E-02  0.8093044E-01
       -2   -1    0    0    0  501  0.00000000000E+00  0.00000000000E+00  0.18045516916E+04  0.18045516916E+04  0.25500000920E-02 0. -1.
        2   -1    0    0  501    0  0.00000000000E+00  0.00000000000E+00 -0.17843819512E+04  0.17843819512E+04  0.25500000920E-02 0.  1.
    10030    2    1    2    0    0  0.00000000000E+00  0.00000000000E+00  0.20169740437E+02  0.35889336428E+04  0.35888769656E+04 0.  0.
        3    1    3    3  502    0  0.14578131611E+04  0.18468474594E+03  0.10399952022E+04  0.18002548983E+04  0.10100000352E+00 0.  1.
       -3    1    3    3    0  502 -0.14578131611E+04 -0.18468474594E+03 -0.10198254618E+04  0.17886787444E+04  0.10100000352E+00 0. -1.
</event>
<event>
 5   0  0.2494592E-08  0.3599729E+04  0.7818609E-02  0.8090554E-01
        2   -1    0    0  501    0  0.00000000000E+00  0.00000000000E+00  0.12997367790E+04  0.12997367790E+04  0.25500000920E-02 0.  1.
       -2   -1    0    0    0  501  0.00000000000E+00  0.00000000000E+00 -0.24924369113E+04  0.24924369113E+04  0.25500000920E-02 0. -1.
    10030    2    1    2    0    0  0.00000000000E+00  0.00000000000E+00 -0.11927001323E+04  0.37921736903E+04  0.35997288359E+04 0.  0.
        1    1    3    3  502    0 -0.13952079718E+03 -0.77442212771E+03  0.11089283214E+04  0.13597491337E+04  0.50400001928E-02 0.  1.
       -1    1    3    3    0  502  0.13952079718E+03  0.77442212771E+03 -0.23016284536E+04  0.24324245566E+04  0.50400001928E-02 0. -1.
</event>
<event>
 5   0  0.2590795E-08  0.3601991E+04  0.7818609E-02  0.8090036E-01
        2   -1    0    0  501    0  0.00000000000E+00  0.00000000000E+00  0.28155451566E+04  0.28155451566E+04  0.25500000920E-02 0. -1.
       -2   -1    0    0    0  501  0.00000000000E+00  0.00000000000E+00 -0.11520270630E+04  0.11520270630E+04  0.25500000920E-02 0.  1.
    10030    2    1    2    0    0  0.00000000000E+00  0.00000000000E+00  0.16635180936E+04  0.39675722196E+04  0.36019906815E+04 0.  0.
        4    1    3    3  502    0 -0.96628778519E+03  0.14526781337E+04  0.13238654319E+04  0.21901157820E+04  0.12699999809E+01 0. -1.
       -4    1    3    3    0  502  0.96628778519E+03 -0.14526781337E+04  0.33965266169E+03  0.17774564376E+04  0.12699999809E+01 0.  1.
</event>
<event>
 5   0  0.8247570E-09  0.3600784E+04  0.7818609E-02  0.8090312E-01
       -1   -1    0    0    0  501  0.00000000000E+00  0.00000000000E+00  0.14254290041E+04  0.14254290041E+04  0.50400001928E-02 0.  1.
        1   -1    0    0  501    0  0.00000000000E+00  0.00000000000E+00 -0.22739899936E+04  0.22739899936E+04  0.50400001928E-02 0. -1.
    10030    2    1    2    0    0  0.00000000000E+00  0.00000000000E+00 -0.84856098951E+03  0.36994189977E+04  0.36007839657E+04 0.  0.
        3    1    3    3  502    0  0.98097432245E+03  0.13377167220E+04 -0.11431724945E+04  0.20146066644E+04  0.10100000352E+00 0. -1.
       -3    1    3    3    0  502 -0.98097432245E+03 -0.13377167220E+04  0.29461150503E+03  0.16848123334E+04  0.10100000352E+00 0.  1.
</event>
<event>
 5   0  0.8024500E-09  0.3600388E+04  0.7818609E-02  0.8090403E-01
       -1   -1    0    0    0  501  0.00000000000E+00  0.00000000000E+00  0.18385460952E+04  0.18385460952E+04  0.50400001928E-02 0.  1.
        1   -1    0    0  501    0  0.00000000000E+00  0.00000000000E+00 -0.17626418524E+04  0.17626418524E+04  0.50400001928E-02 0. -1.
    10030    2    1    2    0    0  0.00000000000E+00  0.00000000000E+00  0.75904242837E+02  0.36011879476E+04  0.36003879207E+04 0.  0.
        1    1    3    3  502    0  0.88207573756E+03 -0.12723122675E+04 -0.88087171691E+03  0.17812274123E+04  0.50400001928E-02 0. -1.
       -1    1    3    3    0  502 -0.88207573756E+03  0.12723122675E+04  0.95677595975E+03  0.18199605353E+04  0.50400001928E-02 0.  1.
</event>
<event>
 5   0  0.8024500E-09  0.3599639E+04  0.7818609E-02  0.8090574E-01
       -3   -1    0    0    0  501  0.00000000000E+00  0.00000000000E+00  0.18997255389E+04  0.18997255416E+04  0.10100000352E+00 0. -1.
        3   -1    0    0  501    0  0.00000000000E+00  0.00000000000E+00 -0.17051670887E+04  0.17051670917E+04  0.10100000352E+00 0.  1.
    10030    2    1    2    0    0  0.00000000000E+00  0.00000000000E+00  0.19455845026E+03  0.36048926333E+04  0.35996385800E+04 0.  0.
        3    1    3    3  502    0  0.14654481265E+04 -0.10238945142E+04 -0.11147473236E+03  0.17911797269E+04  0.10100000352E+00 0.  1.
       -3    1    3    3    0  502 -0.14654481265E+04  0.10238945142E+04  0.30603318261E+03  0.18137129064E+04  0.10100000352E+00 0. -1.
</event>
<event>
 5   0  0.8024500E-09  0.3599059E+04  0.7818609E-02  0.8090707E-01
       -1   -1    0    0    0  501  0.00000000000E+00  0.00000000000E+00  0.13940594888E+04  0.13940594888E+04  0.50400001928E-02 0.  1.
        1   -1    0    0  501    0  0.00000000000E+00  0.00000000000E+00 -0.23229332025E+04  0.23229332025E+04  0.50400001928E-02 0. -1.
    10030    2    1    2    0    0  0.00000000000E+00  0.00000000000E+00 -0.92887371363E+03  0.37169926913E+04  0.35990593620E+04 0.  0.
        1    1    3    3  502    0 -0.14760505633E+03  0.88289774336E+03 -0.20766834845E+04  0.22613955808E+04  0.50400001928E-02 0. -1.
       -1    1    3    3    0  502  0.14760505633E+03 -0.88289774336E+03  0.11478097709E+04  0.14555971105E+04  0.50400001928E-02 0.  1.
</event>
<event>
 5   0  0.8146881E-09  0.3599848E+04  0.7818609E-02  0.8090527E-01
       -1   -1    0    0    0  501  0.00000000000E+00  0.00000000000E+00  0.15502782777E+04  0.15502782777E+04  0.50400001928E-02 0.  1.
        1   -1    0    0  501    0  0.00000000000E+00  0.00000000000E+00 -0.20897705613E+04  0.20897705613E+04  0.50400001928E-02 0. -1.
    10030    2    1    2    0    0  0.00000000000E+00  0.00000000000E+00 -0.53949228356E+03  0.36400488390E+04  0.35998477226E+04 0.  0.
        4    1    3    3  502    0 -0.13867384169E+04 -0.80354804327E+03 -0.10980344998E+04  0.19427851838E+04  0.12699999809E+01 0. -1.
       -4    1    3    3    0  502  0.13867384169E+04  0.80354804327E+03  0.55854221627E+03  0.16972636551E+04  0.12699999809E+01 0.  1.
</event>
<event>
 5   0  0.8247570E-09  0.3598594E+04  0.7818609E-02  0.8090814E-01
        1   -1    0    0  501    0  0.00000000000E+00  0.00000000000E+00  0.22696509756E+04  0.22696509756E+04  0.50400001928E-02 0.  1.
       -1   -1    0    0    0  501  0.00000000000E+00  0.00000000000E+00 -0.14264177891E+04  0.14264177891E+04  0.50400001928E-02 0. -1.
    10030    2    1    2    0    0  0.00000000000E+00  0.00000000000E+00  0.84323318653E+03  0.36960687647E+04  0.35985944626E+04 0.  0.
        3    1    3    3  502    0 -0.14558954466E+04 -0.40308330287E+03 -0.58228536691E+03  0.16190009139E+04  0.10100000352E+00 0.  1.
       -3    1    3    3    0  502  0.14558954466E+04  0.40308330287E+03  0.14255185534E+04  0.20770678508E+04  0.10100000352E+00 0. -1.
</event>
<event>
 5   0  0.2590795E-08  0.3599266E+04  0.7818609E-02  0.8090660E-01
        2   -1    0    0  501    0  0.00000000000E+00  0.00000000000E+00  0.19188920900E+04  0.19188920900E+04  0.25500000920E-02 0. -1.
       -2   -1    0    0    0  501  0.00000000000E+00  0.00000000000E+00 -0.16877860997E+04  0.16877860997E+04  0.25500000920E-02 0.  1.
    10030    2    1    2    0    0  0.00000000000E+00  0.00000000000E+00  0.23110599030E+03  0.36066781897E+04  0.35992662565E+04 0.  0.
        4    1    3    3  502    0  0.32321338625E+03  0.15907762756E+03  0.18823927326E+04  0.19165533118E+04  0.12699999809E+01 0. -1.
       -4    1    3    3    0  502 -0.32321338625E+03 -0.15907762756E+03 -0.16512867423E+04  0.16901248778E+04  0.12699999809E+01 0.  1.
</event>
<event>
 5   0  0.8063410E-09  0.3599975E+04  0.7818609E-02  0.8090497E-01
       -1   -1    0    0    0  501  0.00000000000E+00  0.00000000000E+00  0.14091578880E+04  0.14091578880E+04  0.50400001928E-02 0. -1.
        1   -1    0    0  501    0  0.00000000000E+00  0.00000000000E+00 -0.22992141225E+04  0.22992141225E+04  0.50400001928E-02 0.  1.
    10030    2    1    2    0    0  0.00000000000E+00  0.00000000000E+00 -0.89005623454E+03  0.37083720105E+04  0.35999753982E+04 0.  0.
        2    1    3    3  502    0  0.15101449466E+04 -0.68358373235E+02  0.56150363182E+03  0.16126056417E+04  0.25500000920E-02 0. -1.
       -2    1    3    3    0  502 -0.15101449466E+04  0.68358373235E+02 -0.14515598664E+04  0.20957663688E+04  0.25500000920E-02 0.  1.
</event>
<event>
 5   0  0.8247570E-09  0.3601545E+04  0.7818609E-02  0.8090138E-01
       -1   -1    0    0    0  501  0.00000000000E+00  0.00000000000E+00  0.12984459954E+04  0.12984459954E+04  0.50400001928E-02 0. -1.
        1   -1    0    0  501    0  0.00000000000E+00  0.00000000000E+00 -0.24974328541E+04  0.24974328541E+04  0.50400001928E-02 0.  1.
    10030    2    1    2    0    0  0.00000000000E+00  0.00000000000E+00 -0.11989868588E+04  0.37958788495E+04  0.36015450507E+04 0.  0.
        3    1    3    3  502    0 -0.51482478089E+03 -0.13464789573E+04 -0.17369541527E+04  0.22572239314E+04  0.10100000352E+00 0. -1.
       -3    1    3    3    0  502  0.51482478089E+03  0.13464789573E+04  0.53796729398E+03  0.15386549181E+04  0.10100000352E+00 0.  1.
</event>
<event>
 5   0  0.2482243E-08  0.3600700E+04  0.7818609E-02  0.8090331E-01
       -2   -1    0    0    0  501  0.00000000000E+00  0.00000000000E+00  0.12521189800E+04  0.12521189800E+04  0.25500000920E-02 0. -1.
        2   -1    0    0  501    0  0.00000000000E+00  0.00000000000E+00 -0.25886201374E+04  0.25886201374E+04  0.25500000920E-02 0.  1.
    10030    2    1    2    0    0  0.00000000000E+00  0.00000000000E+00 -0.13365011574E+04  0.38407391174E+04  0.36007001575E+04 0.  0.
        5    1    3    3  502    0 -0.58447559247E+03 -0.77059666453E+03 -0.22879684097E+04  0.24839992898E+04  0.46999998093E+01 0.  1.
       -5    1    3    3    0  502  0.58447559247E+03  0.77059666453E+03  0.95146725231E+03  0.13567398276E+04  0.46999998093E+01 0. -1.
</event>
<event>
 5   0  0.8063410E-09  0.3598941E+04  0.7818609E-02  0.8090734E-01
       -1   -1    0    0    0  501  0.00000000000E+00  0.00000000000E+00  0.16445781390E+04  0.16445781390E+04  0.50400001928E-02 0.  1.
        1   -1    0    0  501    0  0.00000000000E+00  0.00000000000E+00 -0.19689516066E+04  0.19689516066E+04  0.50400001928E-02 0. -1.
    10030    2    1    2    0    0  0.00000000000E+00  0.00000000000E+00 -0.32437346758E+03  0.36135297456E+04  0.35989413826E+04 0.  0.
        2    1    3    3  502    0  0.88006881951E+03  0.14898156348E+04 -0.65817597533E+03  0.18512880292E+04  0.25500000920E-02 0.  1.
       -2    1    3    3    0  502 -0.88006881951E+03 -0.14898156348E+04  0.33380250775E+03  0.17622417163E+04  0.25500000920E-02 0. -1.
</event>
<event>
 5   0  0.8024500E-09  0.3600140E+04  0.7818609E-02  0.8090460E-01
        1   -1    0    0  501    0  0.00000000000E+00  0.00000000000E+00  0.17983811474E+04  0.17983811474E+04  0.50400001928E-02 0.  1.
       -1   -1    0    0    0  501  0.00000000000E+00  0.00000000000E+00 -0.18017608646E+04  0.18017608646E+04  0.50400001928E-02 0. -1.
    10030    2    1    2    0    0  0.00000000000E+00  0.00000000000E+00 -0.33797172018E+01  0.36001420119E+04  0.36001404255E+04 0.  0.
        5    1    3    3  502    0  0.43698448626E+03  0.16783567065E+04 -0.48376268536E+03  0.18005235631E+04  0.46999998093E+01 0. -1.
       -5    1    3    3    0  502 -0.43698448626E+03 -0.16783567065E+04  0.48038296816E+03  0.17996184489E+04  0.46999998093E+01 0.  1.
</event>
<event>
 5   0  0.8024500E-09  0.3600420E+04  0.7818609E-02  0.8090396E-01
        1   -1    0    0  501    0  0.00000000000E+00  0.00000000000E+00  0.15230672752E+04  0.15230672752E+04  0.50400001928E-02 0. -1.
       -1   -1    0    0    0  501  0.00000000000E+00  0.00000000000E+00 -0.21277821466E+04  0.21277821466E+04  0.50400001928E-02 0.  1.
    10030    2    1    2    0    0  0.00000000000E+00  0.00000000000E+00 -0.60471487132E+03  0.36508494218E+04  0.36004196179E+04 0.  0.
        5    1    3    3  502    0 -0.76583456154E+03 -0.15443202866E+04  0.22385783583E+03  0.17382641180E+04  0.46999998093E+01 0. -1.
       -5    1    3    3    0  502  0.76583456154E+03  0.15443202866E+04 -0.82857270715E+03  0.19125853038E+04  0.46999998093E+01 0.  1.
</event>
<event>
 5   0  0.2476968E-08  0.3600163E+04  0.7818609E-02  0.8090454E-01
        2   -1    0    0  501    0  0.00000000000E+00  0.00000000000E+00  0.24492036024E+04  0.24492036024E+04  0.25500000920E-02 0. -1.
       -2   -1    0    0    0  501  0.00000000000E+00  0.00000000000E+00 -0.13229986123E+04  0.13229986123E+04  0.25500000920E-02 0.  1.
    10030    2    1    2    0    0  0.00000000000E+00  0.00000000000E+00  0.11262049902E+04  0.37722022147E+04  0.36001627558E+04 0.  0.
        2    1    3    3  502    0 -0.10270077899E+04 -0.12987593054E+04  0.13030892818E+04  0.21070269126E+04  0.25500000920E-02 0.  1.
       -2    1    3    3    0  502  0.10270077899E+04  0.12987593054E+04 -0.17688429161E+03  0.16651753021E+04  0.25500000920E-02 0. -1.
</event>
<event>
 5   0  0.2476968E-08  0.3599026E+04  0.7818609E-02  0.8090715E-01
       -2   -1    0    0    0  501  0.00000000000E+00  0.00000000000E+00  0.10922936959E+04  0.10922936959E+04  0.25500000920E-02 0. -1.
        2   -1    0    0  501    0  0.00000000000E+00  0.00000000000E+00 -0.29646298647E+04  0.29646298647E+04  0.25500000920E-02 0.  1.
    10030    2    1    2    0    0  0.00000000000E+00  0.00000000000E+00 -0.18723361689E+04  0.40569235606E+04  0.35990257081E+04 0.  0.
        2    1    3    3  502    0 -0.12983611007E+04 -0.10810531321E+04 -0.23780573225E+03  0.17061562028E+04  0.25500000920E-02 0. -1.
       -2    1    3    3    0  502  0.12983611007E+04  0.10810531321E+04 -0.16345304366E+04  0.23507673578E+04  0.25500000920E-02 0.  1.
</event>
<event>
 5   0  0.2482243E-08  0.3599750E+04  0.7818609E-02  0.8090549E-01
       -2   -1    0    0    0  501  0.00000000000E+00  0.00000000000E+00  0.12184860244E+04  0.12184860244E+04  0.25500000920E-02 0. -1.
        2   -1    0    0  501    0  0.00000000000E+00  0.00000000000E+00 -0.26586686143E+04  0.26586686143E+04  0.25500000920E-02 0.  1.
    10030    2    1    2    0    0  0.00000000000E+00  0.00000000000E+00 -0.14401825900E+04  0.38771546387E+04  0.35997502969E+04 0.  0.
        5    1    3    3  502    0 -0.63095092864E+03  0.15796895048E+03 -0.25276554160E+04  0.26100033056E+04  0.46999998093E+01 0.  1.
       -5    1    3    3    0  502  0.63095092864E+03 -0.15796895048E+03  0.10874728260E+04  0.12671513331E+04  0.46999998093E+01 0. -1.
</event>
<event>
 5   0  0.2590795E-08  0.3600038E+04  0.7818609E-02  0.8090483E-01
       -2   -1    0    0    0  501  0.00000000000E+00  0.00000000000E+00  0.11080384360E+04  0.11080384360E+04  0.25500000920E-02 0. -1.
        2   -1    0    0  501    0  0.00000000000E+00  0.00000000000E+00 -0.29241480772E+04  0.29241480772E+04  0.25500000920E-02 0.  1.
    10030    2    1    2    0    0  0.00000000000E+00  0.00000000000E+00 -0.18161096412E+04  0.40321865131E+04  0.36000380342E+04 0.  0.
        4    1    3    3  502    0  0.34464971211E+03 -0.59469146989E+03  0.95526405636E+03  0.11768485029E+04  0.12699999809E+01 0. -1.
       -4    1    3    3    0  502 -0.34464971211E+03  0.59469146989E+03 -0.27713736976E+04  0.28553380103E+04  0.12699999809E+01 0.  1.
</event>
<event>
 5   0  0.8024500E-09  0.3597412E+04  0.7818609E-02  0.8091085E-01
        1   -1    0    0  501    0  0.00000000000E+00  0.00000000000E+00  0.11765921885E+04  0.11765921885E+04  0.50400001928E-02 0. -1.
       -1   -1    0    0    0  501  0.00000000000E+00  0.00000000000E+00 -0.27497577341E+04  0.27497577341E+04  0.50400001928E-02 0.  1.
    10030    2    1    2    0    0  0.00000000000E+00  0.00000000000E+00 -0.15731655456E+04  0.39263499226E+04  0.35974121088E+04 0.  0.
        1    1    3    3  502    0  0.15139194400E+04  0.38598813732E+03 -0.17593740624E+04  0.23529419892E+04  0.50400001928E-02 0.  1.
       -1    1    3    3    0  502 -0.15139194400E+04 -0.38598813732E+03  0.18620851685E+03  0.15734079334E+04  0.50400001928E-02 0. -1.
</event>
<event>
 5   0  0.2590795E-08  0.3598250E+04  0.7818609E-02  0.8090893E-01
       -2   -1    0    0    0  501  0.00000000000E+00  0.00000000000E+00  0.12222453674E+04  0.12222453674E+04  0.25500000920E-02 0. -1.
        2   -1    0    0  501    0  0.00000000000E+00  0.00000000000E+00 -0.26482817437E+04  0.26482817437E+04  0.25500000920E-02 0.  1.
    10030    2    1    2    0    0  0.00000000000E+00  0.00000000000E+00 -0.14260363763E+04  0.38705271111E+04  0.35982496261E+04 0.  0.
        4    1    3    3  502    0 -0.10859213022E+04  0.11881467493E+03 -0.22507012636E+04  0.25017993110E+04  0.12699999809E+01 0.  1.
       -4    1    3    3    0  502  0.10859213022E+04 -0.11881467493E+03  0.82466488734E+03  0.13687278002E+04  0.12699999809E+01 0. -1.
</event>
<event>
 5   0  0.8146881E-09  0.3601406E+04  0.7818609E-02  0.8090170E-01
        1   -1    0    0  501    0  0.00000000000E+00  0.00000000000E+00  0.21258706689E+04  0.21258706689E+04  0.50400001928E-02 0.  1.
       -1   -1    0    0    0  501  0.00000000000E+00  0.00000000000E+00 -0.15252725293E+04  0.15252725293E+04  0.50400001928E-02 0. -1.
    10030    2    1    2    0    0  0.00000000000E+00  0.00000000000E+00  0.60059813961E+03  0.36511431982E+04  0.36014064653E+04 0.  0.
        4    1    3    3  502    0 -0.14886457204E+04  0.78669108531E+03  0.94753705585E+03  0.19320396036E+04  0.12699999809E+01 0.  1.
       -4    1    3    3    0  502  0.14886457204E+04 -0.78669108531E+03 -0.34693891624E+03  0.17191035947E+04  0.12699999809E+01 0. -1.
</event>
<event>
 5   0  0.2494592E-08  0.3600868E+04  0.7818609E-02  0.8090293E-01
        2   -1    0    0  501    0  0.00000000000E+00  0.00000000000E+00  0.13472348448E+04  0.13472348448E+04  0.25500000920E-02 0.  1.
       -2   -1    0    0    0  501  0.00000000000E+00  0.00000000000E+00 -0.24060855808E+04  0.24060855808E+04  0.25500000920E-02 0. -1.
    10030    2    1    2    0    0  0.00000000000E+00  0.00000000000E+00 -0.10588507361E+04  0.37533204256E+04  0.36008678587E+04 0.  0.
        1    1    3    3  502    0  0.17536257769E+04 -0.96408079490E+02 -0.94251796110E+03  0.19931979305E+04  0.50400001928E-02 0.  1.
       -1    1    3    3    0  502 -0.17536257769E+04  0.96408079490E+02 -0.11633277496E+03  0.17601224951E+04  0.50400001928E-02 0. -1.
</event>
<event>
 5   0  0.8247570E-09  0.3605274E+04  0.7818609E-02  0.8089285E-01
       -1   -1    0    0    0  501  0.00000000000E+00  0.00000000000E+00  0.13582527758E+04  0.13582527758E+04  0.50400001928E-02 0. -1.
        1   -1    0    0  501    0  0.00000000000E+00  0.00000000000E+00 -0.23924114738E+04  0.23924114738E+04  0.50400001928E-02 0.  1.
    10030    2    1    2    0    0  0.00000000000E+00  0.00000000000E+00 -0.10341586981E+04  0.37506642496E+04  0.36052736513E+04 0.  0.
        3    1    3    3  502    0 -0.11251937524E+04  0.14074247486E+04 -0.57006573186E+03  0.18899418912E+04  0.10100000352E+00 0. -1.
       -3    1    3    3    0  502  0.11251937524E+04 -0.14074247486E+04 -0.46409296621E+03  0.18607223584E+04  0.10100000352E+00 0.  1.
</event>
<event>
 5   0  0.2608070E-08  0.3598473E+04  0.7818609E-02  0.8090842E-01
        2   -1    0    0  501    0  0.00000000000E+00  0.00000000000E+00  0.28154911809E+04  0.28154911809E+04  0.25500000920E-02 0.  1.
       -2   -1    0    0    0  501  0.00000000000E+00  0.00000000000E+00 -0.11498000019E+04  0.11498000019E+04  0.25500000920E-02 0. -1.
    10030    2    1    2    0    0  0.00000000000E+00  0.00000000000E+00  0.16656911790E+04  0.39652911829E+04  0.35984728790E+04 0.  0.
        3    1    3    3  502    0 -0.58246613999E+03  0.14488341115E+04  0.18177485830E+04  0.23963716339E+04  0.10100000352E+00 0.  1.
       -3    1    3    3    0  502  0.58246613999E+03 -0.14488341115E+04 -0.15205740397E+03  0.15689195489E+04  0.10100000352E+00 0. -1.
</event>
<event>
 5   0  0.8024500E-09  0.3600582E+04  0.7818609E-02  0.8090358E-01
        1   -1    0    0  501    0  0.00000000000E+00  0.00000000000E+00  0.25346289117E+04  0.25346289117E+04  0.50400001928E-02 0.  1.
       -1   -1    0    0    0  501  0.00000000000E+00  0.00000000000E+00 -0.12787069746E+04  0.12787069747E+04  0.50400001928E-02 0. -1.
    10030    2    1    2    0    0  0.00000000000E+00  0.00000000000E+00  0.12559219371E+04  0.38133358864E+04  0.36005819905E+04 0.  0.
        5    1    3    3  502    0 -0.15250903530E+04  0.42162487591E+03  0.15373954025E+04  0.22061901175E+04  0.46999998093E+01 0.  1.
       -5    1    3    3    0  502  0.15250903530E+04 -0.42162487591E+03 -0.28147346537E+03  0.16071457689E+04  0.46999998093E+01 0. -1.
</event>
<event>
 5   0  0.2494592E-08  0.3598910E+04  0.7818609E-02  0.8090741E-01
        2   -1    0    0  501    0  0.00000000000E+00  0.00000000000E+00  0.18897119723E+04  0.18897119723E+04  0.25500000920E-02 0.  1.
       -2   -1    0    0    0  501  0.00000000000E+00  0.00000000000E+00 -0.17135090931E+04  0.17135090931E+04  0.25500000920E-02 0. -1.
    10030    2    1    2    0    0  0.00000000000E+00  0.00000000000E+00  0.17620287923E+03  0.36032210654E+04  0.35989101950E+04 0.  0.
        1    1    3    3  502    0  0.82118834162E+03  0.55374864190E+03  0.15922494199E+04  0.18751656103E+04  0.50400001928E-02 0.  1.
       -1    1    3    3    0  502 -0.82118834162E+03 -0.55374864190E+03 -0.14160465406E+04  0.17280554551E+04  0.50400001928E-02 0. -1.
</event>
<event>
 5   0  0.2608070E-08  0.3600581E+04  0.7818609E-02  0.8090359E-01
       -2   -1    0    0    0  501  0.00000000000E+00  0.00000000000E+00  0.14902671987E+04  0.14902671987E+04  0.25500000920E-02 0. -1.
        2   -1    0    0  501    0  0.00000000000E+00  0.00000000000E+00 -0.21748091137E+04  0.21748091137E+04  0.25500000920E-02 0.  1.
    10030    2    1    2    0    0  0.00000000000E+00  0.00000000000E+00 -0.68454191497E+03  0.36650763124E+04  0.36005814451E+04 0.  0.
        3    1    3    3  502    0  0.15302001482E+04  0.41590342608E+03  0.52538126424E+03  0.16704830548E+04  0.10100000352E+00 0. -1.
       -3    1    3    3    0  502 -0.15302001482E+04 -0.41590342608E+03 -0.12099231792E+04  0.19945932576E+04  0.10100000352E+00 0.  1.
</event>
<event>
 5   0  0.8024500E-09  0.3585913E+04  0.7818609E-02  0.8093726E-01
       -3   -1    0    0    0  501  0.00000000000E+00  0.00000000000E+00  0.22104667962E+04  0.22104667985E+04  0.10100000352E+00 0. -1.
        3   -1    0    0  501    0  0.00000000000E+00  0.00000000000E+00 -0.14543052996E+04  0.14543053031E+04  0.10100000352E+00 0.  1.
    10030    2    1    2    0    0  0.00000000000E+00  0.00000000000E+00  0.75616149655E+03  0.36647721016E+04  0.35859133213E+04 0.  0.
        3    1    3    3  502    0 -0.10171784771E+04 -0.66392351029E+02  0.18855208401E+04  0.21434198953E+04  0.10100000352E+00 0. -1.
       -3    1    3    3    0  502  0.10171784771E+04  0.66392351029E+02 -0.11293593436E+04  0.15213522064E+04  0.10100000352E+00 0.  1.
</event>
<event>
 5   0  0.8146881E-09  0.3599927E+04  0.7818609E-02  0.8090508E-01
        1   -1    0    0  501    0  0.00000000000E+00  0.00000000000E+00  0.19706818689E+04  0.19706818689E+04  0.50400001928E-02 0.  1.
       -1   -1    0    0    0  501  0.00000000000E+00  0.00000000000E+00 -0.16440346852E+04  0.16440346852E+04  0.50400001928E-02 0. -1.
    10030    2    1    2    0    0  0.00000000000E+00  0.00000000000E+00  0.32664718373E+03  0.36147165541E+04  0.35999274137E+04 0.  0.
        4    1    3    3  502    0 -0.46338414501E+03  0.16271909526E+04  0.78017011306E+03  0.18631001799E+04  0.12699999809E+01 0.  1.
       -4    1    3    3    0  502  0.46338414501E+03 -0.16271909526E+04 -0.45352292933E+03  0.17516163742E+04  0.12699999809E+01 0. -1.
</event>
<event>
 5   0  0.8063410E-09  0.3598609E+04  0.7818609E-02  0.8090810E-01
       -1   -1    0    0    0  501  0.00000000000E+00  0.00000000000E+00  0.29158519397E+04  0.29158519397E+04  0.50400001928E-02 0. -1.
        1   -1    0    0  501    0  0.00000000000E+00  0.00000000000E+00 -0.11103089224E+04  0.11103089224E+04  0.50400001928E-02 0.  1.
    10030    2    1    2    0    0  0.00000000000E+00  0.00000000000E+00  0.18055430173E+04  0.40261608621E+04  0.35986088562E+04 0.  0.
        2    1    3    3  502    0 -0.86181597106E+03 -0.55435928370E+03 -0.75195447286E+03  0.12710139703E+04  0.25500000920E-02 0.  1.
       -2    1    3    3    0  502  0.86181597106E+03  0.55435928370E+03  0.25574974901E+04  0.27551468918E+04  0.25500000920E-02 0. -1.
</event>
<event>
 5   0  0.2590795E-08  0.3599290E+04  0.7818609E-02  0.8090654E-01
        2   -1    0    0  501    0  0.00000000000E+00  0.00000000000E+00  0.17744137481E+04  0.17744137481E+04  0.25500000920E-02 0.  1.
       -2   -1    0    0    0  501  0.00000000000E+00  0.00000000000E+00 -0.18252348677E+04  0.18252348677E+04  0.25500000920E-02 0. -1.
    10030    2    1    2    0    0  0.00000000000E+00  0.00000000000E+00 -0.50821119568E+02  0.35996486158E+04  0.35992898426E+04 0.  0.
        4    1    3    3  502    0 -0.16672400171E+04  0.41459255629E+03  0.51050101387E+03  0.17922581177E+04  0.12699999809E+01 0.  1.
       -4    1    3    3    0  502  0.16672400171E+04 -0.41459255629E+03 -0.56132213344E+03  0.18073904981E+04  0.12699999809E+01 0. -1.
</event>
<event>
 5   0  0.2494592E-08  0.3598795E+04  0.7818609E-02  0.8090768E-01
        2   -1    0    0  501    0  0.00000000000E+00  0.00000000000E+00  0.22430555440E+04  0.22430555440E+04  0.25500000920E-02 0.  1.
       -2   -1    0    0    0  501  0.00000000000E+00  0.00000000000E+00 -0.14434910226E+04  0.14434910226E+04  0.25500000920E-02 0. -1.
    10030    2    1    2    0    0  0.00000000000E+00  0.00000000000E+00  0.79956452137E+03  0.36865465666E+04  0.35987945432E+04 0.  0.
        1    1    3    3  502    0 -0.13284277083E+04 -0.76940645809E+03  0.13613529190E+04  0.20518255881E+04  0.50400001928E-02 0.  1.
       -1    1    3    3    0  502  0.13284277083E+04  0.76940645809E+03 -0.56178839764E+03  0.16347209785E+04  0.50400001928E-02 0. -1.
</event>
<event>
 5   0  0.8024500E-09  0.3600404E+04  0.7818609E-02  0.8090399E-01
       -1   -1    0    0    0  501  0.00000000000E+00  0.00000000000E+00  0.17060718958E+04  0.17060718958E+04  0.50400001928E-02 0. -1.
        1   -1    0    0  501    0  0.00000000000E+00  0.00000000000E+00 -0.18995255571E+04  0.18995255571E+04  0.50400001928E-02 0.  1.
    10030    2    1    2    0    0  0.00000000000E+00  0.00000000000E+00 -0.19345366129E+03  0.36055974530E+04  0.36004039598E+04 0.  0.
        1    1    3    3  502    0  0.12129027421E+04 -0.29656374635E+03 -0.13953795977E+04  0.18724762587E+04  0.50400001928E-02 0.  1.
       -1    1    3    3    0  502 -0.12129027421E+04  0.29656374635E+03  0.12019259364E+04  0.17331211943E+04  0.50400001928E-02 0. -1.
</event>
<event>
 5   0  0.2482243E-08  0.3599318E+04  0.7818609E-02  0.8090648E-01
       -2   -1    0    0    0  501  0.00000000000E+00  0.00000000000E+00  0.17277723873E+04  0.17277723873E+04  0.25500000920E-02 0. -1.
        2   -1    0    0  501    0  0.00000000000E+00  0.00000000000E+00 -0.18745361927E+04  0.18745361927E+04  0.25500000920E-02 0.  1.
    10030    2    1    2    0    0  0.00000000000E+00  0.00000000000E+00 -0.14676380541E+03  0.36023085801E+04  0.35993176425E+04 0.  0.
        5    1    3    3  502    0  0.12399859535E+04 -0.77383382648E+03 -0.11241904780E+04  0.18439659098E+04  0.46999998093E+01 0.  1.
       -5    1    3    3    0  502 -0.12399859535E+04  0.77383382648E+03  0.97742667256E+03  0.17583426703E+04  0.46999998093E+01 0. -1.
</event>
<event>
 5   0  0.8146881E-09  0.3600548E+04  0.7818609E-02  0.8090366E-01
        1   -1    0    0  501    0  0.00000000000E+00  0.00000000000E+00  0.10345689356E+04  0.10345689356E+04  0.50400001928E-02 0.  1.
       -1   -1    0    0    0  501  0.00000000000E+00  0.00000000000E+00 -0.31326931989E+04  0.31326931989E+04  0.50400001928E-02 0. -1.
    10030    2    1    2    0    0  0.00000000000E+00  0.00000000000E+00 -0.20981242633E+04  0.41672621345E+04  0.36005483295E+04 0.  0.
        4    1    3    3  502    0 -0.12497898468E+04 -0.44300863867E+02  0.44977675149E+03  0.13289988588E+04  0.12699999809E+01 0.  1.
       -4    1    3    3    0  502  0.12497898468E+04  0.44300863867E+02 -0.25479010148E+04  0.28382632756E+04  0.12699999809E+01 0. -1.
</event>
<event>
 5   0  0.8024500E-09  0.3599487E+04  0.7818609E-02  0.8090609E-01
       -1   -1    0    0    0  501  0.00000000000E+00  0.00000000000E+00  0.18460492873E+04  0.18460492873E+04  0.50400001928E-02 0.  1.
        1   -1    0    0  501    0  0.00000000000E+00  0.00000000000E+00 -0.17545991284E+04  0.17545991284E+04  0.50400001928E-02 0. -1.
    10030    2    1    2    0    0  0.00000000000E+00  0.00000000000E+00  0.91450158881E+02  0.36006484157E+04  0.35994868915E+04 0.  0.
        5    1    3    3  502    0 -0.11135774082E+04  0.15009991194E+03  0.14520484915E+04  0.18360423576E+04  0.46999998093E+01 0.  1.
       -5    1    3    3    0  502  0.11135774082E+04 -0.15009991194E+03 -0.13605983326E+04  0.17646060581E+04  0.46999998093E+01 0. -1.
</event>
<event>
 5   0  0.8063410E-09  0.3588002E+04  0.7818609E-02  0.8093246E-01
        1   -1    0    0  501    0  0.00000000000E+00  0.00000000000E+00  0.24410526472E+04  0.24410526472E+04  0.50400001928E-02 0.  1.
       -1   -1    0    0    0  501  0.00000000000E+00  0.00000000000E+00 -0.13184636659E+04  0.13184636659E+04  0.50400001928E-02 0. -1.
    10030    2    1    2    0    0  0.00000000000E+00  0.00000000000E+00  0.11225889812E+04  0.37595163131E+04  0.35880017959E+04 0.  0.
        2    1    3    3  502    0 -0.11699021033E+04  0.12651267187E+04  0.10843804941E+04  0.20359512768E+04  0.25500000920E-02 0.  1.
       -2    1    3    3    0  502  0.11699021033E+04 -0.12651267187E+04  0.38208487158E+02  0.17235650363E+04  0.25500000920E-02 0. -1.
</event>
<event>
 5   0  0.2590795E-08  0.3598991E+04  0.7818609E-02  0.8090723E-01
        2   -1    0    0  501    0  0.00000000000E+00  0.00000000000E+00  0.24937526395E+04  0.24937526395E+04  0.25500000920E-02 0.  1.
       -2   -1    0    0    0  501  0.00000000000E+00  0.00000000000E+00 -0.12985184784E+04  0.12985184784E+04  0.25500000920E-02 0. -1.
    10030    2    1    2    0    0  0.00000000000E+00  0.00000000000E+00  0.11952341611E+04  0.37922711180E+04  0.35989909047E+04 0.  0.
        4    1    3    3  502    0 -0.77947219400E+03 -0.14491013201E+04 -0.17000518756E+03  0.16541991760E+04  0.12699999809E+01 0. -1.
       -4    1    3    3    0  502  0.77947219400E+03  0.14491013201E+04  0.13652393487E+04  0.21380719420E+04  0.12699999809E+01 0.  1.
</event>
<event>
 5   0  0.8024500E-09  0.3599535E+04  0.7818609E-02  0.8090598E-01
        1   -1    0    0  501    0  0.00000000000E+00  0.00000000000E+00  0.15130016070E+04  0.15130016070E+04  0.50400001928E-02 0.  1.
       -1   -1    0    0    0  501  0.00000000000E+00  0.00000000000E+00 -0.21408849016E+04  0.21408849016E+04  0.50400001928E-02 0. -1.
    10030    2    1    2    0    0  0.00000000000E+00  0.00000000000E+00 -0.62788329456E+03  0.36538865086E+04  0.35995345791E+04 0.  0.
        1    1    3    3  502    0  0.69266786812E+03 -0.41397959088E+03 -0.19469573904E+04  0.21075604279E+04  0.50400001928E-02 0. -1.
       -1    1    3    3    0  502 -0.69266786812E+03  0.41397959088E+03  0.13190740959E+04  0.15463260806E+04  0.50400001928E-02 0.  1.
</event>
<event>
 5   0  0.8247570E-09  0.3599505E+04  0.7818609E-02  0.8090605E-01
       -1   -1    0    0    0  501  0.00000000000E+00  0.00000000000E+00  0.14112224952E+04  0.14112224952E+04  0.50400001928E-02 0.  1.
        1   -1    0    0  501    0  0.00000000000E+00  0.00000000000E+00 -0.22952505433E+04  0.22952505433E+04  0.50400001928E-02 0. -1.
    10030    2    1    2    0    0  0.00000000000E+00  0.00000000000E+00 -0.88402804811E+03  0.37064730386E+04  0.35995050765E+04 0.  0.
        3    1    3    3  502    0 -0.11035702490E+04 -0.83211694866E+03 -0.16290166197E+04  0.21363476000E+04  0.10100000352E+00 0. -1.
       -3    1    3    3    0  502  0.11035702490E+04  0.83211694866E+03  0.74498857158E+03  0.15701254385E+04  0.10100000352E+00 0.  1.
</event>
<event>
 5   0  0.2476968E-08  0.3599226E+04  0.7818609E-02  0.8090669E-01
       -2   -1    0    0    0  501  0.00000000000E+00  0.00000000000E+00  0.16995498636E+04  0.16995498636E+04  0.25500000920E-02 0.  1.
        2   -1    0    0  501    0  0.00000000000E+00  0.00000000000E+00 -0.19055676564E+04  0.19055676564E+04  0.25500000920E-02 0. -1.
    10030    2    1    2    0    0  0.00000000000E+00  0.00000000000E+00 -0.20601779275E+03  0.36051175200E+04  0.35992261671E+04 0.  0.
        2    1    3    3  502    0 -0.11813705312E+04  0.13427072384E+04  0.97589206944E+02  0.17910953949E+04  0.25500000920E-02 0.  1.
       -2    1    3    3    0  502  0.11813705312E+04 -0.13427072384E+04 -0.30360699969E+03  0.18140221251E+04  0.25500000920E-02 0. -1.
</event>
<event>
 5   0  0.2590795E-08  0.3601103E+04  0.7818609E-02  0.8090239E-01
       -2   -1    0    0    0  501  0.00000000000E+00  0.00000000000E+00  0.19483850285E+04  0.19483850285E+04  0.25500000920E-02 0.  1.
        2   -1    0    0  501    0  0.00000000000E+00  0.00000000000E+00 -0.16639348273E+04  0.16639348273E+04  0.25500000920E-02 0. -1.
    10030    2    1    2    0    0  0.00000000000E+00  0.00000000000E+00  0.28445020119E+03  0.36123198558E+04  0.36011030010E+04 0.  0.
        4    1    3    3  502    0  0.48312698755E+03 -0.53769792626E+03 -0.15119880201E+04  0.16758997977E+04  0.12699999809E+01 0. -1.
       -4    1    3    3    0  502 -0.48312698755E+03  0.53769792626E+03  0.17964382213E+04  0.19364200582E+04  0.12699999809E+01 0.  1.
</event>
<event>
 5   0  0.8024500E-09  0.3600317E+04  0.7818609E-02  0.8090419E-01
       -1   -1    0    0    0  501  0.00000000000E+00  0.00000000000E+00  0.32847705455E+04  0.32847705455E+04  0.50400001928E-02 0. -1.
        1   -1    0    0  501    0  0.00000000000E+00  0.00000000000E+00 -0.98654411795E+03  0.98654411796E+03  0.50400001928E-02 0.  1.
    10030    2    1    2    0    0  0.00000000000E+00  0.00000000000E+00  0.22982264275E+04  0.42713146634E+04  0.36003172418E+04 0.  0.
        5    1    3    3  502    0  0.13039604116E+03 -0.14683910506E+04 -0.76572199882E+02  0.14761642174E+04  0.46999998093E+01 0.  1.
       -5    1    3    3    0  502 -0.13039604116E+03  0.14683910506E+04  0.23747986274E+04  0.27951504460E+04  0.46999998093E+01 0. -1.
</event>
<event>
 5   0  0.2590795E-08  0.3599821E+04  0.7818609E-02  0.8090533E-01
       -2   -1    0    0    0  501  0.00000000000E+00  0.00000000000E+00  0.20700685586E+04  0.20700685586E+04  0.25500000920E-02 0.  1.
        2   -1    0    0  501    0  0.00000000000E+00  0.00000000000E+00 -0.15650100740E+04  0.15650100740E+04  0.25500000920E-02 0. -1.
    10030    2    1    2    0    0  0.00000000000E+00  0.00000000000E+00  0.50505848465E+03  0.36350786326E+04  0.35998211890E+04 0.  0.
        4    1    3    3  502    0 -0.95512678686E+01 -0.62672453131E+03 -0.14512427974E+04  0.15808169200E+04  0.12699999809E+01 0. -1.
       -4    1    3    3    0  502  0.95512678686E+01  0.62672453131E+03  0.19563012820E+04  0.20542617126E+04  0.12699999809E+01 0.  1.
</event>
<event>
 5   0  0.8063410E-09  0.3600103E+04  0.7818609E-02  0.8090468E-01
       -1   -1    0    0    0  501  0.00000000000E+00  0.00000000000E+00  0.16112772961E+04  0.16112772961E+04  0.50400001928E-02 0.  1.
        1   -1    0    0  501    0  0.00000000000E+00  0.00000000000E+00 -0.20109418894E+04  0.20109418894E+04  0.50400001928E-02 0. -1.
    10030    2    1    2    0    0  0.00000000000E+00  0.00000000000E+00 -0.39966459323E+03  0.36222191855E+04  0.36001027820E+04 0.  0.
        2    1    3    3  502    0 -0.71159922728E+03  0.43966121841E+03 -0.18035216411E+04  0.19880557732E+04  0.25500000920E-02 0. -1.
       -2    1    3    3    0  502  0.71159922728E+03 -0.43966121841E+03  0.14038570479E+04  0.16341634123E+04  0.25500000920E-02 0.  1.
</event>
<event>
 5   0  0.2482243E-08  0.3599577E+04  0.7818609E-02  0.8090589E-01
       -2   -1    0    0    0  501  0.00000000000E+00  0.00000000000E+00  0.12072024494E+04  0.12072024494E+04  0.25500000920E-02 0.  1.
        2   -1    0    0  501    0  0.00000000000E+00  0.00000000000E+00 -0.26832604152E+04  0.26832604152E+04  0.25500000920E-02 0. -1.
    10030    2    1    2    0    0  0.00000000000E+00  0.00000000000E+00 -0.14760579658E+04  0.38904628647E+04  0.35995769450E+04 0.  0.
        5    1    3    3  502    0  0.24696090808E+03  0.14441567341E+04  0.39173566644E+03  0.15165939750E+04  0.46999998093E+01 0.  1.
       -5    1    3    3    0  502 -0.24696090808E+03 -0.14441567341E+04 -0.18677936322E+04  0.23738688896E+04  0.46999998093E+01 0. -1.
</event>
<event>
 5   0  0.8146881E-09  0.3599813E+04  0.7818609E-02  0.8090535E-01
        1   -1    0    0  501    0  0.00000000000E+00  0.00000000000E+00  0.24541090681E+04  0.24541090681E+04  0.50400001928E-02 0.  1.
       -1   -1    0    0    0  501  0.00000000000E+00  0.00000000000E+00 -0.13200973838E+04  0.13200973838E+04  0.50400001928E-02 0. -1.
    10030    2    1    2    0    0  0.00000000000E+00  0.00000000000E+00  0.11340116843E+04  0.37742064519E+04  0.35998127509E+04 0.  0.
        4    1    3    3  502    0  0.99329370381E+03  0.72289355833E+03  0.19462010988E+04  0.23015012076E+04  0.12699999809E+01 0.  1.
       -4    1    3    3    0  502 -0.99329370381E+03 -0.72289355833E+03 -0.81218941453E+03  0.14727052443E+04  0.12699999809E+01 0. -1.
</event>
<event>
 5   0  0.2608070E-08  0.3599150E+04  0.7818609E-02  0.8090686E-01
       -2   -1    0    0    0  501  0.00000000000E+00  0.00000000000E+00  0.17008923625E+04  0.17008923625E+04  0.25500000920E-02 0.  1.
        2   -1    0    0  501    0  0.00000000000E+00  0.00000000000E+00 -0.19039827171E+04  0.19039827171E+04  0.25500000920E-02 0. -1.
    10030    2    1    2    0    0  0.00000000000E+00  0.00000000000E+00 -0.20309035457E+03  0.36048750796E+04  0.35991497118E+04 0.  0.
        3    1    3    3  502    0 -0.95998816595E+03 -0.60161383991E+03  0.12988754072E+04  0.17235410714E+04  0.10100000352E+00 0.  1.
       -3    1    3    3    0  502  0.95998816595E+03  0.60161383991E+03 -0.15019657617E+04  0.18813340083E+04  0.10100000352E+00 0. -1.
</event>
<event>
 5   0  0.8063410E-09  0.3598920E+04  0.7818609E-02  0.8090739E-01
       -1   -1    0    0    0  501  0.00000000000E+00  0.00000000000E+00  0.12307748503E+04  0.12307748503E+04  0.50400001928E-02 0. -1.
        1   -1    0    0  501    0  0.00000000000E+00  0.00000000000E+00 -0.26309089611E+04  0.26309089611E+04  0.50400001928E-02 0.  1.
    10030    2    1    2    0    0  0.00000000000E+00  0.00000000000E+00 -0.14001341109E+04  0.38616838114E+04  0.35989201618E+04 0.  0.
        2    1    3    3  502    0  0.10480951561E+04  0.12895144138E+03 -0.22634731092E+04  0.24976874197E+04  0.25500000920E-02 0.  1.
       -2    1    3    3    0  502 -0.10480951561E+04 -0.12895144138E+03  0.86333899833E+03  0.13639963917E+04  0.25500000920E-02 0. -1.
</event>
<event>
 5   0  0.2476968E-08  0.3599412E+04  0.7818609E-02  0.8090626E-01
        2   -1    0    0  501    0  0.00000000000E+00  0.00000000000E+00  0.18112652645E+04  0.18112652645E+04  0.25500000920E-02 0. -1.
       -2   -1    0    0    0  501  0.00000000000E+00  0.00000000000E+00 -0.17882208692E+04  0.17882208692E+04  0.25500000920E-02 0.  1.
    10030    2    1    2    0    0  0.00000000000E+00  0.00000000000E+00  0.23044395219E+02  0.35994861337E+04  0.35994123663E+04 0.  0.
        2    1    3    3  502    0  0.56230533037E+03  0.12962456874E+03 -0.16931982030E+04  0.17888292171E+04  0.25500000920E-02 0.  1.
       -2    1    3    3    0  502 -0.56230533037E+03 -0.12962456874E+03  0.17162425982E+04  0.18106569165E+04  0.25500000920E-02 0. -1.
</event>
<event>
 5   0  0.2590795E-08  0.3599084E+04  0.7818609E-02  0.8090702E-01
       -2   -1    0    0    0  501  0.00000000000E+00  0.00000000000E+00  0.19640822932E+04  0.19640822932E+04  0.25500000920E-02 0. -1.
        2   -1    0    0  501    0  0.00000000000E+00  0.00000000000E+00 -0.16487858838E+04  0.16487858838E+04  0.25500000920E-02 0.  1.
    10030    2    1    2    0    0  0.00000000000E+00  0.00000000000E+00  0.31529640940E+03  0.36128681770E+04  0.35990838610E+04 0.  0.
        4    1    3    3  502    0  0.46472367311E+03 -0.67501374724E+03  0.17658883945E+04  0.19467858347E+04  0.12699999809E+01 0. -1.
       -4    1    3    3    0  502 -0.46472367311E+03  0.67501374724E+03 -0.14505919851E+04  0.16660823423E+04  0.12699999809E+01 0.  1.
</event>
<event>
 5   0  0.2482243E-08  0.3592132E+04  0.7818609E-02  0.8092296E-01
        2   -1    0    0  501    0  0.00000000000E+00  0.00000000000E+00  0.21174068637E+04  0.21174068637E+04  0.25500000920E-02 0.  1.
       -2   -1    0    0    0  501  0.00000000000E+00  0.00000000000E+00 -0.15234921949E+04  0.15234921949E+04  0.25500000920E-02 0. -1.
    10030    2    1    2    0    0  0.00000000000E+00  0.00000000000E+00  0.59391466876E+03  0.36408990587E+04  0.35921318630E+04 0.  0.
        5    1    3    3  502    0  0.57228048834E+03  0.17022816171E+04  0.32100877412E+03  0.18243728743E+04  0.46999998093E+01 0. -1.
       -5    1    3    3    0  502 -0.57228048834E+03 -0.17022816171E+04  0.27290589464E+03  0.18165261844E+04  0.46999998093E+01 0.  1.
</event>
<event>
 5   0  0.8024500E-09  0.3599753E+04  0.7818609E-02  0.8090548E-01
       -1   -1    0    0    0  501  0.00000000000E+00  0.00000000000E+00  0.19409838942E+04  0.19409838942E+04  0.50400001928E-02 0. -1.
        1   -1    0    0  501    0  0.00000000000E+00  0.00000000000E+00 -0.16690274194E+04  0.16690274194E+04  0.50400001928E-02 0.  1.
    10030    2    1    2    0    0  0.00000000000E+00  0.00000000000E+00  0.27195647476E+03  0.36100113136E+04  0.35997529582E+04 0.  0.
        1    1    3    3  502    0  0.17110981335E+04  0.41557278271E+03  0.50986474871E+03  0.18331720111E+04  0.50400001928E-02 0.  1.
       -1    1    3    3    0  502 -0.17110981335E+04 -0.41557278271E+03 -0.23790827395E+03  0.17768393025E+04  0.50400001928E-02 0. -1.
</event>
<event>
 5   0  0.8063410E-09  0.3599577E+04  0.7818609E-02  0.8090589E-01
        1   -1    0    0  501    0  0.00000000000E+00  0.00000000000E+00  0.13738825286E+04  0.13738825286E+04  0.50400001928E-02 0.  1.
       -1   -1    0    0    0  501  0.00000000000E+00  0.00000000000E+00 -0.23577257060E+04  0.23577257060E+04  0.50400001928E-02 0. -1.
    10030    2    1    2    0    0  0.00000000000E+00  0.00000000000E+00 -0.98384317735E+03  0.37316082346E+04  0.35995767277E+04 0.  0.
        2    1    3    3  502    0 -0.13035814814E+04 -0.72911897150E+03 -0.15328941351E+04  0.21402578309E+04  0.25500000920E-02 0. -1.
       -2    1    3    3    0  502  0.13035814814E+04  0.72911897150E+03  0.54905095773E+03  0.15913504037E+04  0.25500000920E-02 0.  1.
</event>
<event>
 5   0  0.2482243E-08  0.3595715E+04  0.7818609E-02  0.8091474E-01
       -2   -1    0    0    0  501  0.00000000000E+00  0.00000000000E+00  0.22978450444E+04  0.22978450444E+04  0.25500000920E-02 0.  1.
        2   -1    0    0  501    0  0.00000000000E+00  0.00000000000E+00 -0.14066624076E+04  0.14066624076E+04  0.25500000920E-02 0. -1.
    10030    2    1    2    0    0  0.00000000000E+00  0.00000000000E+00  0.89118263682E+03  0.37045074520E+04  0.35957153627E+04 0.  0.
        5    1    3    3  502    0 -0.27496907803E+03  0.39035632754E+03  0.22313207910E+04  0.22818414973E+04  0.46999998093E+01 0.  1.
       -5    1    3    3    0  502  0.27496907803E+03 -0.39035632754E+03 -0.13401381542E+04  0.14226659547E+04  0.46999998093E+01 0. -1.
</event>
<event>
 5   0  0.8247570E-09  0.3603529E+04  0.7818609E-02  0.8089684E-01
       -1   -1    0    0    0  501  0.00000000000E+00  0.00000000000E+00  0.24633265910E+04  0.24633265910E+04  0.50400001928E-02 0.  1.
        1   -1    0    0  501    0  0.00000000000E+00  0.00000000000E+00 -0.13178742230E+04  0.13178742230E+04  0.50400001928E-02 0. -1.
    10030    2    1    2    0    0  0.00000000000E+00  0.00000000000E+00  0.11454523680E+04  0.37812008141E+04  0.36035286136E+04 0.  0.
        3    1    3    3  502    0  0.93504931459E+02  0.98406875351E+03  0.21533920718E+04  0.23694370447E+04  0.10100000352E+00 0.  1.
       -3    1    3    3    0  502 -0.93504931459E+02 -0.98406875351E+03 -0.10079397038E+04  0.14117637694E+04  0.10100000352E+00 0. -1.
</event>
<event>
 5   0  0.2494592E-08  0.3599603E+04  0.7818609E-02  0.8090583E-01
       -2   -1    0    0    0  501  0.00000000000E+00  0.00000000000E+00  0.12144005597E+04  0.12144005597E+04  0.25500000920E-02 0.  1.
        2   -1    0    0  501    0  0.00000000000E+00  0.00000000000E+00 -0.26673948008E+04  0.26673948008E+04  0.25500000920E-02 0. -1.
    10030    2    1    2    0    0  0.00000000000E+00  0.00000000000E+00 -0.14529942410E+04  0.38817953605E+04  0.35996031665E+04 0.  0.
        1    1    3    3  502    0 -0.13864423198E+04 -0.93237270151E+03 -0.14480915623E+04  0.22109975879E+04  0.50400001928E-02 0. -1.
       -1    1    3    3    0  502  0.13864423198E+04  0.93237270151E+03 -0.49026787691E+01  0.16707977726E+04  0.50400001928E-02 0.  1.
</event>
<event>
 5   0  0.8024500E-09  0.3599846E+04  0.7818609E-02  0.8090527E-01
        1   -1    0    0  501    0  0.00000000000E+00  0.00000000000E+00  0.21396776623E+04  0.21396776623E+04  0.50400001928E-02 0. -1.
       -1   -1    0    0    0  501  0.00000000000E+00  0.00000000000E+00 -0.15141171290E+04  0.15141171290E+04  0.50400001928E-02 0.  1.
    10030    2    1    2    0    0  0.00000000000E+00  0.00000000000E+00  0.62556053337E+03  0.36537947913E+04  0.35998458850E+04 0.  0.
        1    1    3    3  502    0  0.14884710236E+04  0.57554025813E+03 -0.53211899986E+03  0.16822435040E+04  0.50400001928E-02 0.  1.
       -1    1    3    3    0  502 -0.14884710236E+04 -0.57554025813E+03  0.11576795332E+04  0.19715512873E+04  0.50400001928E-02 0. -1.
</event>
<event>
 5   0  0.2494592E-08  0.3598334E+04  0.7818609E-02  0.8090873E-01
        2   -1    0    0  501    0  0.00000000000E+00  0.00000000000E+00  0.12721802248E+04  0.12721802248E+04  0.25500000920E-02 0. -1.
       -2   -1    0    0    0  501  0.00000000000E+00  0.00000000000E+00 -0.25444529181E+04  0.25444529181E+04  0.25500000920E-02 0.  1.
    10030    2    1    2    0    0  0.00000000000E+00  0.00000000000E+00 -0.12722726933E+04  0.38166331429E+04  0.35983344398E+04 0.  0.
        1    1    3    3  502    0 -0.73746734106E+03  0.13003848807E+04  0.42566655265E+03  0.15543651216E+04  0.50400001928E-02 0. -1.
       -1    1    3    3    0  502  0.73746734106E+03 -0.13003848807E+04 -0.16979392460E+04  0.22622680213E+04  0.50400001928E-02 0.  1.
</event>
<event>
 5   0  0.2494592E-08  0.3598576E+04  0.7818609E-02  0.8090818E-01
        2   -1    0    0  501    0  0.00000000000E+00  0.00000000000E+00  0.20193941181E+04  0.20193941181E+04  0.25500000920E-02 0. -1.
       -2   -1    0    0    0  501  0.00000000000E+00  0.00000000000E+00 -0.16031730173E+04  0.16031730173E+04  0.25500000920E-02 0.  1.
    10030    2    1    2    0    0  0.00000000000E+00  0.00000000000E+00  0.41622110080E+03  0.36225671354E+04  0.35985764749E+04 0.  0.
        1    1    3    3  502    0  0.19517271217E+03  0.11421573603E+04 -0.11775918022E+04  0.16520709052E+04  0.50400001928E-02 0.  1.
       -1    1    3    3    0  502 -0.19517271217E+03 -0.11421573603E+04  0.15938129030E+04  0.19704962302E+04  0.50400001928E-02 0. -1.
</event>
<event>
 5   0  0.2482243E-08  0.3599940E+04  0.7818609E-02  0.8090506E-01
       -2   -1    0    0    0  501  0.00000000000E+00  0.00000000000E+00  0.15804786112E+04  0.15804786112E+04  0.25500000920E-02 0.  1.
        2   -1    0    0  501    0  0.00000000000E+00  0.00000000000E+00 -0.20499432299E+04  0.20499432299E+04  0.25500000920E-02 0. -1.
    10030    2    1    2    0    0  0.00000000000E+00  0.00000000000E+00 -0.46946461871E+03  0.36304218411E+04  0.35999396823E+04 0.  0.
        5    1    3    3  502    0 -0.68365083649E+03  0.33709461310E+03 -0.18791398016E+04  0.20278559437E+04  0.46999998093E+01 0. -1.
       -5    1    3    3    0  502  0.68365083649E+03 -0.33709461310E+03  0.14096751829E+04  0.16025658974E+04  0.46999998093E+01 0.  1.
</event>
<event>
 5   0  0.2608070E-08  0.3599305E+04  0.7818609E-02  0.8090651E-01
        2   -1    0    0  501    0  0.00000000000E+00  0.00000000000E+00  0.22273460500E+04  0.22273460500E+04  0.25500000920E-02 0. -1.
       -2   -1    0    0    0  501  0.00000000000E+00  0.00000000000E+00 -0.14540846880E+04  0.14540846880E+04  0.25500000920E-02 0.  1.
    10030    2    1    2    0    0  0.00000000000E+00  0.00000000000E+00  0.77326136200E+03  0.36814307379E+04  0.35993053697E+04 0.  0.
        3    1    3    3  502    0 -0.16732609740E+03 -0.11832150699E+04 -0.98971539371E+03  0.15516225363E+04  0.10100000352E+00 0.  1.
       -3    1    3    3    0  502  0.16732609740E+03  0.11832150699E+04  0.17629767557E+04  0.21298082016E+04  0.10100000352E+00 0. -1.
</event>
<event>
 5   0  0.8063410E-09  0.3598397E+04  0.7818609E-02  0.8090859E-01
        1   -1    0    0  501    0  0.00000000000E+00  0.00000000000E+00  0.11824692333E+04  0.11824692333E+04  0.50400001928E-02 0. -1.
       -1   -1    0    0    0  501  0.00000000000E+00  0.00000000000E+00 -0.27375890248E+04  0.27375890248E+04  0.50400001928E-02 0.  1.
    10030    2    1    2    0    0  0.00000000000E+00  0.00000000000E+00 -0.15551197915E+04  0.39200582581E+04  0.35983967515E+04 0.  0.
        2    1    3    3  502    0 -0.47458586908E+03  0.78386080187E+03 -0.24643375076E+04  0.26291878699E+04  0.25500000920E-02 0.  1.
       -2    1    3    3    0  502  0.47458586908E+03 -0.78386080187E+03  0.90921771612E+03  0.12908703882E+04  0.25500000920E-02 0. -1.
</event>
<event>
 5   0  0.8247570E-09  0.3601085E+04  0.7818609E-02  0.8090243E-01
       -1   -1    0    0    0  501  0.00000000000E+00  0.00000000000E+00  0.15332772535E+04  0.15332772535E+04  0.50400001928E-02 0.  1.
        1   -1    0    0  501    0  0.00000000000E+00  0.00000000000E+00 -0.21143948379E+04  0.21143948379E+04  0.50400001928E-02 0. -1.
    10030    2    1    2    0    0  0.00000000000E+00  0.00000000000E+00 -0.58111758446E+03  0.36476720914E+04  0.36010851197E+04 0.  0.
        3    1    3    3  502    0 -0.91757146509E+03  0.32030132786E+03 -0.18258929117E+04  0.20684330469E+04  0.10100000352E+00 0. -1.
       -3    1    3    3    0  502  0.91757146509E+03 -0.32030132786E+03  0.12447753273E+04  0.15792390445E+04  0.10100000352E+00 0.  1.
</event>
<event>
 5   0  0.8063410E-09  0.3599075E+04  0.7818609E-02  0.8090704E-01
        1   -1    0    0  501    0  0.00000000000E+00  0.00000000000E+00  0.20582908509E+04  0.20582908509E+04  0.50400001928E-02 0.  1.
       -1   -1    0    0    0  501  0.00000000000E+00  0.00000000000E+00 -0.15733123364E+04  0.15733123365E+04  0.50400001928E-02 0. -1.
    10030    2    1    2    0    0  0.00000000000E+00  0.00000000000E+00  0.48497851445E+03  0.36316031874E+04  0.35990745409E+04 0.  0.
        2    1    3    3  502    0  0.87034570600E+03 -0.34175662631E+03  0.17939275686E+04  0.20229867427E+04  0.25500000920E-02 0.  1.
       -2    1    3    3    0  502 -0.87034570600E+03  0.34175662631E+03 -0.13089490542E+04  0.16086164447E+04  0.25500000920E-02 0. -1.
</event>
<event>
 5   0  0.8024500E-09  0.3597942E+04  0.7818609E-02  0.8090963E-01
       -1   -1    0    0    0  501  0.00000000000E+00  0.00000000000E+00  0.15389766977E+04  0.15389766977E+04  0.50400001928E-02 0.  1.
        1   -1    0    0  501    0  0.00000000000E+00  0.00000000000E+00 -0.21028888572E+04  0.21028888572E+04  0.50400001928E-02 0. -1.
    10030    2    1    2    0    0  0.00000000000E+00  0.00000000000E+00 -0.56391215955E+03  0.36418655549E+04  0.35979421613E+04 0.  0.
        1    1    3    3  502    0  0.17933795173E+04 -0.12598512248E+03 -0.21624355234E+03  0.18107577469E+04  0.50400001928E-02 0. -1.
       -1    1    3    3    0  502 -0.17933795173E+04  0.12598512248E+03 -0.34766860721E+03  0.18311078080E+04  0.50400001928E-02 0.  1.
</event>
<event>
 5   0  0.2494592E-08  0.3600456E+04  0.7818609E-02  0.8090387E-01
       -2   -1    0    0    0  501  0.00000000000E+00  0.00000000000E+00  0.14904120288E+04  0.14904120288E+04  0.25500000920E-02 0.  1.
        2   -1    0    0  501    0  0.00000000000E+00  0.00000000000E+00 -0.21744463600E+04  0.21744463600E+04  0.25500000920E-02 0. -1.
    10030    2    1    2    0    0  0.00000000000E+00  0.00000000000E+00 -0.68403433123E+03  0.36648583888E+04  0.36004560883E+04 0.  0.
        1    1    3    3  502    0 -0.69360481661E+03 -0.95581822986E+03  0.10410159200E+04  0.15742904039E+04  0.50400001928E-02 0.  1.
       -1    1    3    3    0  502  0.69360481661E+03  0.95581822986E+03 -0.17250502512E+04  0.20905679849E+04  0.50400001928E-02 0. -1.
</event>
<event>
 5   0  0.8247570E-09  0.3599993E+04  0.7818609E-02  0.8090493E-01
       -1   -1    0    0    0  501  0.00000000000E+00  0.00000000000E+00  0.12381708732E+04  0.12381708732E+04  0.50400001928E-02 0.  1.
        1   -1    0    0  501    0  0.00000000000E+00  0.00000000000E+00 -0.26167530162E+04  0.26167530162E+04  0.50400001928E-02 0. -1.
    10030    2    1    2    0    0  0.00000000000E+00  0.00000000000E+00 -0.13785821430E+04  0.38549238894E+04  0.35999929817E+04 0.  0.
        3    1    3    3  502    0  0.15492213198E+04 -0.68440548587E+03 -0.13419519707E+04  0.21608638709E+04  0.10100000352E+00 0.  1.
       -3    1    3    3    0  502 -0.15492213198E+04  0.68440548587E+03 -0.36630172343E+02  0.16940600186E+04  0.10100000352E+00 0. -1.
</event>
<event>
 5   0  0.2476968E-08  0.3599997E+04  0.7818609E-02  0.8090492E-01
       -2   -1    0    0    0  501  0.00000000000E+00  0.00000000000E+00  0.28577654273E+04  0.28577654273E+04  0.25500000920E-02 0.  1.
        2   -1    0    0  501    0  0.00000000000E+00  0.00000000000E+00 -0.11337510713E+04  0.11337510713E+04  0.25500000920E-02 0. -1.
    10030    2    1    2    0    0  0.00000000000E+00  0.00000000000E+00  0.17240143560E+04  0.39915164986E+04  0.35999970082E+04 0.  0.
        2    1    3    3  502    0 -0.45067871686E+03  0.60653947594E+03 -0.94937262220E+03  0.12133877441E+04  0.25500000920E-02 0. -1.
       -2    1    3    3    0  502  0.45067871686E+03 -0.60653947594E+03  0.26733869782E+04  0.27781287546E+04  0.25500000920E-02 0.  1.
</event>
<event>
 5   0  0.8024500E-09  0.3599858E+04  0.7818609E-02  0.8090524E-01
       -1   -1    0    0    0  501  0.00000000000E+00  0.00000000000E+00  0.12872185461E+04  0.12872185462E+04  0.50400001928E-02 0.  1.
        1   -1    0    0  501    0  0.00000000000E+00  0.00000000000E+00 -0.25168568572E+04  0.25168568573E+04  0.50400001928E-02 0. -1.
    10030    2    1    2    0    0  0.00000000000E+00  0.00000000000E+00 -0.12296383111E+04  0.38040754034E+04  0.35998582331E+04 0.  0.
        5    1    3    3  502    0  0.16602336115E+04  0.24967300123E+03 -0.13004813011E+04  0.21236727518E+04  0.46999998093E+01 0. -1.
       -5    1    3    3    0  502 -0.16602336115E+04 -0.24967300123E+03  0.70842990020E+02  0.16804026516E+04  0.46999998093E+01 0.  1.
</event>
<event>
 5   0  0.2590795E-08  0.3600405E+04  0.7818609E-02  0.8090399E-01
        2   -1    0    0  501    0  0.00000000000E+00  0.00000000000E+00  0.23196567122E+04  0.23196567122E+04  0.25500000920E-02 0. -1.
       -2   -1    0    0    0  501  0.00000000000E+00  0.00000000000E+00 -0.13970727285E+04  0.13970727285E+04  0.25500000920E-02 0.  1.
    10030    2    1    2    0    0  0.00000000000E+00  0.00000000000E+00  0.92258398365E+03  0.37167294407E+04  0.36004050506E+04 0.  0.
        4    1    3    3  502    0 -0.93553874197E+03 -0.14103459711E+04 -0.17206033048E+03  0.17011510415E+04  0.12699999809E+01 0. -1.
       -4    1    3    3    0  502  0.93553874197E+03  0.14103459711E+04  0.10946443141E+04  0.20155783992E+04  0.12699999809E+01 0.  1.
</event>
<event>
 5   0  0.2494592E-08  0.3601203E+04  0.7818609E-02  0.8090216E-01
       -2   -1    0    0    0  501  0.00000000000E+00  0.00000000000E+00  0.20941893659E+04  0.20941893659E+04  0.25500000920E-02 0. -1.
        2   -1    0    0  501    0  0.00000000000E+00  0.00000000000E+00 -0.15481719482E+04  0.15481719482E+04  0.25500000920E-02 0.  1.
    10030    2    1    2    0    0  0.00000000000E+00  0.00000000000E+00  0.54601741776E+03  0.36423613141E+04  0.36012027049E+04 0.  0.
        1    1    3    3  502    0 -0.40298132342E+03  0.94115054586E+03 -0.12251383803E+04  0.15965971151E+04  0.50400001928E-02 0.  1.
       -1    1    3    3    0  502  0.40298132342E+03 -0.94115054586E+03  0.17711557981E+04  0.20457641990E+04  0.50400001928E-02 0. -1.
</event>
<event>
 5   0  0.2494592E-08  0.3601280E+04  0.7818609E-02  0.8090199E-01
       -2   -1    0    0    0  501  0.00000000000E+00  0.00000000000E+00  0.13177743269E+04  0.13177743269E+04  0.25500000920E-02 0. -1.
        2   -1    0    0  501    0  0.00000000000E+00  0.00000000000E+00 -0.24604392043E+04  0.24604392043E+04  0.25500000920E-02 0.  1.
    10030    2    1    2    0    0  0.00000000000E+00  0.00000000000E+00 -0.11426648775E+04  0.37782135312E+04  0.36012795594E+04 0.  0.
        1    1    3    3  502    0 -0.43538893546E+02 -0.16238332171E+04 -0.13864022424E+04  0.21356125890E+04  0.50400001928E-02 0.  1.
       -1    1    3    3    0  502  0.43538893546E+02  0.16238332171E+04  0.24373736492E+03  0.16426009422E+04  0.50400001928E-02 0. -1.
</event>
<event>
 5   0  0.8146881E-09  0.3600095E+04  0.7818609E-02  0.8090470E-01
        1   -1    0    0  501    0  0.00000000000E+00  0.00000000000E+00  0.20910088596E+04  0.20910088596E+04  0.50400001928E-02 0.  1.
       -1   -1    0    0    0  501  0.00000000000E+00  0.00000000000E+00 -0.15495734022E+04  0.15495734022E+04  0.50400001928E-02 0. -1.
    10030    2    1    2    0    0  0.00000000000E+00  0.00000000000E+00  0.54143545739E+03  0.36405822619E+04  0.36000953947E+04 0.  0.
        4    1    3    3  502    0 -0.11214911462E+04  0.13088361099E+04 -0.25413333927E+03  0.17422341176E+04  0.12699999809E+01 0. -1.
       -4    1    3    3    0  502  0.11214911462E+04 -0.13088361099E+04  0.79556879667E+03  0.18983481442E+04  0.12699999809E+01 0.  1.
</event>
<event>
 5   0  0.2590795E-08  0.3600868E+04  0.7818609E-02  0.8090293E-01
        2   -1    0    0  501    0  0.00000000000E+00  0.00000000000E+00  0.11116164722E+04  0.11116164722E+04  0.25500000920E-02 0.  1.
       -2   -1    0    0    0  501  0.00000000000E+00  0.00000000000E+00 -0.29160800704E+04  0.29160800704E+04  0.25500000920E-02 0. -1.
    10030    2    1    2    0    0  0.00000000000E+00  0.00000000000E+00 -0.18044635982E+04  0.40276965426E+04  0.36008680290E+04 0.  0.
        4    1    3    3  502    0  0.16499667279E+04 -0.23533730012E+03 -0.16639755622E+04  0.23551199826E+04  0.12699999809E+01 0.  1.
       -4    1    3    3    0  502 -0.16499667279E+04  0.23533730012E+03 -0.14048803602E+03  0.16725765600E+04  0.12699999809E+01 0. -1.
</event>
<event>
 5   0  0.2590795E-08  0.3600428E+04  0.7818609E-02  0.8090394E-01
       -2   -1    0    0    0  501  0.00000000000E+00  0.00000000000E+00  0.17437771544E+04  0.17437771544E+04  0.25500000920E-02 0.  1.
        2   -1    0    0  501    0  0.00000000000E+00  0.00000000000E+00 -0.18584776272E+04  0.18584776272E+04  0.25500000920E-02 0. -1.
    10030    2    1    2    0    0  0.00000000000E+00  0.00000000000E+00 -0.11470047281E+03  0.36022547816E+04  0.36004282124E+04 0.  0.
        4    1    3    3  502    0 -0.73772825234E+03  0.10256916868E+04 -0.13403747045E+04  0.18419805569E+04  0.12699999809E+01 0. -1.
       -4    1    3    3    0  502  0.73772825234E+03 -0.10256916868E+04  0.12256742317E+04  0.17602742246E+04  0.12699999809E+01 0.  1.
</event>
<event>
 5   0  0.8063410E-09  0.3599219E+04  0.7818609E-02  0.8090671E-01
       -1   -1    0    0    0  501  0.00000000000E+00  0.00000000000E+00  0.15731061023E+04  0.15731061023E+04  0.50400001928E-02 0. -1.
        1   -1    0    0  501    0  0.00000000000E+00  0.00000000000E+00 -0.20587261756E+04  0.20587261756E+04  0.50400001928E-02 0.  1.
    10030    2    1    2    0    0  0.00000000000E+00  0.00000000000E+00 -0.48562007328E+03  0.36318322779E+04  0.35992191986E+04 0.  0.
        2    1    3    3  502    0 -0.13540677673E+04  0.54925444054E+03 -0.13027636999E+04  0.19576448137E+04  0.25500000920E-02 0.  1.
       -2    1    3    3    0  502  0.13540677673E+04 -0.54925444054E+03  0.81714362661E+03  0.16741874642E+04  0.25500000920E-02 0. -1.
</event>
<event>
 5   0  0.2494592E-08  0.3597271E+04  0.7818609E-02  0.8091117E-01
       -2   -1    0    0    0  501  0.00000000000E+00  0.00000000000E+00  0.13933144519E+04  0.13933144519E+04  0.25500000920E-02 0. -1.
        2   -1    0    0  501    0  0.00000000000E+00  0.00000000000E+00 -0.23218666719E+04  0.23218666719E+04  0.25500000920E-02 0.  1.
    10030    2    1    2    0    0  0.00000000000E+00  0.00000000000E+00 -0.92855221998E+03  0.37151811239E+04  0.35972714045E+04 0.  0.
        1    1    3    3  502    0 -0.54787587732E+03  0.18847947349E+03  0.12942980851E+04  0.14180620656E+04  0.50400001928E-02 0. -1.
       -1    1    3    3    0  502  0.54787587732E+03 -0.18847947349E+03 -0.22228503051E+04  0.22971190582E+04  0.50400001928E-02 0.  1.
</event>
<event>
 5   0  0.8024500E-09  0.3599499E+04  0.7818609E-02  0.8090606E-01
       -1   -1    0    0    0  501  0.00000000000E+00  0.00000000000E+00  0.12883450827E+04  0.12883450827E+04  0.50400001928E-02 0.  1.
        1   -1    0    0  501    0  0.00000000000E+00  0.00000000000E+00 -0.25141548066E+04  0.25141548066E+04  0.50400001928E-02 0. -1.
    10030    2    1    2    0    0  0.00000000000E+00  0.00000000000E+00 -0.12258097239E+04  0.38024998893E+04  0.35994993997E+04 0.  0.
        5    1    3    3  502    0 -0.71158934410E+03  0.47226335199E+03  0.10606374492E+04  0.13617510628E+04  0.46999998093E+01 0.  1.
       -5    1    3    3    0  502  0.71158934410E+03 -0.47226335199E+03 -0.22864471732E+04  0.24407488265E+04  0.46999998093E+01 0. -1.
</event>
<event>
 5   0  0.8024500E-09  0.3599613E+04  0.7818609E-02  0.8090580E-01
        1   -1    0    0  501    0  0.00000000000E+00  0.00000000000E+00  0.22828339864E+04  0.22828339864E+04  0.50400001928E-02 0.  1.
       -1   -1    0    0    0  501  0.00000000000E+00  0.00000000000E+00 -0.14189835740E+04  0.14189835740E+04  0.50400001928E-02 0. -1.
    10030    2    1    2    0    0  0.00000000000E+00  0.00000000000E+00  0.86385041234E+03  0.37018175604E+04  0.35996132731E+04 0.  0.
        5    1    3    3  502    0 -0.22363413661E+03 -0.16299752207E+04  0.11823354296E+04  0.20260233477E+04  0.46999998093E+01 0.  1.
       -5    1    3    3    0  502  0.22363413661E+03  0.16299752207E+04 -0.31848501726E+03  0.16757942127E+04  0.46999998093E+01 0. -1.
</event>
<event>
 5   0  0.8024500E-09  0.3602157E+04  0.7818609E-02  0.8089998E-01
        1   -1    0    0  501    0  0.00000000000E+00  0.00000000000E+00  0.23085677840E+04  0.23085677840E+04  0.50400001928E-02 0. -1.
       -1   -1    0    0    0  501  0.00000000000E+00  0.00000000000E+00 -0.14051501720E+04  0.14051501720E+04  0.50400001928E-02 0.  1.
    10030    2    1    2    0    0  0.00000000000E+00  0.00000000000E+00  0.90341761194E+03  0.37137179560E+04  0.36021573640E+04 0.  0.
        5    1    3    3  502    0  0.15395470104E+04  0.74874255156E+03 -0.12512072680E+03  0.17165365396E+04  0.46999998093E+01 0. -1.
       -5    1    3    3    0  502 -0.15395470104E+04 -0.74874255156E+03  0.10285383387E+04  0.19971814164E+04  0.46999998093E+01 0.  1.
</event>
<event>
 5   0  0.8063410E-09  0.3602299E+04  0.7818609E-02  0.8089965E-01
        1   -1    0    0  501    0  0.00000000000E+00  0.00000000000E+00  0.31834386181E+04  0.31834386181E+04  0.50400001928E-02 0. -1.
       -1   -1    0    0    0  501  0.00000000000E+00  0.00000000000E+00 -0.10190678750E+04  0.10190678750E+04  0.50400001928E-02 0.  1.
    10030    2    1    2    0    0  0.00000000000E+00  0.00000000000E+00  0.21643707431E+04  0.42025064930E+04  0.36022992811E+04 0.  0.
        2    1    3    3  502    0  0.71358156951E+03 -0.80240035625E+02 -0.84485499536E+03  0.11087908201E+04  0.25500000920E-02 0.  1.
       -2    1    3    3    0  502 -0.71358156951E+03  0.80240035625E+02  0.30092257385E+04  0.30937156729E+04  0.25500000920E-02 0. -1.
</event>
<event>
 5   0  0.2608070E-08  0.3611749E+04  0.7818609E-02  0.8087806E-01
        2   -1    0    0  501    0  0.00000000000E+00  0.00000000000E+00  0.24289943010E+04  0.24289943010E+04  0.25500000920E-02 0. -1.
       -2   -1    0    0    0  501  0.00000000000E+00  0.00000000000E+00 -0.13426060322E+04  0.13426060322E+04  0.25500000920E-02 0.  1.
    10030    2    1    2    0    0  0.00000000000E+00  0.00000000000E+00  0.10863882687E+04  0.37716003332E+04  0.36117488289E+04 0.  0.
        3    1    3    3  502    0  0.28312819725E+03  0.29461706098E+03  0.23800870181E+04  0.24149068331E+04  0.10100000352E+00 0. -1.
       -3    1    3    3    0  502 -0.28312819725E+03 -0.29461706098E+03 -0.12936987494E+04  0.13566935000E+04  0.10100000352E+00 0.  1.
</event>
<event>
 5   0  0.2482243E-08  0.3601870E+04  0.7818609E-02  0.8090064E-01
       -2   -1    0    0    0  501  0.00000000000E+00  0.00000000000E+00  0.13098468292E+04  0.13098468292E+04  0.25500000920E-02 0.  1.
        2   -1    0    0  501    0  0.00000000000E+00  0.00000000000E+00 -0.24761414273E+04  0.24761414273E+04  0.25500000920E-02 0. -1.
    10030    2    1    2    0    0  0.00000000000E+00  0.00000000000E+00 -0.11662945981E+04  0.37859882565E+04  0.36018695131E+04 0.  0.
        5    1    3    3  502    0  0.56093658654E+03  0.16504776435E+04 -0.10767766939E+03  0.17465230821E+04  0.46999998093E+01 0.  1.
       -5    1    3    3    0  502 -0.56093658654E+03 -0.16504776435E+04 -0.10586169287E+04  0.20394651744E+04  0.46999998093E+01 0. -1.
</event>
<event>
 5   0  0.2476968E-08  0.3603258E+04  0.7818609E-02  0.8089746E-01
       -2   -1    0    0    0  501  0.00000000000E+00  0.00000000000E+00  0.26934787537E+04  0.26934787537E+04  0.25500000920E-02 0. -1.
        2   -1    0    0  501    0  0.00000000000E+00  0.00000000000E+00 -0.12050837335E+04  0.12050837335E+04  0.25500000920E-02 0.  1.
    10030    2    1    2    0    0  0.00000000000E+00  0.00000000000E+00  0.14883950202E+04  0.38985624872E+04  0.36032582104E+04 0.  0.
        2    1    3    3  502    0 -0.15547002005E+04 -0.43778015140E+03 -0.11941881721E+03  0.16195693959E+04  0.25500000920E-02 0.  1.
       -2    1    3    3    0  502  0.15547002005E+04  0.43778015140E+03  0.16078138374E+04  0.22789930913E+04  0.25500000920E-02 0. -1.
</event>
<event>
 5   0  0.8146881E-09  0.3598690E+04  0.7818609E-02  0.8090792E-01
        1   -1    0    0  501    0  0.00000000000E+00  0.00000000000E+00  0.20457228259E+04  0.20457228259E+04  0.50400001928E-02 0. -1.
       -1   -1    0    0    0  501  0.00000000000E+00  0.00000000000E+00 -0.15826400598E+04  0.15826400598E+04  0.50400001928E-02 0.  1.
    10030    2    1    2    0    0  0.00000000000E+00  0.00000000000E+00  0.46308276608E+03  0.36283628858E+04  0.35986902593E+04 0.  0.
        4    1    3    3  502    0 -0.64849703236E+03 -0.61429921275E+03  0.18063836918E+04  0.20151763145E+04  0.12699999809E+01 0. -1.
       -4    1    3    3    0  502  0.64849703236E+03  0.61429921275E+03 -0.13433009257E+04  0.16131865713E+04  0.12699999809E+01 0.  1.
</event>
<event>
 5   0  0.2494592E-08  0.3601152E+04  0.7818609E-02  0.8090228E-01
       -2   -1    0    0    0  501  0.00000000000E+00  0.00000000000E+00  0.15051605791E+04  0.15051605791E+04  0.25500000920E-02 0.  1.
        2   -1    0    0  501    0  0.00000000000E+00  0.00000000000E+00 -0.21539715951E+04  0.21539715951E+04  0.25500000920E-02 0. -1.
    10030    2    1    2    0    0  0.00000000000E+00  0.00000000000E+00 -0.64881101595E+03  0.36591321742E+04  0.36011515566E+04 0.  0.
        1    1    3    3  502    0  0.68878526790E+03 -0.52546237337E+03  0.12794690305E+04  0.15451785823E+04  0.50400001928E-02 0.  1.
       -1    1    3    3    0  502 -0.68878526790E+03  0.52546237337E+03 -0.19282800465E+04  0.21139535919E+04  0.50400001928E-02 0. -1.
</event>
<event>
 5   0  0.8063410E-09  0.3600076E+04  0.7818609E-02  0.8090474E-01
        1   -1    0    0  501    0  0.00000000000E+00  0.00000000000E+00  0.18799201725E+04  0.18799201725E+04  0.50400001928E-02 0. -1.
       -1   -1    0    0    0  501  0.00000000000E+00  0.00000000000E+00 -0.17235503983E+04  0.17235503983E+04  0.50400001928E-02 0.  1.
    10030    2    1    2    0    0  0.00000000000E+00  0.00000000000E+00  0.15636977418E+03  0.36034705708E+04  0.36000762003E+04 0.  0.
        2    1    3    3  502    0 -0.34748041869E+03  0.47012780361E+03 -0.16258815647E+04  0.17277886606E+04  0.25500000920E-02 0.  1.
       -2    1    3    3    0  502  0.34748041869E+03 -0.47012780361E+03  0.17822513389E+04  0.18756819102E+04  0.25500000920E-02 0. -1.
</event>
<event>
 5   0  0.8024500E-09  0.3600305E+04  0.7818609E-02  0.8090422E-01
       -1   -1    0    0    0  501  0.00000000000E+00  0.00000000000E+00  0.19184032522E+04  0.19184032522E+04  0.50400001928E-02 0.  1.
        1   -1    0    0  501    0  0.00000000000E+00  0.00000000000E+00 -0.16891910530E+04  0.16891910530E+04  0.50400001928E-02 0. -1.
    10030    2    1    2    0    0  0.00000000000E+00  0.00000000000E+00  0.22921219919E+03  0.36075943053E+04  0.36003053258E+04 0.  0.
        1    1    3    3  502    0  0.82012523273E+03 -0.70103486537E+03 -0.13293159041E+04  0.17120560892E+04  0.50400001928E-02 0. -1.
       -1    1    3    3    0  502 -0.82012523273E+03  0.70103486537E+03  0.15585281033E+04  0.18955382160E+04  0.50400001928E-02 0.  1.
</event>
<event>
 5   0  0.8247570E-09  0.3599521E+04  0.7818609E-02  0.8090601E-01
       -1   -1    0    0    0  501  0.00000000000E+00  0.00000000000E+00  0.19501180101E+04  0.19501180101E+04  0.50400001928E-02 0.  1.
        1   -1    0    0  501    0  0.00000000000E+00  0.00000000000E+00 -0.16609960488E+04  0.16609960488E+04  0.50400001928E-02 0. -1.
    10030    2    1    2    0    0  0.00000000000E+00  0.00000000000E+00  0.28912196133E+03  0.36111140589E+04  0.35995212512E+04 0.  0.
        3    1    3    3  502    0  0.62053147289E+03 -0.16162731776E+04 -0.34869314688E+03  0.17660648953E+04  0.10100000352E+00 0. -1.
       -3    1    3    3    0  502 -0.62053147289E+03  0.16162731776E+04  0.63781510821E+03  0.18450491636E+04  0.10100000352E+00 0.  1.
</event>
<event>
 5   0  0.8063410E-09  0.3608072E+04  0.7818609E-02  0.8088645E-01
        1   -1    0    0  501    0  0.00000000000E+00  0.00000000000E+00  0.14030830366E+04  0.14030830366E+04  0.50400001928E-02 0. -1.
       -1   -1    0    0    0  501  0.00000000000E+00  0.00000000000E+00 -0.23195675863E+04  0.23195675863E+04  0.50400001928E-02 0.  1.
    10030    2    1    2    0    0  0.00000000000E+00  0.00000000000E+00 -0.91648454970E+03  0.37226506230E+04  0.36080720241E+04 0.  0.
        2    1    3    3  502    0 -0.11352668917E+04  0.13793888876E+04 -0.71721372239E+03  0.19250818534E+04  0.25500000920E-02 0. -1.
       -2    1    3    3    0  502  0.11352668917E+04 -0.13793888876E+04 -0.19927082731E+03  0.17975687696E+04  0.25500000920E-02 0.  1.
</event>
<event>
 5   0  0.8247570E-09  0.3581304E+04  0.7818609E-02  0.8094788E-01
       -1   -1    0    0    0  501  0.00000000000E+00  0.00000000000E+00  0.13124227344E+04  0.13124227344E+04  0.50400001928E-02 0. -1.
        1   -1    0    0  501    0  0.00000000000E+00  0.00000000000E+00 -0.24431414770E+04  0.24431414770E+04  0.50400001928E-02 0.  1.
    10030    2    1    2    0    0  0.00000000000E+00  0.00000000000E+00 -0.11307187426E+04  0.37555642114E+04  0.35813039066E+04 0.  0.
        3    1    3    3  502    0 -0.96267249459E+03 -0.81827079002E+03  0.76529219674E+03  0.14771518454E+04  0.10100000352E+00 0. -1.
       -3    1    3    3    0  502  0.96267249459E+03  0.81827079002E+03 -0.18960109393E+04  0.22784123661E+04  0.10100000352E+00 0.  1.
</event>
<event>
 5   0  0.8024500E-09  0.3600737E+04  0.7818609E-02  0.8090323E-01
       -1   -1    0    0    0  501  0.00000000000E+00  0.00000000000E+00  0.13416667855E+04  0.13416667856E+04  0.50400001928E-02 0.  1.
        1   -1    0    0  501    0  0.00000000000E+00  0.00000000000E+00 -0.24158959777E+04  0.24158959777E+04  0.50400001928E-02 0. -1.
    10030    2    1    2    0    0  0.00000000000E+00  0.00000000000E+00 -0.10742291921E+04  0.37575627632E+04  0.36007373637E+04 0.  0.
        1    1    3    3  502    0  0.99308177847E+03  0.97985330875E+02  0.10266549948E+04  0.14317237940E+04  0.50400001928E-02 0.  1.
       -1    1    3    3    0  502 -0.99308177847E+03 -0.97985330875E+02 -0.21008841870E+04  0.23258389692E+04  0.50400001928E-02 0. -1.
</event>
<event>
 5   0  0.8063410E-09  0.3599437E+04  0.7818609E-02  0.8090621E-01
        1   -1    0    0  501    0  0.00000000000E+00  0.00000000000E+00  0.22510868976E+04  0.22510868976E+04  0.50400001928E-02 0. -1.
       -1   -1    0    0    0  501  0.00000000000E+00  0.00000000000E+00 -0.14388547129E+04  0.14388547129E+04  0.50400001928E-02 0.  1.
    10030    2    1    2    0    0  0.00000000000E+00  0.00000000000E+00  0.81223218471E+03  0.36899416106E+04  0.35994371737E+04 0.  0.
        2    1    3    3  502    0  0.95090464597E+03 -0.18667286006E+03  0.19607971852E+04  0.21871881501E+04  0.25500000920E-02 0. -1.
       -2    1    3    3    0  502 -0.95090464597E+03  0.18667286006E+03 -0.11485650005E+04  0.15027534604E+04  0.25500000920E-02 0.  1.
</event>
<event>
 5   0  0.2476968E-08  0.3602106E+04  0.7818609E-02  0.8090009E-01
        2   -1    0    0  501    0  0.00000000000E+00  0.00000000000E+00  0.20197552804E+04  0.20197552804E+04  0.25500000920E-02 0.  1.
       -2   -1    0    0    0  501  0.00000000000E+00  0.00000000000E+00 -0.16060324515E+04  0.16060324515E+04  0.25500000920E-02 0. -1.
    10030    2    1    2    0    0  0.00000000000E+00  0.00000000000E+00  0.41372282883E+03  0.36257877319E+04  0.36021063418E+04 0.  0.
        2    1    3    3  502    0  0.11285329432E+04  0.17215164025E+03  0.16090630584E+04  0.19728929816E+04  0.25500000920E-02 0.  1.
       -2    1    3    3    0  502 -0.11285329432E+04 -0.17215164025E+03 -0.11953402295E+04  0.16528947503E+04  0.25500000920E-02 0. -1.
</event>
<event>
 5   0  0.8063410E-09  0.3600984E+04  0.7818609E-02  0.8090266E-01
        1   -1    0    0  501    0  0.00000000000E+00  0.00000000000E+00  0.23414936844E+04  0.23414936844E+04  0.50400001928E-02 0. -1.
       -1   -1    0    0    0  501  0.00000000000E+00  0.00000000000E+00 -0.13844886613E+04  0.13844886613E+04  0.50400001928E-02 0.  1.
    10030    2    1    2    0    0  0.00000000000E+00  0.00000000000E+00  0.95700502312E+03  0.37259823457E+04  0.36009840080E+04 0.  0.
        2    1    3    3  502    0 -0.28381511531E+02  0.17513274940E+04  0.90988937720E+03  0.19737913214E+04  0.25500000920E-02 0.  1.
       -2    1    3    3    0  502  0.28381511531E+02 -0.17513274940E+04  0.47115645912E+02  0.17521910243E+04  0.25500000920E-02 0. -1.
</event>
<event>
 5   0  0.8024500E-09  0.3601938E+04  0.7818609E-02  0.8090048E-01
        1   -1    0    0  501    0  0.00000000000E+00  0.00000000000E+00  0.24624032095E+04  0.24624032096E+04  0.50400001928E-02 0.  1.
       -1   -1    0    0    0  501  0.00000000000E+00  0.00000000000E+00 -0.13172048979E+04  0.13172048979E+04  0.50400001928E-02 0. -1.
    10030    2    1    2    0    0  0.00000000000E+00  0.00000000000E+00  0.11451983116E+04  0.37796081075E+04  0.36019381273E+04 0.  0.
        5    1    3    3  502    0 -0.15709957834E+04  0.57070190854E+03 -0.13110615167E+03  0.16765856176E+04  0.46999998093E+01 0. -1.
       -5    1    3    3    0  502  0.15709957834E+04 -0.57070190854E+03  0.12763044633E+04  0.21030224899E+04  0.46999998093E+01 0.  1.
</event>
<event>
 5   0  0.2608070E-08  0.3600268E+04  0.7818609E-02  0.8090430E-01
        2   -1    0    0  501    0  0.00000000000E+00  0.00000000000E+00  0.16763490756E+04  0.16763490756E+04  0.25500000920E-02 0.  1.
       -2   -1    0    0    0  501  0.00000000000E+00  0.00000000000E+00 -0.19330595713E+04  0.19330595713E+04  0.25500000920E-02 0. -1.
    10030    2    1    2    0    0  0.00000000000E+00  0.00000000000E+00 -0.25671049567E+03  0.36094086469E+04  0.36002681153E+04 0.  0.
        3    1    3    3  502    0  0.10074168739E+04 -0.14665650948E+04 -0.40251008663E+03  0.18242029260E+04  0.10100000352E+00 0. -1.
       -3    1    3    3    0  502 -0.10074168739E+04  0.14665650948E+04  0.14579959097E+03  0.17852057209E+04  0.10100000352E+00 0.  1.
</event>
<event>
 5   0  0.2608070E-08  0.3599587E+04  0.7818609E-02  0.8090586E-01
       -2   -1    0    0    0  501  0.00000000000E+00  0.00000000000E+00  0.28859779595E+04  0.28859779595E+04  0.25500000920E-02 0.  1.
        2   -1    0    0  501    0  0.00000000000E+00  0.00000000000E+00 -0.11224121977E+04  0.11224121977E+04  0.25500000920E-02 0. -1.
    10030    2    1    2    0    0  0.00000000000E+00  0.00000000000E+00  0.17635657618E+04  0.40083901573E+04  0.35995871231E+04 0.  0.
        3    1    3    3  502    0 -0.11851778629E+04 -0.11990249743E+04  0.18019048806E+03  0.16955164635E+04  0.10100000352E+00 0. -1.
       -3    1    3    3    0  502  0.11851778629E+04  0.11990249743E+04  0.15833752737E+04  0.23128736938E+04  0.10100000352E+00 0.  1.
</event>
<event>
 5   0  0.2590795E-08  0.3601836E+04  0.7818609E-02  0.8090071E-01
       -2   -1    0    0    0  501  0.00000000000E+00  0.00000000000E+00  0.14096010021E+04  0.14096010021E+04  0.25500000920E-02 0.  1.
        2   -1    0    0  501    0  0.00000000000E+00  0.00000000000E+00 -0.23008677374E+04  0.23008677374E+04  0.25500000920E-02 0. -1.
    10030    2    1    2    0    0  0.00000000000E+00  0.00000000000E+00 -0.89126673522E+03  0.37104687395E+04  0.36018359032E+04 0.  0.
        4    1    3    3  502    0 -0.10860953539E+04 -0.45111753586E+03 -0.18506580045E+04  0.21927258860E+04  0.12699999809E+01 0. -1.
       -4    1    3    3    0  502  0.10860953539E+04  0.45111753586E+03  0.95939126924E+03  0.15177428535E+04  0.12699999809E+01 0.  1.
</event>
<event>
 5   0  0.2608070E-08  0.3599111E+04  0.7818609E-02  0.8090695E-01
        2   -1    0    0  501    0  0.00000000000E+00  0.00000000000E+00  0.27136287792E+04  0.27136287792E+04  0.25500000920E-02 0. -1.
       -2   -1    0    0    0  501  0.00000000000E+00  0.00000000000E+00 -0.11933838510E+04  0.11933838510E+04  0.25500000920E-02 0.  1.
    10030    2    1    2    0    0  0.00000000000E+00  0.00000000000E+00  0.15202449281E+04  0.39070126302E+04  0.35991114252E+04 0.  0.
        3    1    3    3  502    0 -0.26038405610E+03  0.12186751489E+04  0.21694278507E+04  0.25018765327E+04  0.10100000352E+00 0. -1.
       -3    1    3    3    0  502  0.26038405610E+03 -0.12186751489E+04 -0.64918292259E+03  0.14051360975E+04  0.10100000352E+00 0.  1.
</event>
<event>
 5   0  0.2494592E-08  0.3599273E+04  0.7818609E-02  0.8090658E-01
        2   -1    0    0  501    0  0.00000000000E+00  0.00000000000E+00  0.16748398485E+04  0.16748398485E+04  0.25500000920E-02 0.  1.
       -2   -1    0    0    0  501  0.00000000000E+00  0.00000000000E+00 -0.19337320485E+04  0.19337320485E+04  0.25500000920E-02 0. -1.
    10030    2    1    2    0    0  0.00000000000E+00  0.00000000000E+00 -0.25889220007E+03  0.36085718970E+04  0.35992729772E+04 0.  0.
        1    1    3    3  502    0  0.33030936142E+03 -0.17329408492E+04 -0.48603792648E+03  0.18298691557E+04  0.50400001928E-02 0. -1.
       -1    1    3    3    0  502 -0.33030936142E+03  0.17329408492E+04  0.22714572641E+03  0.17787027413E+04  0.50400001928E-02 0.  1.
</event>
<event>
 5   0  0.2608070E-08  0.3599672E+04  0.7818609E-02  0.8090567E-01
        2   -1    0    0  501    0  0.00000000000E+00  0.00000000000E+00  0.13503501948E+04  0.13503501948E+04  0.25500000920E-02 0.  1.
       -2   -1    0    0    0  501  0.00000000000E+00  0.00000000000E+00 -0.23989403021E+04  0.23989403021E+04  0.25500000920E-02 0. -1.
    10030    2    1    2    0    0  0.00000000000E+00  0.00000000000E+00 -0.10485901073E+04  0.37492904969E+04  0.35996719319E+04 0.  0.
        3    1    3    3  502    0 -0.37987321660E+03  0.17234034666E+04 -0.15606653739E+03  0.17716602225E+04  0.10100000352E+00 0.  1.
       -3    1    3    3    0  502  0.37987321660E+03 -0.17234034666E+04 -0.89252356986E+03  0.19776302745E+04  0.10100000352E+00 0. -1.
</event>
<event>
 5   0  0.2482243E-08  0.3600557E+04  0.7818609E-02  0.8090364E-01
        2   -1    0    0  501    0  0.00000000000E+00  0.00000000000E+00  0.15677242503E+04  0.15677242503E+04  0.25500000920E-02 0.  1.
       -2   -1    0    0    0  501  0.00000000000E+00  0.00000000000E+00 -0.20673300961E+04  0.20673300961E+04  0.25500000920E-02 0. -1.
    10030    2    1    2    0    0  0.00000000000E+00  0.00000000000E+00 -0.49960584583E+03  0.36350543464E+04  0.36005574707E+04 0.  0.
        5    1    3    3  502    0  0.15905166594E+04  0.71672775612E+03  0.19890956083E+03  0.17558556386E+04  0.46999998093E+01 0.  1.
       -5    1    3    3    0  502 -0.15905166594E+04 -0.71672775612E+03 -0.69851540666E+03  0.18791987078E+04  0.46999998093E+01 0. -1.
</event>
<event>
 5   0  0.8247570E-09  0.3599774E+04  0.7818609E-02  0.8090544E-01
       -1   -1    0    0    0  501  0.00000000000E+00  0.00000000000E+00  0.14115948002E+04  0.14115948002E+04  0.50400001928E-02 0. -1.
        1   -1    0    0  501    0  0.00000000000E+00  0.00000000000E+00 -0.22949875138E+04  0.22949875138E+04  0.50400001928E-02 0.  1.
    10030    2    1    2    0    0  0.00000000000E+00  0.00000000000E+00 -0.88339271354E+03  0.37065823140E+04  0.35997735713E+04 0.  0.
        3    1    3    3  502    0 -0.41255625044E+03 -0.17086811563E+04 -0.84021823105E+03  0.19482711926E+04  0.10100000352E+00 0.  1.
       -3    1    3    3    0  502  0.41255625044E+03  0.17086811563E+04 -0.43174482491E+02  0.17583111215E+04  0.10100000352E+00 0. -1.
</event>
<event>
 5   0  0.8024500E-09  0.3593870E+04  0.7818609E-02  0.8091897E-01
        1   -1    0    0  501    0  0.00000000000E+00  0.00000000000E+00  0.18392814648E+04  0.18392814649E+04  0.50400001928E-02 0. -1.
       -1   -1    0    0    0  501  0.00000000000E+00  0.00000000000E+00 -0.17555637069E+04  0.17555637069E+04  0.50400001928E-02 0.  1.
    10030    2    1    2    0    0  0.00000000000E+00  0.00000000000E+00  0.83717757974E+02  0.35948451717E+04  0.35938702183E+04 0.  0.
        1    1    3    3  502    0  0.35910625916E+02  0.16071490559E+04 -0.76132727367E+03  0.17787177625E+04  0.50400001928E-02 0.  1.
       -1    1    3    3    0  502 -0.35910625916E+02 -0.16071490559E+04  0.84504503164E+03  0.18161274092E+04  0.50400001928E-02 0. -1.
</event>
<event>
 5   0  0.8247570E-09  0.3599467E+04  0.7818609E-02  0.8090614E-01
       -1   -1    0    0    0  501  0.00000000000E+00  0.00000000000E+00  0.14671988639E+04  0.14671988639E+04  0.50400001928E-02 0.  1.
        1   -1    0    0  501    0  0.00000000000E+00  0.00000000000E+00 -0.22076353940E+04  0.22076353940E+04  0.50400001928E-02 0. -1.
    10030    2    1    2    0    0  0.00000000000E+00  0.00000000000E+00 -0.74043653004E+03  0.36748342579E+04  0.35994667061E+04 0.  0.
        3    1    3    3  502    0 -0.24614255596E+03 -0.12131488955E+04  0.96355254682E+03  0.15686777621E+04  0.10100000352E+00 0.  1.
       -3    1    3    3    0  502  0.24614255596E+03  0.12131488955E+04 -0.17039890769E+04  0.21061564958E+04  0.10100000352E+00 0. -1.
</event>
<event>
 5   0  0.8024500E-09  0.3601180E+04  0.7818609E-02  0.8090221E-01
        1   -1    0    0  501    0  0.00000000000E+00  0.00000000000E+00  0.20849671985E+04  0.20849671985E+04  0.50400001928E-02 0. -1.
       -1   -1    0    0    0  501  0.00000000000E+00  0.00000000000E+00 -0.15550003650E+04  0.15550003650E+04  0.50400001928E-02 0.  1.
    10030    2    1    2    0    0  0.00000000000E+00  0.00000000000E+00  0.52996683343E+03  0.36399675635E+04  0.36011802258E+04 0.  0.
        1    1    3    3  502    0 -0.77914867017E+02  0.17302620894E+04 -0.23250385911E+03  0.17475513351E+04  0.50400001928E-02 0. -1.
       -1    1    3    3    0  502  0.77914867017E+02 -0.17302620894E+04  0.76247069254E+03  0.18924162284E+04  0.50400001928E-02 0.  1.
</event>
<event>
 5   0  0.8146881E-09  0.3595698E+04  0.7818609E-02  0.8091478E-01
       -1   -1    0    0    0  501  0.00000000000E+00  0.00000000000E+00  0.18889850119E+04  0.18889850119E+04  0.50400001928E-02 0.  1.
        1   -1    0    0  501    0  0.00000000000E+00  0.00000000000E+00 -0.17111096638E+04  0.17111096638E+04  0.50400001928E-02 0. -1.
    10030    2    1    2    0    0  0.00000000000E+00  0.00000000000E+00  0.17787534808E+03  0.36000946757E+04  0.35956977118E+04 0.  0.
        4    1    3    3  502    0 -0.16551439906E+04  0.56108168988E+03  0.51128831655E+03  0.18209150578E+04  0.12699999809E+01 0. -1.
       -4    1    3    3    0  502  0.16551439906E+04 -0.56108168988E+03 -0.33341296847E+03  0.17791796179E+04  0.12699999809E+01 0.  1.
</event>
<event>
 5   0  0.2590795E-08  0.3600665E+04  0.7818609E-02  0.8090339E-01
       -2   -1    0    0    0  501  0.00000000000E+00  0.00000000000E+00  0.21494805209E+04  0.21494805209E+04  0.25500000920E-02 0. -1.
        2   -1    0    0  501    0  0.00000000000E+00  0.00000000000E+00 -0.15078975020E+04  0.15078975020E+04  0.25500000920E-02 0.  1.
    10030    2    1    2    0    0  0.00000000000E+00  0.00000000000E+00  0.64158301887E+03  0.36573780228E+04  0.36006645542E+04 0.  0.
        4    1    3    3  502    0 -0.16259148497E+04  0.15835744798E+03  0.10893589031E+04  0.19635123153E+04  0.12699999809E+01 0. -1.
       -4    1    3    3    0  502  0.16259148497E+04 -0.15835744798E+03 -0.44777588423E+03  0.16938657075E+04  0.12699999809E+01 0.  1.
</event>
<event>
 5   0  0.2482243E-08  0.3597685E+04  0.7818609E-02  0.8091022E-01
        2   -1    0    0  501    0  0.00000000000E+00  0.00000000000E+00  0.10504969063E+04  0.10504969063E+04  0.25500000920E-02 0.  1.
       -2   -1    0    0    0  501  0.00000000000E+00  0.00000000000E+00 -0.30802889068E+04  0.30802889069E+04  0.25500000920E-02 0. -1.
    10030    2    1    2    0    0  0.00000000000E+00  0.00000000000E+00 -0.20297920005E+04  0.41307858132E+04  0.35976847929E+04 0.  0.
        5    1    3    3  502    0 -0.11477720795E+04  0.81057986991E+03 -0.23044350564E+04  0.26990486270E+04  0.46999998093E+01 0. -1.
       -5    1    3    3    0  502  0.11477720795E+04 -0.81057986991E+03  0.27464305583E+03  0.14317371861E+04  0.46999998093E+01 0.  1.
</event>
<event>
 5   0  0.8024500E-09  0.3596894E+04  0.7818609E-02  0.8091203E-01
        1   -1    0    0  501    0  0.00000000000E+00  0.00000000000E+00  0.21871817011E+04  0.21871817011E+04  0.50400001928E-02 0.  1.
       -1   -1    0    0    0  501  0.00000000000E+00  0.00000000000E+00 -0.14788036353E+04  0.14788036353E+04  0.50400001928E-02 0. -1.
    10030    2    1    2    0    0  0.00000000000E+00  0.00000000000E+00  0.70837806574E+03  0.36659853364E+04  0.35968943553E+04 0.  0.
        1    1    3    3  502    0  0.26391195963E+03 -0.10178014528E+04  0.18412708076E+04  0.21203413656E+04  0.50400001928E-02 0.  1.
       -1    1    3    3    0  502 -0.26391195963E+03  0.10178014528E+04 -0.11328927419E+04  0.15456439708E+04  0.50400001928E-02 0. -1.
</event>
<event>
 5   0  0.2608070E-08  0.3601204E+04  0.7818609E-02  0.8090216E-01
       -2   -1    0    0    0  501  0.00000000000E+00  0.00000000000E+00  0.14324306793E+04  0.14324306793E+04  0.25500000920E-02 0.  1.
        2   -1    0    0  501    0  0.00000000000E+00  0.00000000000E+00 -0.22634033581E+04  0.22634033581E+04  0.25500000920E-02 0. -1.
    10030    2    1    2    0    0  0.00000000000E+00  0.00000000000E+00 -0.83097267876E+03  0.36958340375E+04  0.36012044707E+04 0.  0.
        3    1    3    3  502    0 -0.15860792633E+03  0.10463636422E+04 -0.19105207536E+04  0.21840611041E+04  0.10100000352E+00 0.  1.
       -3    1    3    3    0  502  0.15860792633E+03 -0.10463636422E+04  0.10795480749E+04  0.15117729334E+04  0.10100000352E+00 0. -1.
</event>
<event>
 5   0  0.2494592E-08  0.3599199E+04  0.7818609E-02  0.8090675E-01
       -2   -1    0    0    0  501  0.00000000000E+00  0.00000000000E+00  0.19944618892E+04  0.19944618892E+04  0.25500000920E-02 0.  1.
        2   -1    0    0  501    0  0.00000000000E+00  0.00000000000E+00 -0.16237756386E+04  0.16237756386E+04  0.25500000920E-02 0. -1.
    10030    2    1    2    0    0  0.00000000000E+00  0.00000000000E+00  0.37068625061E+03  0.36182375278E+04  0.35991991485E+04 0.  0.
        1    1    3    3  502    0 -0.15487444128E+04 -0.42619603193E+02  0.11056817552E+04  0.19034069010E+04  0.50400001928E-02 0.  1.
       -1    1    3    3    0  502  0.15487444128E+04  0.42619603193E+02 -0.73499550454E+03  0.17148306268E+04  0.50400001928E-02 0. -1.
</event>
<event>
 5   0  0.2476968E-08  0.3600969E+04  0.7818609E-02  0.8090270E-01
       -2   -1    0    0    0  501  0.00000000000E+00  0.00000000000E+00  0.15763099989E+04  0.15763099989E+04  0.25500000920E-02 0. -1.
        2   -1    0    0  501    0  0.00000000000E+00  0.00000000000E+00 -0.20565398089E+04  0.20565398089E+04  0.25500000920E-02 0.  1.
    10030    2    1    2    0    0  0.00000000000E+00  0.00000000000E+00 -0.48022980999E+03  0.36328498078E+04  0.36009689051E+04 0.  0.
        2    1    3    3  502    0  0.19943589409E+03 -0.16740962549E+04 -0.87766821889E+03  0.19007036721E+04  0.25500000920E-02 0.  1.
       -2    1    3    3    0  502 -0.19943589409E+03  0.16740962549E+04  0.39743840890E+03  0.17321461357E+04  0.25500000920E-02 0. -1.
</event>
<event>
 5   0  0.8063410E-09  0.3600866E+04  0.7818609E-02  0.8090293E-01
        1   -1    0    0  501    0  0.00000000000E+00  0.00000000000E+00  0.18870658905E+04  0.18870658906E+04  0.50400001928E-02 0.  1.
       -1   -1    0    0    0  501  0.00000000000E+00  0.00000000000E+00 -0.17177776002E+04  0.17177776002E+04  0.50400001928E-02 0. -1.
    10030    2    1    2    0    0  0.00000000000E+00  0.00000000000E+00  0.16928829031E+03  0.36048434908E+04  0.36008662941E+04 0.  0.
        2    1    3    3  502    0  0.75447190171E+03 -0.70754226753E+03 -0.13906577302E+04  0.17331395885E+04  0.25500000920E-02 0. -1.
       -2    1    3    3    0  502 -0.75447190171E+03  0.70754226753E+03  0.15599460205E+04  0.18717039023E+04  0.25500000920E-02 0.  1.
</event>
<event>
 5   0  0.8146881E-09  0.3599340E+04  0.7818609E-02  0.8090643E-01
        1   -1    0    0  501    0  0.00000000000E+00  0.00000000000E+00  0.17534827828E+04  0.17534827828E+04  0.50400001928E-02 0. -1.
       -1   -1    0    0    0  501  0.00000000000E+00  0.00000000000E+00 -0.18470735174E+04  0.18470735174E+04  0.50400001928E-02 0.  1.
    10030    2    1    2    0    0  0.00000000000E+00  0.00000000000E+00 -0.93590734621E+02  0.36005563002E+04  0.35993397235E+04 0.  0.
        4    1    3    3  502    0  0.17701617760E+04 -0.30980954673E+03  0.49960279775E+02  0.17977631409E+04  0.12699999809E+01 0. -1.
       -4    1    3    3    0  502 -0.17701617760E+04  0.30980954673E+03 -0.14355101440E+03  0.18027931592E+04  0.12699999809E+01 0.  1.
</event>
<event>
 5   0  0.2482243E-08  0.3598242E+04  0.7818609E-02  0.8090894E-01
       -2   -1    0    0    0  501  0.00000000000E+00  0.00000000000E+00  0.97051302854E+03  0.97051302854E+03  0.25500000920E-02 0. -1.
        2   -1    0    0  501    0  0.00000000000E+00  0.00000000000E+00 -0.33351812502E+04  0.33351812502E+04  0.25500000920E-02 0.  1.
    10030    2    1    2    0    0  0.00000000000E+00  0.00000000000E+00 -0.23646682216E+04  0.43056942787E+04  0.35982422686E+04 0.  0.
        5    1    3    3  502    0 -0.98471894213E+03 -0.97646035880E+03  0.18916549949E+03  0.13996256298E+04  0.46999998093E+01 0. -1.
       -5    1    3    3    0  502  0.98471894213E+03  0.97646035880E+03 -0.25538337211E+04  0.29060686489E+04  0.46999998093E+01 0.  1.
</event>
<event>
 5   0  0.8063410E-09  0.3601181E+04  0.7818609E-02  0.8090221E-01
       -1   -1    0    0    0  501  0.00000000000E+00  0.00000000000E+00  0.15834398634E+04  0.15834398634E+04  0.50400001928E-02 0.  1.
        1   -1    0    0  501    0  0.00000000000E+00  0.00000000000E+00 -0.20475213684E+04  0.20475213684E+04  0.50400001928E-02 0. -1.
    10030    2    1    2    0    0  0.00000000000E+00  0.00000000000E+00 -0.46408150505E+03  0.36309612319E+04  0.36011814483E+04 0.  0.
        2    1    3    3  502    0 -0.10805519987E+04  0.12463347250E+04  0.49586002196E+03  0.17224459440E+04  0.25500000920E-02 0.  1.
       -2    1    3    3    0  502  0.10805519987E+04 -0.12463347250E+04 -0.95994152701E+03  0.19085152878E+04  0.25500000920E-02 0. -1.
</event>
<event>
 5   0  0.8024500E-09  0.3602731E+04  0.7818609E-02  0.8089866E-01
       -1   -1    0    0    0  501  0.00000000000E+00  0.00000000000E+00  0.13861308191E+04  0.13861308191E+04  0.50400001928E-02 0.  1.
        1   -1    0    0  501    0  0.00000000000E+00  0.00000000000E+00 -0.23409900584E+04  0.23409900584E+04  0.50400001928E-02 0. -1.
    10030    2    1    2    0    0  0.00000000000E+00  0.00000000000E+00 -0.95485923934E+03  0.37271208775E+04  0.36027314455E+04 0.  0.
        5    1    3    3  502    0  0.72935231525E+02 -0.16659098466E+04  0.22750826347E+03  0.16829608626E+04  0.46999998093E+01 0.  1.
       -5    1    3    3    0  502 -0.72935231525E+02  0.16659098466E+04 -0.11823675028E+04  0.20441600149E+04  0.46999998093E+01 0. -1.
</event>
<event>
 5   0  0.8146881E-09  0.3599647E+04  0.7818609E-02  0.8090573E-01
       -1   -1    0    0    0  501  0.00000000000E+00  0.00000000000E+00  0.11319860672E+04  0.11319860672E+04  0.50400001928E-02 0. -1.
        1   -1    0    0  501    0  0.00000000000E+00  0.00000000000E+00 -0.28616643311E+04  0.28616643311E+04  0.50400001928E-02 0.  1.
    10030    2    1    2    0    0  0.00000000000E+00  0.00000000000E+00 -0.17296782639E+04  0.39936503983E+04  0.35996467337E+04 0.  0.
        4    1    3    3  502    0 -0.61657157742E+03 -0.14295509927E+04  0.13710854058E+03  0.15628745681E+04  0.12699999809E+01 0. -1.
       -4    1    3    3    0  502  0.61657157742E+03  0.14295509927E+04 -0.18667868045E+04  0.24307758303E+04  0.12699999809E+01 0.  1.
</event>
<event>
 5   0  0.8247570E-09  0.3598077E+04  0.7818609E-02  0.8090932E-01
        1   -1    0    0  501    0  0.00000000000E+00  0.00000000000E+00  0.19867956003E+04  0.19867956003E+04  0.50400001928E-02 0. -1.
       -1   -1    0    0    0  501  0.00000000000E+00  0.00000000000E+00 -0.16290253312E+04  0.16290253312E+04  0.50400001928E-02 0.  1.
    10030    2    1    2    0    0  0.00000000000E+00  0.00000000000E+00  0.35777026912E+03  0.36158209315E+04  0.35980774649E+04 0.  0.
        3    1    3    3  502    0 -0.60185329391E+03  0.15162910478E+04 -0.58325737814E+03  0.17324996705E+04  0.10100000352E+00 0.  1.
       -3    1    3    3    0  502  0.60185329391E+03 -0.15162910478E+04  0.94102764725E+03  0.18833212610E+04  0.10100000352E+00 0. -1.
</event>
<event>
 5   0  0.8024500E-09  0.3602372E+04  0.7818609E-02  0.8089949E-01
       -1   -1    0    0    0  501  0.00000000000E+00  0.00000000000E+00  0.11765461147E+04  0.11765461147E+04  0.50400001928E-02 0.  1.
        1   -1    0    0  501    0  0.00000000000E+00  0.00000000000E+00 -0.27574531885E+04  0.27574531885E+04  0.50400001928E-02 0. -1.
    10030    2    1    2    0    0  0.00000000000E+00  0.00000000000E+00 -0.15809070738E+04  0.39339993032E+04  0.36023719050E+04 0.  0.
        5    1    3    3  502    0 -0.13879029215E+03 -0.16100771692E+04 -0.16590602885E+04  0.23160557780E+04  0.46999998093E+01 0. -1.
       -5    1    3    3    0  502  0.13879029215E+03  0.16100771692E+04  0.78153214732E+02  0.16179435252E+04  0.46999998093E+01 0.  1.
</event>
<event>
 5   0  0.8024500E-09  0.3602933E+04  0.7818609E-02  0.8089820E-01
       -1   -1    0    0    0  501  0.00000000000E+00  0.00000000000E+00  0.28387535170E+04  0.28387535170E+04  0.50400001928E-02 0. -1.
        1   -1    0    0  501    0  0.00000000000E+00  0.00000000000E+00 -0.11432068287E+04  0.11432068287E+04  0.50400001928E-02 0.  1.
    10030    2    1    2    0    0  0.00000000000E+00  0.00000000000E+00  0.16955466883E+04  0.39819603457E+04  0.36029334747E+04 0.  0.
        1    1    3    3  502    0  0.16630533329E+03  0.16715184710E+04  0.12841584368E+03  0.16846726957E+04  0.50400001928E-02 0.  1.
       -1    1    3    3    0  502 -0.16630533329E+03 -0.16715184710E+04  0.15671308446E+04  0.22972876500E+04  0.50400001928E-02 0. -1.
</event>
<event>
 5   0  0.2494592E-08  0.3599073E+04  0.7818609E-02  0.8090704E-01
        2   -1    0    0  501    0  0.00000000000E+00  0.00000000000E+00  0.18688022518E+04  0.18688022518E+04  0.25500000920E-02 0. -1.
       -2   -1    0    0    0  501  0.00000000000E+00  0.00000000000E+00 -0.17328376887E+04  0.17328376887E+04  0.25500000920E-02 0.  1.
    10030    2    1    2    0    0  0.00000000000E+00  0.00000000000E+00  0.13596456304E+03  0.36016399405E+04  0.35990726443E+04 0.  0.
        1    1    3    3  502    0  0.19436270887E+03  0.92999008512E+03 -0.14613986107E+04  0.17430847140E+04  0.50400001928E-02 0.  1.
       -1    1    3    3    0  502 -0.19436270887E+03 -0.92999008512E+03  0.15973631737E+04  0.18585552265E+04  0.50400001928E-02 0. -1.
</event>
<event>
 5   0  0.8024500E-09  0.3596440E+04  0.7818609E-02  0.8091308E-01
        1   -1    0    0  501    0  0.00000000000E+00  0.00000000000E+00  0.28276787203E+04  0.28276787203E+04  0.50400001928E-02 0.  1.
       -1   -1    0    0    0  501  0.00000000000E+00  0.00000000000E+00 -0.11435513799E+04  0.11435513799E+04  0.50400001928E-02 0. -1.
    10030    2    1    2    0    0  0.00000000000E+00  0.00000000000E+00  0.16841273404E+04  0.39712301003E+04  0.35964404083E+04 0.  0.
        1    1    3    3  502    0  0.31566519015E+03 -0.47416727505E+03  0.27254211496E+04  0.27843131217E+04  0.50400001928E-02 0.  1.
       -1    1    3    3    0  502 -0.31566519015E+03  0.47416727505E+03 -0.10412938092E+04  0.11869169786E+04  0.50400001928E-02 0. -1.
</event>
<event>
 5   0  0.2590795E-08  0.3604445E+04  0.7818609E-02  0.8089474E-01
       -2   -1    0    0    0  501  0.00000000000E+00  0.00000000000E+00  0.15664599711E+04  0.15664599711E+04  0.25500000920E-02 0.  1.
        2   -1    0    0  501    0  0.00000000000E+00  0.00000000000E+00 -0.20734687825E+04  0.20734687825E+04  0.25500000920E-02 0. -1.
    10030    2    1    2    0    0  0.00000000000E+00  0.00000000000E+00 -0.50700881143E+03  0.36399287536E+04  0.36044449498E+04 0.  0.
        4    1    3    3  502    0  0.34890946319E+03  0.17542443653E+04 -0.47679910029E+03  0.18510672871E+04  0.12699999809E+01 0.  1.
       -4    1    3    3    0  502 -0.34890946319E+03 -0.17542443653E+04 -0.30209711138E+02  0.17888614665E+04  0.12699999809E+01 0. -1.
</event>
<event>
 5   0  0.2482243E-08  0.3601053E+04  0.7818609E-02  0.8090251E-01
       -2   -1    0    0    0  501  0.00000000000E+00  0.00000000000E+00  0.15510482725E+04  0.15510482725E+04  0.25500000920E-02 0. -1.
        2   -1    0    0  501    0  0.00000000000E+00  0.00000000000E+00 -0.20901318680E+04  0.20901318680E+04  0.25500000920E-02 0.  1.
    10030    2    1    2    0    0  0.00000000000E+00  0.00000000000E+00 -0.53908359557E+03  0.36411801405E+04  0.36010528589E+04 0.  0.
        5    1    3    3  502    0 -0.15833231351E+04  0.77842376793E+03 -0.63273455829E+03  0.18743614443E+04  0.46999998093E+01 0. -1.
       -5    1    3    3    0  502  0.15833231351E+04 -0.77842376793E+03  0.93650962726E+02  0.17668186962E+04  0.46999998093E+01 0.  1.
</event>
<event>
 5   0  0.8063410E-09  0.3596098E+04  0.7818609E-02  0.8091386E-01
        1   -1    0    0  501    0  0.00000000000E+00  0.00000000000E+00  0.19836331321E+04  0.19836331321E+04  0.50400001928E-02 0. -1.
       -1   -1    0    0    0  501  0.00000000000E+00  0.00000000000E+00 -0.16298274091E+04  0.16298274091E+04  0.50400001928E-02 0.  1.
    10030    2    1    2    0    0  0.00000000000E+00  0.00000000000E+00  0.35380572292E+03  0.36134605412E+04  0.35960976896E+04 0.  0.
        2    1    3    3  502    0 -0.92146271000E+03  0.11932996331E+04 -0.80758379147E+03  0.17103359671E+04  0.25500000920E-02 0. -1.
       -2    1    3    3    0  502  0.92146271000E+03 -0.11932996331E+04  0.11613895144E+04  0.19031245741E+04  0.25500000920E-02 0.  1.
</event>
<event>
 5   0  0.8024500E-09  0.3590189E+04  0.7818609E-02  0.8092743E-01
       -1   -1    0    0    0  501  0.00000000000E+00  0.00000000000E+00  0.18673416198E+04  0.18673416198E+04  0.50400001928E-02 0.  1.
        1   -1    0    0  501    0  0.00000000000E+00  0.00000000000E+00 -0.17256429098E+04  0.17256429099E+04  0.50400001928E-02 0. -1.
    10030    2    1    2    0    0  0.00000000000E+00  0.00000000000E+00  0.14169870994E+03  0.35929845296E+04  0.35901893134E+04 0.  0.
        1    1    3    3  502    0 -0.17309642150E+03 -0.75256960992E+03  0.16926175712E+04  0.18604509215E+04  0.50400001928E-02 0.  1.
       -1    1    3    3    0  502  0.17309642150E+03  0.75256960992E+03 -0.15509188613E+04  0.17325336081E+04  0.50400001928E-02 0. -1.
</event>
<event>
 5   0  0.2476968E-08  0.3598380E+04  0.7818609E-02  0.8090863E-01
        2   -1    0    0  501    0  0.00000000000E+00  0.00000000000E+00  0.33618243857E+04  0.33618243857E+04  0.25500000920E-02 0. -1.
       -2   -1    0    0    0  501  0.00000000000E+00  0.00000000000E+00 -0.96289548351E+03  0.96289548352E+03  0.25500000920E-02 0.  1.
    10030    2    1    2    0    0  0.00000000000E+00  0.00000000000E+00  0.23989289022E+04  0.43247198692E+04  0.35983804787E+04 0.  0.
        2    1    3    3  502    0  0.15902523618E+04 -0.55943421880E+03  0.19550233455E+04  0.25814696397E+04  0.25500000920E-02 0. -1.
       -2    1    3    3    0  502 -0.15902523618E+04  0.55943421880E+03  0.44390555668E+03  0.17432502295E+04  0.25500000920E-02 0.  1.
</event>
<event>
 5   0  0.8247570E-09  0.3586703E+04  0.7818609E-02  0.8093544E-01
       -1   -1    0    0    0  501  0.00000000000E+00  0.00000000000E+00  0.10657525240E+04  0.10657525240E+04  0.50400001928E-02 0.  1.
        1   -1    0    0  501    0  0.00000000000E+00  0.00000000000E+00 -0.30176881231E+04  0.30176881231E+04  0.50400001928E-02 0. -1.
    10030    2    1    2    0    0  0.00000000000E+00  0.00000000000E+00 -0.19519355992E+04  0.40834406471E+04  0.35867025155E+04 0.  0.
        3    1    3    3  502    0 -0.80208198927E+03 -0.71256652796E+03  0.66006967483E+03  0.12596739896E+04  0.10100000352E+00 0.  1.
       -3    1    3    3    0  502  0.80208198927E+03  0.71256652796E+03 -0.26120052740E+04  0.28237666575E+04  0.10100000352E+00 0. -1.
</event>
<event>
 5   0  0.8247570E-09  0.3601091E+04  0.7818609E-02  0.8090242E-01
       -1   -1    0    0    0  501  0.00000000000E+00  0.00000000000E+00  0.15741061287E+04  0.15741061287E+04  0.50400001928E-02 0. -1.
        1   -1    0    0  501    0  0.00000000000E+00  0.00000000000E+00 -0.20595582672E+04  0.20595582672E+04  0.50400001928E-02 0.  1.
    10030    2    1    2    0    0  0.00000000000E+00  0.00000000000E+00 -0.48545213851E+03  0.36336643959E+04  0.36010905519E+04 0.  0.
        3    1    3    3  502    0 -0.46044810224E+03  0.17315005321E+04 -0.42282510593E+03  0.18408931604E+04  0.10100000352E+00 0. -1.
       -3    1    3    3    0  502  0.46044810224E+03 -0.17315005321E+04 -0.62627032582E+02  0.17927712355E+04  0.10100000352E+00 0.  1.
</event>
<event>
 5   0  0.2476968E-08  0.3599236E+04  0.7818609E-02  0.8090667E-01
       -2   -1    0    0    0  501  0.00000000000E+00  0.00000000000E+00  0.26435733570E+04  0.26435733570E+04  0.25500000920E-02 0. -1.
        2   -1    0    0  501    0  0.00000000000E+00  0.00000000000E+00 -0.12250939932E+04  0.12250939932E+04  0.25500000920E-02 0.  1.
    10030    2    1    2    0    0  0.00000000000E+00  0.00000000000E+00  0.14184793638E+04  0.38686673503E+04  0.35992364970E+04 0.  0.
        2    1    3    3  502    0  0.22029924670E+03 -0.13459859303E+04  0.19711867831E+04  0.23970371746E+04  0.25500000920E-02 0. -1.
       -2    1    3    3    0  502 -0.22029924670E+03  0.13459859303E+04 -0.55270741924E+03  0.14716301757E+04  0.25500000920E-02 0.  1.
</event>
<event>
 5   0  0.8024500E-09  0.3598772E+04  0.7818609E-02  0.8090773E-01
        1   -1    0    0  501    0  0.00000000000E+00  0.00000000000E+00  0.16556769621E+04  0.16556769621E+04  0.50400001928E-02 0. -1.
       -1   -1    0    0    0  501  0.00000000000E+00  0.00000000000E+00 -0.19555688625E+04  0.19555688625E+04  0.50400001928E-02 0.  1.
    10030    2    1    2    0    0  0.00000000000E+00  0.00000000000E+00 -0.29989190045E+03  0.36112458246E+04  0.35987721870E+04 0.  0.
        5    1    3    3  502    0 -0.17445257794E+02  0.17820335787E+04 -0.39944444982E+03  0.18263422382E+04  0.46999998093E+01 0. -1.
       -5    1    3    3    0  502  0.17445257794E+02 -0.17820335787E+04  0.99552549366E+02  0.17849035864E+04  0.46999998093E+01 0.  1.
</event>
<event>
 5   0  0.2608070E-08  0.3591915E+04  0.7818609E-02  0.8092346E-01
       -2   -1    0    0    0  501  0.00000000000E+00  0.00000000000E+00  0.14158185543E+04  0.14158185543E+04  0.25500000920E-02 0. -1.
        2   -1    0    0  501    0  0.00000000000E+00  0.00000000000E+00 -0.22781610817E+04  0.22781610817E+04  0.25500000920E-02 0.  1.
    10030    2    1    2    0    0  0.00000000000E+00  0.00000000000E+00 -0.86234252744E+03  0.36939796360E+04  0.35919146589E+04 0.  0.
        3    1    3    3  502    0  0.12678320809E+04 -0.25630840614E+03 -0.17125165712E+04  0.21461139767E+04  0.10100000352E+00 0.  1.
       -3    1    3    3    0  502 -0.12678320809E+04  0.25630840614E+03  0.85017404375E+03  0.15478656593E+04  0.10100000352E+00 0. -1.
</event>
<event>
 5   0  0.2608070E-08  0.3599716E+04  0.7818609E-02  0.8090557E-01
        2   -1    0    0  501    0  0.00000000000E+00  0.00000000000E+00  0.19998572949E+04  0.19998572949E+04  0.25500000920E-02 0. -1.
       -2   -1    0    0    0  501  0.00000000000E+00  0.00000000000E+00 -0.16198600027E+04  0.16198600027E+04  0.25500000920E-02 0.  1.
    10030    2    1    2    0    0  0.00000000000E+00  0.00000000000E+00  0.37999729221E+03  0.36197172977E+04  0.35997160128E+04 0.  0.
        3    1    3    3  502    0  0.17054333924E+04  0.50541879987E+03  0.46636682990E+03  0.18388717327E+04  0.10100000352E+00 0. -1.
       -3    1    3    3    0  502 -0.17054333924E+04 -0.50541879987E+03 -0.86369537693E+02  0.17808455650E+04  0.10100000352E+00 0.  1.
</event>
<event>
 5   0  0.2476968E-08  0.3598133E+04  0.7818609E-02  0.8090919E-01
       -2   -1    0    0    0  501  0.00000000000E+00  0.00000000000E+00  0.23329976714E+04  0.23329976714E+04  0.25500000920E-02 0.  1.
        2   -1    0    0  501    0  0.00000000000E+00  0.00000000000E+00 -0.13873313127E+04  0.13873313127E+04  0.25500000920E-02 0. -1.
    10030    2    1    2    0    0  0.00000000000E+00  0.00000000000E+00  0.94566635867E+03  0.37203289840E+04  0.35981332504E+04 0.  0.
        2    1    3    3  502    0  0.10617634721E+04  0.51434388164E+03 -0.93150852969E+03  0.15031964077E+04  0.25500000920E-02 0. -1.
       -2    1    3    3    0  502 -0.10617634721E+04 -0.51434388164E+03  0.18771748884E+04  0.22171325763E+04  0.25500000920E-02 0.  1.
</event>
<event>
 5   0  0.8146881E-09  0.3596494E+04  0.7818609E-02  0.8091295E-01
        1   -1    0    0  501    0  0.00000000000E+00  0.00000000000E+00  0.28897769152E+04  0.28897769152E+04  0.50400001928E-02 0. -1.
       -1   -1    0    0    0  501  0.00000000000E+00  0.00000000000E+00 -0.11190111497E+04  0.11190111497E+04  0.50400001928E-02 0.  1.
    10030    2    1    2    0    0  0.00000000000E+00  0.00000000000E+00  0.17707657656E+04  0.40087880649E+04  0.35964941753E+04 0.  0.
        4    1    3    3  502    0 -0.44372275934E+03 -0.26233865490E+03  0.28056612316E+04  0.28526212536E+04  0.12699999809E+01 0. -1.
       -4    1    3    3    0  502  0.44372275934E+03  0.26233865490E+03 -0.10348954660E+04  0.11561668113E+04  0.12699999809E+01 0.  1.
</event>
<event>
 5   0  0.2494592E-08  0.3602828E+04  0.7818609E-02  0.8089844E-01
       -2   -1    0    0    0  501  0.00000000000E+00  0.00000000000E+00  0.15503598954E+04  0.15503598954E+04  0.25500000920E-02 0. -1.
        2   -1    0    0  501    0  0.00000000000E+00  0.00000000000E+00 -0.20931216281E+04  0.20931216281E+04  0.25500000920E-02 0.  1.
    10030    2    1    2    0    0  0.00000000000E+00  0.00000000000E+00 -0.54276173271E+03  0.36434815235E+04  0.36028276830E+04 0.  0.
        1    1    3    3  502    0  0.17093394218E+04  0.53512485892E+03 -0.77140756610E+02  0.17928052236E+04  0.50400001928E-02 0. -1.
       -1    1    3    3    0  502 -0.17093394218E+04 -0.53512485892E+03 -0.46562097610E+03  0.18506762999E+04  0.50400001928E-02 0.  1.
</event>
<event>
 5   0  0.2476968E-08  0.3600215E+04  0.7818609E-02  0.8090442E-01
       -2   -1    0    0    0  501  0.00000000000E+00  0.00000000000E+00  0.14596305177E+04  0.14596305177E+04  0.25500000920E-02 0. -1.
        2   -1    0    0  501    0  0.00000000000E+00  0.00000000000E+00 -0.22200054520E+04  0.22200054520E+04  0.25500000920E-02 0.  1.
    10030    2    1    2    0    0  0.00000000000E+00  0.00000000000E+00 -0.76037493432E+03  0.36796359697E+04  0.36002153865E+04 0.  0.
        2    1    3    3  502    0 -0.21049810484E+03 -0.13888806548E+04  0.77029470942E+03  0.16020776712E+04  0.25500000920E-02 0. -1.
       -2    1    3    3    0  502  0.21049810484E+03  0.13888806548E+04 -0.15306696437E+04  0.20775582985E+04  0.25500000920E-02 0.  1.
</event>
<event>
 5   0  0.2494592E-08  0.3601546E+04  0.7818609E-02  0.8090138E-01
       -2   -1    0    0    0  501  0.00000000000E+00  0.00000000000E+00  0.31720263214E+04  0.31720263214E+04  0.25500000920E-02 0. -1.
        2   -1    0    0  501    0  0.00000000000E+00  0.00000000000E+00 -0.10223068436E+04  0.10223068436E+04  0.25500000920E-02 0.  1.
    10030    2    1    2    0    0  0.00000000000E+00  0.00000000000E+00  0.21497194778E+04  0.41943331650E+04  0.36015464548E+04 0.  0.
        1    1    3    3  502    0 -0.83283964140E+03 -0.86757954112E+03 -0.48607108580E+03  0.12971434882E+04  0.50400001928E-02 0.  1.
       -1    1    3    3    0  502  0.83283964140E+03  0.86757954112E+03  0.26357905636E+04  0.28971896768E+04  0.50400001928E-02 0. -1.
</event>
<event>
 5   0  0.2608070E-08  0.3599783E+04  0.7818609E-02  0.8090541E-01
        2   -1    0    0  501    0  0.00000000000E+00  0.00000000000E+00  0.31222483724E+04  0.31222483724E+04  0.25500000920E-02 0. -1.
       -2   -1    0    0    0  501  0.00000000000E+00  0.00000000000E+00 -0.10375888215E+04  0.10375888215E+04  0.25500000920E-02 0.  1.
    10030    2    1    2    0    0  0.00000000000E+00  0.00000000000E+00  0.20846595508E+04  0.41598371939E+04  0.35997833319E+04 0.  0.
        3    1    3    3  502    0  0.33135530862E+01  0.49288442678E+03  0.30427396720E+04  0.30824034063E+04  0.10100000352E+00 0. -1.
       -3    1    3    3    0  502 -0.33135530862E+01 -0.49288442678E+03 -0.95808012116E+03  0.10774337875E+04  0.10100000352E+00 0.  1.
</event>
<event>
 5   0  0.8063410E-09  0.3603659E+04  0.7818609E-02  0.8089654E-01
        1   -1    0    0  501    0  0.00000000000E+00  0.00000000000E+00  0.31223332321E+04  0.31223332321E+04  0.50400001928E-02 0.  1.
       -1   -1    0    0    0  501  0.00000000000E+00  0.00000000000E+00 -0.10397957589E+04  0.10397957589E+04  0.50400001928E-02 0. -1.
    10030    2    1    2    0    0  0.00000000000E+00  0.00000000000E+00  0.20825374731E+04  0.41621289910E+04  0.36036586146E+04 0.  0.
        2    1    3    3  502    0  0.17571865521E+04 -0.19523616842E+03  0.63989751139E+03  0.18802368376E+04  0.25500000920E-02 0. -1.
       -2    1    3    3    0  502 -0.17571865521E+04  0.19523616842E+03  0.14426399618E+04  0.22818921534E+04  0.25500000920E-02 0.  1.
</event>
<event>
 5   0  0.2494592E-08  0.3597293E+04  0.7818609E-02  0.8091112E-01
       -2   -1    0    0    0  501  0.00000000000E+00  0.00000000000E+00  0.20337518562E+04  0.20337518562E+04  0.25500000920E-02 0. -1.
        2   -1    0    0  501    0  0.00000000000E+00  0.00000000000E+00 -0.15907197484E+04  0.15907197484E+04  0.25500000920E-02 0.  1.
    10030    2    1    2    0    0  0.00000000000E+00  0.00000000000E+00  0.44303210785E+03  0.36244716046E+04  0.35972930050E+04 0.  0.
        1    1    3    3  502    0  0.48563100380E+03  0.16369540767E+04  0.79118421639E+03  0.18818683762E+04  0.50400001928E-02 0.  1.
       -1    1    3    3    0  502 -0.48563100380E+03 -0.16369540767E+04 -0.34815210854E+03  0.17426032284E+04  0.50400001928E-02 0. -1.
</event>
<event>
 5   0  0.2590795E-08  0.3598306E+04  0.7818609E-02  0.8090880E-01
        2   -1    0    0  501    0  0.00000000000E+00  0.00000000000E+00  0.13529311921E+04  0.13529311921E+04  0.25500000920E-02 0.  1.
       -2   -1    0    0    0  501  0.00000000000E+00  0.00000000000E+00 -0.23925465820E+04  0.23925465820E+04  0.25500000920E-02 0. -1.
    10030    2    1    2    0    0  0.00000000000E+00  0.00000000000E+00 -0.10396153899E+04  0.37454777741E+04  0.35983056565E+04 0.  0.
        4    1    3    3  502    0 -0.68882282258E+03 -0.19866642891E+03  0.11978369386E+04  0.13959800053E+04  0.12699999809E+01 0.  1.
       -4    1    3    3    0  502  0.68882282258E+03  0.19866642891E+03 -0.22374523284E+04  0.23494977688E+04  0.12699999809E+01 0. -1.
</event>
<event>
 5   0  0.8024500E-09  0.3595831E+04  0.7818609E-02  0.8091447E-01
        1   -1    0    0  501    0  0.00000000000E+00  0.00000000000E+00  0.17674898382E+04  0.17674898382E+04  0.50400001928E-02 0.  1.
       -1   -1    0    0    0  501  0.00000000000E+00  0.00000000000E+00 -0.18288654016E+04  0.18288654016E+04  0.50400001928E-02 0. -1.
    10030    2    1    2    0    0  0.00000000000E+00  0.00000000000E+00 -0.61375563365E+02  0.35963552398E+04  0.35958314825E+04 0.  0.
        1    1    3    3  502    0  0.11403519891E+04 -0.18186678341E+03  0.13475633123E+04  0.17746563235E+04  0.50400001928E-02 0.  1.
       -1    1    3    3    0  502 -0.11403519891E+04  0.18186678341E+03 -0.14089388757E+04  0.18216989162E+04  0.50400001928E-02 0. -1.
</event>
<event>
 5   0  0.8063410E-09  0.3599245E+04  0.7818609E-02  0.8090665E-01
        1   -1    0    0  501    0  0.00000000000E+00  0.00000000000E+00  0.21530879682E+04  0.21530879682E+04  0.50400001928E-02 0. -1.
       -1   -1    0    0    0  501  0.00000000000E+00  0.00000000000E+00 -0.15041845609E+04  0.15041845609E+04  0.50400001928E-02 0.  1.
    10030    2    1    2    0    0  0.00000000000E+00  0.00000000000E+00  0.64890340728E+03  0.36572725291E+04  0.35992452986E+04 0.  0.
        2    1    3    3  502    0  0.11132185452E+04 -0.98479180044E+03  0.13554883063E+04  0.20115712685E+04  0.25500000920E-02 0. -1.
       -2    1    3    3    0  502 -0.11132185452E+04  0.98479180044E+03 -0.70658489901E+03  0.16457012606E+04  0.25500000920E-02 0.  1.
</event>
<event>
 5   0  0.8024500E-09  0.3599453E+04  0.7818609E-02  0.8090617E-01
       -1   -1    0    0    0  501  0.00000000000E+00  0.00000000000E+00  0.18648625636E+04  0.18648625636E+04  0.50400001928E-02 0.  1.
        1   -1    0    0  501    0  0.00000000000E+00  0.00000000000E+00 -0.17368658122E+04  0.17368658122E+04  0.50400001928E-02 0. -1.
    10030    2    1    2    0    0  0.00000000000E+00  0.00000000000E+00  0.12799675136E+03  0.36017283759E+04  0.35994533092E+04 0.  0.
        5    1    3    3  502    0 -0.74849692139E+03  0.49785214807E+03  0.16241148587E+04  0.18563069700E+04  0.46999998093E+01 0.  1.
       -5    1    3    3    0  502  0.74849692139E+03 -0.49785214807E+03 -0.14961181074E+04  0.17454214058E+04  0.46999998093E+01 0. -1.
</event>
<event>
 5   0  0.8247570E-09  0.3599334E+04  0.7818609E-02  0.8090644E-01
       -1   -1    0    0    0  501  0.00000000000E+00  0.00000000000E+00  0.13697624992E+04  0.13697624992E+04  0.50400001928E-02 0. -1.
        1   -1    0    0  501    0  0.00000000000E+00  0.00000000000E+00 -0.23644979808E+04  0.23644979808E+04  0.50400001928E-02 0.  1.
    10030    2    1    2    0    0  0.00000000000E+00  0.00000000000E+00 -0.99473548164E+03  0.37342604800E+04  0.35993336403E+04 0.  0.
        3    1    3    3  502    0 -0.22716885066E+02  0.11409379488E+04 -0.19411321159E+04  0.22517214218E+04  0.10100000352E+00 0.  1.
       -3    1    3    3    0  502  0.22716885066E+02 -0.11409379488E+04  0.94639663422E+03  0.14825390583E+04  0.10100000352E+00 0. -1.
</event>
<event>
 5   0  0.2590795E-08  0.3623314E+04  0.7818609E-02  0.8085172E-01
       -2   -1    0    0    0  501  0.00000000000E+00  0.00000000000E+00  0.15462515759E+04  0.15462515759E+04  0.25500000920E-02 0. -1.
        2   -1    0    0  501    0  0.00000000000E+00  0.00000000000E+00 -0.21226176816E+04  0.21226176816E+04  0.25500000920E-02 0.  1.
    10030    2    1    2    0    0  0.00000000000E+00  0.00000000000E+00 -0.57636610574E+03  0.36688692575E+04  0.36233139169E+04 0.  0.
        4    1    3    3  502    0 -0.47390505849E+03  0.12166794928E+04  0.98347473074E+03  0.16346617851E+04  0.12699999809E+01 0. -1.
       -4    1    3    3    0  502  0.47390505849E+03 -0.12166794928E+04 -0.15598408365E+04  0.20342074724E+04  0.12699999809E+01 0.  1.
</event>
<event>
 5   0  0.8024500E-09  0.3599489E+04  0.7818609E-02  0.8090609E-01
        1   -1    0    0  501    0  0.00000000000E+00  0.00000000000E+00  0.23157122325E+04  0.23157122325E+04  0.50400001928E-02 0.  1.
       -1   -1    0    0    0  501  0.00000000000E+00  0.00000000000E+00 -0.13987400430E+04  0.13987400430E+04  0.50400001928E-02 0. -1.
    10030    2    1    2    0    0  0.00000000000E+00  0.00000000000E+00  0.91697218952E+03  0.37144522755E+04  0.35994885346E+04 0.  0.
        1    1    3    3  502    0  0.13715117592E+03 -0.22047735958E+03  0.22962817178E+04  0.23109154980E+04  0.50400001928E-02 0.  1.
       -1    1    3    3    0  502 -0.13715117592E+03  0.22047735958E+03 -0.13793095283E+04  0.14035367776E+04  0.50400001928E-02 0. -1.
</event>
<event>
 5   0  0.2482243E-08  0.3598432E+04  0.7818609E-02  0.8090851E-01
       -2   -1    0    0    0  501  0.00000000000E+00  0.00000000000E+00  0.11950425141E+04  0.11950425141E+04  0.25500000920E-02 0. -1.
        2   -1    0    0  501    0  0.00000000000E+00  0.00000000000E+00 -0.27088397612E+04  0.27088397612E+04  0.25500000920E-02 0.  1.
    10030    2    1    2    0    0  0.00000000000E+00  0.00000000000E+00 -0.15137972471E+04  0.39038822752E+04  0.35984322578E+04 0.  0.
        5    1    3    3  502    0  0.10325292846E+03  0.15926269550E+04 -0.16580938431E+04  0.23013950264E+04  0.46999998093E+01 0. -1.
       -5    1    3    3    0  502 -0.10325292846E+03 -0.15926269550E+04  0.14429659598E+03  0.16024872489E+04  0.46999998093E+01 0.  1.
</event>
<event>
 5   0  0.2482243E-08  0.3599641E+04  0.7818609E-02  0.8090574E-01
       -2   -1    0    0    0  501  0.00000000000E+00  0.00000000000E+00  0.12931253399E+04  0.12931253399E+04  0.25500000920E-02 0. -1.
        2   -1    0    0  501    0  0.00000000000E+00  0.00000000000E+00 -0.25050574350E+04  0.25050574350E+04  0.25500000920E-02 0.  1.
    10030    2    1    2    0    0  0.00000000000E+00  0.00000000000E+00 -0.12119320952E+04  0.37981827749E+04  0.35996406749E+04 0.  0.
        5    1    3    3  502    0  0.12156973577E+04 -0.12696565306E+04 -0.10137854263E+04  0.20292192469E+04  0.46999998093E+01 0.  1.
       -5    1    3    3    0  502 -0.12156973577E+04  0.12696565306E+04 -0.19814666884E+03  0.17689635281E+04  0.46999998093E+01 0. -1.
</event>
<event>
 5   0  0.2482243E-08  0.3600253E+04  0.7818609E-02  0.8090434E-01
        2   -1    0    0  501    0  0.00000000000E+00  0.00000000000E+00  0.15559320260E+04  0.15559320260E+04  0.25500000920E-02 0. -1.
       -2   -1    0    0    0  501  0.00000000000E+00  0.00000000000E+00 -0.20826460044E+04  0.20826460044E+04  0.25500000920E-02 0.  1.
    10030    2    1    2    0    0  0.00000000000E+00  0.00000000000E+00 -0.52671397838E+03  0.36385780303E+04  0.36002531116E+04 0.  0.
        5    1    3    3  502    0 -0.15253147346E+04  0.38148090269E+03 -0.11492269109E+04  0.19475259437E+04  0.46999998093E+01 0.  1.
       -5    1    3    3    0  502  0.15253147346E+04 -0.38148090269E+03  0.62251293250E+03  0.16910520866E+04  0.46999998093E+01 0. -1.
</event>
<event>
 5   0  0.2476968E-08  0.3599872E+04  0.7818609E-02  0.8090521E-01
       -2   -1    0    0    0  501  0.00000000000E+00  0.00000000000E+00  0.22022047212E+04  0.22022047212E+04  0.25500000920E-02 0. -1.
        2   -1    0    0  501    0  0.00000000000E+00  0.00000000000E+00 -0.14711481265E+04  0.14711481265E+04  0.25500000920E-02 0.  1.
    10030    2    1    2    0    0  0.00000000000E+00  0.00000000000E+00  0.73105659465E+03  0.36733528477E+04  0.35998718587E+04 0.  0.
        2    1    3    3  502    0  0.65937015965E+03  0.54116589963E+03 -0.12517974787E+04  0.15148024511E+04  0.25500000920E-02 0.  1.
       -2    1    3    3    0  502 -0.65937015965E+03 -0.54116589963E+03  0.19828540733E+04  0.21585503966E+04  0.25500000920E-02 0. -1.
</event>
<event>
 5   0  0.8146881E-09  0.3602265E+04  0.7818609E-02  0.8089973E-01
       -1   -1    0    0    0  501  0.00000000000E+00  0.00000000000E+00  0.11935796464E+04  0.11935796464E+04  0.50400001928E-02 0.  1.
        1   -1    0    0  501    0  0.00000000000E+00  0.00000000000E+00 -0.27179400984E+04  0.27179400984E+04  0.50400001928E-02 0. -1.
    10030    2    1    2    0    0  0.00000000000E+00  0.00000000000E+00 -0.15243604520E+04  0.39115197448E+04  0.36022648329E+04 0.  0.
        4    1    3    3  502    0  0.38334197560E+03 -0.16209883441E+04 -0.15062229977E+04  0.22457211789E+04  0.12699999809E+01 0. -1.
       -4    1    3    3    0  502 -0.38334197560E+03  0.16209883441E+04 -0.18137454331E+02  0.16657985658E+04  0.12699999809E+01 0.  1.
</event>
<event>
 5   0  0.2494592E-08  0.3598749E+04  0.7818609E-02  0.8090778E-01
       -2   -1    0    0    0  501  0.00000000000E+00  0.00000000000E+00  0.14111847480E+04  0.14111847480E+04  0.25500000920E-02 0. -1.
        2   -1    0    0  501    0  0.00000000000E+00  0.00000000000E+00 -0.22943478597E+04  0.22943478597E+04  0.25500000920E-02 0.  1.
    10030    2    1    2    0    0  0.00000000000E+00  0.00000000000E+00 -0.88316311174E+03  0.37055326078E+04  0.35987490639E+04 0.  0.
        1    1    3    3  502    0  0.12344548187E+03 -0.16196635722E+04  0.35546725076E+03  0.16628006016E+04  0.50400001928E-02 0. -1.
       -1    1    3    3    0  502 -0.12344548187E+03  0.16196635722E+04 -0.12386303625E+04  0.20427320062E+04  0.50400001928E-02 0.  1.
</event>
<event>
 5   0  0.2482243E-08  0.3601448E+04  0.7818609E-02  0.8090160E-01
        2   -1    0    0  501    0  0.00000000000E+00  0.00000000000E+00  0.22371684511E+04  0.22371684511E+04  0.25500000920E-02 0.  1.
       -2   -1    0    0    0  501  0.00000000000E+00  0.00000000000E+00 -0.14494244036E+04  0.14494244037E+04  0.25500000920E-02 0. -1.
    10030    2    1    2    0    0  0.00000000000E+00  0.00000000000E+00  0.78774404748E+03  0.36865928548E+04  0.36014477912E+04 0.  0.
        5    1    3    3  502    0 -0.26960398415E+03 -0.13348258869E+04 -0.81217537261E+03  0.15855905470E+04  0.46999998093E+01 0. -1.
       -5    1    3    3    0  502  0.26960398415E+03  0.13348258869E+04  0.15999194201E+04  0.21010023078E+04  0.46999998093E+01 0.  1.
</event>
<event>
 5   0  0.2590795E-08  0.3597035E+04  0.7818609E-02  0.8091171E-01
       -2   -1    0    0    0  501  0.00000000000E+00  0.00000000000E+00  0.11890639328E+04  0.11890639328E+04  0.25500000920E-02 0.  1.
        2   -1    0    0  501    0  0.00000000000E+00  0.00000000000E+00 -0.27203464955E+04  0.27203464955E+04  0.25500000920E-02 0. -1.
    10030    2    1    2    0    0  0.00000000000E+00  0.00000000000E+00 -0.15312825628E+04  0.39094104283E+04  0.35970353919E+04 0.  0.
        4    1    3    3  502    0 -0.19601524370E+03 -0.14125950700E+04 -0.19566228957E+04  0.24212025063E+04  0.12699999809E+01 0. -1.
       -4    1    3    3    0  502  0.19601524370E+03  0.14125950700E+04  0.42534033294E+03  0.14882079221E+04  0.12699999809E+01 0.  1.
</event>
<event>
 5   0  0.2608070E-08  0.3606687E+04  0.7818609E-02  0.8088962E-01
        2   -1    0    0  501    0  0.00000000000E+00  0.00000000000E+00  0.95503516814E+03  0.95503516814E+03  0.25500000920E-02 0.  1.
       -2   -1    0    0    0  501  0.00000000000E+00  0.00000000000E+00 -0.34051596060E+04  0.34051596060E+04  0.25500000920E-02 0. -1.
    10030    2    1    2    0    0  0.00000000000E+00  0.00000000000E+00 -0.24501244379E+04  0.43601947742E+04  0.36066866661E+04 0.  0.
        3    1    3    3  502    0 -0.14208633060E+04 -0.11098936802E+04 -0.11809631367E+04  0.21553167879E+04  0.10100000352E+00 0. -1.
       -3    1    3    3    0  502  0.14208633060E+04  0.11098936802E+04 -0.12691613012E+04  0.22048779863E+04  0.10100000352E+00 0.  1.
</event>
<event>
 5   0  0.2482243E-08  0.3603497E+04  0.7818609E-02  0.8089691E-01
        2   -1    0    0  501    0  0.00000000000E+00  0.00000000000E+00  0.24032870818E+04  0.24032870818E+04  0.25500000920E-02 0. -1.
       -2   -1    0    0    0  501  0.00000000000E+00  0.00000000000E+00 -0.13507743155E+04  0.13507743155E+04  0.25500000920E-02 0.  1.
    10030    2    1    2    0    0  0.00000000000E+00  0.00000000000E+00  0.10525127663E+04  0.37540613973E+04  0.36034974471E+04 0.  0.
        5    1    3    3  502    0 -0.11470534700E+04 -0.20285145096E+03 -0.90572920815E+03  0.14755500204E+04  0.46999998093E+01 0.  1.
       -5    1    3    3    0  502  0.11470534700E+04  0.20285145096E+03  0.19582419744E+04  0.22785113769E+04  0.46999998093E+01 0. -1.
</event>
<event>
 5   0  0.8146881E-09  0.3600771E+04  0.7818609E-02  0.8090315E-01
       -1   -1    0    0    0  501  0.00000000000E+00  0.00000000000E+00  0.13985329579E+04  0.13985329579E+04  0.50400001928E-02 0.  1.
        1   -1    0    0  501    0  0.00000000000E+00  0.00000000000E+00 -0.23177061703E+04  0.23177061703E+04  0.50400001928E-02 0. -1.
    10030    2    1    2    0    0  0.00000000000E+00  0.00000000000E+00 -0.91917321247E+03  0.37162391282E+04  0.36007712873E+04 0.  0.
        4    1    3    3  502    0 -0.12263958071E+04 -0.17143429547E+03 -0.18083809920E+04  0.21917298690E+04  0.12699999809E+01 0. -1.
       -4    1    3    3    0  502  0.12263958071E+04  0.17143429547E+03  0.88920777956E+03  0.15245092592E+04  0.12699999809E+01 0.  1.
</event>
<event>
 5   0  0.8247570E-09  0.3598391E+04  0.7818609E-02  0.8090860E-01
        1   -1    0    0  501    0  0.00000000000E+00  0.00000000000E+00  0.12676167118E+04  0.12676167119E+04  0.50400001928E-02 0.  1.
       -1   -1    0    0    0  501  0.00000000000E+00  0.00000000000E+00 -0.25536931174E+04  0.25536931174E+04  0.50400001928E-02 0. -1.
    10030    2    1    2    0    0  0.00000000000E+00  0.00000000000E+00 -0.12860764056E+04  0.38213098293E+04  0.35983907918E+04 0.  0.
        3    1    3    3  502    0 -0.56099717061E+03 -0.11517828258E+04  0.69846212092E+03  0.14591678614E+04  0.10100000352E+00 0.  1.
       -3    1    3    3    0  502  0.56099717061E+03  0.11517828258E+04 -0.19845385265E+04  0.23621419679E+04  0.10100000352E+00 0. -1.
</event>
<event>
 5   0  0.8024500E-09  0.3601089E+04  0.7818609E-02  0.8090242E-01
        1   -1    0    0  501    0  0.00000000000E+00  0.00000000000E+00  0.15247371550E+04  0.15247371550E+04  0.50400001928E-02 0.  1.
       -1   -1    0    0    0  501  0.00000000000E+00  0.00000000000E+00 -0.21262420850E+04  0.21262420850E+04  0.50400001928E-02 0. -1.
    10030    2    1    2    0    0  0.00000000000E+00  0.00000000000E+00 -0.60150493000E+03  0.36509792401E+04  0.36010888952E+04 0.  0.
        5    1    3    3  502    0  0.34588476786E+03  0.16286049000E+04  0.39427254949E+03  0.17109830876E+04  0.46999998093E+01 0.  1.
       -5    1    3    3    0  502 -0.34588476786E+03 -0.16286049000E+04 -0.99577747950E+03  0.19399961525E+04  0.46999998093E+01 0. -1.
</event>
<event>
 5   0  0.2494592E-08  0.3600354E+04  0.7818609E-02  0.8090411E-01
       -2   -1    0    0    0  501  0.00000000000E+00  0.00000000000E+00  0.11195880641E+04  0.11195880642E+04  0.25500000920E-02 0.  1.
        2   -1    0    0  501    0  0.00000000000E+00  0.00000000000E+00 -0.28944914326E+04  0.28944914326E+04  0.25500000920E-02 0. -1.
    10030    2    1    2    0    0  0.00000000000E+00  0.00000000000E+00 -0.17749033685E+04  0.40140794968E+04  0.36003544602E+04 0.  0.
        1    1    3    3  502    0 -0.16868297271E+04  0.19830676646E+03 -0.15525956569E+04  0.23011461004E+04  0.50400001928E-02 0. -1.
       -1    1    3    3    0  502  0.16868297271E+04 -0.19830676646E+03 -0.22230771162E+03  0.17129333964E+04  0.50400001928E-02 0.  1.
</event>
<event>
 5   0  0.2482243E-08  0.3614026E+04  0.7818609E-02  0.8087286E-01
        2   -1    0    0  501    0  0.00000000000E+00  0.00000000000E+00  0.26190860292E+04  0.26190860292E+04  0.25500000920E-02 0. -1.
       -2   -1    0    0    0  501  0.00000000000E+00  0.00000000000E+00 -0.12467311556E+04  0.12467311556E+04  0.25500000920E-02 0.  1.
    10030    2    1    2    0    0  0.00000000000E+00  0.00000000000E+00  0.13723548736E+04  0.38658171848E+04  0.36140260939E+04 0.  0.
        5    1    3    3  502    0  0.11810390210E+04  0.98215242456E+03 -0.33186431368E+03  0.15715064642E+04  0.46999998093E+01 0.  1.
       -5    1    3    3    0  502 -0.11810390210E+04 -0.98215242456E+03  0.17042191873E+04  0.22943107206E+04  0.46999998093E+01 0. -1.
</event>
<event>
 5   0  0.8024500E-09  0.3599187E+04  0.7818609E-02  0.8090678E-01
       -1   -1    0    0    0  501  0.00000000000E+00  0.00000000000E+00  0.14556328896E+04  0.14556328896E+04  0.50400001928E-02 0.  1.
        1   -1    0    0  501    0  0.00000000000E+00  0.00000000000E+00 -0.22248306173E+04  0.22248306174E+04  0.50400001928E-02 0. -1.
    10030    2    1    2    0    0  0.00000000000E+00  0.00000000000E+00 -0.76919772776E+03  0.36804635069E+04  0.35991869195E+04 0.  0.
        5    1    3    3  502    0 -0.10600182060E+04  0.11690474578E+04  0.49992207777E+03  0.16553714778E+04  0.46999998093E+01 0.  1.
       -5    1    3    3    0  502  0.10600182060E+04 -0.11690474578E+04 -0.12691198055E+04  0.20250920291E+04  0.46999998093E+01 0. -1.
</event>
<event>
 5   0  0.8024500E-09  0.3600421E+04  0.7818609E-02  0.8090395E-01
        1   -1    0    0  501    0  0.00000000000E+00  0.00000000000E+00  0.22474946701E+04  0.22474946701E+04  0.50400001928E-02 0.  1.
       -1   -1    0    0    0  501  0.00000000000E+00  0.00000000000E+00 -0.14419423112E+04  0.14419423112E+04  0.50400001928E-02 0. -1.
    10030    2    1    2    0    0  0.00000000000E+00  0.00000000000E+00  0.80555235892E+03  0.36894369813E+04  0.36004208971E+04 0.  0.
        1    1    3    3  502    0  0.16633944109E+04 -0.68180392541E+03  0.30545384831E+03  0.18234691147E+04  0.50400001928E-02 0. -1.
       -1    1    3    3    0  502 -0.16633944109E+04  0.68180392541E+03  0.50009851061E+03  0.18659678666E+04  0.50400001928E-02 0.  1.
</event>
<event>
 5   0  0.2476968E-08  0.3600749E+04  0.7818609E-02  0.8090320E-01
        2   -1    0    0  501    0  0.00000000000E+00  0.00000000000E+00  0.26745343080E+04  0.26745343080E+04  0.25500000920E-02 0. -1.
       -2   -1    0    0    0  501  0.00000000000E+00  0.00000000000E+00 -0.12119302046E+04  0.12119302046E+04  0.25500000920E-02 0.  1.
    10030    2    1    2    0    0  0.00000000000E+00  0.00000000000E+00  0.14626041034E+04  0.38864645125E+04  0.36007493170E+04 0.  0.
        2    1    3    3  502    0 -0.58630911811E+03  0.52512190388E+03  0.24789932787E+04  0.26009458033E+04  0.25500000920E-02 0. -1.
       -2    1    3    3    0  502  0.58630911811E+03 -0.52512190388E+03 -0.10163891753E+04  0.12855187092E+04  0.25500000920E-02 0.  1.
</event>
<event>
 5   0  0.8024500E-09  0.3599539E+04  0.7818609E-02  0.8090597E-01
        1   -1    0    0  501    0  0.00000000000E+00  0.00000000000E+00  0.20919709985E+04  0.20919709986E+04  0.50400001928E-02 0. -1.
       -1   -1    0    0    0  501  0.00000000000E+00  0.00000000000E+00 -0.15483819011E+04  0.15483819011E+04  0.50400001928E-02 0.  1.
    10030    2    1    2    0    0  0.00000000000E+00  0.00000000000E+00  0.54358909745E+03  0.36403528997E+04  0.35995388770E+04 0.  0.
        1    1    3    3  502    0  0.11971687831E+04 -0.11190587161E+04  0.10243178770E+04  0.19325456316E+04  0.50400001928E-02 0.  1.
       -1    1    3    3    0  502 -0.11971687831E+04  0.11190587161E+04 -0.48072877958E+03  0.17078072680E+04  0.50400001928E-02 0. -1.
</event>
<event>
 5   0  0.2590795E-08  0.3601714E+04  0.7818609E-02  0.8090099E-01
        2   -1    0    0  501    0  0.00000000000E+00  0.00000000000E+00  0.22485380768E+04  0.22485380768E+04  0.25500000920E-02 0. -1.
       -2   -1    0    0    0  501  0.00000000000E+00  0.00000000000E+00 -0.14423084629E+04  0.14423084629E+04  0.25500000920E-02 0.  1.
    10030    2    1    2    0    0  0.00000000000E+00  0.00000000000E+00  0.80622961386E+03  0.36908465397E+04  0.36017137573E+04 0.  0.
        4    1    3    3  502    0 -0.11597262009E+04  0.15022881463E+03 -0.10002841665E+04  0.15388643814E+04  0.12699999809E+01 0.  1.
       -4    1    3    3    0  502  0.11597262009E+04 -0.15022881463E+03  0.18065137804E+04  0.21519821582E+04  0.12699999809E+01 0. -1.
</event>
<event>
 5   0  0.2494592E-08  0.3598239E+04  0.7818609E-02  0.8090895E-01
        2   -1    0    0  501    0  0.00000000000E+00  0.00000000000E+00  0.19623275786E+04  0.19623275786E+04  0.25500000920E-02 0.  1.
       -2   -1    0    0    0  501  0.00000000000E+00  0.00000000000E+00 -0.16494852413E+04  0.16494852413E+04  0.25500000920E-02 0. -1.
    10030    2    1    2    0    0  0.00000000000E+00  0.00000000000E+00  0.31284233726E+03  0.36118128199E+04  0.35982386689E+04 0.  0.
        1    1    3    3  502    0 -0.96335304993E+03 -0.15073681198E+04  0.34851350793E+03  0.18225447629E+04  0.50400001928E-02 0. -1.
       -1    1    3    3    0  502  0.96335304993E+03  0.15073681198E+04 -0.35671170667E+02  0.17892680570E+04  0.50400001928E-02 0.  1.
</event>
<event>
 5   0  0.8063410E-09  0.3599800E+04  0.7818609E-02  0.8090538E-01
       -1   -1    0    0    0  501  0.00000000000E+00  0.00000000000E+00  0.28089648079E+04  0.28089648079E+04  0.50400001928E-02 0.  1.
        1   -1    0    0  501    0  0.00000000000E+00  0.00000000000E+00 -0.11533214081E+04  0.11533214081E+04  0.50400001928E-02 0. -1.
    10030    2    1    2    0    0  0.00000000000E+00  0.00000000000E+00  0.16556433999E+04  0.39622862160E+04  0.35997995764E+04 0.  0.
        2    1    3    3  502    0 -0.82469791882E+03 -0.14579050051E+04  0.15529672535E+04  0.22841455627E+04  0.25500000920E-02 0.  1.
       -2    1    3    3    0  502  0.82469791882E+03  0.14579050051E+04  0.10267614638E+03  0.16781406533E+04  0.25500000920E-02 0. -1.
</event>
<event>
 5   0  0.8024500E-09  0.3599690E+04  0.7818609E-02  0.8090563E-01
       -1   -1    0    0    0  501  0.00000000000E+00  0.00000000000E+00  0.21977418648E+04  0.21977418648E+04  0.50400001928E-02 0. -1.
        1   -1    0    0  501    0  0.00000000000E+00  0.00000000000E+00 -0.14739869744E+04  0.14739869745E+04  0.50400001928E-02 0.  1.
    10030    2    1    2    0    0  0.00000000000E+00  0.00000000000E+00  0.72375489038E+03  0.36717288393E+04  0.35996904767E+04 0.  0.
        1    1    3    3  502    0 -0.15800585671E+04  0.66205537988E+03 -0.20101828681E+03  0.17249089116E+04  0.50400001928E-02 0.  1.
       -1    1    3    3    0  502  0.15800585671E+04 -0.66205537988E+03  0.92477317719E+03  0.19468199277E+04  0.50400001928E-02 0. -1.
</event>
<event>
 5   0  0.2590795E-08  0.3595200E+04  0.7818609E-02  0.8091592E-01
        2   -1    0    0  501    0  0.00000000000E+00  0.00000000000E+00  0.15911082127E+04  0.15911082127E+04  0.25500000920E-02 0. -1.
       -2   -1    0    0    0  501  0.00000000000E+00  0.00000000000E+00 -0.20308903368E+04  0.20308903368E+04  0.25500000920E-02 0.  1.
    10030    2    1    2    0    0  0.00000000000E+00  0.00000000000E+00 -0.43978212407E+03  0.36219985494E+04  0.35952002970E+04 0.  0.
        4    1    3    3  502    0  0.12551832705E+04  0.12106874771E+04 -0.65916345645E+03  0.18643356149E+04  0.12699999809E+01 0. -1.
       -4    1    3    3    0  502 -0.12551832705E+04 -0.12106874771E+04  0.21938133238E+03  0.17576629346E+04  0.12699999809E+01 0.  1.
</event>
<event>
 5   0  0.8146881E-09  0.3598665E+04  0.7818609E-02  0.8090798E-01
       -1   -1    0    0    0  501  0.00000000000E+00  0.00000000000E+00  0.12825030614E+04  0.12825030614E+04  0.50400001928E-02 0.  1.
        1   -1    0    0  501    0  0.00000000000E+00  0.00000000000E+00 -0.25244365419E+04  0.25244365419E+04  0.50400001928E-02 0. -1.
    10030    2    1    2    0    0  0.00000000000E+00  0.00000000000E+00 -0.12419334806E+04  0.38069396033E+04  0.35986650821E+04 0.  0.
        4    1    3    3  502    0  0.90770873111E+03  0.89512111141E+03  0.72233480774E+03  0.14652460995E+04  0.12699999809E+01 0.  1.
       -4    1    3    3    0  502 -0.90770873111E+03 -0.89512111141E+03 -0.19642682883E+04  0.23416935038E+04  0.12699999809E+01 0. -1.
</event>
<event>
 5   0  0.2590795E-08  0.3599708E+04  0.7818609E-02  0.8090559E-01
        2   -1    0    0  501    0  0.00000000000E+00  0.00000000000E+00  0.14101375438E+04  0.14101375438E+04  0.25500000920E-02 0.  1.
       -2   -1    0    0    0  501  0.00000000000E+00  0.00000000000E+00 -0.22972753215E+04  0.22972753215E+04  0.25500000920E-02 0. -1.
    10030    2    1    2    0    0  0.00000000000E+00  0.00000000000E+00 -0.88713777777E+03  0.37074128653E+04  0.35997078655E+04 0.  0.
        4    1    3    3  502    0  0.53499078520E+03 -0.16933238919E+04 -0.14169214433E+03  0.17814710831E+04  0.12699999809E+01 0.  1.
       -4    1    3    3    0  502 -0.53499078520E+03  0.16933238919E+04 -0.74544563344E+03  0.19259417822E+04  0.12699999809E+01 0. -1.
</event>
<event>
 5   0  0.8063410E-09  0.3600781E+04  0.7818609E-02  0.8090313E-01
        1   -1    0    0  501    0  0.00000000000E+00  0.00000000000E+00  0.23327660830E+04  0.23327660830E+04  0.50400001928E-02 0. -1.
       -1   -1    0    0    0  501  0.00000000000E+00  0.00000000000E+00 -0.13895121075E+04  0.13895121075E+04  0.50400001928E-02 0.  1.
    10030    2    1    2    0    0  0.00000000000E+00  0.00000000000E+00  0.94325397544E+03  0.37222781905E+04  0.36007814243E+04 0.  0.
        2    1    3    3  502    0 -0.11891358707E+04 -0.37363065456E+03  0.18146014818E+04  0.22014591803E+04  0.25500000920E-02 0. -1.
       -2    1    3    3    0  502  0.11891358707E+04  0.37363065456E+03 -0.87134750631E+03  0.15208190102E+04  0.25500000920E-02 0.  1.
</event>
<event>
 5   0  0.2494592E-08  0.3600002E+04  0.7818609E-02  0.8090491E-01
        2   -1    0    0  501    0  0.00000000000E+00  0.00000000000E+00  0.19326349127E+04  0.19326349127E+04  0.25500000920E-02 0. -1.
       -2   -1    0    0    0  501  0.00000000000E+00  0.00000000000E+00 -0.16764690975E+04  0.16764690975E+04  0.25500000920E-02 0.  1.
    10030    2    1    2    0    0  0.00000000000E+00  0.00000000000E+00  0.25616581527E+03  0.36091040102E+04  0.36000015044E+04 0.  0.
        1    1    3    3  502    0  0.14187120401E+04  0.67834343511E+03  0.10061450763E+04  0.18668748173E+04  0.50400001928E-02 0. -1.
       -1    1    3    3    0  502 -0.14187120401E+04 -0.67834343511E+03 -0.74997926107E+03  0.17422291929E+04  0.50400001928E-02 0.  1.
</event>
<event>
 5   0  0.8247570E-09  0.3621765E+04  0.7818609E-02  0.8085524E-01
        1   -1    0    0  501    0  0.00000000000E+00  0.00000000000E+00  0.22371122102E+04  0.22371122102E+04  0.50400001928E-02 0.  1.
       -1   -1    0    0    0  501  0.00000000000E+00  0.00000000000E+00 -0.14658610725E+04  0.14658610725E+04  0.50400001928E-02 0. -1.
    10030    2    1    2    0    0  0.00000000000E+00  0.00000000000E+00  0.77125113773E+03  0.37029732827E+04  0.36217651518E+04 0.  0.
        3    1    3    3  502    0 -0.90646591004E+03  0.34839910791E+03 -0.11771204410E+04  0.15259996485E+04  0.10100000352E+00 0. -1.
       -3    1    3    3    0  502  0.90646591004E+03 -0.34839910791E+03  0.19483715788E+04  0.21769736341E+04  0.10100000352E+00 0.  1.
</event>
<event>
 5   0  0.8024500E-09  0.3600700E+04  0.7818609E-02  0.8090331E-01
        1   -1    0    0  501    0  0.00000000000E+00  0.00000000000E+00  0.22734811840E+04  0.22734811840E+04  0.50400001928E-02 0.  1.
       -1   -1    0    0    0  501  0.00000000000E+00  0.00000000000E+00 -0.14256813708E+04  0.14256813708E+04  0.50400001928E-02 0. -1.
    10030    2    1    2    0    0  0.00000000000E+00  0.00000000000E+00  0.84779981317E+03  0.36991625548E+04  0.36006998047E+04 0.  0.
        1    1    3    3  502    0 -0.16666881919E+04 -0.47857059888E+03 -0.73467324851E+02  0.17355911946E+04  0.50400001928E-02 0. -1.
       -1    1    3    3    0  502  0.16666881919E+04  0.47857059888E+03  0.92126713802E+03  0.19635713602E+04  0.50400001928E-02 0.  1.
</event>
<event>
 5   0  0.8247570E-09  0.3600395E+04  0.7818609E-02  0.8090401E-01
       -1   -1    0    0    0  501  0.00000000000E+00  0.00000000000E+00  0.11556886977E+04  0.11556886977E+04  0.50400001928E-02 0. -1.
        1   -1    0    0  501    0  0.00000000000E+00  0.00000000000E+00 -0.28041390067E+04  0.28041390067E+04  0.50400001928E-02 0.  1.
    10030    2    1    2    0    0  0.00000000000E+00  0.00000000000E+00 -0.16484503090E+04  0.39598277044E+04  0.36003953987E+04 0.  0.
        3    1    3    3  502    0 -0.15176569050E+04 -0.93382850238E+03 -0.11054759071E+04  0.20969966963E+04  0.10100000352E+00 0. -1.
       -3    1    3    3    0  502  0.15176569050E+04  0.93382850238E+03 -0.54297440196E+03  0.18628310080E+04  0.10100000352E+00 0.  1.
</event>
<event>
 5   0  0.2608070E-08  0.3600971E+04  0.7818609E-02  0.8090269E-01
        2   -1    0    0  501    0  0.00000000000E+00  0.00000000000E+00  0.16883355207E+04  0.16883355207E+04  0.25500000920E-02 0.  1.
       -2   -1    0    0    0  501  0.00000000000E+00  0.00000000000E+00 -0.19200854626E+04  0.19200854626E+04  0.25500000920E-02 0. -1.
    10030    2    1    2    0    0  0.00000000000E+00  0.00000000000E+00 -0.23174994194E+03  0.36084209833E+04  0.36009712520E+04 0.  0.
        3    1    3    3  502    0  0.10318198029E+03 -0.13802675411E+04  0.10380121490E+04  0.17301023778E+04  0.10100000352E+00 0.  1.
       -3    1    3    3    0  502 -0.10318198029E+03  0.13802675411E+04 -0.12697620909E+04  0.18783186055E+04  0.10100000352E+00 0. -1.
</event>
<event>
 5   0  0.2476968E-08  0.3600073E+04  0.7818609E-02  0.8090475E-01
        2   -1    0    0  501    0  0.00000000000E+00  0.00000000000E+00  0.18757446142E+04  0.18757446142E+04  0.25500000920E-02 0.  1.
       -2   -1    0    0    0  501  0.00000000000E+00  0.00000000000E+00 -0.17273837151E+04  0.17273837151E+04  0.25500000920E-02 0. -1.
    10030    2    1    2    0    0  0.00000000000E+00  0.00000000000E+00  0.14836089902E+03  0.36031283293E+04  0.36000726105E+04 0.  0.
        2    1    3    3  502    0 -0.32911181932E+03  0.46200532397E+03  0.17839533809E+04  0.18719650569E+04  0.25500000920E-02 0.  1.
       -2    1    3    3    0  502  0.32911181932E+03 -0.46200532397E+03 -0.16355924819E+04  0.17311632724E+04  0.25500000920E-02 0. -1.
</event>
<event>
 5   0  0.8146881E-09  0.3600208E+04  0.7818609E-02  0.8090444E-01
        1   -1    0    0  501    0  0.00000000000E+00  0.00000000000E+00  0.19541999189E+04  0.19541999189E+04  0.50400001928E-02 0.  1.
       -1   -1    0    0    0  501  0.00000000000E+00  0.00000000000E+00 -0.16581587937E+04  0.16581587937E+04  0.50400001928E-02 0. -1.
    10030    2    1    2    0    0  0.00000000000E+00  0.00000000000E+00  0.29604112517E+03  0.36123587126E+04  0.36002076497E+04 0.  0.
        4    1    3    3  502    0  0.14972642762E+04  0.50538243917E+03  0.10129976680E+04  0.18770662244E+04  0.12699999809E+01 0.  1.
       -4    1    3    3    0  502 -0.14972642762E+04 -0.50538243917E+03 -0.71695654283E+03  0.17352924882E+04  0.12699999809E+01 0. -1.
</event>
<event>
 5   0  0.2494592E-08  0.3588772E+04  0.7818609E-02  0.8093068E-01
       -2   -1    0    0    0  501  0.00000000000E+00  0.00000000000E+00  0.27933093563E+04  0.27933093563E+04  0.25500000920E-02 0. -1.
        2   -1    0    0  501    0  0.00000000000E+00  0.00000000000E+00 -0.11526904478E+04  0.11526904478E+04  0.25500000920E-02 0.  1.
    10030    2    1    2    0    0  0.00000000000E+00  0.00000000000E+00  0.16406189086E+04  0.39459998041E+04  0.35887719419E+04 0.  0.
        1    1    3    3  502    0 -0.15799450431E+04 -0.82980517354E+03  0.61455124939E+03  0.18874523049E+04  0.50400001928E-02 0. -1.
       -1    1    3    3    0  502  0.15799450431E+04  0.82980517354E+03  0.10260676592E+04  0.20585474992E+04  0.50400001928E-02 0.  1.
</event>
<event>
 5   0  0.2482243E-08  0.3600015E+04  0.7818609E-02  0.8090488E-01
        2   -1    0    0  501    0  0.00000000000E+00  0.00000000000E+00  0.20625226618E+04  0.20625226618E+04  0.25500000920E-02 0. -1.
       -2   -1    0    0    0  501  0.00000000000E+00  0.00000000000E+00 -0.15709048557E+04  0.15709048557E+04  0.25500000920E-02 0.  1.
    10030    2    1    2    0    0  0.00000000000E+00  0.00000000000E+00  0.49161780616E+03  0.36334275175E+04  0.36000149246E+04 0.  0.
        5    1    3    3  502    0  0.14161528761E+04 -0.33079667608E+03 -0.82473802469E+03  0.16718643213E+04  0.46999998093E+01 0.  1.
       -5    1    3    3    0  502 -0.14161528761E+04  0.33079667608E+03  0.13163558309E+04  0.19615631962E+04  0.46999998093E+01 0. -1.
</event>
<event>
 5   0  0.8146881E-09  0.3596138E+04  0.7818609E-02  0.8091377E-01
        1   -1    0    0  501    0  0.00000000000E+00  0.00000000000E+00  0.21010209173E+04  0.21010209173E+04  0.50400001928E-02 0. -1.
       -1   -1    0    0    0  501  0.00000000000E+00  0.00000000000E+00 -0.15388005021E+04  0.15388005021E+04  0.50400001928E-02 0.  1.
    10030    2    1    2    0    0  0.00000000000E+00  0.00000000000E+00  0.56222041516E+03  0.36398214194E+04  0.35961379520E+04 0.  0.
        4    1    3    3  502    0 -0.10709774610E+04  0.14314787514E+04  0.47560661447E+03  0.18499533514E+04  0.12699999809E+01 0. -1.
       -4    1    3    3    0  502  0.10709774610E+04 -0.14314787514E+04  0.86613800696E+02  0.17898680680E+04  0.12699999809E+01 0.  1.
</event>
<event>
 5   0  0.2494592E-08  0.3599621E+04  0.7818609E-02  0.8090579E-01
       -2   -1    0    0    0  501  0.00000000000E+00  0.00000000000E+00  0.17973163121E+04  0.17973163121E+04  0.25500000920E-02 0.  1.
        2   -1    0    0  501    0  0.00000000000E+00  0.00000000000E+00 -0.18023078063E+04  0.18023078063E+04  0.25500000920E-02 0. -1.
    10030    2    1    2    0    0  0.00000000000E+00  0.00000000000E+00 -0.49914942025E+01  0.35996241183E+04  0.35996206575E+04 0.  0.
        1    1    3    3  502    0  0.13951476824E+03  0.20402353731E+02  0.17917848283E+04  0.17973239824E+04  0.50400001928E-02 0.  1.
       -1    1    3    3    0  502 -0.13951476824E+03 -0.20402353731E+02 -0.17967763226E+04  0.18023001359E+04  0.50400001928E-02 0. -1.
</event>
<event>
 5   0  0.8024500E-09  0.3600580E+04  0.7818609E-02  0.8090359E-01
        1   -1    0    0  501    0  0.00000000000E+00  0.00000000000E+00  0.30026587579E+04  0.30026587579E+04  0.50400001928E-02 0.  1.
       -1   -1    0    0    0  501  0.00000000000E+00  0.00000000000E+00 -0.10793915784E+04  0.10793915784E+04  0.50400001928E-02 0. -1.
    10030    2    1    2    0    0  0.00000000000E+00  0.00000000000E+00  0.19232671795E+04  0.40820503363E+04  0.36005802733E+04 0.  0.
        1    1    3    3  502    0  0.55555895702E+03  0.13603467897E+04 -0.21757456324E+03  0.14854385997E+04  0.50400001928E-02 0. -1.
       -1    1    3    3    0  502 -0.55555895702E+03 -0.13603467897E+04  0.21408417427E+04  0.25966117365E+04  0.50400001928E-02 0.  1.
</event>
<event>
 5   0  0.2494592E-08  0.3600415E+04  0.7818609E-02  0.8090397E-01
        2   -1    0    0  501    0  0.00000000000E+00  0.00000000000E+00  0.21414300593E+04  0.21414300593E+04  0.25500000920E-02 0.  1.
       -2   -1    0    0    0  501  0.00000000000E+00  0.00000000000E+00 -0.15133562266E+04  0.15133562266E+04  0.25500000920E-02 0. -1.
    10030    2    1    2    0    0  0.00000000000E+00  0.00000000000E+00  0.62807383269E+03  0.36547862859E+04  0.36004147062E+04 0.  0.
        1    1    3    3  502    0 -0.13968732433E+04 -0.22686802925E+02  0.14665133083E+04  0.20254458355E+04  0.50400001928E-02 0.  1.
       -1    1    3    3    0  502  0.13968732433E+04  0.22686802925E+02 -0.83843947565E+03  0.16293404504E+04  0.50400001928E-02 0. -1.
</event>
<event>
 5   0  0.8146881E-09  0.3596959E+04  0.7818609E-02  0.8091189E-01
       -1   -1    0    0    0  501  0.00000000000E+00  0.00000000000E+00  0.13397302468E+04  0.13397302468E+04  0.50400001928E-02 0. -1.
        1   -1    0    0  501    0  0.00000000000E+00  0.00000000000E+00 -0.24143129035E+04  0.24143129035E+04  0.50400001928E-02 0.  1.
    10030    2    1    2    0    0  0.00000000000E+00  0.00000000000E+00 -0.10745826566E+04  0.37540431503E+04  0.35969587277E+04 0.  0.
        4    1    3    3  502    0 -0.69967877836E+03 -0.12740231155E+04  0.56813418125E+03  0.15605971141E+04  0.12699999809E+01 0. -1.
       -4    1    3    3    0  502  0.69967877836E+03  0.12740231155E+04 -0.16427168379E+04  0.21934460363E+04  0.12699999809E+01 0.  1.
</event>
<event>
 5   0  0.2476968E-08  0.3603115E+04  0.7818609E-02  0.8089779E-01
        2   -1    0    0  501    0  0.00000000000E+00  0.00000000000E+00  0.18072798649E+04  0.18072798649E+04  0.25500000920E-02 0. -1.
       -2   -1    0    0    0  501  0.00000000000E+00  0.00000000000E+00 -0.17958531867E+04  0.17958531867E+04  0.25500000920E-02 0.  1.
    10030    2    1    2    0    0  0.00000000000E+00  0.00000000000E+00  0.11426678161E+02  0.36031330516E+04  0.36031149327E+04 0.  0.
        2    1    3    3  502    0 -0.13585857403E+04  0.46755171361E+03  0.10925718239E+04  0.18050132989E+04  0.25500000920E-02 0. -1.
       -2    1    3    3    0  502  0.13585857403E+04 -0.46755171361E+03 -0.10811451458E+04  0.17981197527E+04  0.25500000920E-02 0.  1.
</event>
<event>
 5   0  0.2476968E-08  0.3600452E+04  0.7818609E-02  0.8090388E-01
       -2   -1    0    0    0  501  0.00000000000E+00  0.00000000000E+00  0.16702071575E+04  0.16702071575E+04  0.25500000920E-02 0.  1.
        2   -1    0    0  501    0  0.00000000000E+00  0.00000000000E+00 -0.19403661401E+04  0.19403661401E+04  0.25500000920E-02 0. -1.
    10030    2    1    2    0    0  0.00000000000E+00  0.00000000000E+00 -0.27015898258E+03  0.36105732976E+04  0.36004518691E+04 0.  0.
        2    1    3    3  502    0 -0.37887119671E+03  0.17117079539E+04  0.27512532679E+03  0.17745933192E+04  0.25500000920E-02 0.  1.
       -2    1    3    3    0  502  0.37887119671E+03 -0.17117079539E+04 -0.54528430937E+03  0.18359799784E+04  0.25500000920E-02 0. -1.
</event>
<event>
 5   0  0.8146881E-09  0.3608019E+04  0.7818609E-02  0.8088657E-01
        1   -1    0    0  501    0  0.00000000000E+00  0.00000000000E+00  0.27583302135E+04  0.27583302135E+04  0.50400001928E-02 0.  1.
       -1   -1    0    0    0  501  0.00000000000E+00  0.00000000000E+00 -0.11798621548E+04  0.11798621548E+04  0.50400001928E-02 0. -1.
    10030    2    1    2    0    0  0.00000000000E+00  0.00000000000E+00  0.15784680587E+04  0.39381923683E+04  0.36080185306E+04 0.  0.
        4    1    3    3  502    0  0.31862666259E+03 -0.31724016208E+03  0.26961897312E+04  0.27334236682E+04  0.12699999809E+01 0.  1.
       -4    1    3    3    0  502 -0.31862666259E+03  0.31724016208E+03 -0.11177216725E+04  0.12047687000E+04  0.12699999809E+01 0. -1.
</event>
<event>
 5   0  0.8024500E-09  0.3600895E+04  0.7818609E-02  0.8090287E-01
       -1   -1    0    0    0  501  0.00000000000E+00  0.00000000000E+00  0.19984461735E+04  0.19984461735E+04  0.50400001928E-02 0. -1.
        1   -1    0    0  501    0  0.00000000000E+00  0.00000000000E+00 -0.16220659799E+04  0.16220659799E+04  0.50400001928E-02 0.  1.
    10030    2    1    2    0    0  0.00000000000E+00  0.00000000000E+00  0.37638019361E+03  0.36205121535E+04  0.36008951947E+04 0.  0.
        5    1    3    3  502    0 -0.13340346746E+04 -0.11234912476E+04  0.63751206819E+03  0.18569665650E+04  0.46999998093E+01 0. -1.
       -5    1    3    3    0  502  0.13340346746E+04  0.11234912476E+04 -0.26113187458E+03  0.17635455884E+04  0.46999998093E+01 0.  1.
</event>
<event>
 5   0  0.8063410E-09  0.3599353E+04  0.7818609E-02  0.8090640E-01
       -1   -1    0    0    0  501  0.00000000000E+00  0.00000000000E+00  0.16871983355E+04  0.16871983355E+04  0.50400001928E-02 0. -1.
        1   -1    0    0  501    0  0.00000000000E+00  0.00000000000E+00 -0.19196533983E+04  0.19196533983E+04  0.50400001928E-02 0.  1.
    10030    2    1    2    0    0  0.00000000000E+00  0.00000000000E+00 -0.23245506285E+03  0.36068517338E+04  0.35993532854E+04 0.  0.
        2    1    3    3  502    0 -0.11114664210E+04  0.13707702593E+04 -0.46976175789E+03  0.18262105076E+04  0.25500000920E-02 0.  1.
       -2    1    3    3    0  502  0.11114664210E+04 -0.13707702593E+04  0.23730669505E+03  0.17806412262E+04  0.25500000920E-02 0. -1.
</event>
<event>
 5   0  0.2608070E-08  0.3599714E+04  0.7818609E-02  0.8090557E-01
       -2   -1    0    0    0  501  0.00000000000E+00  0.00000000000E+00  0.29675785602E+04  0.29675785602E+04  0.25500000920E-02 0.  1.
        2   -1    0    0  501    0  0.00000000000E+00  0.00000000000E+00 -0.10916257158E+04  0.10916257158E+04  0.25500000920E-02 0. -1.
    10030    2    1    2    0    0  0.00000000000E+00  0.00000000000E+00  0.18759528444E+04  0.40592042760E+04  0.35997139164E+04 0.  0.
        3    1    3    3  502    0 -0.40385591303E+03  0.11043025144E+04 -0.59864663053E+03  0.13194549785E+04  0.10100000352E+00 0. -1.
       -3    1    3    3    0  502  0.40385591303E+03 -0.11043025144E+04  0.24745994749E+04  0.27397492975E+04  0.10100000352E+00 0.  1.
</event>
<event>
 5   0  0.8063410E-09  0.3599875E+04  0.7818609E-02  0.8090520E-01
       -1   -1    0    0    0  501  0.00000000000E+00  0.00000000000E+00  0.22475792743E+04  0.22475792743E+04  0.50400001928E-02 0.  1.
        1   -1    0    0  501    0  0.00000000000E+00  0.00000000000E+00 -0.14414504515E+04  0.14414504515E+04  0.50400001928E-02 0. -1.
    10030    2    1    2    0    0  0.00000000000E+00  0.00000000000E+00  0.80612882277E+03  0.36890297258E+04  0.35998745310E+04 0.  0.
        2    1    3    3  502    0  0.60521741994E+03 -0.65125974840E+03  0.20068633753E+04  0.21949779025E+04  0.25500000920E-02 0.  1.
       -2    1    3    3    0  502 -0.60521741994E+03  0.65125974840E+03 -0.12007345525E+04  0.14940518233E+04  0.25500000920E-02 0. -1.
</event>
<event>
 5   0  0.8024500E-09  0.3599280E+04  0.7818609E-02  0.8090657E-01
        1   -1    0    0  501    0  0.00000000000E+00  0.00000000000E+00  0.21479184343E+04  0.21479184343E+04  0.50400001928E-02 0. -1.
       -1   -1    0    0    0  501  0.00000000000E+00  0.00000000000E+00 -0.15078335257E+04  0.15078335257E+04  0.50400001928E-02 0.  1.
    10030    2    1    2    0    0  0.00000000000E+00  0.00000000000E+00  0.64008490859E+03  0.36557519601E+04  0.35992796090E+04 0.  0.
        1    1    3    3  502    0 -0.51294146198E+03 -0.73647966031E+03 -0.12643010318E+04  0.15504735833E+04  0.50400001928E-02 0.  1.
       -1    1    3    3    0  502  0.51294146198E+03  0.73647966031E+03  0.19043859404E+04  0.21052783768E+04  0.50400001928E-02 0. -1.
</event>
<event>
 5   0  0.2494592E-08  0.3600453E+04  0.7818609E-02  0.8090388E-01
       -2   -1    0    0    0  501  0.00000000000E+00  0.00000000000E+00  0.13550949617E+04  0.13550949617E+04  0.25500000920E-02 0.  1.
        2   -1    0    0  501    0  0.00000000000E+00  0.00000000000E+00 -0.23915787737E+04  0.23915787737E+04  0.25500000920E-02 0. -1.
    10030    2    1    2    0    0  0.00000000000E+00  0.00000000000E+00 -0.10364838120E+04  0.37466737354E+04  0.36004534974E+04 0.  0.
        1    1    3    3  502    0 -0.17143244109E+04  0.54289217917E+03 -0.60639493293E+03  0.18977236149E+04  0.50400001928E-02 0. -1.
       -1    1    3    3    0  502  0.17143244109E+04 -0.54289217917E+03 -0.43008887903E+03  0.18489501204E+04  0.50400001928E-02 0.  1.
</event>
<event>
 5   0  0.8024500E-09  0.3599450E+04  0.7818609E-02  0.8090618E-01
       -3   -1    0    0    0  501  0.00000000000E+00  0.00000000000E+00  0.16614064471E+04  0.16614064502E+04  0.10100000352E+00 0.  1.
        3   -1    0    0  501    0  0.00000000000E+00  0.00000000000E+00 -0.19495590815E+04  0.19495590841E+04  0.10100000352E+00 0. -1.
    10030    2    1    2    0    0  0.00000000000E+00  0.00000000000E+00 -0.28815263436E+03  0.36109655343E+04  0.35994499787E+04 0.  0.
        1    1    3    3  502    0  0.35851520631E+03  0.37261215744E+03 -0.18734350205E+04  0.19434844350E+04  0.50400001928E-02 0. -1.
       -1    1    3    3    0  502 -0.35851520631E+03 -0.37261215744E+03  0.15852823861E+04  0.16674810994E+04  0.50400001928E-02 0.  1.
</event>
<event>
 5   0  0.8024500E-09  0.3599975E+04  0.7818609E-02  0.8090497E-01
       -1   -1    0    0    0  501  0.00000000000E+00  0.00000000000E+00  0.97390025758E+03  0.97390025759E+03  0.50400001928E-02 0. -1.
        1   -1    0    0  501    0  0.00000000000E+00  0.00000000000E+00 -0.33267827234E+04  0.33267827234E+04  0.50400001928E-02 0.  1.
    10030    2    1    2    0    0  0.00000000000E+00  0.00000000000E+00 -0.23528824658E+04  0.43006829810E+04  0.35999747506E+04 0.  0.
        5    1    3    3  502    0  0.33807011454E+03 -0.78491206232E+03 -0.30689428443E+04  0.31857197961E+04  0.46999998093E+01 0.  1.
       -5    1    3    3    0  502 -0.33807011454E+03  0.78491206232E+03  0.71606037849E+03  0.11149631848E+04  0.46999998093E+01 0. -1.
</event>
<event>
 5   0  0.2476968E-08  0.3599391E+04  0.7818609E-02  0.8090631E-01
        2   -1    0    0  501    0  0.00000000000E+00  0.00000000000E+00  0.17229680089E+04  0.17229680089E+04  0.25500000920E-02 0.  1.
       -2   -1    0    0    0  501  0.00000000000E+00  0.00000000000E+00 -0.18798398017E+04  0.18798398017E+04  0.25500000920E-02 0. -1.
    10030    2    1    2    0    0  0.00000000000E+00  0.00000000000E+00 -0.15687179285E+03  0.36028078106E+04  0.35993909708E+04 0.  0.
        2    1    3    3  502    0  0.91716710295E+03 -0.15168412275E+04 -0.39002071022E+03  0.18149707873E+04  0.25500000920E-02 0. -1.
       -2    1    3    3    0  502 -0.91716710295E+03  0.15168412275E+04  0.23314891738E+03  0.17878370233E+04  0.25500000920E-02 0.  1.
</event>
<event>
 5   0  0.2476968E-08  0.3598523E+04  0.7818609E-02  0.8090830E-01
       -2   -1    0    0    0  501  0.00000000000E+00  0.00000000000E+00  0.10011308045E+04  0.10011308045E+04  0.25500000920E-02 0.  1.
        2   -1    0    0  501    0  0.00000000000E+00  0.00000000000E+00 -0.32336854034E+04  0.32336854034E+04  0.25500000920E-02 0. -1.
    10030    2    1    2    0    0  0.00000000000E+00  0.00000000000E+00 -0.22325545988E+04  0.42348162079E+04  0.35985230690E+04 0.  0.
        2    1    3    3  502    0  0.74522961061E+03 -0.13332517314E+04  0.28876132684E+01  0.15273950668E+04  0.25500000920E-02 0.  1.
       -2    1    3    3    0  502 -0.74522961061E+03  0.13332517314E+04 -0.22354422121E+04  0.27074211411E+04  0.25500000920E-02 0. -1.
</event>
<event>
 5   0  0.8247570E-09  0.3598603E+04  0.7818609E-02  0.8090812E-01
       -1   -1    0    0    0  501  0.00000000000E+00  0.00000000000E+00  0.12286694608E+04  0.12286694609E+04  0.50400001928E-02 0.  1.
        1   -1    0    0  501    0  0.00000000000E+00  0.00000000000E+00 -0.26349519552E+04  0.26349519552E+04  0.50400001928E-02 0. -1.
    10030    2    1    2    0    0  0.00000000000E+00  0.00000000000E+00 -0.14062824944E+04  0.38636214161E+04  0.35986025055E+04 0.  0.
        3    1    3    3  502    0  0.10686881221E+03 -0.21569757191E+03  0.12113030638E+04  0.12349904891E+04  0.10100000352E+00 0.  1.
       -3    1    3    3    0  502 -0.10686881221E+03  0.21569757191E+03 -0.26175855582E+04  0.26286309270E+04  0.10100000352E+00 0. -1.
</event>
<event>
 5   0  0.2482243E-08  0.3607445E+04  0.7818609E-02  0.8088788E-01
        2   -1    0    0  501    0  0.00000000000E+00  0.00000000000E+00  0.25366250931E+04  0.25366250931E+04  0.25500000920E-02 0.  1.
       -2   -1    0    0    0  501  0.00000000000E+00  0.00000000000E+00 -0.12825761088E+04  0.12825761088E+04  0.25500000920E-02 0. -1.
    10030    2    1    2    0    0  0.00000000000E+00  0.00000000000E+00  0.12540489843E+04  0.38192012018E+04  0.36074449358E+04 0.  0.
        5    1    3    3  502    0  0.81248111261E+03 -0.13710219926E+04  0.15213380971E+04  0.22032518145E+04  0.46999998093E+01 0.  1.
       -5    1    3    3    0  502 -0.81248111261E+03  0.13710219926E+04 -0.26728911273E+03  0.16159493873E+04  0.46999998093E+01 0. -1.
</event>
<event>
 5   0  0.8146881E-09  0.3598119E+04  0.7818609E-02  0.8090923E-01
        1   -1    0    0  501    0  0.00000000000E+00  0.00000000000E+00  0.25141623158E+04  0.25141623158E+04  0.50400001928E-02 0. -1.
       -1   -1    0    0    0  501  0.00000000000E+00  0.00000000000E+00 -0.12873534154E+04  0.12873534154E+04  0.50400001928E-02 0.  1.
    10030    2    1    2    0    0  0.00000000000E+00  0.00000000000E+00  0.12268089004E+04  0.38015157312E+04  0.35981191999E+04 0.  0.
        4    1    3    3  502    0  0.42126779067E+03 -0.33850698429E+03 -0.11995691144E+04  0.13156827896E+04  0.12699999809E+01 0.  1.
       -4    1    3    3    0  502 -0.42126779067E+03  0.33850698429E+03  0.24263780148E+04  0.24858329416E+04  0.12699999809E+01 0. -1.
</event>
<event>
 5   0  0.2476968E-08  0.3600070E+04  0.7818609E-02  0.8090476E-01
       -2   -1    0    0    0  501  0.00000000000E+00  0.00000000000E+00  0.16147387578E+04  0.16147387579E+04  0.25500000920E-02 0.  1.
        2   -1    0    0  501    0  0.00000000000E+00  0.00000000000E+00 -0.20065940330E+04  0.20065940330E+04  0.25500000920E-02 0. -1.
    10030    2    1    2    0    0  0.00000000000E+00  0.00000000000E+00 -0.39185527518E+03  0.36213327909E+04  0.36000695307E+04 0.  0.
        2    1    3    3  502    0  0.97520318447E+03  0.15027645911E+04 -0.37247061847E+03  0.18297696655E+04  0.25500000920E-02 0.  1.
       -2    1    3    3    0  502 -0.97520318447E+03 -0.15027645911E+04 -0.19384656707E+02  0.17915631254E+04  0.25500000920E-02 0. -1.
</event>
<event>
 5   0  0.8024500E-09  0.3601732E+04  0.7818609E-02  0.8090095E-01
        1   -1    0    0  501    0  0.00000000000E+00  0.00000000000E+00  0.29141001997E+04  0.29141001997E+04  0.50400001928E-02 0. -1.
       -1   -1    0    0    0  501  0.00000000000E+00  0.00000000000E+00 -0.11129054170E+04  0.11129054170E+04  0.50400001928E-02 0.  1.
    10030    2    1    2    0    0  0.00000000000E+00  0.00000000000E+00  0.18011947827E+04  0.40270056166E+04  0.36017317489E+04 0.  0.
        5    1    3    3  502    0 -0.25899921244E+03  0.10230185310E+04  0.25321625461E+04  0.27432675328E+04  0.46999998093E+01 0.  1.
       -5    1    3    3    0  502  0.25899921244E+03 -0.10230185310E+04 -0.73096776336E+03  0.12837380838E+04  0.46999998093E+01 0. -1.
</event>
<event>
 5   0  0.8024500E-09  0.3599391E+04  0.7818609E-02  0.8090631E-01
       -3   -1    0    0    0  501  0.00000000000E+00  0.00000000000E+00  0.15033737568E+04  0.15033737602E+04  0.10100000352E+00 0.  1.
        3   -1    0    0  501    0  0.00000000000E+00  0.00000000000E+00 -0.21544237508E+04  0.21544237532E+04  0.10100000352E+00 0. -1.
    10030    2    1    2    0    0  0.00000000000E+00  0.00000000000E+00 -0.65104999401E+03  0.36577975134E+04  0.35993911366E+04 0.  0.
        1    1    3    3  502    0 -0.10641996491E+04 -0.13684672704E+04 -0.81677427391E+03  0.19163360294E+04  0.50400001928E-02 0.  1.
       -1    1    3    3    0  502  0.10641996491E+04  0.13684672704E+04  0.16572427990E+03  0.17414614840E+04  0.50400001928E-02 0. -1.
</event>
<event>
 5   0  0.8063410E-09  0.3599410E+04  0.7818609E-02  0.8090627E-01
       -1   -1    0    0    0  501  0.00000000000E+00  0.00000000000E+00  0.14471673577E+04  0.14471673578E+04  0.50400001928E-02 0.  1.
        1   -1    0    0  501    0  0.00000000000E+00  0.00000000000E+00 -0.22381229906E+04  0.22381229906E+04  0.50400001928E-02 0. -1.
    10030    2    1    2    0    0  0.00000000000E+00  0.00000000000E+00 -0.79095563288E+03  0.36852903484E+04  0.35994102487E+04 0.  0.
        2    1    3    3  502    0 -0.95102269086E+03  0.60179212992E+02 -0.19586242044E+04  0.21781355491E+04  0.25500000920E-02 0. -1.
       -2    1    3    3    0  502  0.95102269086E+03 -0.60179212992E+02  0.11676685715E+04  0.15071547993E+04  0.25500000920E-02 0.  1.
</event>
<event>
 5   0  0.8024500E-09  0.3613710E+04  0.7818609E-02  0.8087358E-01
        1   -1    0    0  501    0  0.00000000000E+00  0.00000000000E+00  0.20010509959E+04  0.20010509959E+04  0.50400001928E-02 0. -1.
       -1   -1    0    0    0  501  0.00000000000E+00  0.00000000000E+00 -0.16315052908E+04  0.16315052908E+04  0.50400001928E-02 0.  1.
    10030    2    1    2    0    0  0.00000000000E+00  0.00000000000E+00  0.36954570508E+03  0.36325562867E+04  0.36137101638E+04 0.  0.
        5    1    3    3  502    0 -0.71129460046E+03 -0.12093814393E+04  0.13292003817E+04  0.19327025687E+04  0.46999998093E+01 0. -1.
       -5    1    3    3    0  502  0.71129460046E+03  0.12093814393E+04 -0.95965467659E+03  0.16998537180E+04  0.46999998093E+01 0.  1.
</event>
<event>
 5   0  0.2476968E-08  0.3600207E+04  0.7818609E-02  0.8090444E-01
        2   -1    0    0  501    0  0.00000000000E+00  0.00000000000E+00  0.18410699320E+04  0.18410699320E+04  0.25500000920E-02 0. -1.
       -2   -1    0    0    0  501  0.00000000000E+00  0.00000000000E+00 -0.17600487870E+04  0.17600487870E+04  0.25500000920E-02 0.  1.
    10030    2    1    2    0    0  0.00000000000E+00  0.00000000000E+00  0.81021144976E+02  0.36011187190E+04  0.36002071611E+04 0.  0.
        2    1    3    3  502    0 -0.52284166894E+03 -0.12314479863E+04 -0.11641802527E+04  0.17734551628E+04  0.25500000920E-02 0.  1.
       -2    1    3    3    0  502  0.52284166894E+03  0.12314479863E+04  0.12452013977E+04  0.18276635562E+04  0.25500000920E-02 0. -1.
</event>
<event>
 5   0  0.2476968E-08  0.3599646E+04  0.7818609E-02  0.8090573E-01
        2   -1    0    0  501    0  0.00000000000E+00  0.00000000000E+00  0.20019993802E+04  0.20019993802E+04  0.25500000920E-02 0. -1.
       -2   -1    0    0    0  501  0.00000000000E+00  0.00000000000E+00 -0.16180637342E+04  0.16180637342E+04  0.25500000920E-02 0.  1.
    10030    2    1    2    0    0  0.00000000000E+00  0.00000000000E+00  0.38393564596E+03  0.36200631144E+04  0.35996458676E+04 0.  0.
        2    1    3    3  502    0 -0.52536537119E+03  0.42424400393E+03 -0.14858387914E+04  0.16320872104E+04  0.25500000920E-02 0.  1.
       -2    1    3    3    0  502  0.52536537119E+03 -0.42424400393E+03  0.18697744374E+04  0.19879759040E+04  0.25500000920E-02 0. -1.
</event>
<event>
 5   0  0.8146881E-09  0.3598012E+04  0.7818609E-02  0.8090947E-01
       -1   -1    0    0    0  501  0.00000000000E+00  0.00000000000E+00  0.26250746224E+04  0.26250746224E+04  0.50400001928E-02 0. -1.
        1   -1    0    0  501    0  0.00000000000E+00  0.00000000000E+00 -0.12328879621E+04  0.12328879621E+04  0.50400001928E-02 0.  1.
    10030    2    1    2    0    0  0.00000000000E+00  0.00000000000E+00  0.13921866603E+04  0.38579625845E+04  0.35980121742E+04 0.  0.
        4    1    3    3  502    0  0.41745536917E+03  0.25924528185E+03 -0.11595296818E+04  0.12593600745E+04  0.12699999809E+01 0.  1.
       -4    1    3    3    0  502 -0.41745536917E+03 -0.25924528185E+03  0.25517163421E+04  0.25986025100E+04  0.12699999809E+01 0. -1.
</event>
<event>
 5   0  0.2590795E-08  0.3599477E+04  0.7818609E-02  0.8090611E-01
        2   -1    0    0  501    0  0.00000000000E+00  0.00000000000E+00  0.20633568454E+04  0.20633568454E+04  0.25500000920E-02 0. -1.
       -2   -1    0    0    0  501  0.00000000000E+00  0.00000000000E+00 -0.15698008521E+04  0.15698008521E+04  0.25500000920E-02 0.  1.
    10030    2    1    2    0    0  0.00000000000E+00  0.00000000000E+00  0.49355599326E+03  0.36331576975E+04  0.35994773699E+04 0.  0.
        4    1    3    3  502    0  0.56660852678E+03 -0.11588801962E+04 -0.10199586866E+04  0.16444956269E+04  0.12699999809E+01 0.  1.
       -4    1    3    3    0  502 -0.56660852678E+03  0.11588801962E+04  0.15135146798E+04  0.19886620705E+04  0.12699999809E+01 0. -1.
</event>
<event>
 5   0  0.8024500E-09  0.3602699E+04  0.7818609E-02  0.8089874E-01
        3   -1    0    0  501    0  0.00000000000E+00  0.00000000000E+00  0.22747991307E+04  0.22747991329E+04  0.10100000352E+00 0.  1.
       -3   -1    0    0    0  501  0.00000000000E+00  0.00000000000E+00 -0.14264377949E+04  0.14264377985E+04  0.10100000352E+00 0. -1.
    10030    2    1    2    0    0  0.00000000000E+00  0.00000000000E+00  0.84836133580E+03  0.37012369314E+04  0.36026986921E+04 0.  0.
        1    1    3    3  502    0 -0.11936138083E+04 -0.13302200310E+04  0.19294626568E+03  0.17976171772E+04  0.50400001928E-02 0. -1.
       -1    1    3    3    0  502  0.11936138083E+04  0.13302200310E+04  0.65541507011E+03  0.19036197542E+04  0.50400001928E-02 0.  1.
</event>
<event>
 5   0  0.8247570E-09  0.3598942E+04  0.7818609E-02  0.8090734E-01
       -1   -1    0    0    0  501  0.00000000000E+00  0.00000000000E+00  0.28117152611E+04  0.28117152611E+04  0.50400001928E-02 0.  1.
        1   -1    0    0  501    0  0.00000000000E+00  0.00000000000E+00 -0.11516441333E+04  0.11516441333E+04  0.50400001928E-02 0. -1.
    10030    2    1    2    0    0  0.00000000000E+00  0.00000000000E+00  0.16600711279E+04  0.39633593944E+04  0.35989417250E+04 0.  0.
        3    1    3    3  502    0 -0.61220813432E+03 -0.16920834483E+04  0.81653993187E+03  0.19760269903E+04  0.10100000352E+00 0. -1.
       -3    1    3    3    0  502  0.61220813432E+03  0.16920834483E+04  0.84353119599E+03  0.19873324041E+04  0.10100000352E+00 0.  1.
</event>
<event>
 5   0  0.2476968E-08  0.3598672E+04  0.7818609E-02  0.8090796E-01
        2   -1    0    0  501    0  0.00000000000E+00  0.00000000000E+00  0.19356112528E+04  0.19356112528E+04  0.25500000920E-02 0. -1.
       -2   -1    0    0    0  501  0.00000000000E+00  0.00000000000E+00 -0.16726550341E+04  0.16726550341E+04  0.25500000920E-02 0.  1.
    10030    2    1    2    0    0  0.00000000000E+00  0.00000000000E+00  0.26295621878E+03  0.36082662869E+04  0.35986719251E+04 0.  0.
        2    1    3    3  502    0 -0.11738030218E+04  0.12696735933E+04  0.63052521374E+03  0.18405017286E+04  0.25500000920E-02 0. -1.
       -2    1    3    3    0  502  0.11738030218E+04 -0.12696735933E+04 -0.36756899497E+03  0.17677645583E+04  0.25500000920E-02 0.  1.
</event>
<event>
 5   0  0.8024500E-09  0.3601344E+04  0.7818609E-02  0.8090184E-01
        1   -1    0    0  501    0  0.00000000000E+00  0.00000000000E+00  0.25989568179E+04  0.25989568179E+04  0.50400001928E-02 0. -1.
       -1   -1    0    0    0  501  0.00000000000E+00  0.00000000000E+00 -0.12475849679E+04  0.12475849679E+04  0.50400001928E-02 0.  1.
    10030    2    1    2    0    0  0.00000000000E+00  0.00000000000E+00  0.13513718500E+04  0.38465417857E+04  0.36013438926E+04 0.  0.
        1    1    3    3  502    0 -0.93345212546E+03 -0.12979597925E+04 -0.20920628932E+03  0.16123894582E+04  0.50400001928E-02 0.  1.
       -1    1    3    3    0  502  0.93345212546E+03  0.12979597925E+04  0.15605781393E+04  0.22341523275E+04  0.50400001928E-02 0. -1.
</event>
<event>
 5   0  0.2476968E-08  0.3592909E+04  0.7818609E-02  0.8092118E-01
        2   -1    0    0  501    0  0.00000000000E+00  0.00000000000E+00  0.18373024700E+04  0.18373024700E+04  0.25500000920E-02 0. -1.
       -2   -1    0    0    0  501  0.00000000000E+00  0.00000000000E+00 -0.17565151233E+04  0.17565151233E+04  0.25500000920E-02 0.  1.
    10030    2    1    2    0    0  0.00000000000E+00  0.00000000000E+00  0.80787346684E+02  0.35938175934E+04  0.35929094477E+04 0.  0.
        2    1    3    3  502    0  0.93028717497E+03  0.37371722542E+03 -0.14506711369E+04  0.17633903538E+04  0.25500000920E-02 0.  1.
       -2    1    3    3    0  502 -0.93028717497E+03 -0.37371722542E+03  0.15314584836E+04  0.18304272396E+04  0.25500000920E-02 0. -1.
</event>
<event>
 5   0  0.2476968E-08  0.3596439E+04  0.7818609E-02  0.8091308E-01
        2   -1    0    0  501    0  0.00000000000E+00  0.00000000000E+00  0.25919999641E+04  0.25919999641E+04  0.25500000920E-02 0.  1.
       -2   -1    0    0    0  501  0.00000000000E+00  0.00000000000E+00 -0.12475282301E+04  0.12475282301E+04  0.25500000920E-02 0. -1.
    10030    2    1    2    0    0  0.00000000000E+00  0.00000000000E+00  0.13444717340E+04  0.38395281942E+04  0.35964388651E+04 0.  0.
        2    1    3    3  502    0 -0.43367911232E+02 -0.16640766978E+04 -0.53852920375E+02  0.16655125845E+04  0.25500000920E-02 0. -1.
       -2    1    3    3    0  502  0.43367911232E+02  0.16640766978E+04  0.13983246544E+04  0.21740156097E+04  0.25500000920E-02 0.  1.
</event>
<event>
 5   0  0.8247570E-09  0.3599366E+04  0.7818609E-02  0.8090637E-01
       -1   -1    0    0    0  501  0.00000000000E+00  0.00000000000E+00  0.23225346085E+04  0.23225346085E+04  0.50400001928E-02 0. -1.
        1   -1    0    0  501    0  0.00000000000E+00  0.00000000000E+00 -0.13945363082E+04  0.13945363082E+04  0.50400001928E-02 0.  1.
    10030    2    1    2    0    0  0.00000000000E+00  0.00000000000E+00  0.92799830026E+03  0.37170709167E+04  0.35993659656E+04 0.  0.
        3    1    3    3  502    0  0.42642971410E+03 -0.12200379286E+04 -0.82936381954E+03  0.15356364165E+04  0.10100000352E+00 0.  1.
       -3    1    3    3    0  502 -0.42642971410E+03  0.12200379286E+04  0.17573621198E+04  0.21814345002E+04  0.10100000352E+00 0. -1.
</event>
<event>
 5   0  0.8024500E-09  0.3598500E+04  0.7818609E-02  0.8090835E-01
        1   -1    0    0  501    0  0.00000000000E+00  0.00000000000E+00  0.20867690215E+04  0.20867690215E+04  0.50400001928E-02 0.  1.
       -1   -1    0    0    0  501  0.00000000000E+00  0.00000000000E+00 -0.15513459421E+04  0.15513459421E+04  0.50400001928E-02 0. -1.
    10030    2    1    2    0    0  0.00000000000E+00  0.00000000000E+00  0.53542307943E+03  0.36381149636E+04  0.35985000507E+04 0.  0.
        1    1    3    3  502    0  0.11251864923E+04  0.14040060175E+04  0.27257217977E+03  0.18197728245E+04  0.50400001928E-02 0. -1.
       -1    1    3    3    0  502 -0.11251864923E+04 -0.14040060175E+04  0.26285089966E+03  0.18183421391E+04  0.50400001928E-02 0.  1.
</event>
<event>
 5   0  0.8247570E-09  0.3600879E+04  0.7818609E-02  0.8090290E-01
        1   -1    0    0  501    0  0.00000000000E+00  0.00000000000E+00  0.17721957016E+04  0.17721957016E+04  0.50400001928E-02 0. -1.
       -1   -1    0    0    0  501  0.00000000000E+00  0.00000000000E+00 -0.18291330830E+04  0.18291330830E+04  0.50400001928E-02 0.  1.
    10030    2    1    2    0    0  0.00000000000E+00  0.00000000000E+00 -0.56937381423E+02  0.36013287846E+04  0.36008786635E+04 0.  0.
        3    1    3    3  502    0  0.14145498678E+04  0.84398778232E+03 -0.75541240390E+03  0.18121574478E+04  0.10100000352E+00 0.  1.
       -3    1    3    3    0  502 -0.14145498678E+04 -0.84398778232E+03  0.69847502248E+03  0.17891713368E+04  0.10100000352E+00 0. -1.
</event>
<event>
 5   0  0.8024500E-09  0.3600119E+04  0.7818609E-02  0.8090464E-01
        3   -1    0    0  501    0  0.00000000000E+00  0.00000000000E+00  0.23771687136E+04  0.23771687158E+04  0.10100000352E+00 0. -1.
       -3   -1    0    0    0  501  0.00000000000E+00  0.00000000000E+00 -0.13630564186E+04  0.13630564224E+04  0.10100000352E+00 0.  1.
    10030    2    1    2    0    0  0.00000000000E+00  0.00000000000E+00  0.10141122950E+04  0.37402251381E+04  0.36001194893E+04 0.  0.
        5    1    3    3  502    0 -0.58432705927E+03  0.16336110694E+04  0.10053787608E+04  0.20052261171E+04  0.46999998093E+01 0. -1.
       -5    1    3    3    0  502  0.58432705927E+03 -0.16336110694E+04  0.87335341826E+01  0.17349990210E+04  0.46999998093E+01 0.  1.
</event>
<event>
 5   0  0.8146881E-09  0.3600519E+04  0.7818609E-02  0.8090373E-01
       -1   -1    0    0    0  501  0.00000000000E+00  0.00000000000E+00  0.27220443655E+04  0.27220443655E+04  0.50400001928E-02 0. -1.
        1   -1    0    0  501    0  0.00000000000E+00  0.00000000000E+00 -0.11906252739E+04  0.11906252739E+04  0.50400001928E-02 0.  1.
    10030    2    1    2    0    0  0.00000000000E+00  0.00000000000E+00  0.15314190916E+04  0.39126696394E+04  0.36005193060E+04 0.  0.
        4    1    3    3  502    0 -0.97312340259E+03 -0.14590878864E+04  0.32425601242E+03  0.17835498848E+04  0.12699999809E+01 0. -1.
       -4    1    3    3    0  502  0.97312340259E+03  0.14590878864E+04  0.12071630792E+04  0.21291197547E+04  0.12699999809E+01 0.  1.
</event>
<event>
 5   0  0.8146881E-09  0.3600362E+04  0.7818609E-02  0.8090409E-01
        1   -1    0    0  501    0  0.00000000000E+00  0.00000000000E+00  0.23978693002E+04  0.23978693002E+04  0.50400001928E-02 0.  1.
       -1   -1    0    0    0  501  0.00000000000E+00  0.00000000000E+00 -0.13514712839E+04  0.13514712839E+04  0.50400001928E-02 0. -1.
    10030    2    1    2    0    0  0.00000000000E+00  0.00000000000E+00  0.10463980163E+04  0.37493405841E+04  0.36003619272E+04 0.  0.
        4    1    3    3  502    0 -0.81618395775E+03 -0.43258195082E+03  0.21322443385E+04  0.23237364156E+04  0.12699999809E+01 0.  1.
       -4    1    3    3    0  502  0.81618395775E+03  0.43258195082E+03 -0.10858463222E+04  0.14256041685E+04  0.12699999809E+01 0. -1.
</event>
<event>
 5   0  0.2494592E-08  0.3600468E+04  0.7818609E-02  0.8090385E-01
        2   -1    0    0  501    0  0.00000000000E+00  0.00000000000E+00  0.11931311228E+04  0.11931311228E+04  0.25500000920E-02 0. -1.
       -2   -1    0    0    0  501  0.00000000000E+00  0.00000000000E+00 -0.27162493150E+04  0.27162493150E+04  0.25500000920E-02 0.  1.
    10030    2    1    2    0    0  0.00000000000E+00  0.00000000000E+00 -0.15231181922E+04  0.39093804378E+04  0.36004675224E+04 0.  0.
        1    1    3    3  502    0  0.85103979128E+03  0.58359472605E+03 -0.23632455099E+04  0.25787169039E+04  0.50400001928E-02 0.  1.
       -1    1    3    3    0  502 -0.85103979128E+03 -0.58359472605E+03  0.84012731763E+03  0.13306635339E+04  0.50400001928E-02 0. -1.
</event>
<event>
 5   0  0.2608070E-08  0.3599668E+04  0.7818609E-02  0.8090568E-01
       -2   -1    0    0    0  501  0.00000000000E+00  0.00000000000E+00  0.12315025310E+04  0.12315025310E+04  0.25500000920E-02 0. -1.
        2   -1    0    0  501    0  0.00000000000E+00  0.00000000000E+00 -0.26304475271E+04  0.26304475271E+04  0.25500000920E-02 0.  1.
    10030    2    1    2    0    0  0.00000000000E+00  0.00000000000E+00 -0.13989449961E+04  0.38619500581E+04  0.35996681999E+04 0.  0.
        3    1    3    3  502    0 -0.12472820082E+04 -0.12268942155E+03  0.68640615191E+03  0.14289571434E+04  0.10100000352E+00 0. -1.
       -3    1    3    3    0  502  0.12472820082E+04  0.12268942155E+03 -0.20853511480E+04  0.24329929147E+04  0.10100000352E+00 0.  1.
</event>
<event>
 5   0  0.8024500E-09  0.3601147E+04  0.7818609E-02  0.8090229E-01
        3   -1    0    0  501    0  0.00000000000E+00  0.00000000000E+00  0.28200628314E+04  0.28200628332E+04  0.10100000352E+00 0. -1.
       -3   -1    0    0    0  501  0.00000000000E+00  0.00000000000E+00 -0.11496430833E+04  0.11496430878E+04  0.10100000352E+00 0.  1.
    10030    2    1    2    0    0  0.00000000000E+00  0.00000000000E+00  0.16704197481E+04  0.39697059210E+04  0.36011474511E+04 0.  0.
        1    1    3    3  502    0  0.14023983001E+03  0.17215402094E+04  0.13958882815E+04  0.22207818436E+04  0.50400001928E-02 0. -1.
       -1    1    3    3    0  502 -0.14023983001E+03 -0.17215402094E+04  0.27453146659E+03  0.17489240774E+04  0.50400001928E-02 0.  1.
</event>
<event>
 5   0  0.2476968E-08  0.3602067E+04  0.7818609E-02  0.8090018E-01
       -2   -1    0    0    0  501  0.00000000000E+00  0.00000000000E+00  0.10823587224E+04  0.10823587224E+04  0.25500000920E-02 0.  1.
        2   -1    0    0  501    0  0.00000000000E+00  0.00000000000E+00 -0.29969003125E+04  0.29969003125E+04  0.25500000920E-02 0. -1.
    10030    2    1    2    0    0  0.00000000000E+00  0.00000000000E+00 -0.19145415901E+04  0.40792590349E+04  0.36020667364E+04 0.  0.
        2    1    3    3  502    0 -0.17982930958E+03  0.74603174519E+03 -0.28024859298E+04  0.29056547166E+04  0.25500000920E-02 0. -1.
       -2    1    3    3    0  502  0.17982930958E+03 -0.74603174519E+03  0.88794433974E+03  0.11736043183E+04  0.25500000920E-02 0.  1.
</event>
<event>
 5   0  0.2590795E-08  0.3596669E+04  0.7818609E-02  0.8091255E-01
        2   -1    0    0  501    0  0.00000000000E+00  0.00000000000E+00  0.27976103076E+04  0.27976103076E+04  0.25500000920E-02 0. -1.
       -2   -1    0    0    0  501  0.00000000000E+00  0.00000000000E+00 -0.11559889051E+04  0.11559889051E+04  0.25500000920E-02 0.  1.
    10030    2    1    2    0    0  0.00000000000E+00  0.00000000000E+00  0.16416214025E+04  0.39535992127E+04  0.35966687234E+04 0.  0.
        4    1    3    3  502    0  0.56888365071E+03  0.71020778940E+03  0.25258653912E+04  0.26847758378E+04  0.12699999809E+01 0. -1.
       -4    1    3    3    0  502 -0.56888365071E+03 -0.71020778940E+03 -0.88424398870E+03  0.12688233749E+04  0.12699999809E+01 0.  1.
</event>
<event>
 5   0  0.8146881E-09  0.3598434E+04  0.7818609E-02  0.8090850E-01
       -1   -1    0    0    0  501  0.00000000000E+00  0.00000000000E+00  0.23896415940E+04  0.23896415940E+04  0.50400001928E-02 0. -1.
        1   -1    0    0  501    0  0.00000000000E+00  0.00000000000E+00 -0.13546728097E+04  0.13546728097E+04  0.50400001928E-02 0.  1.
    10030    2    1    2    0    0  0.00000000000E+00  0.00000000000E+00  0.10349687843E+04  0.37443144038E+04  0.35984343776E+04 0.  0.
        4    1    3    3  502    0 -0.10662992265E+03  0.11898147154E+04  0.19174463342E+04  0.22591217441E+04  0.12699999809E+01 0. -1.
       -4    1    3    3    0  502  0.10662992265E+03 -0.11898147154E+04 -0.88247754990E+03  0.14851926596E+04  0.12699999809E+01 0.  1.
</event>
<event>
 5   0  0.2482243E-08  0.3602463E+04  0.7818609E-02  0.8089928E-01
       -2   -1    0    0    0  501  0.00000000000E+00  0.00000000000E+00  0.22151838033E+04  0.22151838033E+04  0.25500000920E-02 0.  1.
        2   -1    0    0  501    0  0.00000000000E+00  0.00000000000E+00 -0.14646342825E+04  0.14646342825E+04  0.25500000920E-02 0. -1.
    10030    2    1    2    0    0  0.00000000000E+00  0.00000000000E+00  0.75054952081E+03  0.36798180858E+04  0.36024625691E+04 0.  0.
        5    1    3    3  502    0  0.61865532510E+03  0.14858422244E+04  0.12013114135E+04  0.20083905819E+04  0.46999998093E+01 0.  1.
       -5    1    3    3    0  502 -0.61865532510E+03 -0.14858422244E+04 -0.45076189266E+03  0.16714275040E+04  0.46999998093E+01 0. -1.
</event>
<event>
 5   0  0.2494592E-08  0.3599013E+04  0.7818609E-02  0.8090718E-01
        2   -1    0    0  501    0  0.00000000000E+00  0.00000000000E+00  0.20470237933E+04  0.20470237933E+04  0.25500000920E-02 0. -1.
       -2   -1    0    0    0  501  0.00000000000E+00  0.00000000000E+00 -0.15819175947E+04  0.15819175947E+04  0.25500000920E-02 0.  1.
    10030    2    1    2    0    0  0.00000000000E+00  0.00000000000E+00  0.46510619852E+03  0.36289413880E+04  0.35990126176E+04 0.  0.
        1    1    3    3  502    0  0.20580866633E+03  0.25931557969E+03 -0.15509467421E+04  0.15858869990E+04  0.50400001928E-02 0.  1.
       -1    1    3    3    0  502 -0.20580866633E+03 -0.25931557969E+03  0.20160529406E+04  0.20430543890E+04  0.50400001928E-02 0. -1.
</event>
<event>
 5   0  0.8146881E-09  0.3598392E+04  0.7818609E-02  0.8090860E-01
       -1   -1    0    0    0  501  0.00000000000E+00  0.00000000000E+00  0.11612164022E+04  0.11612164022E+04  0.50400001928E-02 0. -1.
        1   -1    0    0  501    0  0.00000000000E+00  0.00000000000E+00 -0.27876855105E+04  0.27876855105E+04  0.50400001928E-02 0.  1.
    10030    2    1    2    0    0  0.00000000000E+00  0.00000000000E+00 -0.16264691083E+04  0.39489019127E+04  0.35983919403E+04 0.  0.
        4    1    3    3  502    0 -0.10551295722E+04  0.72884031769E+03 -0.21981426397E+04  0.25448652814E+04  0.12699999809E+01 0.  1.
       -4    1    3    3    0  502  0.10551295722E+04 -0.72884031769E+03  0.57167353140E+03  0.14040366313E+04  0.12699999809E+01 0. -1.
</event>
<event>
 5   0  0.8247570E-09  0.3600829E+04  0.7818609E-02  0.8090302E-01
       -1   -1    0    0    0  501  0.00000000000E+00  0.00000000000E+00  0.12224147973E+04  0.12224147973E+04  0.50400001928E-02 0. -1.
        1   -1    0    0  501    0  0.00000000000E+00  0.00000000000E+00 -0.26517122655E+04  0.26517122655E+04  0.50400001928E-02 0.  1.
    10030    2    1    2    0    0  0.00000000000E+00  0.00000000000E+00 -0.14292974683E+04  0.38741270628E+04  0.36008289665E+04 0.  0.
        3    1    3    3  502    0 -0.12547055927E+04 -0.97207958156E+03  0.19971794805E+03  0.15997225091E+04  0.10100000352E+00 0. -1.
       -3    1    3    3    0  502  0.12547055927E+04  0.97207958156E+03 -0.16290154163E+04  0.22744045537E+04  0.10100000352E+00 0.  1.
</event>
<event>
 5   0  0.2590795E-08  0.3600004E+04  0.7818609E-02  0.8090491E-01
        2   -1    0    0  501    0  0.00000000000E+00  0.00000000000E+00  0.15928828880E+04  0.15928828880E+04  0.25500000920E-02 0. -1.
       -2   -1    0    0    0  501  0.00000000000E+00  0.00000000000E+00 -0.20340518518E+04  0.20340518518E+04  0.25500000920E-02 0.  1.
    10030    2    1    2    0    0  0.00000000000E+00  0.00000000000E+00 -0.44116896376E+03  0.36269347398E+04  0.36000035489E+04 0.  0.
        4    1    3    3  502    0  0.94626790960E+03  0.19459096650E+03  0.13095651171E+04  0.16273447729E+04  0.12699999809E+01 0. -1.
       -4    1    3    3    0  502 -0.94626790960E+03 -0.19459096650E+03 -0.17507340809E+04  0.19995899669E+04  0.12699999809E+01 0.  1.
</event>
<event>
 5   0  0.2608070E-08  0.3597994E+04  0.7818609E-02  0.8090951E-01
        2   -1    0    0  501    0  0.00000000000E+00  0.00000000000E+00  0.25156540180E+04  0.25156540180E+04  0.25500000920E-02 0.  1.
       -2   -1    0    0    0  501  0.00000000000E+00  0.00000000000E+00 -0.12865001769E+04  0.12865001769E+04  0.25500000920E-02 0. -1.
    10030    2    1    2    0    0  0.00000000000E+00  0.00000000000E+00  0.12291538411E+04  0.38021541949E+04  0.35979935182E+04 0.  0.
        3    1    3    3  502    0 -0.17972748136E+03  0.16916036364E+04 -0.39242497335E+01  0.17011291074E+04  0.10100000352E+00 0. -1.
       -3    1    3    3    0  502  0.17972748136E+03 -0.16916036364E+04  0.12330780908E+04  0.21010250875E+04  0.10100000352E+00 0.  1.
</event>
<event>
 5   0  0.2476968E-08  0.3599031E+04  0.7818609E-02  0.8090714E-01
        2   -1    0    0  501    0  0.00000000000E+00  0.00000000000E+00  0.25813021450E+04  0.25813021450E+04  0.25500000920E-02 0.  1.
       -2   -1    0    0    0  501  0.00000000000E+00  0.00000000000E+00 -0.12545045174E+04  0.12545045174E+04  0.25500000920E-02 0. -1.
    10030    2    1    2    0    0  0.00000000000E+00  0.00000000000E+00  0.13267976276E+04  0.38358066624E+04  0.35990305371E+04 0.  0.
        2    1    3    3  502    0 -0.11835425630E+04 -0.78131580814E+03  0.18439868578E+04  0.23262663051E+04  0.25500000920E-02 0.  1.
       -2    1    3    3    0  502  0.11835425630E+04  0.78131580814E+03 -0.51718923027E+03  0.15095403573E+04  0.25500000920E-02 0. -1.
</event>
<event>
 5   0  0.2476968E-08  0.3598835E+04  0.7818609E-02  0.8090759E-01
        2   -1    0    0  501    0  0.00000000000E+00  0.00000000000E+00  0.21048110894E+04  0.21048110894E+04  0.25500000920E-02 0.  1.
       -2   -1    0    0    0  501  0.00000000000E+00  0.00000000000E+00 -0.15383345105E+04  0.15383345105E+04  0.25500000920E-02 0. -1.
    10030    2    1    2    0    0  0.00000000000E+00  0.00000000000E+00  0.56647657890E+03  0.36431455998E+04  0.35988351098E+04 0.  0.
        2    1    3    3  502    0  0.61172050107E+03  0.11687967543E+04  0.15220770173E+04  0.20142011496E+04  0.25500000920E-02 0.  1.
       -2    1    3    3    0  502 -0.61172050107E+03 -0.11687967543E+04 -0.95560043841E+03  0.16289444503E+04  0.25500000920E-02 0. -1.
</event>
<event>
 5   0  0.2590795E-08  0.3599493E+04  0.7818609E-02  0.8090608E-01
       -2   -1    0    0    0  501  0.00000000000E+00  0.00000000000E+00  0.17226070471E+04  0.17226070471E+04  0.25500000920E-02 0.  1.
        2   -1    0    0  501    0  0.00000000000E+00  0.00000000000E+00 -0.18803399963E+04  0.18803399963E+04  0.25500000920E-02 0. -1.
    10030    2    1    2    0    0  0.00000000000E+00  0.00000000000E+00 -0.15773294915E+03  0.36029470434E+04  0.35994927024E+04 0.  0.
        4    1    3    3  502    0  0.91704918019E+02  0.16093979460E+04  0.72222261813E+03  0.17664027467E+04  0.12699999809E+01 0.  1.
       -4    1    3    3    0  502 -0.91704918019E+02 -0.16093979460E+04 -0.87995556729E+03  0.18365442967E+04  0.12699999809E+01 0. -1.
</event>
<event>
 5   0  0.2482243E-08  0.3602145E+04  0.7818609E-02  0.8090000E-01
       -2   -1    0    0    0  501  0.00000000000E+00  0.00000000000E+00  0.16839795257E+04  0.16839795257E+04  0.25500000920E-02 0.  1.
        2   -1    0    0  501    0  0.00000000000E+00  0.00000000000E+00 -0.19263075130E+04  0.19263075130E+04  0.25500000920E-02 0. -1.
    10030    2    1    2    0    0  0.00000000000E+00  0.00000000000E+00 -0.24232798734E+03  0.36102870387E+04  0.36021451453E+04 0.  0.
        5    1    3    3  502    0 -0.16744213366E+04 -0.24633058217E+02  0.54331773951E+03  0.17605424892E+04  0.46999998093E+01 0.  1.
       -5    1    3    3    0  502  0.16744213366E+04  0.24633058217E+02 -0.78564572685E+03  0.18497445495E+04  0.46999998093E+01 0. -1.
</event>
<event>
 5   0  0.2482243E-08  0.3609360E+04  0.7818609E-02  0.8088351E-01
       -2   -1    0    0    0  501  0.00000000000E+00  0.00000000000E+00  0.15968022582E+04  0.15968022582E+04  0.25500000920E-02 0.  1.
        2   -1    0    0  501    0  0.00000000000E+00  0.00000000000E+00 -0.20396200909E+04  0.20396200909E+04  0.25500000920E-02 0. -1.
    10030    2    1    2    0    0  0.00000000000E+00  0.00000000000E+00 -0.44281783262E+03  0.36364223491E+04  0.36093600358E+04 0.  0.
        5    1    3    3  502    0 -0.13778090652E+04 -0.11590127614E+04 -0.97280132374E+02  0.18030956479E+04  0.46999998093E+01 0.  1.
       -5    1    3    3    0  502  0.13778090652E+04  0.11590127614E+04 -0.34553770025E+03  0.18333267012E+04  0.46999998093E+01 0. -1.
</event>
<event>
 5   0  0.2608070E-08  0.3603043E+04  0.7818609E-02  0.8089795E-01
        2   -1    0    0  501    0  0.00000000000E+00  0.00000000000E+00  0.34264396565E+04  0.34264396565E+04  0.25500000920E-02 0. -1.
       -2   -1    0    0    0  501  0.00000000000E+00  0.00000000000E+00 -0.94718720941E+03  0.94718720942E+03  0.25500000920E-02 0.  1.
    10030    2    1    2    0    0  0.00000000000E+00  0.00000000000E+00  0.24792524471E+04  0.43736268659E+04  0.36030430563E+04 0.  0.
        3    1    3    3  502    0 -0.13089706951E+04 -0.49184151027E+03  0.26184073114E+04  0.29683950564E+04  0.10100000352E+00 0. -1.
       -3    1    3    3    0  502  0.13089706951E+04  0.49184151027E+03 -0.13915486439E+03  0.14052318095E+04  0.10100000352E+00 0.  1.
</event>
<event>
 5   0  0.8024500E-09  0.3600099E+04  0.7818609E-02  0.8090469E-01
        1   -1    0    0  501    0  0.00000000000E+00  0.00000000000E+00  0.21149186801E+04  0.21149186801E+04  0.50400001928E-02 0. -1.
       -1   -1    0    0    0  501  0.00000000000E+00  0.00000000000E+00 -0.15320581709E+04  0.15320581709E+04  0.50400001928E-02 0.  1.
    10030    2    1    2    0    0  0.00000000000E+00  0.00000000000E+00  0.58286050924E+03  0.36469768510E+04  0.36000991346E+04 0.  0.
        1    1    3    3  502    0  0.17719457626E+04  0.31574301663E+03  0.31809805282E+03  0.18277504779E+04  0.50400001928E-02 0. -1.
       -1    1    3    3    0  502 -0.17719457626E+04 -0.31574301663E+03  0.26476245642E+03  0.18192263731E+04  0.50400001928E-02 0.  1.
</event>
<event>
 5   0  0.8024500E-09  0.3598668E+04  0.7818609E-02  0.8090797E-01
       -1   -1    0    0    0  501  0.00000000000E+00  0.00000000000E+00  0.14206115366E+04  0.14206115366E+04  0.50400001928E-02 0. -1.
        1   -1    0    0  501    0  0.00000000000E+00  0.00000000000E+00 -0.22790204867E+04  0.22790204867E+04  0.50400001928E-02 0.  1.
    10030    2    1    2    0    0  0.00000000000E+00  0.00000000000E+00 -0.85840895009E+03  0.36996320232E+04  0.35986679733E+04 0.  0.
        1    1    3    3  502    0 -0.13148495446E+04 -0.83701993424E+03 -0.13534096783E+04  0.20642551810E+04  0.50400001928E-02 0.  1.
       -1    1    3    3    0  502  0.13148495446E+04  0.83701993424E+03  0.49500072817E+03  0.16353768422E+04  0.50400001928E-02 0. -1.
</event>
<event>
 5   0  0.2476968E-08  0.3594310E+04  0.7818609E-02  0.8091796E-01
        2   -1    0    0  501    0  0.00000000000E+00  0.00000000000E+00  0.17991416705E+04  0.17991416706E+04  0.25500000920E-02 0.  1.
       -2   -1    0    0    0  501  0.00000000000E+00  0.00000000000E+00 -0.17951709418E+04  0.17951709418E+04  0.25500000920E-02 0. -1.
    10030    2    1    2    0    0  0.00000000000E+00  0.00000000000E+00  0.39707287744E+01  0.35943126123E+04  0.35943104190E+04 0.  0.
        2    1    3    3  502    0  0.55500702263E+03  0.17036368587E+04  0.14110951524E+03  0.17973100002E+04  0.25500000920E-02 0.  1.
       -2    1    3    3    0  502 -0.55500702263E+03 -0.17036368587E+04 -0.13713878647E+03  0.17970026122E+04  0.25500000920E-02 0. -1.
</event>
<event>
 5   0  0.2590795E-08  0.3600943E+04  0.7818609E-02  0.8090276E-01
       -2   -1    0    0    0  501  0.00000000000E+00  0.00000000000E+00  0.11279876225E+04  0.11279876225E+04  0.25500000920E-02 0. -1.
        2   -1    0    0  501    0  0.00000000000E+00  0.00000000000E+00 -0.28738764671E+04  0.28738764671E+04  0.25500000920E-02 0.  1.
    10030    2    1    2    0    0  0.00000000000E+00  0.00000000000E+00 -0.17458888446E+04  0.40018640896E+04  0.36009427007E+04 0.  0.
        4    1    3    3  502    0  0.44814084218E+03 -0.13486658680E+03 -0.28050993277E+04  0.28438711401E+04  0.12699999809E+01 0.  1.
       -4    1    3    3    0  502 -0.44814084218E+03  0.13486658680E+03  0.10592104830E+04  0.11579929494E+04  0.12699999809E+01 0. -1.
</event>
<event>
 5   0  0.8024500E-09  0.3599157E+04  0.7818609E-02  0.8090685E-01
       -1   -1    0    0    0  501  0.00000000000E+00  0.00000000000E+00  0.15063233096E+04  0.15063233096E+04  0.50400001928E-02 0.  1.
        1   -1    0    0  501    0  0.00000000000E+00  0.00000000000E+00 -0.21499259208E+04  0.21499259208E+04  0.50400001928E-02 0. -1.
    10030    2    1    2    0    0  0.00000000000E+00  0.00000000000E+00 -0.64360261125E+03  0.36562492304E+04  0.35991574172E+04 0.  0.
        5    1    3    3  502    0  0.59881134171E+03 -0.92139423498E+03 -0.17695102576E+04  0.20829620738E+04  0.46999998093E+01 0. -1.
       -5    1    3    3    0  502 -0.59881134171E+03  0.92139423498E+03  0.11259076463E+04  0.15732871566E+04  0.46999998093E+01 0.  1.
</event>
<event>
 5   0  0.2494592E-08  0.3599766E+04  0.7818609E-02  0.8090545E-01
       -2   -1    0    0    0  501  0.00000000000E+00  0.00000000000E+00  0.18373065900E+04  0.18373065900E+04  0.25500000920E-02 0. -1.
        2   -1    0    0  501    0  0.00000000000E+00  0.00000000000E+00 -0.17632215008E+04  0.17632215008E+04  0.25500000920E-02 0.  1.
    10030    2    1    2    0    0  0.00000000000E+00  0.00000000000E+00  0.74085089191E+02  0.36005280909E+04  0.35997658164E+04 0.  0.
        1    1    3    3  502    0 -0.56571914642E+03 -0.33948392898E+03 -0.16379138050E+04  0.17657998537E+04  0.50400001928E-02 0.  1.
       -1    1    3    3    0  502  0.56571914642E+03  0.33948392898E+03  0.17119988942E+04  0.18347282372E+04  0.50400001928E-02 0. -1.
</event>
<event>
 5   0  0.8024500E-09  0.3599860E+04  0.7818609E-02  0.8090524E-01
        1   -1    0    0  501    0  0.00000000000E+00  0.00000000000E+00  0.19013847963E+04  0.19013847963E+04  0.50400001928E-02 0. -1.
       -1   -1    0    0    0  501  0.00000000000E+00  0.00000000000E+00 -0.17038882798E+04  0.17038882798E+04  0.50400001928E-02 0.  1.
    10030    2    1    2    0    0  0.00000000000E+00  0.00000000000E+00  0.19749651650E+03  0.36052730761E+04  0.35998595916E+04 0.  0.
        5    1    3    3  502    0  0.71040489587E+03 -0.16219776744E+04  0.42209363360E+03  0.18203493670E+04  0.46999998093E+01 0. -1.
       -5    1    3    3    0  502 -0.71040489587E+03  0.16219776744E+04 -0.22459711710E+03  0.17849237091E+04  0.46999998093E+01 0.  1.
</event>
<event>
 5   0  0.8146881E-09  0.3600234E+04  0.7818609E-02  0.8090438E-01
       -1   -1    0    0    0  501  0.00000000000E+00  0.00000000000E+00  0.17996129363E+04  0.17996129363E+04  0.50400001928E-02 0.  1.
        1   -1    0    0  501    0  0.00000000000E+00  0.00000000000E+00 -0.18006213769E+04  0.18006213769E+04  0.50400001928E-02 0. -1.
    10030    2    1    2    0    0  0.00000000000E+00  0.00000000000E+00 -0.10084406448E+01  0.36002343132E+04  0.36002341719E+04 0.  0.
        4    1    3    3  502    0  0.14709976870E+04 -0.34751347985E+03 -0.97816478071E+03  0.18003910034E+04  0.12699999809E+01 0. -1.
       -4    1    3    3    0  502 -0.14709976870E+04  0.34751347985E+03  0.97715634006E+03  0.17998433098E+04  0.12699999809E+01 0.  1.
</event>
<event>
 5   0  0.8024500E-09  0.3599911E+04  0.7818609E-02  0.8090512E-01
        1   -1    0    0  501    0  0.00000000000E+00  0.00000000000E+00  0.14474252257E+04  0.14474252258E+04  0.50400001928E-02 0.  1.
       -1   -1    0    0    0  501  0.00000000000E+00  0.00000000000E+00 -0.22383469338E+04  0.22383469338E+04  0.50400001928E-02 0. -1.
    10030    2    1    2    0    0  0.00000000000E+00  0.00000000000E+00 -0.79092170801E+03  0.36857721595E+04  0.35999110077E+04 0.  0.
        1    1    3    3  502    0 -0.69965221451E+02 -0.16608330750E+04  0.31135095682E+03  0.16912128942E+04  0.50400001928E-02 0. -1.
       -1    1    3    3    0  502  0.69965221451E+02  0.16608330750E+04 -0.11022726648E+04  0.19945592653E+04  0.50400001928E-02 0.  1.
</event>
<event>
 5   0  0.8024500E-09  0.3600843E+04  0.7818609E-02  0.8090299E-01
        1   -1    0    0  501    0  0.00000000000E+00  0.00000000000E+00  0.11841622218E+04  0.11841622218E+04  0.50400001928E-02 0.  1.
       -1   -1    0    0    0  501  0.00000000000E+00  0.00000000000E+00 -0.27373928913E+04  0.27373928913E+04  0.50400001928E-02 0. -1.
    10030    2    1    2    0    0  0.00000000000E+00  0.00000000000E+00 -0.15532306696E+04  0.39215551131E+04  0.36008428169E+04 0.  0.
        1    1    3    3  502    0  0.65256282466E+03 -0.72336517765E+02 -0.26023674612E+04  0.26839126690E+04  0.50400001928E-02 0. -1.
       -1    1    3    3    0  502 -0.65256282466E+03  0.72336517765E+02  0.10491367916E+04  0.12376424441E+04  0.50400001928E-02 0.  1.
</event>
<event>
 5   0  0.8024500E-09  0.3597993E+04  0.7818609E-02  0.8090952E-01
        1   -1    0    0  501    0  0.00000000000E+00  0.00000000000E+00  0.26713042626E+04  0.26713042626E+04  0.50400001928E-02 0. -1.
       -1   -1    0    0    0  501  0.00000000000E+00  0.00000000000E+00 -0.12115385023E+04  0.12115385023E+04  0.50400001928E-02 0.  1.
    10030    2    1    2    0    0  0.00000000000E+00  0.00000000000E+00  0.14597657603E+04  0.38828427650E+04  0.35979927546E+04 0.  0.
        1    1    3    3  502    0  0.14300195289E+04 -0.78291402019E+03 -0.90908617964E+02  0.16328424887E+04  0.50400001928E-02 0.  1.
       -1    1    3    3    0  502 -0.14300195289E+04  0.78291402019E+03  0.15506743783E+04  0.22500002763E+04  0.50400001928E-02 0. -1.
</event>
<event>
 5   0  0.8063410E-09  0.3600794E+04  0.7818609E-02  0.8090310E-01
       -1   -1    0    0    0  501  0.00000000000E+00  0.00000000000E+00  0.12866073389E+04  0.12866073389E+04  0.50400001928E-02 0. -1.
        1   -1    0    0  501    0  0.00000000000E+00  0.00000000000E+00 -0.25193622791E+04  0.25193622791E+04  0.50400001928E-02 0.  1.
    10030    2    1    2    0    0  0.00000000000E+00  0.00000000000E+00 -0.12327549402E+04  0.38059696180E+04  0.36007943555E+04 0.  0.
        2    1    3    3  502    0  0.13486217504E+04 -0.94041039057E+03  0.15910177638E+03  0.16518067997E+04  0.25500000920E-02 0. -1.
       -2    1    3    3    0  502 -0.13486217504E+04  0.94041039057E+03 -0.13918567166E+04  0.21541628183E+04  0.25500000920E-02 0.  1.
</event>
<event>
 5   0  0.8024500E-09  0.3599502E+04  0.7818609E-02  0.8090606E-01
       -1   -1    0    0    0  501  0.00000000000E+00  0.00000000000E+00  0.13325944607E+04  0.13325944607E+04  0.50400001928E-02 0. -1.
        1   -1    0    0  501    0  0.00000000000E+00  0.00000000000E+00 -0.24306748365E+04  0.24306748365E+04  0.50400001928E-02 0.  1.
    10030    2    1    2    0    0  0.00000000000E+00  0.00000000000E+00 -0.10980803758E+04  0.37632692972E+04  0.35995020894E+04 0.  0.
        5    1    3    3  502    0  0.77694171748E+03 -0.14134752503E+04 -0.13838230542E+04  0.21252150600E+04  0.46999998093E+01 0. -1.
       -5    1    3    3    0  502 -0.77694171748E+03  0.14134752503E+04  0.28574267847E+03  0.16380542372E+04  0.46999998093E+01 0.  1.
</event>
<event>
 5   0  0.2608070E-08  0.3596673E+04  0.7818609E-02  0.8091254E-01
        2   -1    0    0  501    0  0.00000000000E+00  0.00000000000E+00  0.23717063603E+04  0.23717063603E+04  0.25500000920E-02 0.  1.
       -2   -1    0    0    0  501  0.00000000000E+00  0.00000000000E+00 -0.13635808701E+04  0.13635808701E+04  0.25500000920E-02 0. -1.
    10030    2    1    2    0    0  0.00000000000E+00  0.00000000000E+00  0.10081254902E+04  0.37352872304E+04  0.35966725859E+04 0.  0.
        3    1    3    3  502    0  0.51987414115E+03  0.11509592971E+04  0.18336519348E+04  0.22264895810E+04  0.10100000352E+00 0.  1.
       -3    1    3    3    0  502 -0.51987414115E+03 -0.11509592971E+04 -0.82552644454E+03  0.15087976494E+04  0.10100000352E+00 0. -1.
</event>
<event>
 5   0  0.8247570E-09  0.3598140E+04  0.7818609E-02  0.8090918E-01
       -1   -1    0    0    0  501  0.00000000000E+00  0.00000000000E+00  0.22916163779E+04  0.22916163779E+04  0.50400001928E-02 0.  1.
        1   -1    0    0  501    0  0.00000000000E+00  0.00000000000E+00 -0.14123887093E+04  0.14123887093E+04  0.50400001928E-02 0. -1.
    10030    2    1    2    0    0  0.00000000000E+00  0.00000000000E+00  0.87922766859E+03  0.37040050872E+04  0.35981401297E+04 0.  0.
        3    1    3    3  502    0 -0.13394620415E+03 -0.13791171624E+02 -0.14071939471E+04  0.14136218012E+04  0.10100000352E+00 0. -1.
       -3    1    3    3    0  502  0.13394620415E+03  0.13791171624E+02  0.22864216157E+04  0.22903832860E+04  0.10100000352E+00 0.  1.
</event>
<event>
 5   0  0.8063410E-09  0.3599148E+04  0.7818609E-02  0.8090687E-01
        1   -1    0    0  501    0  0.00000000000E+00  0.00000000000E+00  0.23285209253E+04  0.23285209253E+04  0.50400001928E-02 0. -1.
       -1   -1    0    0    0  501  0.00000000000E+00  0.00000000000E+00 -0.13907828633E+04  0.13907828633E+04  0.50400001928E-02 0.  1.
    10030    2    1    2    0    0  0.00000000000E+00  0.00000000000E+00  0.93773806198E+03  0.37193037886E+04  0.35991482324E+04 0.  0.
        2    1    3    3  502    0 -0.87611499055E+03 -0.19401726690E+03  0.20808317799E+04  0.22660717272E+04  0.25500000920E-02 0. -1.
       -2    1    3    3    0  502  0.87611499055E+03  0.19401726690E+03 -0.11430937179E+04  0.14532320614E+04  0.25500000920E-02 0.  1.
</event>
<event>
 5   0  0.2482243E-08  0.3605067E+04  0.7818609E-02  0.8089332E-01
       -2   -1    0    0    0  501  0.00000000000E+00  0.00000000000E+00  0.15525993207E+04  0.15525993207E+04  0.25500000920E-02 0. -1.
        2   -1    0    0  501    0  0.00000000000E+00  0.00000000000E+00 -0.20927013789E+04  0.20927013789E+04  0.25500000920E-02 0.  1.
    10030    2    1    2    0    0  0.00000000000E+00  0.00000000000E+00 -0.54010205825E+03  0.36453006996E+04  0.36050668450E+04 0.  0.
        5    1    3    3  502    0 -0.66807643642E+03 -0.11067432215E+04 -0.15402141396E+04  0.20108427012E+04  0.46999998093E+01 0.  1.
       -5    1    3    3    0  502  0.66807643642E+03  0.11067432215E+04  0.10001120813E+04  0.16344579984E+04  0.46999998093E+01 0. -1.
</event>
<event>
 5   0  0.2608070E-08  0.3585536E+04  0.7818609E-02  0.8093813E-01
       -2   -1    0    0    0  501  0.00000000000E+00  0.00000000000E+00  0.11480490261E+04  0.11480490261E+04  0.25500000920E-02 0. -1.
        2   -1    0    0  501    0  0.00000000000E+00  0.00000000000E+00 -0.27995473804E+04  0.27995473804E+04  0.25500000920E-02 0.  1.
    10030    2    1    2    0    0  0.00000000000E+00  0.00000000000E+00 -0.16514983543E+04  0.39475964065E+04  0.35855363021E+04 0.  0.
        3    1    3    3  502    0 -0.29946984503E+02  0.13837867192E+04  0.42871609835E+03  0.14489858555E+04  0.10100000352E+00 0. -1.
       -3    1    3    3    0  502  0.29946984503E+02 -0.13837867192E+04 -0.20802144527E+04  0.24986105510E+04  0.10100000352E+00 0.  1.
</event>
<event>
 5   0  0.8024500E-09  0.3600127E+04  0.7818609E-02  0.8090463E-01
       -1   -1    0    0    0  501  0.00000000000E+00  0.00000000000E+00  0.20205857746E+04  0.20205857746E+04  0.50400001928E-02 0.  1.
        1   -1    0    0  501    0  0.00000000000E+00  0.00000000000E+00 -0.16036083628E+04  0.16036083628E+04  0.50400001928E-02 0. -1.
    10030    2    1    2    0    0  0.00000000000E+00  0.00000000000E+00  0.41697741176E+03  0.36241941374E+04  0.36001268011E+04 0.  0.
        1    1    3    3  502    0  0.17708741621E+04  0.27016713230E+03  0.38642630155E+03  0.18325694704E+04  0.50400001928E-02 0. -1.
       -1    1    3    3    0  502 -0.17708741621E+04 -0.27016713230E+03  0.30551110213E+02  0.17916246670E+04  0.50400001928E-02 0.  1.
</event>
<event>
 5   0  0.2590795E-08  0.3602066E+04  0.7818609E-02  0.8090019E-01
        2   -1    0    0  501    0  0.00000000000E+00  0.00000000000E+00  0.20176952152E+04  0.20176952152E+04  0.25500000920E-02 0.  1.
       -2   -1    0    0    0  501  0.00000000000E+00  0.00000000000E+00 -0.16076358346E+04  0.16076358346E+04  0.25500000920E-02 0. -1.
    10030    2    1    2    0    0  0.00000000000E+00  0.00000000000E+00  0.41005938056E+03  0.36253310498E+04  0.36020655914E+04 0.  0.
        4    1    3    3  502    0 -0.70089457329E+03  0.11450077854E+04 -0.10033169800E+04  0.16759900378E+04  0.12699999809E+01 0. -1.
       -4    1    3    3    0  502  0.70089457329E+03 -0.11450077854E+04  0.14133763606E+04  0.19493410120E+04  0.12699999809E+01 0.  1.
</event>
<event>
 5   0  0.2494592E-08  0.3608304E+04  0.7818609E-02  0.8088592E-01
       -2   -1    0    0    0  501  0.00000000000E+00  0.00000000000E+00  0.21684987114E+04  0.21684987114E+04  0.25500000920E-02 0.  1.
        2   -1    0    0  501    0  0.00000000000E+00  0.00000000000E+00 -0.15010217270E+04  0.15010217270E+04  0.25500000920E-02 0. -1.
    10030    2    1    2    0    0  0.00000000000E+00  0.00000000000E+00  0.66747698441E+03  0.36695204385E+04  0.36083035798E+04 0.  0.
        1    1    3    3  502    0  0.11271160615E+04  0.14038211040E+04  0.45346161325E+03  0.18565375684E+04  0.50400001928E-02 0. -1.
       -1    1    3    3    0  502 -0.11271160615E+04 -0.14038211040E+04  0.21401537116E+03  0.18129828701E+04  0.50400001928E-02 0.  1.
</event>
<event>
 5   0  0.2608070E-08  0.3596178E+04  0.7818609E-02  0.8091368E-01
        2   -1    0    0  501    0  0.00000000000E+00  0.00000000000E+00  0.21726084920E+04  0.21726084920E+04  0.25500000920E-02 0.  1.
       -2   -1    0    0    0  501  0.00000000000E+00  0.00000000000E+00 -0.14881297611E+04  0.14881297611E+04  0.25500000920E-02 0. -1.
    10030    2    1    2    0    0  0.00000000000E+00  0.00000000000E+00  0.68447873090E+03  0.36607382530E+04  0.35961776130E+04 0.  0.
        3    1    3    3  502    0  0.15626463005E+04  0.41825378213E+03  0.11413961009E+04  0.19797941196E+04  0.10100000352E+00 0.  1.
       -3    1    3    3    0  502 -0.15626463005E+04 -0.41825378213E+03 -0.45691736996E+03  0.16809441335E+04  0.10100000352E+00 0. -1.
</event>
<event>
 5   0  0.8024500E-09  0.3601013E+04  0.7818609E-02  0.8090260E-01
       -1   -1    0    0    0  501  0.00000000000E+00  0.00000000000E+00  0.13841060950E+04  0.13841060950E+04  0.50400001928E-02 0. -1.
        1   -1    0    0  501    0  0.00000000000E+00  0.00000000000E+00 -0.23421780044E+04  0.23421780044E+04  0.50400001928E-02 0.  1.
    10030    2    1    2    0    0  0.00000000000E+00  0.00000000000E+00 -0.95807190937E+03  0.37262840994E+04  0.36010125529E+04 0.  0.
        5    1    3    3  502    0  0.24305187469E+03 -0.99546596164E+03  0.10529303742E+04  0.14692553071E+04  0.46999998093E+01 0. -1.
       -5    1    3    3    0  502 -0.24305187469E+03  0.99546596164E+03 -0.20110022836E+04  0.22570287923E+04  0.46999998093E+01 0.  1.
</event>
<event>
 5   0  0.8063410E-09  0.3599667E+04  0.7818609E-02  0.8090568E-01
        1   -1    0    0  501    0  0.00000000000E+00  0.00000000000E+00  0.21338175544E+04  0.21338175544E+04  0.50400001928E-02 0.  1.
       -1   -1    0    0    0  501  0.00000000000E+00  0.00000000000E+00 -0.15181241273E+04  0.15181241273E+04  0.50400001928E-02 0. -1.
    10030    2    1    2    0    0  0.00000000000E+00  0.00000000000E+00  0.61569342708E+03  0.36519416816E+04  0.35996666026E+04 0.  0.
        2    1    3    3  502    0 -0.63331181019E+03  0.13539872679E+04  0.13249195348E+04  0.19974426510E+04  0.25500000920E-02 0.  1.
       -2    1    3    3    0  502  0.63331181019E+03 -0.13539872679E+04 -0.70922610770E+03  0.16544990306E+04  0.25500000920E-02 0. -1.
</event>
<event>
 5   0  0.8247570E-09  0.3598600E+04  0.7818609E-02  0.8090812E-01
        1   -1    0    0  501    0  0.00000000000E+00  0.00000000000E+00  0.22053762908E+04  0.22053762908E+04  0.50400001928E-02 0. -1.
       -1   -1    0    0    0  501  0.00000000000E+00  0.00000000000E+00 -0.14679949432E+04  0.14679949432E+04  0.50400001928E-02 0.  1.
    10030    2    1    2    0    0  0.00000000000E+00  0.00000000000E+00  0.73738134767E+03  0.36733712340E+04  0.35986004184E+04 0.  0.
        3    1    3    3  502    0  0.43949147283E+03 -0.82695738128E+03  0.19369953386E+04  0.21515023163E+04  0.10100000352E+00 0. -1.
       -3    1    3    3    0  502 -0.43949147283E+03  0.82695738128E+03 -0.11996139910E+04  0.15218689177E+04  0.10100000352E+00 0.  1.
</event>
<event>
 5   0  0.2476968E-08  0.3601397E+04  0.7818609E-02  0.8090172E-01
       -2   -1    0    0    0  501  0.00000000000E+00  0.00000000000E+00  0.22573308470E+04  0.22573308470E+04  0.25500000920E-02 0. -1.
        2   -1    0    0  501    0  0.00000000000E+00  0.00000000000E+00 -0.14364379731E+04  0.14364379731E+04  0.25500000920E-02 0.  1.
    10030    2    1    2    0    0  0.00000000000E+00  0.00000000000E+00  0.82089287383E+03  0.36937688201E+04  0.36013973658E+04 0.  0.
        2    1    3    3  502    0 -0.74938568685E+03  0.12306333997E+03 -0.12641563869E+04  0.14747253520E+04  0.25500000920E-02 0.  1.
       -2    1    3    3    0  502  0.74938568685E+03 -0.12306333997E+03  0.20850492608E+04  0.22190434681E+04  0.25500000920E-02 0. -1.
</event>
<event>
 5   0  0.2590795E-08  0.3599649E+04  0.7818609E-02  0.8090572E-01
        2   -1    0    0  501    0  0.00000000000E+00  0.00000000000E+00  0.23959632759E+04  0.23959632759E+04  0.25500000920E-02 0. -1.
       -2   -1    0    0    0  501  0.00000000000E+00  0.00000000000E+00 -0.13520110892E+04  0.13520110892E+04  0.25500000920E-02 0.  1.
    10030    2    1    2    0    0  0.00000000000E+00  0.00000000000E+00  0.10439521867E+04  0.37479743651E+04  0.35996493821E+04 0.  0.
        4    1    3    3  502    0 -0.51740493228E+03  0.17169689479E+04  0.36176210871E+03  0.18293615466E+04  0.12699999809E+01 0. -1.
       -4    1    3    3    0  502  0.51740493228E+03 -0.17169689479E+04  0.68219007794E+03  0.19186128185E+04  0.12699999809E+01 0.  1.
</event>
<event>
 5   0  0.8063410E-09  0.3600219E+04  0.7818609E-02  0.8090442E-01
        1   -1    0    0  501    0  0.00000000000E+00  0.00000000000E+00  0.18663552526E+04  0.18663552526E+04  0.50400001928E-02 0. -1.
       -1   -1    0    0    0  501  0.00000000000E+00  0.00000000000E+00 -0.17362150968E+04  0.17362150968E+04  0.50400001928E-02 0.  1.
    10030    2    1    2    0    0  0.00000000000E+00  0.00000000000E+00  0.13014015574E+03  0.36025703494E+04  0.36002189742E+04 0.  0.
        2    1    3    3  502    0 -0.24201696313E+03 -0.84966943884E+03  0.16344961029E+04  0.18579795144E+04  0.25500000920E-02 0. -1.
       -2    1    3    3    0  502  0.24201696313E+03  0.84966943884E+03 -0.15043559471E+04  0.17445908350E+04  0.25500000920E-02 0.  1.
</event>
<event>
 5   0  0.8024500E-09  0.3599370E+04  0.7818609E-02  0.8090636E-01
       -1   -1    0    0    0  501  0.00000000000E+00  0.00000000000E+00  0.96986320347E+03  0.96986320349E+03  0.50400001928E-02 0. -1.
        1   -1    0    0  501    0  0.00000000000E+00  0.00000000000E+00 -0.33395072599E+04  0.33395072599E+04  0.50400001928E-02 0.  1.
    10030    2    1    2    0    0  0.00000000000E+00  0.00000000000E+00 -0.23696440565E+04  0.43093704634E+04  0.35993695054E+04 0.  0.
        5    1    3    3  502    0 -0.12300965104E+04  0.12859097581E+04 -0.86324808656E+03  0.19778575985E+04  0.46999998093E+01 0.  1.
       -5    1    3    3    0  502  0.12300965104E+04 -0.12859097581E+04 -0.15063959699E+04  0.23315128649E+04  0.46999998093E+01 0. -1.
</event>
<event>
 5   0  0.8063410E-09  0.3595023E+04  0.7818609E-02  0.8091633E-01
        1   -1    0    0  501    0  0.00000000000E+00  0.00000000000E+00  0.19991204767E+04  0.19991204767E+04  0.50400001928E-02 0. -1.
       -1   -1    0    0    0  501  0.00000000000E+00  0.00000000000E+00 -0.16162347256E+04  0.16162347256E+04  0.50400001928E-02 0.  1.
    10030    2    1    2    0    0  0.00000000000E+00  0.00000000000E+00  0.38288575117E+03  0.36153552023E+04  0.35950231905E+04 0.  0.
        2    1    3    3  502    0  0.53439393133E+03 -0.93424896991E+03 -0.12563693965E+04  0.16543464184E+04  0.25500000920E-02 0.  1.
       -2    1    3    3    0  502 -0.53439393133E+03  0.93424896991E+03  0.16392551476E+04  0.19610087839E+04  0.25500000920E-02 0. -1.
</event>
<event>
 5   0  0.2476968E-08  0.3600008E+04  0.7818609E-02  0.8090490E-01
        2   -1    0    0  501    0  0.00000000000E+00  0.00000000000E+00  0.20871354320E+04  0.20871354320E+04  0.25500000920E-02 0.  1.
       -2   -1    0    0    0  501  0.00000000000E+00  0.00000000000E+00 -0.15523741393E+04  0.15523741393E+04  0.25500000920E-02 0. -1.
    10030    2    1    2    0    0  0.00000000000E+00  0.00000000000E+00  0.53476129270E+03  0.36395095714E+04  0.36000083722E+04 0.  0.
        2    1    3    3  502    0  0.14041829399E+03  0.26033238435E+03  0.20623978385E+04  0.20835006820E+04  0.25500000920E-02 0.  1.
       -2    1    3    3    0  502 -0.14041829399E+03 -0.26033238435E+03 -0.15276365458E+04  0.15560088894E+04  0.25500000920E-02 0. -1.
</event>
<event>
 5   0  0.2608070E-08  0.3600031E+04  0.7818609E-02  0.8090485E-01
       -2   -1    0    0    0  501  0.00000000000E+00  0.00000000000E+00  0.13918019027E+04  0.13918019027E+04  0.25500000920E-02 0.  1.
        2   -1    0    0  501    0  0.00000000000E+00  0.00000000000E+00 -0.23279569817E+04  0.23279569817E+04  0.25500000920E-02 0. -1.
    10030    2    1    2    0    0  0.00000000000E+00  0.00000000000E+00 -0.93615507900E+03  0.37197588844E+04  0.36000305313E+04 0.  0.
        3    1    3    3  502    0 -0.12749183875E+04 -0.50545146691E+03 -0.16726790336E+04  0.21630425885E+04  0.10100000352E+00 0. -1.
       -3    1    3    3    0  502  0.12749183875E+04  0.50545146691E+03  0.73652395458E+03  0.15567162959E+04  0.10100000352E+00 0.  1.
</event>
<event>
 5   0  0.2476968E-08  0.3600237E+04  0.7818609E-02  0.8090437E-01
        2   -1    0    0  501    0  0.00000000000E+00  0.00000000000E+00  0.17710490487E+04  0.17710490487E+04  0.25500000920E-02 0.  1.
       -2   -1    0    0    0  501  0.00000000000E+00  0.00000000000E+00 -0.18296652554E+04  0.18296652554E+04  0.25500000920E-02 0. -1.
    10030    2    1    2    0    0  0.00000000000E+00  0.00000000000E+00 -0.58616206767E+02  0.36007143041E+04  0.36002371644E+04 0.  0.
        2    1    3    3  502    0  0.51438162091E+03  0.15148470387E+04 -0.85469131489E+03  0.18137936063E+04  0.25500000920E-02 0. -1.
       -2    1    3    3    0  502 -0.51438162091E+03 -0.15148470387E+04  0.79607510813E+03  0.17869206978E+04  0.25500000920E-02 0.  1.
</event>
<event>
 5   0  0.8247570E-09  0.3599532E+04  0.7818609E-02  0.8090599E-01
       -1   -1    0    0    0  501  0.00000000000E+00  0.00000000000E+00  0.17613925963E+04  0.17613925963E+04  0.50400001928E-02 0. -1.
        1   -1    0    0  501    0  0.00000000000E+00  0.00000000000E+00 -0.18389753635E+04  0.18389753635E+04  0.50400001928E-02 0.  1.
    10030    2    1    2    0    0  0.00000000000E+00  0.00000000000E+00 -0.77582767233E+02  0.36003679599E+04  0.35995319641E+04 0.  0.
        3    1    3    3  502    0  0.67101857546E+03  0.59839330614E+03 -0.15982612789E+04  0.18337883202E+04  0.10100000352E+00 0.  1.
       -3    1    3    3    0  502 -0.67101857546E+03 -0.59839330614E+03  0.15206785116E+04  0.17665796397E+04  0.10100000352E+00 0. -1.
</event>
<event>
 5   0  0.8024500E-09  0.3599678E+04  0.7818609E-02  0.8090566E-01
       -1   -1    0    0    0  501  0.00000000000E+00  0.00000000000E+00  0.15426176839E+04  0.15426176839E+04  0.50400001928E-02 0. -1.
        1   -1    0    0  501    0  0.00000000000E+00  0.00000000000E+00 -0.20999498930E+04  0.20999498930E+04  0.50400001928E-02 0.  1.
    10030    2    1    2    0    0  0.00000000000E+00  0.00000000000E+00 -0.55733220903E+03  0.36425675769E+04  0.35996776746E+04 0.  0.
        5    1    3    3  502    0  0.18871721729E+03 -0.17815645747E+04 -0.10394959754E+03  0.17945512338E+04  0.46999998093E+01 0.  1.
       -5    1    3    3    0  502 -0.18871721729E+03  0.17815645747E+04 -0.45338261150E+03  0.18480163431E+04  0.46999998093E+01 0. -1.
</event>
<event>
 5   0  0.2482243E-08  0.3597894E+04  0.7818609E-02  0.8090974E-01
       -2   -1    0    0    0  501  0.00000000000E+00  0.00000000000E+00  0.21131510677E+04  0.21131510677E+04  0.25500000920E-02 0. -1.
        2   -1    0    0  501    0  0.00000000000E+00  0.00000000000E+00 -0.15314619544E+04  0.15314619544E+04  0.25500000920E-02 0.  1.
    10030    2    1    2    0    0  0.00000000000E+00  0.00000000000E+00  0.58168911332E+03  0.36446130222E+04  0.35978940864E+04 0.  0.
        5    1    3    3  502    0  0.82000062577E+02 -0.73680987434E+03 -0.13695166540E+04  0.15573088187E+04  0.46999998093E+01 0.  1.
       -5    1    3    3    0  502 -0.82000062577E+02  0.73680987434E+03  0.19512057674E+04  0.20873042035E+04  0.46999998093E+01 0. -1.
</event>
<event>
 5   0  0.8024500E-09  0.3600095E+04  0.7818609E-02  0.8090470E-01
       -1   -1    0    0    0  501  0.00000000000E+00  0.00000000000E+00  0.27353268975E+04  0.27353268975E+04  0.50400001928E-02 0. -1.
        1   -1    0    0  501    0  0.00000000000E+00  0.00000000000E+00 -0.11845646734E+04  0.11845646734E+04  0.50400001928E-02 0.  1.
    10030    2    1    2    0    0  0.00000000000E+00  0.00000000000E+00  0.15507622242E+04  0.39198915709E+04  0.36000953393E+04 0.  0.
        5    1    3    3  502    0 -0.40959942602E+02  0.11245902952E+04  0.23050877665E+04  0.25651184671E+04  0.46999998093E+01 0. -1.
       -5    1    3    3    0  502  0.40959942602E+02 -0.11245902952E+04 -0.75432554235E+03  0.13547731038E+04  0.46999998093E+01 0.  1.
</event>
<event>
 5   0  0.8063410E-09  0.3599696E+04  0.7818609E-02  0.8090561E-01
       -1   -1    0    0    0  501  0.00000000000E+00  0.00000000000E+00  0.14991716725E+04  0.14991716725E+04  0.50400001928E-02 0. -1.
        1   -1    0    0  501    0  0.00000000000E+00  0.00000000000E+00 -0.21608286423E+04  0.21608286423E+04  0.50400001928E-02 0.  1.
    10030    2    1    2    0    0  0.00000000000E+00  0.00000000000E+00 -0.66165696980E+03  0.36600003149E+04  0.35996961482E+04 0.  0.
        2    1    3    3  502    0  0.11913457073E+04 -0.13432938629E+04 -0.20338880770E+03  0.18069615390E+04  0.25500000920E-02 0. -1.
       -2    1    3    3    0  502 -0.11913457073E+04  0.13432938629E+04 -0.45826816210E+03  0.18530387759E+04  0.25500000920E-02 0.  1.
</event>
<event>
 5   0  0.2482243E-08  0.3597973E+04  0.7818609E-02  0.8090956E-01
       -2   -1    0    0    0  501  0.00000000000E+00  0.00000000000E+00  0.12502815763E+04  0.12502815763E+04  0.25500000920E-02 0. -1.
        2   -1    0    0  501    0  0.00000000000E+00  0.00000000000E+00 -0.25884994464E+04  0.25884994464E+04  0.25500000920E-02 0.  1.
    10030    2    1    2    0    0  0.00000000000E+00  0.00000000000E+00 -0.13382178702E+04  0.38387810227E+04  0.35979734118E+04 0.  0.
        5    1    3    3  502    0  0.12848853195E+04  0.14433699950E+01  0.67428888674E+03  0.14510754495E+04  0.46999998093E+01 0. -1.
       -5    1    3    3    0  502 -0.12848853195E+04 -0.14433699950E+01 -0.20125067569E+04  0.23877055732E+04  0.46999998093E+01 0.  1.
</event>
<event>
 5   0  0.8024500E-09  0.3598735E+04  0.7818609E-02  0.8090782E-01
       -1   -1    0    0    0  501  0.00000000000E+00  0.00000000000E+00  0.22865716080E+04  0.22865716080E+04  0.50400001928E-02 0.  1.
        1   -1    0    0  501    0  0.00000000000E+00  0.00000000000E+00 -0.14159727506E+04  0.14159727506E+04  0.50400001928E-02 0. -1.
    10030    2    1    2    0    0  0.00000000000E+00  0.00000000000E+00  0.87059885739E+03  0.37025443586E+04  0.35987348273E+04 0.  0.
        1    1    3    3  502    0  0.12914033956E+03 -0.11135801959E+03  0.22782397655E+04  0.22846124978E+04  0.50400001928E-02 0.  1.
       -1    1    3    3    0  502 -0.12914033956E+03  0.11135801959E+03 -0.14076409081E+04  0.14179318608E+04  0.50400001928E-02 0. -1.
</event>
<event>
 5   0  0.2608070E-08  0.3600220E+04  0.7818609E-02  0.8090441E-01
        2   -1    0    0  501    0  0.00000000000E+00  0.00000000000E+00  0.14749731921E+04  0.14749731921E+04  0.25500000920E-02 0.  1.
       -2   -1    0    0    0  501  0.00000000000E+00  0.00000000000E+00 -0.21969188221E+04  0.21969188221E+04  0.25500000920E-02 0. -1.
    10030    2    1    2    0    0  0.00000000000E+00  0.00000000000E+00 -0.72194563004E+03  0.36718920142E+04  0.36002201976E+04 0.  0.
        3    1    3    3  502    0  0.10660950119E+04  0.11243724163E+04  0.57357897947E+03  0.16521999760E+04  0.10100000352E+00 0.  1.
       -3    1    3    3    0  502 -0.10660950119E+04 -0.11243724163E+04 -0.12955246095E+04  0.20196920382E+04  0.10100000352E+00 0. -1.
</event>
<event>
 5   0  0.2494592E-08  0.3595372E+04  0.7818609E-02  0.8091553E-01
        2   -1    0    0  501    0  0.00000000000E+00  0.00000000000E+00  0.28937928417E+04  0.28937928417E+04  0.25500000920E-02 0. -1.
       -2   -1    0    0    0  501  0.00000000000E+00  0.00000000000E+00 -0.11167612661E+04  0.11167612661E+04  0.25500000920E-02 0.  1.
    10030    2    1    2    0    0  0.00000000000E+00  0.00000000000E+00  0.17770315756E+04  0.40105541078E+04  0.35953724467E+04 0.  0.
        1    1    3    3  502    0  0.59071148569E+02 -0.15291036115E+03  0.28854386256E+04  0.28900911822E+04  0.50400001928E-02 0. -1.
       -1    1    3    3    0  502 -0.59071148569E+02  0.15291036115E+03 -0.11084070500E+04  0.11204629256E+04  0.50400001928E-02 0.  1.
</event>
<event>
 5   0  0.2608070E-08  0.3599909E+04  0.7818609E-02  0.8090513E-01
       -2   -1    0    0    0  501  0.00000000000E+00  0.00000000000E+00  0.95152917880E+03  0.95152917880E+03  0.25500000920E-02 0.  1.
        2   -1    0    0  501    0  0.00000000000E+00  0.00000000000E+00 -0.34048722925E+04  0.34048722925E+04  0.25500000920E-02 0. -1.
    10030    2    1    2    0    0  0.00000000000E+00  0.00000000000E+00 -0.24533431137E+04  0.43564014713E+04  0.35999085191E+04 0.  0.
        3    1    3    3  502    0 -0.14796333555E+03 -0.16239338812E+04 -0.30443442472E+03  0.16588353530E+04  0.10100000352E+00 0.  1.
       -3    1    3    3    0  502  0.14796333555E+03  0.16239338812E+04 -0.21489086890E+04  0.26975661183E+04  0.10100000352E+00 0. -1.
</event>
<event>
 5   0  0.8063410E-09  0.3597874E+04  0.7818609E-02  0.8090979E-01
       -1   -1    0    0    0  501  0.00000000000E+00  0.00000000000E+00  0.14166579863E+04  0.14166579863E+04  0.50400001928E-02 0.  1.
        1   -1    0    0  501    0  0.00000000000E+00  0.00000000000E+00 -0.22843725053E+04  0.22843725053E+04  0.50400001928E-02 0. -1.
    10030    2    1    2    0    0  0.00000000000E+00  0.00000000000E+00 -0.86771451901E+03  0.37010304916E+04  0.35978741241E+04 0.  0.
        2    1    3    3  502    0 -0.29107733554E+03  0.71768983168E+03  0.12363865307E+04  0.14589230148E+04  0.25500000920E-02 0.  1.
       -2    1    3    3    0  502  0.29107733554E+03 -0.71768983168E+03 -0.21041010497E+04  0.22421074767E+04  0.25500000920E-02 0. -1.
</event>
<event>
 5   0  0.2590795E-08  0.3600343E+04  0.7818609E-02  0.8090413E-01
       -2   -1    0    0    0  501  0.00000000000E+00  0.00000000000E+00  0.22984566506E+04  0.22984566506E+04  0.25500000920E-02 0. -1.
        2   -1    0    0  501    0  0.00000000000E+00  0.00000000000E+00 -0.14099099178E+04  0.14099099178E+04  0.25500000920E-02 0.  1.
    10030    2    1    2    0    0  0.00000000000E+00  0.00000000000E+00  0.88854673276E+03  0.37083665684E+04  0.36003426656E+04 0.  0.
        4    1    3    3  502    0  0.15960530901E+04  0.72135067903E+03  0.87254064850E+03  0.19567986776E+04  0.12699999809E+01 0. -1.
       -4    1    3    3    0  502 -0.15960530901E+04 -0.72135067903E+03  0.16006084262E+02  0.17515678908E+04  0.12699999809E+01 0.  1.
</event>
<event>
 5   0  0.8024500E-09  0.3595697E+04  0.7818609E-02  0.8091478E-01
        1   -1    0    0  501    0  0.00000000000E+00  0.00000000000E+00  0.16744447516E+04  0.16744447516E+04  0.50400001928E-02 0.  1.
       -1   -1    0    0    0  501  0.00000000000E+00  0.00000000000E+00 -0.19303470428E+04  0.19303470428E+04  0.50400001928E-02 0. -1.
    10030    2    1    2    0    0  0.00000000000E+00  0.00000000000E+00 -0.25590229124E+03  0.36047917944E+04  0.35956971367E+04 0.  0.
        5    1    3    3  502    0 -0.13400900726E+04 -0.42959769741E+03 -0.12496384543E+04  0.18820238948E+04  0.46999998093E+01 0. -1.
       -5    1    3    3    0  502  0.13400900726E+04  0.42959769741E+03  0.99373616305E+03  0.17227678996E+04  0.46999998093E+01 0.  1.
</event>
<event>
 5   0  0.8063410E-09  0.3598904E+04  0.7818609E-02  0.8090743E-01
       -1   -1    0    0    0  501  0.00000000000E+00  0.00000000000E+00  0.11950367289E+04  0.11950367289E+04  0.50400001928E-02 0. -1.
        1   -1    0    0  501    0  0.00000000000E+00  0.00000000000E+00 -0.27095626407E+04  0.27095626408E+04  0.50400001928E-02 0.  1.
    10030    2    1    2    0    0  0.00000000000E+00  0.00000000000E+00 -0.15145259119E+04  0.39045993696E+04  0.35989036524E+04 0.  0.
        2    1    3    3  502    0 -0.64026736715E+03  0.11683533625E+04 -0.20695644301E+04  0.24613185107E+04  0.25500000920E-02 0.  1.
       -2    1    3    3    0  502  0.64026736715E+03 -0.11683533625E+04  0.55503851818E+03  0.14432808589E+04  0.25500000920E-02 0. -1.
</event>
<event>
 5   0  0.8063410E-09  0.3600417E+04  0.7818609E-02  0.8090396E-01
        1   -1    0    0  501    0  0.00000000000E+00  0.00000000000E+00  0.14159444602E+04  0.14159444602E+04  0.50400001928E-02 0. -1.
       -1   -1    0    0    0  501  0.00000000000E+00  0.00000000000E+00 -0.22887556267E+04  0.22887556267E+04  0.50400001928E-02 0.  1.
    10030    2    1    2    0    0  0.00000000000E+00  0.00000000000E+00 -0.87281116642E+03  0.37047000869E+04  0.36004171149E+04 0.  0.
        2    1    3    3  502    0 -0.88486209724E+03  0.11506723385E+04 -0.15320098973E+04  0.21104696366E+04  0.25500000920E-02 0.  1.
       -2    1    3    3    0  502  0.88486209724E+03 -0.11506723385E+04  0.65919873092E+03  0.15942304502E+04  0.25500000920E-02 0. -1.
</event>
<event>
 5   0  0.8247570E-09  0.3600008E+04  0.7818609E-02  0.8090490E-01
        1   -1    0    0  501    0  0.00000000000E+00  0.00000000000E+00  0.23940807778E+04  0.23940807779E+04  0.50400001928E-02 0.  1.
       -1   -1    0    0    0  501  0.00000000000E+00  0.00000000000E+00 -0.13533439789E+04  0.13533439789E+04  0.50400001928E-02 0. -1.
    10030    2    1    2    0    0  0.00000000000E+00  0.00000000000E+00  0.10407367990E+04  0.37474247567E+04  0.36000082254E+04 0.  0.
        3    1    3    3  502    0  0.45094659923E+03  0.37780338482E+03  0.22911833565E+04  0.23655040512E+04  0.10100000352E+00 0.  1.
       -3    1    3    3    0  502 -0.45094659923E+03 -0.37780338482E+03 -0.12504465575E+04  0.13819207055E+04  0.10100000352E+00 0. -1.
</event>
<event>
 5   0  0.8024500E-09  0.3592854E+04  0.7818609E-02  0.8092130E-01
       -1   -1    0    0    0  501  0.00000000000E+00  0.00000000000E+00  0.24416499900E+04  0.24416499900E+04  0.50400001928E-02 0.  1.
        1   -1    0    0  501    0  0.00000000000E+00  0.00000000000E+00 -0.13217087780E+04  0.13217087780E+04  0.50400001928E-02 0. -1.
    10030    2    1    2    0    0  0.00000000000E+00  0.00000000000E+00  0.11199412120E+04  0.37633587681E+04  0.35928541438E+04 0.  0.
        5    1    3    3  502    0  0.11573693638E+04  0.11954012921E+04 -0.14939809022E+03  0.16705777362E+04  0.46999998093E+01 0. -1.
       -5    1    3    3    0  502 -0.11573693638E+04 -0.11954012921E+04  0.12693393022E+04  0.20927810319E+04  0.46999998093E+01 0.  1.
</event>
<event>
 5   0  0.2482243E-08  0.3600450E+04  0.7818609E-02  0.8090389E-01
        2   -1    0    0  501    0  0.00000000000E+00  0.00000000000E+00  0.26105790910E+04  0.26105790910E+04  0.25500000920E-02 0.  1.
       -2   -1    0    0    0  501  0.00000000000E+00  0.00000000000E+00 -0.12414144466E+04  0.12414144466E+04  0.25500000920E-02 0. -1.
    10030    2    1    2    0    0  0.00000000000E+00  0.00000000000E+00  0.13691646444E+04  0.38519935376E+04  0.36004503039E+04 0.  0.
        5    1    3    3  502    0 -0.15027799765E+03 -0.17728080361E+04  0.39089198376E+03  0.18216065553E+04  0.46999998093E+01 0. -1.
       -5    1    3    3    0  502  0.15027799765E+03  0.17728080361E+04  0.97827266059E+03  0.20303869823E+04  0.46999998093E+01 0.  1.
</event>
<event>
 5   0  0.8247570E-09  0.3602923E+04  0.7818609E-02  0.8089823E-01
       -1   -1    0    0    0  501  0.00000000000E+00  0.00000000000E+00  0.15067763022E+04  0.15067763022E+04  0.50400001928E-02 0.  1.
        1   -1    0    0  501    0  0.00000000000E+00  0.00000000000E+00 -0.21537787278E+04  0.21537787278E+04  0.50400001928E-02 0. -1.
    10030    2    1    2    0    0  0.00000000000E+00  0.00000000000E+00 -0.64700242559E+03  0.36605550300E+04  0.36029225621E+04 0.  0.
        3    1    3    3  502    0  0.13483227175E+04  0.10038520680E+04  0.33460202173E+03  0.17139578898E+04  0.10100000352E+00 0.  1.
       -3    1    3    3    0  502 -0.13483227175E+04 -0.10038520680E+04 -0.98160444732E+03  0.19465971402E+04  0.10100000352E+00 0. -1.
</event>
<event>
 5   0  0.8024500E-09  0.3602388E+04  0.7818609E-02  0.8089945E-01
        1   -1    0    0  501    0  0.00000000000E+00  0.00000000000E+00  0.18800732505E+04  0.18800732505E+04  0.50400001928E-02 0.  1.
       -1   -1    0    0    0  501  0.00000000000E+00  0.00000000000E+00 -0.17256239734E+04  0.17256239734E+04  0.50400001928E-02 0. -1.
    10030    2    1    2    0    0  0.00000000000E+00  0.00000000000E+00  0.15444927708E+03  0.36056972239E+04  0.36023878041E+04 0.  0.
        5    1    3    3  502    0  0.16354932207E+04 -0.38833064182E+03 -0.57039265477E+03  0.17751080623E+04  0.46999998093E+01 0. -1.
       -5    1    3    3    0  502 -0.16354932207E+04  0.38833064182E+03  0.72484193185E+03  0.18305891616E+04  0.46999998093E+01 0.  1.
</event>
<event>
 5   0  0.8146881E-09  0.3600038E+04  0.7818609E-02  0.8090483E-01
        1   -1    0    0  501    0  0.00000000000E+00  0.00000000000E+00  0.19560752977E+04  0.19560752977E+04  0.50400001928E-02 0. -1.
       -1   -1    0    0    0  501  0.00000000000E+00  0.00000000000E+00 -0.16564129738E+04  0.16564129738E+04  0.50400001928E-02 0.  1.
    10030    2    1    2    0    0  0.00000000000E+00  0.00000000000E+00  0.29966232398E+03  0.36124882715E+04  0.36000380558E+04 0.  0.
        4    1    3    3  502    0  0.20180054407E+03 -0.45863380370E+03 -0.15850199144E+04  0.16623351549E+04  0.12699999809E+01 0.  1.
       -4    1    3    3    0  502 -0.20180054407E+03  0.45863380370E+03  0.18846822384E+04  0.19501531166E+04  0.12699999809E+01 0. -1.
</event>
<event>
 5   0  0.8063410E-09  0.3600416E+04  0.7818609E-02  0.8090397E-01
       -1   -1    0    0    0  501  0.00000000000E+00  0.00000000000E+00  0.10403544931E+04  0.10403544931E+04  0.50400001928E-02 0.  1.
        1   -1    0    0  501    0  0.00000000000E+00  0.00000000000E+00 -0.31150421441E+04  0.31150421441E+04  0.50400001928E-02 0. -1.
    10030    2    1    2    0    0  0.00000000000E+00  0.00000000000E+00 -0.20746876510E+04  0.41553966373E+04  0.36004155821E+04 0.  0.
        2    1    3    3  502    0  0.17202426092E+04  0.52884669535E+03 -0.10867787680E+04  0.21023799733E+04  0.25500000920E-02 0. -1.
       -2    1    3    3    0  502 -0.17202426092E+04 -0.52884669535E+03 -0.98790888300E+03  0.20530166640E+04  0.25500000920E-02 0.  1.
</event>
<event>
 5   0  0.2476968E-08  0.3598398E+04  0.7818609E-02  0.8090859E-01
       -2   -1    0    0    0  501  0.00000000000E+00  0.00000000000E+00  0.15290509160E+04  0.15290509160E+04  0.25500000920E-02 0.  1.
        2   -1    0    0  501    0  0.00000000000E+00  0.00000000000E+00 -0.21170762078E+04  0.21170762078E+04  0.25500000920E-02 0. -1.
    10030    2    1    2    0    0  0.00000000000E+00  0.00000000000E+00 -0.58802529178E+03  0.36461271238E+04  0.35983981519E+04 0.  0.
        2    1    3    3  502    0 -0.11768416724E+04  0.10034368645E+04 -0.12255959998E+04  0.19733036810E+04  0.25500000920E-02 0. -1.
       -2    1    3    3    0  502  0.11768416724E+04 -0.10034368645E+04  0.63757070800E+03  0.16728234428E+04  0.25500000920E-02 0.  1.
</event>
<event>
 5   0  0.2608070E-08  0.3599695E+04  0.7818609E-02  0.8090562E-01
       -2   -1    0    0    0  501  0.00000000000E+00  0.00000000000E+00  0.10234966084E+04  0.10234966084E+04  0.25500000920E-02 0. -1.
        2   -1    0    0  501    0  0.00000000000E+00  0.00000000000E+00 -0.31650815313E+04  0.31650815313E+04  0.25500000920E-02 0.  1.
    10030    2    1    2    0    0  0.00000000000E+00  0.00000000000E+00 -0.21415849229E+04  0.41885781397E+04  0.35996945496E+04 0.  0.
        3    1    3    3  502    0 -0.83545580619E+03 -0.45980641319E+03 -0.28469555196E+04  0.30024263659E+04  0.10100000352E+00 0.  1.
       -3    1    3    3    0  502  0.83545580619E+03  0.45980641319E+03  0.70537059668E+03  0.11861517738E+04  0.10100000352E+00 0. -1.
</event>
<event>
 5   0  0.2590795E-08  0.3600546E+04  0.7818609E-02  0.8090367E-01
       -2   -1    0    0    0  501  0.00000000000E+00  0.00000000000E+00  0.18520853845E+04  0.18520853845E+04  0.25500000920E-02 0. -1.
        2   -1    0    0  501    0  0.00000000000E+00  0.00000000000E+00 -0.17499104508E+04  0.17499104508E+04  0.25500000920E-02 0.  1.
    10030    2    1    2    0    0  0.00000000000E+00  0.00000000000E+00  0.10217493371E+03  0.36019958353E+04  0.36005463864E+04 0.  0.
        4    1    3    3  502    0  0.15868781243E+04  0.24740677417E+03 -0.76262159347E+03  0.17779160838E+04  0.12699999809E+01 0.  1.
       -4    1    3    3    0  502 -0.15868781243E+04 -0.24740677417E+03  0.86479652718E+03  0.18240797515E+04  0.12699999809E+01 0. -1.
</event>
<event>
 5   0  0.8024500E-09  0.3600485E+04  0.7818609E-02  0.8090381E-01
       -1   -1    0    0    0  501  0.00000000000E+00  0.00000000000E+00  0.16044255154E+04  0.16044255154E+04  0.50400001928E-02 0.  1.
        1   -1    0    0  501    0  0.00000000000E+00  0.00000000000E+00 -0.20199584046E+04  0.20199584046E+04  0.50400001928E-02 0. -1.
    10030    2    1    2    0    0  0.00000000000E+00  0.00000000000E+00 -0.41553288919E+03  0.36243839201E+04  0.36004848588E+04 0.  0.
        5    1    3    3  502    0 -0.27207430752E+03 -0.80872742717E+03 -0.18034654640E+04  0.19951376519E+04  0.46999998093E+01 0. -1.
       -5    1    3    3    0  502  0.27207430752E+03  0.80872742717E+03  0.13879325748E+04  0.16292462682E+04  0.46999998093E+01 0.  1.
</event>
<event>
 5   0  0.2494592E-08  0.3600381E+04  0.7818609E-02  0.8090404E-01
        2   -1    0    0  501    0  0.00000000000E+00  0.00000000000E+00  0.18846969603E+04  0.18846969603E+04  0.25500000920E-02 0. -1.
       -2   -1    0    0    0  501  0.00000000000E+00  0.00000000000E+00 -0.17194728987E+04  0.17194728987E+04  0.25500000920E-02 0.  1.
    10030    2    1    2    0    0  0.00000000000E+00  0.00000000000E+00  0.16522406164E+03  0.36041698590E+04  0.36003807274E+04 0.  0.
        1    1    3    3  502    0  0.43475236414E+03  0.15476249350E+04  0.89373188537E+03  0.18392686700E+04  0.50400001928E-02 0. -1.
       -1    1    3    3    0  502 -0.43475236414E+03 -0.15476249350E+04 -0.72850782373E+03  0.17649011890E+04  0.50400001928E-02 0.  1.
</event>
<event>
 5   0  0.2482243E-08  0.3604438E+04  0.7818609E-02  0.8089476E-01
        2   -1    0    0  501    0  0.00000000000E+00  0.00000000000E+00  0.17681529277E+04  0.17681529277E+04  0.25500000920E-02 0. -1.
       -2   -1    0    0    0  501  0.00000000000E+00  0.00000000000E+00 -0.18369411465E+04  0.18369411465E+04  0.25500000920E-02 0.  1.
    10030    2    1    2    0    0  0.00000000000E+00  0.00000000000E+00 -0.68788218813E+02  0.36050940743E+04  0.36044377461E+04 0.  0.
        5    1    3    3  502    0 -0.85070394700E+03 -0.15857098753E+04 -0.13339577900E+03  0.18044360720E+04  0.46999998093E+01 0.  1.
       -5    1    3    3    0  502  0.85070394700E+03  0.15857098753E+04  0.64607560188E+02  0.18006580022E+04  0.46999998093E+01 0. -1.
</event>
<event>
 5   0  0.8146881E-09  0.3600803E+04  0.7818609E-02  0.8090308E-01
       -1   -1    0    0    0  501  0.00000000000E+00  0.00000000000E+00  0.16083669319E+04  0.16083669319E+04  0.50400001928E-02 0. -1.
        1   -1    0    0  501    0  0.00000000000E+00  0.00000000000E+00 -0.20153647639E+04  0.20153647639E+04  0.50400001928E-02 0.  1.
    10030    2    1    2    0    0  0.00000000000E+00  0.00000000000E+00 -0.40699783205E+03  0.36237316958E+04  0.36008032670E+04 0.  0.
        4    1    3    3  502    0 -0.72288365756E+01  0.98434541632E+03 -0.17205646828E+04  0.19822544224E+04  0.12699999809E+01 0.  1.
       -4    1    3    3    0  502  0.72288365756E+01 -0.98434541632E+03  0.13135668507E+04  0.16414772734E+04  0.12699999809E+01 0. -1.
</event>
<event>
 5   0  0.8063410E-09  0.3603532E+04  0.7818609E-02  0.8089683E-01
        1   -1    0    0  501    0  0.00000000000E+00  0.00000000000E+00  0.22834044785E+04  0.22834044785E+04  0.50400001928E-02 0.  1.
       -1   -1    0    0    0  501  0.00000000000E+00  0.00000000000E+00 -0.14217197895E+04  0.14217197896E+04  0.50400001928E-02 0. -1.
    10030    2    1    2    0    0  0.00000000000E+00  0.00000000000E+00  0.86168468898E+03  0.37051242681E+04  0.36035323419E+04 0.  0.
        2    1    3    3  502    0 -0.96438743239E+03  0.83481998623E+03  0.17392726398E+04  0.21568580957E+04  0.25500000920E-02 0.  1.
       -2    1    3    3    0  502  0.96438743239E+03 -0.83481998623E+03 -0.87758795086E+03  0.15482661724E+04  0.25500000920E-02 0. -1.
</event>
<event>
 5   0  0.8063410E-09  0.3600184E+04  0.7818609E-02  0.8090449E-01
       -1   -1    0    0    0  501  0.00000000000E+00  0.00000000000E+00  0.15854054802E+04  0.15854054802E+04  0.50400001928E-02 0. -1.
        1   -1    0    0  501    0  0.00000000000E+00  0.00000000000E+00 -0.20438506467E+04  0.20438506467E+04  0.50400001928E-02 0.  1.
    10030    2    1    2    0    0  0.00000000000E+00  0.00000000000E+00 -0.45844516651E+03  0.36292561270E+04  0.36001844487E+04 0.  0.
        2    1    3    3  502    0 -0.47120872784E+02  0.12390157941E+04  0.10862869721E+04  0.16484537908E+04  0.25500000920E-02 0. -1.
       -2    1    3    3    0  502  0.47120872784E+02 -0.12390157941E+04 -0.15447321386E+04  0.19808023361E+04  0.25500000920E-02 0.  1.
</event>
<event>
 5   0  0.8024500E-09  0.3598932E+04  0.7818609E-02  0.8090736E-01
       -1   -1    0    0    0  501  0.00000000000E+00  0.00000000000E+00  0.18035386530E+04  0.18035386530E+04  0.50400001928E-02 0. -1.
        1   -1    0    0  501    0  0.00000000000E+00  0.00000000000E+00 -0.17954027186E+04  0.17954027186E+04  0.50400001928E-02 0.  1.
    10030    2    1    2    0    0  0.00000000000E+00  0.00000000000E+00  0.81359344196E+01  0.35989413716E+04  0.35989321753E+04 0.  0.
        5    1    3    3  502    0 -0.33008524104E+03  0.17374852372E+04 -0.32796434793E+03  0.17987200781E+04  0.46999998093E+01 0.  1.
       -5    1    3    3    0  502  0.33008524104E+03 -0.17374852372E+04  0.33610028235E+03  0.18002212935E+04  0.46999998093E+01 0. -1.
</event>
<event>
 5   0  0.8063410E-09  0.3600904E+04  0.7818609E-02  0.8090285E-01
        1   -1    0    0  501    0  0.00000000000E+00  0.00000000000E+00  0.18359297830E+04  0.18359297830E+04  0.50400001928E-02 0.  1.
       -1   -1    0    0    0  501  0.00000000000E+00  0.00000000000E+00 -0.17656602513E+04  0.17656602513E+04  0.50400001928E-02 0. -1.
    10030    2    1    2    0    0  0.00000000000E+00  0.00000000000E+00  0.70269531624E+02  0.36015900343E+04  0.36009044653E+04 0.  0.
        2    1    3    3  502    0  0.57287617815E+03  0.43004322033E+03  0.16872676306E+04  0.18330292808E+04  0.25500000920E-02 0.  1.
       -2    1    3    3    0  502 -0.57287617815E+03 -0.43004322033E+03 -0.16169980990E+04  0.17685607535E+04  0.25500000920E-02 0. -1.
</event>
<event>
 5   0  0.2476968E-08  0.3598046E+04  0.7818609E-02  0.8090940E-01
       -2   -1    0    0    0  501  0.00000000000E+00  0.00000000000E+00  0.10935817813E+04  0.10935817813E+04  0.25500000920E-02 0. -1.
        2   -1    0    0  501    0  0.00000000000E+00  0.00000000000E+00 -0.29595253583E+04  0.29595253583E+04  0.25500000920E-02 0.  1.
    10030    2    1    2    0    0  0.00000000000E+00  0.00000000000E+00 -0.18659435770E+04  0.40531071397E+04  0.35980455879E+04 0.  0.
        2    1    3    3  502    0 -0.24138253870E+03 -0.86788145275E+02 -0.29388196603E+04  0.29499930013E+04  0.25500000920E-02 0.  1.
       -2    1    3    3    0  502  0.24138253870E+03  0.86788145275E+02  0.10728760833E+04  0.11031141383E+04  0.25500000920E-02 0. -1.
</event>
<event>
 5   0  0.2476968E-08  0.3599404E+04  0.7818609E-02  0.8090628E-01
       -2   -1    0    0    0  501  0.00000000000E+00  0.00000000000E+00  0.13237016615E+04  0.13237016615E+04  0.25500000920E-02 0.  1.
        2   -1    0    0  501    0  0.00000000000E+00  0.00000000000E+00 -0.24468710940E+04  0.24468710940E+04  0.25500000920E-02 0. -1.
    10030    2    1    2    0    0  0.00000000000E+00  0.00000000000E+00 -0.11231694325E+04  0.37705727555E+04  0.35994040243E+04 0.  0.
        2    1    3    3  502    0  0.11236694911E+04 -0.12252775018E+03  0.90547116017E+03  0.14482831894E+04  0.25500000920E-02 0.  1.
       -2    1    3    3    0  502 -0.11236694911E+04  0.12252775018E+03 -0.20286405926E+04  0.23222895661E+04  0.25500000920E-02 0. -1.
</event>
<event>
 5   0  0.2608070E-08  0.3600404E+04  0.7818609E-02  0.8090399E-01
       -2   -1    0    0    0  501  0.00000000000E+00  0.00000000000E+00  0.18373503886E+04  0.18373503886E+04  0.25500000920E-02 0. -1.
        2   -1    0    0  501    0  0.00000000000E+00  0.00000000000E+00 -0.17638049314E+04  0.17638049314E+04  0.25500000920E-02 0.  1.
    10030    2    1    2    0    0  0.00000000000E+00  0.00000000000E+00  0.73545457186E+02  0.36011553200E+04  0.36004042418E+04 0.  0.
        3    1    3    3  502    0 -0.21359167687E+02 -0.12512482894E+04 -0.12575795952E+04  0.17741434396E+04  0.10100000352E+00 0.  1.
       -3    1    3    3    0  502  0.21359167687E+02  0.12512482894E+04  0.13311250524E+04  0.18270118804E+04  0.10100000352E+00 0. -1.
</event>
<event>
 5   0  0.8024500E-09  0.3599560E+04  0.7818609E-02  0.8090592E-01
       -1   -1    0    0    0  501  0.00000000000E+00  0.00000000000E+00  0.13194844874E+04  0.13194844874E+04  0.50400001928E-02 0.  1.
        1   -1    0    0  501    0  0.00000000000E+00  0.00000000000E+00 -0.24549047930E+04  0.24549047930E+04  0.50400001928E-02 0. -1.
    10030    2    1    2    0    0  0.00000000000E+00  0.00000000000E+00 -0.11354203056E+04  0.37743892804E+04  0.35995604134E+04 0.  0.
        1    1    3    3  502    0  0.94494622948E+03  0.10341652934E+04 -0.17525415243E+04  0.22436182887E+04  0.50400001928E-02 0. -1.
       -1    1    3    3    0  502 -0.94494622948E+03 -0.10341652934E+04  0.61712121879E+03  0.15307709918E+04  0.50400001928E-02 0.  1.
</event>
<event>
 5   0  0.8063410E-09  0.3599724E+04  0.7818609E-02  0.8090555E-01
       -1   -1    0    0    0  501  0.00000000000E+00  0.00000000000E+00  0.16711934713E+04  0.16711934714E+04  0.50400001928E-02 0. -1.
        1   -1    0    0  501    0  0.00000000000E+00  0.00000000000E+00 -0.19384365049E+04  0.19384365049E+04  0.50400001928E-02 0.  1.
    10030    2    1    2    0    0  0.00000000000E+00  0.00000000000E+00 -0.26724303356E+03  0.36096299763E+04  0.35997235625E+04 0.  0.
        2    1    3    3  502    0 -0.56760088128E+02  0.11461942772E+04  0.12567437167E+04  0.17018777272E+04  0.25500000920E-02 0. -1.
       -2    1    3    3    0  502  0.56760088128E+02 -0.11461942772E+04 -0.15239867503E+04  0.19077522491E+04  0.25500000920E-02 0.  1.
</event>
<event>
 5   0  0.8063410E-09  0.3598894E+04  0.7818609E-02  0.8090745E-01
        1   -1    0    0  501    0  0.00000000000E+00  0.00000000000E+00  0.20574201521E+04  0.20574201521E+04  0.50400001928E-02 0.  1.
       -1   -1    0    0    0  501  0.00000000000E+00  0.00000000000E+00 -0.15738206357E+04  0.15738206357E+04  0.50400001928E-02 0. -1.
    10030    2    1    2    0    0  0.00000000000E+00  0.00000000000E+00  0.48359951634E+03  0.36312407878E+04  0.35988944367E+04 0.  0.
        2    1    3    3  502    0 -0.43543900615E+03  0.14244493567E+04  0.12605013991E+04  0.19512885166E+04  0.25500000920E-02 0.  1.
       -2    1    3    3    0  502  0.43543900615E+03 -0.14244493567E+04 -0.77690188280E+03  0.16799522712E+04  0.25500000920E-02 0. -1.
</event>
<event>
 5   0  0.2608070E-08  0.3599681E+04  0.7818609E-02  0.8090565E-01
       -2   -1    0    0    0  501  0.00000000000E+00  0.00000000000E+00  0.25321120928E+04  0.25321120928E+04  0.25500000920E-02 0.  1.
        2   -1    0    0  501    0  0.00000000000E+00  0.00000000000E+00 -0.12793371319E+04  0.12793371319E+04  0.25500000920E-02 0. -1.
    10030    2    1    2    0    0  0.00000000000E+00  0.00000000000E+00  0.12527749608E+04  0.38114492247E+04  0.35996805539E+04 0.  0.
        3    1    3    3  502    0 -0.16210162174E+04  0.12251272034E+03  0.14443101146E+04  0.21745653959E+04  0.10100000352E+00 0.  1.
       -3    1    3    3    0  502  0.16210162174E+04 -0.12251272034E+03 -0.19153515377E+03  0.16368838288E+04  0.10100000352E+00 0. -1.
</event>
<event>
 5   0  0.2476968E-08  0.3599930E+04  0.7818609E-02  0.8090508E-01
        2   -1    0    0  501    0  0.00000000000E+00  0.00000000000E+00  0.18013593150E+04  0.18013593150E+04  0.25500000920E-02 0.  1.
       -2   -1    0    0    0  501  0.00000000000E+00  0.00000000000E+00 -0.17985720693E+04  0.17985720693E+04  0.25500000920E-02 0. -1.
    10030    2    1    2    0    0  0.00000000000E+00  0.00000000000E+00  0.27872457199E+01  0.35999313843E+04  0.35999303053E+04 0.  0.
        2    1    3    3  502    0 -0.98974822851E+03 -0.66962674116E+03 -0.13446651086E+04  0.17989235066E+04  0.25500000920E-02 0. -1.
       -2    1    3    3    0  502  0.98974822851E+03  0.66962674116E+03  0.13474523543E+04  0.18010078777E+04  0.25500000920E-02 0.  1.
</event>
<event>
 5   0  0.2476968E-08  0.3600290E+04  0.7818609E-02  0.8090425E-01
       -2   -1    0    0    0  501  0.00000000000E+00  0.00000000000E+00  0.13137596667E+04  0.13137596667E+04  0.25500000920E-02 0. -1.
        2   -1    0    0  501    0  0.00000000000E+00  0.00000000000E+00 -0.24666015399E+04  0.24666015399E+04  0.25500000920E-02 0.  1.
    10030    2    1    2    0    0  0.00000000000E+00  0.00000000000E+00 -0.11528418732E+04  0.37803612066E+04  0.36002897755E+04 0.  0.
        2    1    3    3  502    0  0.80999459030E+03 -0.92966641958E+03 -0.19535641069E+04  0.23101479623E+04  0.25500000920E-02 0.  1.
       -2    1    3    3    0  502 -0.80999459030E+03  0.92966641958E+03  0.80072223372E+03  0.14702132443E+04  0.25500000920E-02 0. -1.
</event>
<event>
 5   0  0.8146881E-09  0.3599612E+04  0.7818609E-02  0.8090581E-01
        1   -1    0    0  501    0  0.00000000000E+00  0.00000000000E+00  0.20509739528E+04  0.20509739528E+04  0.50400001928E-02 0. -1.
       -1   -1    0    0    0  501  0.00000000000E+00  0.00000000000E+00 -0.15793968055E+04  0.15793968055E+04  0.50400001928E-02 0.  1.
    10030    2    1    2    0    0  0.00000000000E+00  0.00000000000E+00  0.47157714729E+03  0.36303707583E+04  0.35996120398E+04 0.  0.
        4    1    3    3  502    0 -0.12157827488E+04 -0.27997536743E+03 -0.10725186982E+04  0.16452391527E+04  0.12699999809E+01 0.  1.
       -4    1    3    3    0  502  0.12157827488E+04  0.27997536743E+03  0.15440958455E+04  0.19851316056E+04  0.12699999809E+01 0. -1.
</event>
<event>
 5   0  0.2494592E-08  0.3600738E+04  0.7818609E-02  0.8090323E-01
       -2   -1    0    0    0  501  0.00000000000E+00  0.00000000000E+00  0.13598302064E+04  0.13598302064E+04  0.25500000920E-02 0.  1.
        2   -1    0    0  501    0  0.00000000000E+00  0.00000000000E+00 -0.23836271200E+04  0.23836271200E+04  0.25500000920E-02 0. -1.
    10030    2    1    2    0    0  0.00000000000E+00  0.00000000000E+00 -0.10237969136E+04  0.37434573264E+04  0.36007377903E+04 0.  0.
        1    1    3    3  502    0 -0.59865214848E+03 -0.42974713890E+03  0.11958479532E+04  0.14046776589E+04  0.50400001928E-02 0.  1.
       -1    1    3    3    0  502  0.59865214848E+03  0.42974713890E+03 -0.22196448668E+04  0.23387796675E+04  0.50400001928E-02 0. -1.
</event>
<event>
 5   0  0.2608070E-08  0.3598172E+04  0.7818609E-02  0.8090911E-01
        2   -1    0    0  501    0  0.00000000000E+00  0.00000000000E+00  0.18272628952E+04  0.18272628952E+04  0.25500000920E-02 0. -1.
       -2   -1    0    0    0  501  0.00000000000E+00  0.00000000000E+00 -0.17713435145E+04  0.17713435145E+04  0.25500000920E-02 0.  1.
    10030    2    1    2    0    0  0.00000000000E+00  0.00000000000E+00  0.55919380698E+02  0.35986064097E+04  0.35981719129E+04 0.  0.
        3    1    3    3  502    0  0.49402877647E+03  0.12265010346E+04  0.12480828478E+04  0.18182629141E+04  0.10100000352E+00 0. -1.
       -3    1    3    3    0  502 -0.49402877647E+03 -0.12265010346E+04 -0.11921634671E+04  0.17803434956E+04  0.10100000352E+00 0.  1.
</event>
<event>
 5   0  0.8063410E-09  0.3601002E+04  0.7818609E-02  0.8090262E-01
       -1   -1    0    0    0  501  0.00000000000E+00  0.00000000000E+00  0.18648096443E+04  0.18648096443E+04  0.50400001928E-02 0. -1.
        1   -1    0    0  501    0  0.00000000000E+00  0.00000000000E+00 -0.17384105303E+04  0.17384105303E+04  0.50400001928E-02 0.  1.
    10030    2    1    2    0    0  0.00000000000E+00  0.00000000000E+00  0.12639911405E+03  0.36032201746E+04  0.36010024842E+04 0.  0.
        2    1    3    3  502    0 -0.16725253454E+04  0.63337865883E+03  0.27140260572E+03  0.18089137434E+04  0.25500000920E-02 0. -1.
       -2    1    3    3    0  502  0.16725253454E+04 -0.63337865883E+03 -0.14500349168E+03  0.17943064313E+04  0.25500000920E-02 0.  1.
</event>
<event>
 5   0  0.2608070E-08  0.3599113E+04  0.7818609E-02  0.8090695E-01
       -2   -1    0    0    0  501  0.00000000000E+00  0.00000000000E+00  0.14578687206E+04  0.14578687206E+04  0.25500000920E-02 0. -1.
        2   -1    0    0  501    0  0.00000000000E+00  0.00000000000E+00 -0.22213267900E+04  0.22213267900E+04  0.25500000920E-02 0.  1.
    10030    2    1    2    0    0  0.00000000000E+00  0.00000000000E+00 -0.76345806943E+03  0.36791955106E+04  0.35991125825E+04 0.  0.
        3    1    3    3  502    0 -0.95590012235E+03  0.15244042494E+04 -0.35193475491E+03  0.18334152398E+04  0.10100000352E+00 0.  1.
       -3    1    3    3    0  502  0.95590012235E+03 -0.15244042494E+04 -0.41152331453E+03  0.18457802708E+04  0.10100000352E+00 0. -1.
</event>
<event>
 5   0  0.2476968E-08  0.3599628E+04  0.7818609E-02  0.8090577E-01
       -2   -1    0    0    0  501  0.00000000000E+00  0.00000000000E+00  0.15167443311E+04  0.15167443311E+04  0.25500000920E-02 0. -1.
        2   -1    0    0  501    0  0.00000000000E+00  0.00000000000E+00 -0.21357128259E+04  0.21357128259E+04  0.25500000920E-02 0.  1.
    10030    2    1    2    0    0  0.00000000000E+00  0.00000000000E+00 -0.61896849483E+03  0.36524571569E+04  0.35996279371E+04 0.  0.
        2    1    3    3  502    0 -0.11180710922E+04 -0.27525991205E+03 -0.17130714661E+04  0.20640893475E+04  0.25500000920E-02 0.  1.
       -2    1    3    3    0  502  0.11180710922E+04  0.27525991205E+03  0.10941029713E+04  0.15883678095E+04  0.25500000920E-02 0. -1.
</event>
<event>
 5   0  0.2482243E-08  0.3600072E+04  0.7818609E-02  0.8090475E-01
        2   -1    0    0  501    0  0.00000000000E+00  0.00000000000E+00  0.19135684927E+04  0.19135684927E+04  0.25500000920E-02 0. -1.
       -2   -1    0    0    0  501  0.00000000000E+00  0.00000000000E+00 -0.16932398122E+04  0.16932398122E+04  0.25500000920E-02 0.  1.
    10030    2    1    2    0    0  0.00000000000E+00  0.00000000000E+00  0.22032868045E+03  0.36068083049E+04  0.36000724188E+04 0.  0.
        5    1    3    3  502    0 -0.59473224579E+03 -0.78227770447E+02 -0.15901505063E+04  0.16995372167E+04  0.46999998093E+01 0.  1.
       -5    1    3    3    0  502  0.59473224579E+03  0.78227770447E+02  0.18104791868E+04  0.19072710882E+04  0.46999998093E+01 0. -1.
</event>
<event>
 5   0  0.8024500E-09  0.3599933E+04  0.7818609E-02  0.8090507E-01
       -1   -1    0    0    0  501  0.00000000000E+00  0.00000000000E+00  0.13823406916E+04  0.13823406916E+04  0.50400001928E-02 0.  1.
        1   -1    0    0  501    0  0.00000000000E+00  0.00000000000E+00 -0.23437627190E+04  0.23437627190E+04  0.50400001928E-02 0. -1.
    10030    2    1    2    0    0  0.00000000000E+00  0.00000000000E+00 -0.96142202743E+03  0.37261034106E+04  0.35999325427E+04 0.  0.
        5    1    3    3  502    0 -0.57519911175E+03 -0.10551662877E+03 -0.22426866290E+04  0.23176827184E+04  0.46999998093E+01 0. -1.
       -5    1    3    3    0  502  0.57519911175E+03  0.10551662877E+03  0.12812646016E+04  0.14084206922E+04  0.46999998093E+01 0.  1.
</event>
<event>
 5   0  0.8024500E-09  0.3596769E+04  0.7818609E-02  0.8091232E-01
       -1   -1    0    0    0  501  0.00000000000E+00  0.00000000000E+00  0.12934538985E+04  0.12934538985E+04  0.50400001928E-02 0. -1.
        1   -1    0    0  501    0  0.00000000000E+00  0.00000000000E+00 -0.25004274362E+04  0.25004274362E+04  0.50400001928E-02 0.  1.
    10030    2    1    2    0    0  0.00000000000E+00  0.00000000000E+00 -0.12069735377E+04  0.37938813347E+04  0.35967694478E+04 0.  0.
        5    1    3    3  502    0 -0.34761110574E+02  0.17950457630E+04 -0.49403151078E+03  0.18621189140E+04  0.46999998093E+01 0. -1.
       -5    1    3    3    0  502  0.34761110574E+02 -0.17950457630E+04 -0.71294202692E+03  0.19317624207E+04  0.46999998093E+01 0.  1.
</event>
<event>
 5   0  0.2494592E-08  0.3601332E+04  0.7818609E-02  0.8090187E-01
        2   -1    0    0  501    0  0.00000000000E+00  0.00000000000E+00  0.27454289268E+04  0.27454289268E+04  0.25500000920E-02 0.  1.
       -2   -1    0    0    0  501  0.00000000000E+00  0.00000000000E+00 -0.11810168361E+04  0.11810168361E+04  0.25500000920E-02 0. -1.
    10030    2    1    2    0    0  0.00000000000E+00  0.00000000000E+00  0.15644120906E+04  0.39264457629E+04  0.36013318564E+04 0.  0.
        1    1    3    3  502    0 -0.11003943853E+04  0.14052119903E+03  0.23286248091E+04  0.25793618421E+04  0.50400001928E-02 0.  1.
       -1    1    3    3    0  502  0.11003943853E+04 -0.14052119903E+03 -0.76421271848E+03  0.13470839208E+04  0.50400001928E-02 0. -1.
</event>
<event>
 5   0  0.8146881E-09  0.3600103E+04  0.7818609E-02  0.8090468E-01
        1   -1    0    0  501    0  0.00000000000E+00  0.00000000000E+00  0.26729178938E+04  0.26729178938E+04  0.50400001928E-02 0. -1.
       -1   -1    0    0    0  501  0.00000000000E+00  0.00000000000E+00 -0.12122278850E+04  0.12122278850E+04  0.50400001928E-02 0.  1.
    10030    2    1    2    0    0  0.00000000000E+00  0.00000000000E+00  0.14606900088E+04  0.38851457788E+04  0.36001031125E+04 0.  0.
        4    1    3    3  502    0  0.14209658559E+04 -0.94402601458E+03  0.13501482660E+04  0.21755990056E+04  0.12699999809E+01 0. -1.
       -4    1    3    3    0  502 -0.14209658559E+04  0.94402601458E+03  0.11054174278E+03  0.17095467732E+04  0.12699999809E+01 0.  1.
</event>
<event>
 5   0  0.2476968E-08  0.3598433E+04  0.7818609E-02  0.8090851E-01
        2   -1    0    0  501    0  0.00000000000E+00  0.00000000000E+00  0.21138765302E+04  0.21138765302E+04  0.25500000920E-02 0.  1.
       -2   -1    0    0    0  501  0.00000000000E+00  0.00000000000E+00 -0.15313948470E+04  0.15313948470E+04  0.25500000920E-02 0. -1.
    10030    2    1    2    0    0  0.00000000000E+00  0.00000000000E+00  0.58248168312E+03  0.36452713772E+04  0.35984327842E+04 0.  0.
        2    1    3    3  502    0 -0.10578910248E+03  0.10748590316E+04 -0.11664705041E+04  0.15897064852E+04  0.25500000920E-02 0. -1.
       -2    1    3    3    0  502  0.10578910248E+03 -0.10748590316E+04  0.17489521872E+04  0.20555648920E+04  0.25500000920E-02 0.  1.
</event>
<event>
 5   0  0.8024500E-09  0.3601083E+04  0.7818609E-02  0.8090244E-01
        1   -1    0    0  501    0  0.00000000000E+00  0.00000000000E+00  0.18767027501E+04  0.18767027501E+04  0.50400001928E-02 0. -1.
       -1   -1    0    0    0  501  0.00000000000E+00  0.00000000000E+00 -0.17274711214E+04  0.17274711214E+04  0.50400001928E-02 0.  1.
    10030    2    1    2    0    0  0.00000000000E+00  0.00000000000E+00  0.14923162872E+03  0.36041738715E+04  0.36010830616E+04 0.  0.
        1    1    3    3  502    0  0.11414779671E+04  0.11229043400E+04  0.89876881092E+03  0.18362111757E+04  0.50400001928E-02 0. -1.
       -1    1    3    3    0  502 -0.11414779671E+04 -0.11229043400E+04 -0.74953718220E+03  0.17679626958E+04  0.50400001928E-02 0.  1.
</event>
<event>
 5   0  0.2590795E-08  0.3600059E+04  0.7818609E-02  0.8090478E-01
       -2   -1    0    0    0  501  0.00000000000E+00  0.00000000000E+00  0.11234626674E+04  0.11234626674E+04  0.25500000920E-02 0.  1.
        2   -1    0    0  501    0  0.00000000000E+00  0.00000000000E+00 -0.28840352120E+04  0.28840352120E+04  0.25500000920E-02 0. -1.
    10030    2    1    2    0    0  0.00000000000E+00  0.00000000000E+00 -0.17605725446E+04  0.40074978794E+04  0.36000588284E+04 0.  0.
        4    1    3    3  502    0 -0.54036902738E+03 -0.13834373626E+04  0.25176831292E+03  0.15064151215E+04  0.12699999809E+01 0. -1.
       -4    1    3    3    0  502  0.54036902738E+03  0.13834373626E+04 -0.20123408575E+04  0.25010827579E+04  0.12699999809E+01 0.  1.
</event>
<event>
 5   0  0.8146881E-09  0.3600282E+04  0.7818609E-02  0.8090427E-01
        1   -1    0    0  501    0  0.00000000000E+00  0.00000000000E+00  0.18720500816E+04  0.18720500816E+04  0.50400001928E-02 0.  1.
       -1   -1    0    0    0  501  0.00000000000E+00  0.00000000000E+00 -0.17309938377E+04  0.17309938377E+04  0.50400001928E-02 0. -1.
    10030    2    1    2    0    0  0.00000000000E+00  0.00000000000E+00  0.14105624390E+03  0.36030439193E+04  0.36002817418E+04 0.  0.
        4    1    3    3  502    0 -0.11547459708E+04  0.12985357522E+04 -0.39980285371E+03  0.17831088838E+04  0.12699999809E+01 0.  1.
       -4    1    3    3    0  502  0.11547459708E+04 -0.12985357522E+04  0.54085909761E+03  0.18199350354E+04  0.12699999809E+01 0. -1.
</event>
<event>
 5   0  0.2482243E-08  0.3597653E+04  0.7818609E-02  0.8091030E-01
       -2   -1    0    0    0  501  0.00000000000E+00  0.00000000000E+00  0.19691053293E+04  0.19691053293E+04  0.25500000920E-02 0. -1.
        2   -1    0    0  501    0  0.00000000000E+00  0.00000000000E+00 -0.16432722625E+04  0.16432722625E+04  0.25500000920E-02 0.  1.
    10030    2    1    2    0    0  0.00000000000E+00  0.00000000000E+00  0.32583306681E+03  0.36123775919E+04  0.35976526623E+04 0.  0.
        5    1    3    3  502    0 -0.82498316327E+03 -0.12987807784E+04  0.10985702516E+04  0.18905838827E+04  0.46999998093E+01 0. -1.
       -5    1    3    3    0  502  0.82498316327E+03  0.12987807784E+04 -0.77273718474E+03  0.17217937091E+04  0.46999998093E+01 0.  1.
</event>
<event>
 5   0  0.8146881E-09  0.3599683E+04  0.7818609E-02  0.8090564E-01
        1   -1    0    0  501    0  0.00000000000E+00  0.00000000000E+00  0.21611045272E+04  0.21611045272E+04  0.50400001928E-02 0.  1.
       -1   -1    0    0    0  501  0.00000000000E+00  0.00000000000E+00 -0.14989694245E+04  0.14989694245E+04  0.50400001928E-02 0. -1.
    10030    2    1    2    0    0  0.00000000000E+00  0.00000000000E+00  0.66213510272E+03  0.36600739518E+04  0.35996831025E+04 0.  0.
        4    1    3    3  502    0 -0.16582762126E+04 -0.50271465053E+03  0.82587959543E+03  0.19195522228E+04  0.12699999809E+01 0.  1.
       -4    1    3    3    0  502  0.16582762126E+04  0.50271465053E+03 -0.16374449271E+03  0.17405217289E+04  0.12699999809E+01 0. -1.
</event>
<event>
 5   0  0.8024500E-09  0.3600190E+04  0.7818609E-02  0.8090448E-01
       -1   -1    0    0    0  501  0.00000000000E+00  0.00000000000E+00  0.14944297948E+04  0.14944297948E+04  0.50400001928E-02 0.  1.
        1   -1    0    0  501    0  0.00000000000E+00  0.00000000000E+00 -0.21682793489E+04  0.21682793489E+04  0.50400001928E-02 0. -1.
    10030    2    1    2    0    0  0.00000000000E+00  0.00000000000E+00 -0.67384955411E+03  0.36627091438E+04  0.36001895853E+04 0.  0.
        5    1    3    3  502    0  0.11111268218E+03 -0.12697522820E+03  0.14863608909E+04  0.14959142772E+04  0.46999998093E+01 0.  1.
       -5    1    3    3    0  502 -0.11111268218E+03  0.12697522820E+03 -0.21602104451E+04  0.21667948665E+04  0.46999998093E+01 0. -1.
</event>
<event>
 5   0  0.2494592E-08  0.3599881E+04  0.7818609E-02  0.8090519E-01
       -2   -1    0    0    0  501  0.00000000000E+00  0.00000000000E+00  0.98844512578E+03  0.98844512578E+03  0.25500000920E-02 0.  1.
        2   -1    0    0  501    0  0.00000000000E+00  0.00000000000E+00 -0.32776584521E+04  0.32776584521E+04  0.25500000920E-02 0. -1.
    10030    2    1    2    0    0  0.00000000000E+00  0.00000000000E+00 -0.22892133263E+04  0.42661035779E+04  0.35998808430E+04 0.  0.
        1    1    3    3  502    0 -0.15700471394E+04  0.75661738698E+03 -0.16775812031E+04  0.24190486939E+04  0.50400001928E-02 0.  1.
       -1    1    3    3    0  502  0.15700471394E+04 -0.75661738698E+03 -0.61163212319E+03  0.18470548840E+04  0.50400001928E-02 0. -1.
</event>
<event>
 5   0  0.8024500E-09  0.3599676E+04  0.7818609E-02  0.8090566E-01
        1   -1    0    0  501    0  0.00000000000E+00  0.00000000000E+00  0.18800720491E+04  0.18800720491E+04  0.50400001928E-02 0. -1.
       -1   -1    0    0    0  501  0.00000000000E+00  0.00000000000E+00 -0.17230279688E+04  0.17230279688E+04  0.50400001928E-02 0.  1.
    10030    2    1    2    0    0  0.00000000000E+00  0.00000000000E+00  0.15704408024E+03  0.36031000179E+04  0.35996759432E+04 0.  0.
        5    1    3    3  502    0 -0.90661522978E+03  0.15069819870E+04  0.46157228694E+03  0.18182455693E+04  0.46999998093E+01 0. -1.
       -5    1    3    3    0  502  0.90661522978E+03 -0.15069819870E+04 -0.30452820669E+03  0.17848544486E+04  0.46999998093E+01 0.  1.
</event>
<event>
 5   0  0.2494592E-08  0.3600410E+04  0.7818609E-02  0.8090398E-01
       -2   -1    0    0    0  501  0.00000000000E+00  0.00000000000E+00  0.19219673553E+04  0.19219673553E+04  0.25500000920E-02 0.  1.
        2   -1    0    0  501    0  0.00000000000E+00  0.00000000000E+00 -0.16861562094E+04  0.16861562094E+04  0.25500000920E-02 0. -1.
    10030    2    1    2    0    0  0.00000000000E+00  0.00000000000E+00  0.23581114594E+03  0.36081235647E+04  0.36004095269E+04 0.  0.
        1    1    3    3  502    0  0.34216142485E+03 -0.37907616620E+03  0.18478613819E+04  0.19171241136E+04  0.50400001928E-02 0.  1.
       -1    1    3    3    0  502 -0.34216142485E+03  0.37907616620E+03 -0.16120502359E+04  0.16909994511E+04  0.50400001928E-02 0. -1.
</event>
<event>
 5   0  0.8247570E-09  0.3599363E+04  0.7818609E-02  0.8090638E-01
       -1   -1    0    0    0  501  0.00000000000E+00  0.00000000000E+00  0.15334118065E+04  0.15334118065E+04  0.50400001928E-02 0.  1.
        1   -1    0    0  501    0  0.00000000000E+00  0.00000000000E+00 -0.21121881926E+04  0.21121881926E+04  0.50400001928E-02 0. -1.
    10030    2    1    2    0    0  0.00000000000E+00  0.00000000000E+00 -0.57877638612E+03  0.36455999991E+04  0.35993634505E+04 0.  0.
        3    1    3    3  502    0  0.22348460913E+03 -0.54710866798E+03 -0.20111011683E+04  0.20961395908E+04  0.10100000352E+00 0. -1.
       -3    1    3    3    0  502 -0.22348460913E+03  0.54710866798E+03  0.14323247821E+04  0.15494604083E+04  0.10100000352E+00 0.  1.
</event>
<event>
 5   0  0.8024500E-09  0.3600635E+04  0.7818609E-02  0.8090346E-01
       -1   -1    0    0    0  501  0.00000000000E+00  0.00000000000E+00  0.33024868783E+04  0.33024868784E+04  0.50400001928E-02 0.  1.
        1   -1    0    0  501    0  0.00000000000E+00  0.00000000000E+00 -0.98142476474E+03  0.98142476475E+03  0.50400001928E-02 0. -1.
    10030    2    1    2    0    0  0.00000000000E+00  0.00000000000E+00  0.23210621136E+04  0.42839116431E+04  0.36006346150E+04 0.  0.
        5    1    3    3  502    0 -0.17987567895E+04 -0.20188824874E+02  0.12462168344E+04  0.21883811516E+04  0.46999998093E+01 0. -1.
       -5    1    3    3    0  502  0.17987567895E+04  0.20188824874E+02  0.10748452792E+04  0.20955304915E+04  0.46999998093E+01 0.  1.
</event>
<event>
 5   0  0.2590795E-08  0.3597061E+04  0.7818609E-02  0.8091165E-01
        2   -1    0    0  501    0  0.00000000000E+00  0.00000000000E+00  0.23841499886E+04  0.23841499886E+04  0.25500000920E-02 0.  1.
       -2   -1    0    0    0  501  0.00000000000E+00  0.00000000000E+00 -0.13567568107E+04  0.13567568107E+04  0.25500000920E-02 0. -1.
    10030    2    1    2    0    0  0.00000000000E+00  0.00000000000E+00  0.10273931779E+04  0.37409067993E+04  0.35970608751E+04 0.  0.
        4    1    3    3  502    0  0.16011682156E+04  0.59222677695E+03 -0.74829166192E+02  0.17088221754E+04  0.12699999809E+01 0. -1.
       -4    1    3    3    0  502 -0.16011682156E+04 -0.59222677695E+03  0.11022223441E+04  0.20320846239E+04  0.12699999809E+01 0.  1.
</event>
<event>
 5   0  0.2476968E-08  0.3593221E+04  0.7818609E-02  0.8092046E-01
       -2   -1    0    0    0  501  0.00000000000E+00  0.00000000000E+00  0.10910610505E+04  0.10910610505E+04  0.25500000920E-02 0. -1.
        2   -1    0    0  501    0  0.00000000000E+00  0.00000000000E+00 -0.29584123015E+04  0.29584123015E+04  0.25500000920E-02 0.  1.
    10030    2    1    2    0    0  0.00000000000E+00  0.00000000000E+00 -0.18673512511E+04  0.40494733520E+04  0.35932205239E+04 0.  0.
        2    1    3    3  502    0  0.17072758539E+04  0.55860894811E+03 -0.96884080117E+03  0.20409525463E+04  0.25500000920E-02 0.  1.
       -2    1    3    3    0  502 -0.17072758539E+04 -0.55860894811E+03 -0.89851044989E+03  0.20085208057E+04  0.25500000920E-02 0. -1.
</event>
<event>
 5   0  0.8146881E-09  0.3599824E+04  0.7818609E-02  0.8090532E-01
        1   -1    0    0  501    0  0.00000000000E+00  0.00000000000E+00  0.30238677930E+04  0.30238677930E+04  0.50400001928E-02 0. -1.
       -1   -1    0    0    0  501  0.00000000000E+00  0.00000000000E+00 -0.10713708435E+04  0.10713708435E+04  0.50400001928E-02 0.  1.
    10030    2    1    2    0    0  0.00000000000E+00  0.00000000000E+00  0.19524969495E+04  0.40952386365E+04  0.35998243224E+04 0.  0.
        4    1    3    3  502    0  0.57942932055E+03 -0.11210079456E+04  0.24363474022E+04  0.27437542581E+04  0.12699999809E+01 0. -1.
       -4    1    3    3    0  502 -0.57942932055E+03  0.11210079456E+04 -0.48385045268E+03  0.13514843784E+04  0.12699999809E+01 0.  1.
</event>
<event>
 5   0  0.2482243E-08  0.3600180E+04  0.7818609E-02  0.8090450E-01
        2   -1    0    0  501    0  0.00000000000E+00  0.00000000000E+00  0.12137226836E+04  0.12137226836E+04  0.25500000920E-02 0.  1.
       -2   -1    0    0    0  501  0.00000000000E+00  0.00000000000E+00 -0.26697399770E+04  0.26697399770E+04  0.25500000920E-02 0. -1.
    10030    2    1    2    0    0  0.00000000000E+00  0.00000000000E+00 -0.14560172934E+04  0.38834626606E+04  0.36001799785E+04 0.  0.
        5    1    3    3  502    0 -0.26206335691E+03 -0.84411098213E+03  0.96353470834E+03  0.13075250580E+04  0.46999998093E+01 0.  1.
       -5    1    3    3    0  502  0.26206335691E+03  0.84411098213E+03 -0.24195520018E+04  0.25759376026E+04  0.46999998093E+01 0. -1.
</event>
<event>
 5   0  0.8024500E-09  0.3600868E+04  0.7818609E-02  0.8090293E-01
       -1   -1    0    0    0  501  0.00000000000E+00  0.00000000000E+00  0.28646303311E+04  0.28646303311E+04  0.50400001928E-02 0. -1.
        1   -1    0    0  501    0  0.00000000000E+00  0.00000000000E+00 -0.11315814876E+04  0.11315814876E+04  0.50400001928E-02 0.  1.
    10030    2    1    2    0    0  0.00000000000E+00  0.00000000000E+00  0.17330488435E+04  0.39962118187E+04  0.36008680351E+04 0.  0.
        1    1    3    3  502    0 -0.12777326487E+04  0.57855086045E+03  0.21192820417E+04  0.25413929629E+04  0.50400001928E-02 0. -1.
       -1    1    3    3    0  502  0.12777326487E+04 -0.57855086045E+03 -0.38623319815E+03  0.14548188558E+04  0.50400001928E-02 0.  1.
</event>
<event>
 5   0  0.2590795E-08  0.3593126E+04  0.7818609E-02  0.8092068E-01
       -2   -1    0    0    0  501  0.00000000000E+00  0.00000000000E+00  0.18766792204E+04  0.18766792204E+04  0.25500000920E-02 0. -1.
        2   -1    0    0  501    0  0.00000000000E+00  0.00000000000E+00 -0.17198668319E+04  0.17198668319E+04  0.25500000920E-02 0.  1.
    10030    2    1    2    0    0  0.00000000000E+00  0.00000000000E+00  0.15681238858E+03  0.35965460523E+04  0.35931258510E+04 0.  0.
        4    1    3    3  502    0 -0.79356796339E+03  0.16182738197E+03  0.16835842878E+04  0.18682601214E+04  0.12699999809E+01 0. -1.
       -4    1    3    3    0  502  0.79356796339E+03 -0.16182738197E+03 -0.15267718992E+04  0.17282859310E+04  0.12699999809E+01 0.  1.
</event>
<event>
 5   0  0.8063410E-09  0.3601122E+04  0.7818609E-02  0.8090235E-01
       -1   -1    0    0    0  501  0.00000000000E+00  0.00000000000E+00  0.14441157897E+04  0.14441157897E+04  0.50400001928E-02 0. -1.
        1   -1    0    0  501    0  0.00000000000E+00  0.00000000000E+00 -0.22449865803E+04  0.22449865803E+04  0.50400001928E-02 0.  1.
    10030    2    1    2    0    0  0.00000000000E+00  0.00000000000E+00 -0.80087079051E+03  0.36891023700E+04  0.36011223630E+04 0.  0.
        2    1    3    3  502    0  0.14719115866E+04 -0.73920077431E+03 -0.11455843847E+04  0.20063162976E+04  0.25500000920E-02 0.  1.
       -2    1    3    3    0  502 -0.14719115866E+04  0.73920077431E+03  0.34471359422E+03  0.16827860724E+04  0.25500000920E-02 0. -1.
</event>
<event>
 5   0  0.8063410E-09  0.3601408E+04  0.7818609E-02  0.8090169E-01
        1   -1    0    0  501    0  0.00000000000E+00  0.00000000000E+00  0.30355279854E+04  0.30355279854E+04  0.50400001928E-02 0. -1.
       -1   -1    0    0    0  501  0.00000000000E+00  0.00000000000E+00 -0.10681949390E+04  0.10681949390E+04  0.50400001928E-02 0.  1.
    10030    2    1    2    0    0  0.00000000000E+00  0.00000000000E+00  0.19673330463E+04  0.41037229244E+04  0.36014084085E+04 0.  0.
        2    1    3    3  502    0  0.38850930861E+03  0.60868476480E+03 -0.89598710761E+03  0.11507517207E+04  0.25500000920E-02 0.  1.
       -2    1    3    3    0  502 -0.38850930861E+03 -0.60868476480E+03  0.28633201539E+04  0.29529712037E+04  0.25500000920E-02 0. -1.
</event>
<event>
 5   0  0.2476968E-08  0.3600325E+04  0.7818609E-02  0.8090417E-01
       -2   -1    0    0    0  501  0.00000000000E+00  0.00000000000E+00  0.22245635209E+04  0.22245635209E+04  0.25500000920E-02 0.  1.
        2   -1    0    0  501    0  0.00000000000E+00  0.00000000000E+00 -0.14567286148E+04  0.14567286148E+04  0.25500000920E-02 0. -1.
    10030    2    1    2    0    0  0.00000000000E+00  0.00000000000E+00  0.76783490610E+03  0.36812921358E+04  0.36003251722E+04 0.  0.
        2    1    3    3  502    0  0.22191616379E+03  0.14377312504E+04 -0.70024251169E+03  0.16145146352E+04  0.25500000920E-02 0.  1.
       -2    1    3    3    0  502 -0.22191616379E+03 -0.14377312504E+04  0.14680774178E+04  0.20667775006E+04  0.25500000920E-02 0. -1.
</event>
<event>
 5   0  0.8024500E-09  0.3597994E+04  0.7818609E-02  0.8090951E-01
        1   -1    0    0  501    0  0.00000000000E+00  0.00000000000E+00  0.26679876414E+04  0.26679876414E+04  0.50400001928E-02 0. -1.
       -1   -1    0    0    0  501  0.00000000000E+00  0.00000000000E+00 -0.12130457428E+04  0.12130457428E+04  0.50400001928E-02 0.  1.
    10030    2    1    2    0    0  0.00000000000E+00  0.00000000000E+00  0.14549418986E+04  0.38810333842E+04  0.35979944693E+04 0.  0.
        5    1    3    3  502    0 -0.29341232950E+03  0.11790226615E+04 -0.70361556134E+03  0.14040235680E+04  0.46999998093E+01 0.  1.
       -5    1    3    3    0  502  0.29341232950E+03 -0.11790226615E+04  0.21585574599E+04  0.24770098162E+04  0.46999998093E+01 0. -1.
</event>
<event>
 5   0  0.8024500E-09  0.3600054E+04  0.7818609E-02  0.8090479E-01
        1   -1    0    0  501    0  0.00000000000E+00  0.00000000000E+00  0.19327383487E+04  0.19327383487E+04  0.50400001928E-02 0. -1.
       -1   -1    0    0    0  501  0.00000000000E+00  0.00000000000E+00 -0.16764283003E+04  0.16764283003E+04  0.50400001928E-02 0.  1.
    10030    2    1    2    0    0  0.00000000000E+00  0.00000000000E+00  0.25631004840E+03  0.36091666490E+04  0.36000540356E+04 0.  0.
        1    1    3    3  502    0  0.17624327109E+04 -0.35927220434E+03  0.58324656950E+02  0.17996242227E+04  0.50400001928E-02 0.  1.
       -1    1    3    3    0  502 -0.17624327109E+04  0.35927220434E+03  0.19798539145E+03  0.18095424263E+04  0.50400001928E-02 0. -1.
</event>
<event>
 5   0  0.8024500E-09  0.3599579E+04  0.7818609E-02  0.8090588E-01
       -1   -1    0    0    0  501  0.00000000000E+00  0.00000000000E+00  0.15270674300E+04  0.15270674300E+04  0.50400001928E-02 0. -1.
        1   -1    0    0  501    0  0.00000000000E+00  0.00000000000E+00 -0.21212181134E+04  0.21212181134E+04  0.50400001928E-02 0.  1.
    10030    2    1    2    0    0  0.00000000000E+00  0.00000000000E+00 -0.59415068337E+03  0.36482855434E+04  0.35995794715E+04 0.  0.
        5    1    3    3  502    0 -0.40685689287E+03  0.93605272975E+03  0.12053776093E+04  0.15794570318E+04  0.46999998093E+01 0. -1.
       -5    1    3    3    0  502  0.40685689287E+03 -0.93605272975E+03 -0.17995282927E+04  0.20688285116E+04  0.46999998093E+01 0.  1.
</event>
<event>
 5   0  0.2476968E-08  0.3599566E+04  0.7818609E-02  0.8090591E-01
       -2   -1    0    0    0  501  0.00000000000E+00  0.00000000000E+00  0.13144299928E+04  0.13144299928E+04  0.25500000920E-02 0.  1.
        2   -1    0    0  501    0  0.00000000000E+00  0.00000000000E+00 -0.24643521184E+04  0.24643521184E+04  0.25500000920E-02 0. -1.
    10030    2    1    2    0    0  0.00000000000E+00  0.00000000000E+00 -0.11499221256E+04  0.37787821112E+04  0.35995657167E+04 0.  0.
        2    1    3    3  502    0 -0.11952968330E+04 -0.49483302924E+03 -0.18885076841E+04  0.22891167551E+04  0.25500000920E-02 0. -1.
       -2    1    3    3    0  502  0.11952968330E+04  0.49483302924E+03  0.73858555846E+03  0.14896653560E+04  0.25500000920E-02 0.  1.
</event>
<event>
 5   0  0.2476968E-08  0.3600204E+04  0.7818609E-02  0.8090445E-01
        2   -1    0    0  501    0  0.00000000000E+00  0.00000000000E+00  0.14878982229E+04  0.14878982229E+04  0.25500000920E-02 0. -1.
       -2   -1    0    0    0  501  0.00000000000E+00  0.00000000000E+00 -0.21778156700E+04  0.21778156700E+04  0.25500000920E-02 0.  1.
    10030    2    1    2    0    0  0.00000000000E+00  0.00000000000E+00 -0.68991744708E+03  0.36657138928E+04  0.36002044748E+04 0.  0.
        2    1    3    3  502    0 -0.12254238807E+04  0.13061641605E+04 -0.52891032336E+03  0.18674781476E+04  0.25500000920E-02 0.  1.
       -2    1    3    3    0  502  0.12254238807E+04 -0.13061641605E+04 -0.16100712372E+03  0.17982357452E+04  0.25500000920E-02 0. -1.
</event>
<event>
 5   0  0.8024500E-09  0.3600585E+04  0.7818609E-02  0.8090358E-01
       -1   -1    0    0    0  501  0.00000000000E+00  0.00000000000E+00  0.21922144177E+04  0.21922144177E+04  0.50400001928E-02 0.  1.
        1   -1    0    0  501    0  0.00000000000E+00  0.00000000000E+00 -0.14784379528E+04  0.14784379528E+04  0.50400001928E-02 0. -1.
    10030    2    1    2    0    0  0.00000000000E+00  0.00000000000E+00  0.71377646492E+03  0.36706523706E+04  0.36005849502E+04 0.  0.
        1    1    3    3  502    0  0.84921208796E+02 -0.94058463661E+03  0.19194054897E+04  0.21391653756E+04  0.50400001928E-02 0.  1.
       -1    1    3    3    0  502 -0.84921208796E+02  0.94058463661E+03 -0.12056290248E+04  0.15314869950E+04  0.50400001928E-02 0. -1.
</event>
<event>
 5   0  0.2608070E-08  0.3600864E+04  0.7818609E-02  0.8090294E-01
       -2   -1    0    0    0  501  0.00000000000E+00  0.00000000000E+00  0.21345846785E+04  0.21345846785E+04  0.25500000920E-02 0. -1.
        2   -1    0    0  501    0  0.00000000000E+00  0.00000000000E+00 -0.15185881025E+04  0.15185881025E+04  0.25500000920E-02 0.  1.
    10030    2    1    2    0    0  0.00000000000E+00  0.00000000000E+00  0.61599657597E+03  0.36531727810E+04  0.36008637278E+04 0.  0.
        3    1    3    3  502    0  0.16751670939E+03  0.14235540947E+04 -0.79731773994E+03  0.16402084310E+04  0.10100000352E+00 0.  1.
       -3    1    3    3    0  502 -0.16751670939E+03 -0.14235540947E+04  0.14133143159E+04  0.20129643500E+04  0.10100000352E+00 0. -1.
</event>
<event>
 5   0  0.2608070E-08  0.3588433E+04  0.7818609E-02  0.8093146E-01
       -2   -1    0    0    0  501  0.00000000000E+00  0.00000000000E+00  0.13214372332E+04  0.13214372332E+04  0.25500000920E-02 0.  1.
        2   -1    0    0  501    0  0.00000000000E+00  0.00000000000E+00 -0.24361447659E+04  0.24361447660E+04  0.25500000920E-02 0. -1.
    10030    2    1    2    0    0  0.00000000000E+00  0.00000000000E+00 -0.11147075328E+04  0.37575819991E+04  0.35884327493E+04 0.  0.
        3    1    3    3  502    0  0.25608438920E+03 -0.12845334649E+04 -0.18413708964E+04  0.22597018000E+04  0.10100000352E+00 0. -1.
       -3    1    3    3    0  502 -0.25608438920E+03  0.12845334649E+04  0.72666336359E+03  0.14978801991E+04  0.10100000352E+00 0.  1.
</event>
<event>
 5   0  0.2590795E-08  0.3601702E+04  0.7818609E-02  0.8090102E-01
       -2   -1    0    0    0  501  0.00000000000E+00  0.00000000000E+00  0.14833804568E+04  0.14833804568E+04  0.25500000920E-02 0.  1.
        2   -1    0    0  501    0  0.00000000000E+00  0.00000000000E+00 -0.21862658321E+04  0.21862658321E+04  0.25500000920E-02 0. -1.
    10030    2    1    2    0    0  0.00000000000E+00  0.00000000000E+00 -0.70288537530E+03  0.36696462889E+04  0.36017018248E+04 0.  0.
        4    1    3    3  502    0  0.45374534069E+03  0.11817860991E+04  0.95356298587E+03  0.15848618865E+04  0.12699999809E+01 0.  1.
       -4    1    3    3    0  502 -0.45374534069E+03 -0.11817860991E+04 -0.16564483612E+04  0.20847844024E+04  0.12699999809E+01 0. -1.
</event>
<event>
 5   0  0.8146881E-09  0.3599119E+04  0.7818609E-02  0.8090694E-01
       -1   -1    0    0    0  501  0.00000000000E+00  0.00000000000E+00  0.18813568358E+04  0.18813568358E+04  0.50400001928E-02 0. -1.
        1   -1    0    0  501    0  0.00000000000E+00  0.00000000000E+00 -0.17213186077E+04  0.17213186077E+04  0.50400001928E-02 0.  1.
    10030    2    1    2    0    0  0.00000000000E+00  0.00000000000E+00  0.16003822811E+03  0.36026754435E+04  0.35991190751E+04 0.  0.
        4    1    3    3  502    0  0.32042530706E+03 -0.10856260637E+04  0.14803856083E+04  0.18635448720E+04  0.12699999809E+01 0. -1.
       -4    1    3    3    0  502 -0.32042530706E+03  0.10856260637E+04 -0.13203473802E+04  0.17391305715E+04  0.12699999809E+01 0.  1.
</event>
<event>
 5   0  0.8146881E-09  0.3600835E+04  0.7818609E-02  0.8090301E-01
        1   -1    0    0  501    0  0.00000000000E+00  0.00000000000E+00  0.22450100771E+04  0.22450100771E+04  0.50400001928E-02 0. -1.
       -1   -1    0    0    0  501  0.00000000000E+00  0.00000000000E+00 -0.14438699794E+04  0.14438699794E+04  0.50400001928E-02 0.  1.
    10030    2    1    2    0    0  0.00000000000E+00  0.00000000000E+00  0.80114009770E+03  0.36888800565E+04  0.36008347108E+04 0.  0.
        4    1    3    3  502    0 -0.14341082508E+02 -0.33800259915E+02  0.22446260317E+04  0.22449266712E+04  0.12699999809E+01 0. -1.
       -4    1    3    3    0  502  0.14341082508E+02  0.33800259915E+02 -0.14434859340E+04  0.14439533852E+04  0.12699999809E+01 0.  1.
</event>
<event>
 5   0  0.2482243E-08  0.3600050E+04  0.7818609E-02  0.8090480E-01
       -2   -1    0    0    0  501  0.00000000000E+00  0.00000000000E+00  0.17231927844E+04  0.17231927844E+04  0.25500000920E-02 0.  1.
        2   -1    0    0  501    0  0.00000000000E+00  0.00000000000E+00 -0.18802830443E+04  0.18802830443E+04  0.25500000920E-02 0. -1.
    10030    2    1    2    0    0  0.00000000000E+00  0.00000000000E+00 -0.15709025988E+03  0.36034758286E+04  0.36000500966E+04 0.  0.
        5    1    3    3  502    0  0.17822564004E+03  0.17643713759E+04 -0.38754157951E+03  0.18152083342E+04  0.46999998093E+01 0.  1.
       -5    1    3    3    0  502 -0.17822564004E+03 -0.17643713759E+04  0.23045131963E+03  0.17882674944E+04  0.46999998093E+01 0. -1.
</event>
<event>
 5   0  0.8146881E-09  0.3600129E+04  0.7818609E-02  0.8090462E-01
       -1   -1    0    0    0  501  0.00000000000E+00  0.00000000000E+00  0.12711490676E+04  0.12711490676E+04  0.50400001928E-02 0. -1.
        1   -1    0    0  501    0  0.00000000000E+00  0.00000000000E+00 -0.25490582385E+04  0.25490582385E+04  0.50400001928E-02 0.  1.
    10030    2    1    2    0    0  0.00000000000E+00  0.00000000000E+00 -0.12779091709E+04  0.38202073061E+04  0.36001294438E+04 0.  0.
        4    1    3    3  502    0  0.13260053936E+04 -0.90151888569E+03  0.22910259399E+03  0.16197272044E+04  0.12699999809E+01 0. -1.
       -4    1    3    3    0  502 -0.13260053936E+04  0.90151888569E+03 -0.15070117649E+04  0.22004801017E+04  0.12699999809E+01 0.  1.
</event>
<event>
 5   0  0.2608070E-08  0.3600601E+04  0.7818609E-02  0.8090354E-01
        2   -1    0    0  501    0  0.00000000000E+00  0.00000000000E+00  0.26531063444E+04  0.26531063444E+04  0.25500000920E-02 0.  1.
       -2   -1    0    0    0  501  0.00000000000E+00  0.00000000000E+00 -0.12216175465E+04  0.12216175465E+04  0.25500000920E-02 0. -1.
    10030    2    1    2    0    0  0.00000000000E+00  0.00000000000E+00  0.14314887978E+04  0.38747238909E+04  0.36006006516E+04 0.  0.
        3    1    3    3  502    0 -0.10633866556E+04  0.37161219993E+03  0.22270095593E+04  0.24956879600E+04  0.10100000352E+00 0.  1.
       -3    1    3    3    0  502  0.10633866556E+04 -0.37161219993E+03 -0.79552076145E+03  0.13790359309E+04  0.10100000352E+00 0. -1.
</event>
<event>
 5   0  0.2608070E-08  0.3597957E+04  0.7818609E-02  0.8090960E-01
        2   -1    0    0  501    0  0.00000000000E+00  0.00000000000E+00  0.18039541533E+04  0.18039541533E+04  0.25500000920E-02 0. -1.
       -2   -1    0    0    0  501  0.00000000000E+00  0.00000000000E+00 -0.17940166357E+04  0.17940166357E+04  0.25500000920E-02 0.  1.
    10030    2    1    2    0    0  0.00000000000E+00  0.00000000000E+00  0.99375175563E+01  0.35979707890E+04  0.35979570654E+04 0.  0.
        3    1    3    3  502    0  0.20569822975E+03 -0.16890886548E+03  0.17841556327E+04  0.18038994702E+04  0.10100000352E+00 0. -1.
       -3    1    3    3    0  502 -0.20569822975E+03  0.16890886548E+03 -0.17742181152E+04  0.17940713188E+04  0.10100000352E+00 0.  1.
</event>
<event>
 5   0  0.8146881E-09  0.3600846E+04  0.7818609E-02  0.8090298E-01
        1   -1    0    0  501    0  0.00000000000E+00  0.00000000000E+00  0.26401084428E+04  0.26401084428E+04  0.50400001928E-02 0.  1.
       -1   -1    0    0    0  501  0.00000000000E+00  0.00000000000E+00 -0.12277988561E+04  0.12277988561E+04  0.50400001928E-02 0. -1.
    10030    2    1    2    0    0  0.00000000000E+00  0.00000000000E+00  0.14123095867E+04  0.38679072989E+04  0.36008455262E+04 0.  0.
        4    1    3    3  502    0 -0.32846279204E+03  0.17701975521E+04  0.69995303536E+03  0.19316891685E+04  0.12699999809E+01 0.  1.
       -4    1    3    3    0  502  0.32846279204E+03 -0.17701975521E+04  0.71235655133E+03  0.19362181303E+04  0.12699999809E+01 0. -1.
</event>
<event>
 5   0  0.8247570E-09  0.3599211E+04  0.7818609E-02  0.8090673E-01
        1   -1    0    0  501    0  0.00000000000E+00  0.00000000000E+00  0.18908665216E+04  0.18908665216E+04  0.50400001928E-02 0.  1.
       -1   -1    0    0    0  501  0.00000000000E+00  0.00000000000E+00 -0.17127488556E+04  0.17127488556E+04  0.50400001928E-02 0. -1.
    10030    2    1    2    0    0  0.00000000000E+00  0.00000000000E+00  0.17811766597E+03  0.36036153772E+04  0.35992107307E+04 0.  0.
        3    1    3    3  502    0  0.12430053360E+04  0.10242102660E+04 -0.71473776541E+03  0.17620780396E+04  0.10100000352E+00 0. -1.
       -3    1    3    3    0  502 -0.12430053360E+04 -0.10242102660E+04  0.89285543138E+03  0.18415373376E+04  0.10100000352E+00 0.  1.
</event>
<event>
 5   0  0.8146881E-09  0.3599018E+04  0.7818609E-02  0.8090717E-01
        1   -1    0    0  501    0  0.00000000000E+00  0.00000000000E+00  0.25706032388E+04  0.25706032388E+04  0.50400001928E-02 0. -1.
       -1   -1    0    0    0  501  0.00000000000E+00  0.00000000000E+00 -0.12597169386E+04  0.12597169386E+04  0.50400001928E-02 0.  1.
    10030    2    1    2    0    0  0.00000000000E+00  0.00000000000E+00  0.13108863002E+04  0.38303201774E+04  0.35990178895E+04 0.  0.
        4    1    3    3  502    0  0.71460177380E+03  0.13784021208E+04 -0.31273835441E+03  0.15838102768E+04  0.12699999809E+01 0.  1.
       -4    1    3    3    0  502 -0.71460177380E+03 -0.13784021208E+04  0.16236246546E+04  0.22465099006E+04  0.12699999809E+01 0. -1.
</event>
<event>
 5   0  0.2482243E-08  0.3599597E+04  0.7818609E-02  0.8090584E-01
       -2   -1    0    0    0  501  0.00000000000E+00  0.00000000000E+00  0.15128512764E+04  0.15128512764E+04  0.25500000920E-02 0.  1.
        2   -1    0    0  501    0  0.00000000000E+00  0.00000000000E+00 -0.21411724420E+04  0.21411724420E+04  0.25500000920E-02 0. -1.
    10030    2    1    2    0    0  0.00000000000E+00  0.00000000000E+00 -0.62832116556E+03  0.36540237184E+04  0.35995974563E+04 0.  0.
        5    1    3    3  502    0  0.14253642276E+04 -0.25955847012E+03 -0.13981166365E+04  0.20134015993E+04  0.46999998093E+01 0. -1.
       -5    1    3    3    0  502 -0.14253642276E+04  0.25955847012E+03  0.76979547094E+03  0.16406221191E+04  0.46999998093E+01 0.  1.
</event>
<event>
 5   0  0.8146881E-09  0.3596664E+04  0.7818609E-02  0.8091256E-01
       -1   -1    0    0    0  501  0.00000000000E+00  0.00000000000E+00  0.15856580681E+04  0.15856580681E+04  0.50400001928E-02 0. -1.
        1   -1    0    0  501    0  0.00000000000E+00  0.00000000000E+00 -0.20395302572E+04  0.20395302572E+04  0.50400001928E-02 0.  1.
    10030    2    1    2    0    0  0.00000000000E+00  0.00000000000E+00 -0.45387218919E+03  0.36251883253E+04  0.35966637916E+04 0.  0.
        4    1    3    3  502    0 -0.92504550563E+03  0.14903268199E+04  0.17270914984E+03  0.17625587312E+04  0.12699999809E+01 0. -1.
       -4    1    3    3    0  502  0.92504550563E+03 -0.14903268199E+04 -0.62658133903E+03  0.18626295941E+04  0.12699999809E+01 0.  1.
</event>
<event>
 5   0  0.8063410E-09  0.3598694E+04  0.7818609E-02  0.8090791E-01
       -1   -1    0    0    0  501  0.00000000000E+00  0.00000000000E+00  0.29971211276E+04  0.29971211276E+04  0.50400001928E-02 0.  1.
        1   -1    0    0  501    0  0.00000000000E+00  0.00000000000E+00 -0.10802529549E+04  0.10802529549E+04  0.50400001928E-02 0. -1.
    10030    2    1    2    0    0  0.00000000000E+00  0.00000000000E+00  0.19168681727E+04  0.40773740825E+04  0.35986936264E+04 0.  0.
        2    1    3    3  502    0  0.62294547278E+03  0.10804660039E+04 -0.51107426572E+03  0.13478370646E+04  0.25500000920E-02 0. -1.
       -2    1    3    3    0  502 -0.62294547278E+03 -0.10804660039E+04  0.24279424384E+04  0.27295370179E+04  0.25500000920E-02 0.  1.
</event>
<event>
 5   0  0.8024500E-09  0.3598339E+04  0.7818609E-02  0.8090872E-01
        1   -1    0    0  501    0  0.00000000000E+00  0.00000000000E+00  0.11393283467E+04  0.11393283467E+04  0.50400001928E-02 0.  1.
       -1   -1    0    0    0  501  0.00000000000E+00  0.00000000000E+00 -0.28411577839E+04  0.28411577839E+04  0.50400001928E-02 0. -1.
    10030    2    1    2    0    0  0.00000000000E+00  0.00000000000E+00 -0.17018294371E+04  0.39804861306E+04  0.35983393952E+04 0.  0.
        5    1    3    3  502    0  0.57934483847E+02  0.15724376516E+04  0.11412931785E+03  0.15776451324E+04  0.46999998093E+01 0.  1.
       -5    1    3    3    0  502 -0.57934483847E+02 -0.15724376516E+04 -0.18159587550E+04  0.24028409982E+04  0.46999998093E+01 0. -1.
</event>
<event>
 5   0  0.2476968E-08  0.3600825E+04  0.7818609E-02  0.8090303E-01
        2   -1    0    0  501    0  0.00000000000E+00  0.00000000000E+00  0.24882457631E+04  0.24882457631E+04  0.25500000920E-02 0.  1.
       -2   -1    0    0    0  501  0.00000000000E+00  0.00000000000E+00 -0.13027188244E+04  0.13027188244E+04  0.25500000920E-02 0. -1.
    10030    2    1    2    0    0  0.00000000000E+00  0.00000000000E+00  0.11855269387E+04  0.37909645875E+04  0.36008246808E+04 0.  0.
        2    1    3    3  502    0  0.12193768088E+04 -0.58958909071E+03 -0.65603736077E+03  0.15049518652E+04  0.25500000920E-02 0. -1.
       -2    1    3    3    0  502 -0.12193768088E+04  0.58958909071E+03  0.18415642995E+04  0.22860127224E+04  0.25500000920E-02 0.  1.
</event>
<event>
 5   0  0.2590795E-08  0.3601947E+04  0.7818609E-02  0.8090046E-01
        2   -1    0    0  501    0  0.00000000000E+00  0.00000000000E+00  0.12096255928E+04  0.12096255928E+04  0.25500000920E-02 0.  1.
       -2   -1    0    0    0  501  0.00000000000E+00  0.00000000000E+00 -0.26814135128E+04  0.26814135128E+04  0.25500000920E-02 0. -1.
    10030    2    1    2    0    0  0.00000000000E+00  0.00000000000E+00 -0.14717879200E+04  0.38910391057E+04  0.36019474788E+04 0.  0.
        4    1    3    3  502    0  0.10001831561E+04 -0.13715894770E+04 -0.13857407311E+04  0.21913244912E+04  0.12699999809E+01 0. -1.
       -4    1    3    3    0  502 -0.10001831561E+04  0.13715894770E+04 -0.86047188942E+02  0.16997146145E+04  0.12699999809E+01 0.  1.
</event>
<event>
 5   0  0.2608070E-08  0.3600068E+04  0.7818609E-02  0.8090476E-01
        2   -1    0    0  501    0  0.00000000000E+00  0.00000000000E+00  0.19622052417E+04  0.19622052417E+04  0.25500000920E-02 0. -1.
       -2   -1    0    0    0  501  0.00000000000E+00  0.00000000000E+00 -0.16512658011E+04  0.16512658011E+04  0.25500000920E-02 0.  1.
    10030    2    1    2    0    0  0.00000000000E+00  0.00000000000E+00  0.31093944060E+03  0.36134710428E+04  0.36000680051E+04 0.  0.
        3    1    3    3  502    0 -0.94098607995E+03 -0.14065973183E+04 -0.46012561493E+03  0.17537634990E+04  0.10100000352E+00 0.  1.
       -3    1    3    3    0  502  0.94098607995E+03  0.14065973183E+04  0.77106505553E+03  0.18597075438E+04  0.10100000352E+00 0. -1.
</event>
<event>
 5   0  0.8024500E-09  0.3598577E+04  0.7818609E-02  0.8090818E-01
       -1   -1    0    0    0  501  0.00000000000E+00  0.00000000000E+00  0.11779195850E+04  0.11779195850E+04  0.50400001928E-02 0.  1.
        1   -1    0    0  501    0  0.00000000000E+00  0.00000000000E+00 -0.27484377100E+04  0.27484377100E+04  0.50400001928E-02 0. -1.
    10030    2    1    2    0    0  0.00000000000E+00  0.00000000000E+00 -0.15705181250E+04  0.39263572950E+04  0.35985767224E+04 0.  0.
        1    1    3    3  502    0  0.45883288316E+03 -0.10030742565E+04  0.76575476712E+03  0.13427829095E+04  0.50400001928E-02 0.  1.
       -1    1    3    3    0  502 -0.45883288316E+03  0.10030742565E+04 -0.23362728921E+04  0.25835743854E+04  0.50400001928E-02 0. -1.
</event>
<event>
 5   0  0.8247570E-09  0.3600021E+04  0.7818609E-02  0.8090487E-01
        1   -1    0    0  501    0  0.00000000000E+00  0.00000000000E+00  0.90582414311E+03  0.90582414312E+03  0.50400001928E-02 0. -1.
       -1   -1    0    0    0  501  0.00000000000E+00  0.00000000000E+00 -0.35768953311E+04  0.35768953311E+04  0.50400001928E-02 0.  1.
    10030    2    1    2    0    0  0.00000000000E+00  0.00000000000E+00 -0.26710711880E+04  0.44827194743E+04  0.36000211935E+04 0.  0.
        3    1    3    3  502    0  0.28164001274E+03  0.10158212307E+04  0.48126143335E+03  0.11588038863E+04  0.10100000352E+00 0. -1.
       -3    1    3    3    0  502 -0.28164001274E+03 -0.10158212307E+04 -0.31523326214E+04  0.33239155879E+04  0.10100000352E+00 0.  1.
</event>
<event>
 5   0  0.8024500E-09  0.3600725E+04  0.7818609E-02  0.8090326E-01
        1   -1    0    0  501    0  0.00000000000E+00  0.00000000000E+00  0.30904072481E+04  0.30904072481E+04  0.50400001928E-02 0.  1.
       -1   -1    0    0    0  501  0.00000000000E+00  0.00000000000E+00 -0.10488276173E+04  0.10488276173E+04  0.50400001928E-02 0. -1.
    10030    2    1    2    0    0  0.00000000000E+00  0.00000000000E+00  0.20415796308E+04  0.41392348655E+04  0.36007246330E+04 0.  0.
        5    1    3    3  502    0  0.16692285315E+04  0.27371225828E+03  0.31211848134E+03  0.17200820699E+04  0.46999998093E+01 0.  1.
       -5    1    3    3    0  502 -0.16692285315E+04 -0.27371225828E+03  0.17294611494E+04  0.24191527956E+04  0.46999998093E+01 0. -1.
</event>
<event>
 5   0  0.8024500E-09  0.3598012E+04  0.7818609E-02  0.8090947E-01
        1   -1    0    0  501    0  0.00000000000E+00  0.00000000000E+00  0.14813694705E+04  0.14813694705E+04  0.50400001928E-02 0. -1.
       -1   -1    0    0    0  501  0.00000000000E+00  0.00000000000E+00 -0.21847499178E+04  0.21847499178E+04  0.50400001928E-02 0.  1.
    10030    2    1    2    0    0  0.00000000000E+00  0.00000000000E+00 -0.70338044727E+03  0.36661193883E+04  0.35980115780E+04 0.  0.
        5    1    3    3  502    0  0.10133321249E+04 -0.27841739248E+03 -0.18394810418E+04  0.21185067460E+04  0.46999998093E+01 0.  1.
       -5    1    3    3    0  502 -0.10133321249E+04  0.27841739248E+03  0.11361005945E+04  0.15476126423E+04  0.46999998093E+01 0. -1.
</event>
<event>
 5   0  0.2476968E-08  0.3600298E+04  0.7818609E-02  0.8090423E-01
       -2   -1    0    0    0  501  0.00000000000E+00  0.00000000000E+00  0.23127540474E+04  0.23127540474E+04  0.25500000920E-02 0. -1.
        2   -1    0    0  501    0  0.00000000000E+00  0.00000000000E+00 -0.14011589715E+04  0.14011589715E+04  0.25500000920E-02 0.  1.
    10030    2    1    2    0    0  0.00000000000E+00  0.00000000000E+00  0.91159507589E+03  0.37139130190E+04  0.36002978113E+04 0.  0.
        2    1    3    3  502    0 -0.46427419712E+02  0.17189262367E+04 -0.93619891683E+02  0.17220997638E+04  0.25500000920E-02 0.  1.
       -2    1    3    3    0  502  0.46427419712E+02 -0.17189262367E+04  0.10052149676E+04  0.19918132552E+04  0.25500000920E-02 0. -1.
</event>
<event>
 5   0  0.2476968E-08  0.3589991E+04  0.7818609E-02  0.8092788E-01
       -2   -1    0    0    0  501  0.00000000000E+00  0.00000000000E+00  0.13018189414E+04  0.13018189414E+04  0.25500000920E-02 0. -1.
        2   -1    0    0  501    0  0.00000000000E+00  0.00000000000E+00 -0.24750056345E+04  0.24750056345E+04  0.25500000920E-02 0.  1.
    10030    2    1    2    0    0  0.00000000000E+00  0.00000000000E+00 -0.11731866930E+04  0.37768245759E+04  0.35899912062E+04 0.  0.
        2    1    3    3  502    0 -0.14206538876E+04  0.68881434186E+03  0.31183310605E+03  0.16093360593E+04  0.25500000920E-02 0. -1.
       -2    1    3    3    0  502  0.14206538876E+04 -0.68881434186E+03 -0.14850197991E+04  0.21674885166E+04  0.25500000920E-02 0.  1.
</event>
<event>
 5   0  0.8247570E-09  0.3599379E+04  0.7818609E-02  0.8090634E-01
       -1   -1    0    0    0  501  0.00000000000E+00  0.00000000000E+00  0.16964107524E+04  0.16964107524E+04  0.50400001928E-02 0. -1.
        1   -1    0    0  501    0  0.00000000000E+00  0.00000000000E+00 -0.19092563093E+04  0.19092563093E+04  0.50400001928E-02 0.  1.
    10030    2    1    2    0    0  0.00000000000E+00  0.00000000000E+00 -0.21284555693E+03  0.36056670617E+04  0.35993793533E+04 0.  0.
        3    1    3    3  502    0 -0.97683913814E+02 -0.17892446700E+04  0.61034685596E+02  0.17929483760E+04  0.10100000352E+00 0.  1.
       -3    1    3    3    0  502  0.97683913814E+02  0.17892446700E+04 -0.27388024252E+03  0.18127186857E+04  0.10100000352E+00 0. -1.
</event>
<event>
 5   0  0.8024500E-09  0.3599819E+04  0.7818609E-02  0.8090533E-01
       -1   -1    0    0    0  501  0.00000000000E+00  0.00000000000E+00  0.98268947771E+03  0.98268947773E+03  0.50400001928E-02 0. -1.
        1   -1    0    0  501    0  0.00000000000E+00  0.00000000000E+00 -0.32967424665E+04  0.32967424665E+04  0.50400001928E-02 0.  1.
    10030    2    1    2    0    0  0.00000000000E+00  0.00000000000E+00 -0.23140529888E+04  0.42794319443E+04  0.35998189580E+04 0.  0.
        1    1    3    3  502    0 -0.15498351045E+02 -0.12882733887E+04  0.33715908664E+03  0.13317525193E+04  0.50400001928E-02 0. -1.
       -1    1    3    3    0  502  0.15498351045E+02  0.12882733887E+04 -0.26512120755E+04  0.29476794249E+04  0.50400001928E-02 0.  1.
</event>
<event>
 5   0  0.2494592E-08  0.3597413E+04  0.7818609E-02  0.8091084E-01
       -2   -1    0    0    0  501  0.00000000000E+00  0.00000000000E+00  0.13490552427E+04  0.13490552427E+04  0.25500000920E-02 0. -1.
        2   -1    0    0  501    0  0.00000000000E+00  0.00000000000E+00 -0.23982305721E+04  0.23982305721E+04  0.25500000920E-02 0.  1.
    10030    2    1    2    0    0  0.00000000000E+00  0.00000000000E+00 -0.10491753293E+04  0.37472858148E+04  0.35974132521E+04 0.  0.
        1    1    3    3  502    0  0.79382397915E+03  0.16009518544E+04 -0.73842570732E+03  0.19335138673E+04  0.50400001928E-02 0.  1.
       -1    1    3    3    0  502 -0.79382397915E+03 -0.16009518544E+04 -0.31074962203E+03  0.18137719475E+04  0.50400001928E-02 0. -1.
</event>
<event>
 5   0  0.2482243E-08  0.3600156E+04  0.7818609E-02  0.8090456E-01
       -2   -1    0    0    0  501  0.00000000000E+00  0.00000000000E+00  0.23510117471E+04  0.23510117471E+04  0.25500000920E-02 0.  1.
        2   -1    0    0  501    0  0.00000000000E+00  0.00000000000E+00 -0.13782496089E+04  0.13782496089E+04  0.25500000920E-02 0. -1.
    10030    2    1    2    0    0  0.00000000000E+00  0.00000000000E+00  0.97276213820E+03  0.37292613560E+04  0.36001561194E+04 0.  0.
        5    1    3    3  502    0  0.15549546557E+04  0.61618512703E+03  0.11755913611E+04  0.20444082836E+04  0.46999998093E+01 0.  1.
       -5    1    3    3    0  502 -0.15549546557E+04 -0.61618512703E+03 -0.20282922287E+03  0.16848530724E+04  0.46999998093E+01 0. -1.
</event>
<event>
 5   0  0.8063410E-09  0.3600175E+04  0.7818609E-02  0.8090452E-01
       -1   -1    0    0    0  501  0.00000000000E+00  0.00000000000E+00  0.16502654033E+04  0.16502654033E+04  0.50400001928E-02 0. -1.
        1   -1    0    0  501    0  0.00000000000E+00  0.00000000000E+00 -0.19635114060E+04  0.19635114060E+04  0.50400001928E-02 0.  1.
    10030    2    1    2    0    0  0.00000000000E+00  0.00000000000E+00 -0.31324600267E+03  0.36137768094E+04  0.36001749638E+04 0.  0.
        2    1    3    3  502    0 -0.68459300633E+03  0.15608849429E+04 -0.73784914352E+03  0.18572697025E+04  0.25500000920E-02 0.  1.
       -2    1    3    3    0  502  0.68459300633E+03 -0.15608849429E+04  0.42460314085E+03  0.17565071069E+04  0.25500000920E-02 0. -1.
</event>
<event>
 5   0  0.8063410E-09  0.3592683E+04  0.7818609E-02  0.8092170E-01
        1   -1    0    0  501    0  0.00000000000E+00  0.00000000000E+00  0.17143663159E+04  0.17143663159E+04  0.50400001928E-02 0.  1.
       -1   -1    0    0    0  501  0.00000000000E+00  0.00000000000E+00 -0.18822367715E+04  0.18822367715E+04  0.50400001928E-02 0. -1.
    10030    2    1    2    0    0  0.00000000000E+00  0.00000000000E+00 -0.16787045560E+03  0.35966030875E+04  0.35926832979E+04 0.  0.
        2    1    3    3  502    0 -0.69170492284E+02 -0.36272048052E+03 -0.18438329650E+04  0.18804442845E+04  0.25500000920E-02 0. -1.
       -2    1    3    3    0  502  0.69170492284E+02  0.36272048052E+03  0.16759625094E+04  0.17161588030E+04  0.25500000920E-02 0.  1.
</event>
<event>
 5   0  0.8247570E-09  0.3600159E+04  0.7818609E-02  0.8090455E-01
       -1   -1    0    0    0  501  0.00000000000E+00  0.00000000000E+00  0.16548648148E+04  0.16548648149E+04  0.50400001928E-02 0.  1.
        1   -1    0    0  501    0  0.00000000000E+00  0.00000000000E+00 -0.19580364020E+04  0.19580364021E+04  0.50400001928E-02 0. -1.
    10030    2    1    2    0    0  0.00000000000E+00  0.00000000000E+00 -0.30317158720E+03  0.36129012169E+04  0.36001586343E+04 0.  0.
        3    1    3    3  502    0 -0.13014971257E+04 -0.41389951244E+03 -0.13283734678E+04  0.19051991115E+04  0.10100000352E+00 0. -1.
       -3    1    3    3    0  502  0.13014971257E+04  0.41389951244E+03  0.10252018806E+04  0.17077021054E+04  0.10100000352E+00 0.  1.
</event>
<event>
 5   0  0.2608070E-08  0.3589125E+04  0.7818609E-02  0.8092987E-01
        2   -1    0    0  501    0  0.00000000000E+00  0.00000000000E+00  0.20550550046E+04  0.20550550046E+04  0.25500000920E-02 0.  1.
       -2   -1    0    0    0  501  0.00000000000E+00  0.00000000000E+00 -0.15670893392E+04  0.15670893392E+04  0.25500000920E-02 0. -1.
    10030    2    1    2    0    0  0.00000000000E+00  0.00000000000E+00  0.48796566547E+03  0.36221443438E+04  0.35891251241E+04 0.  0.
        3    1    3    3  502    0 -0.11562756336E+04 -0.23069508687E+03 -0.11213347793E+04  0.16271402095E+04  0.10100000352E+00 0. -1.
       -3    1    3    3    0  502  0.11562756336E+04  0.23069508687E+03  0.16093004448E+04  0.19950041343E+04  0.10100000352E+00 0.  1.
</event>
<event>
 5   0  0.8024500E-09  0.3599739E+04  0.7818609E-02  0.8090551E-01
       -1   -1    0    0    0  501  0.00000000000E+00  0.00000000000E+00  0.16546627966E+04  0.16546627966E+04  0.50400001928E-02 0.  1.
        1   -1    0    0  501    0  0.00000000000E+00  0.00000000000E+00 -0.19578190991E+04  0.19578190992E+04  0.50400001928E-02 0. -1.
    10030    2    1    2    0    0  0.00000000000E+00  0.00000000000E+00 -0.30315630253E+03  0.36124818958E+04  0.35997391160E+04 0.  0.
        5    1    3    3  502    0  0.32878147274E+03 -0.54966519504E+01 -0.19274131001E+04  0.19552674545E+04  0.46999998093E+01 0. -1.
       -5    1    3    3    0  502 -0.32878147274E+03  0.54966519504E+01  0.16242567976E+04  0.16572144413E+04  0.46999998093E+01 0.  1.
</event>
<event>
 5   0  0.8146881E-09  0.3599214E+04  0.7818609E-02  0.8090672E-01
        1   -1    0    0  501    0  0.00000000000E+00  0.00000000000E+00  0.14225324935E+04  0.14225324935E+04  0.50400001928E-02 0. -1.
       -1   -1    0    0    0  501  0.00000000000E+00  0.00000000000E+00 -0.22766339187E+04  0.22766339187E+04  0.50400001928E-02 0.  1.
    10030    2    1    2    0    0  0.00000000000E+00  0.00000000000E+00 -0.85410142519E+03  0.36991664121E+04  0.35992142059E+04 0.  0.
        4    1    3    3  502    0  0.32373107301E+03 -0.12436496501E+04  0.86774354061E+03  0.15506278486E+04  0.12699999809E+01 0. -1.
       -4    1    3    3    0  502 -0.32373107301E+03  0.12436496501E+04 -0.17218449658E+04  0.21485385635E+04  0.12699999809E+01 0.  1.
</event>
<event>
 5   0  0.2608070E-08  0.3599263E+04  0.7818609E-02  0.8090661E-01
       -2   -1    0    0    0  501  0.00000000000E+00  0.00000000000E+00  0.14881072442E+04  0.14881072442E+04  0.25500000920E-02 0.  1.
        2   -1    0    0  501    0  0.00000000000E+00  0.00000000000E+00 -0.21763707802E+04  0.21763707802E+04  0.25500000920E-02 0. -1.
    10030    2    1    2    0    0  0.00000000000E+00  0.00000000000E+00 -0.68826353607E+03  0.36644780244E+04  0.35992627712E+04 0.  0.
        3    1    3    3  502    0  0.15551253721E+04  0.38748414365E+03  0.48930563582E+03  0.16757025093E+04  0.10100000352E+00 0.  1.
       -3    1    3    3    0  502 -0.15551253721E+04 -0.38748414365E+03 -0.11775691719E+04  0.19887755150E+04  0.10100000352E+00 0. -1.
</event>
<event>
 5   0  0.2482243E-08  0.3599746E+04  0.7818609E-02  0.8090550E-01
        2   -1    0    0  501    0  0.00000000000E+00  0.00000000000E+00  0.18220792951E+04  0.18220792951E+04  0.25500000920E-02 0. -1.
       -2   -1    0    0    0  501  0.00000000000E+00  0.00000000000E+00 -0.17779372238E+04  0.17779372238E+04  0.25500000920E-02 0.  1.
    10030    2    1    2    0    0  0.00000000000E+00  0.00000000000E+00  0.44142071306E+02  0.36000165189E+04  0.35997458819E+04 0.  0.
        5    1    3    3  502    0  0.23425801222E+03  0.83531175198E+03  0.15991797604E+04  0.18193461835E+04  0.46999998093E+01 0. -1.
       -5    1    3    3    0  502 -0.23425801222E+03 -0.83531175198E+03 -0.15550376891E+04  0.17806703355E+04  0.46999998093E+01 0.  1.
</event>
<event>
 5   0  0.2482243E-08  0.3602369E+04  0.7818609E-02  0.8089949E-01
       -2   -1    0    0    0  501  0.00000000000E+00  0.00000000000E+00  0.27398781531E+04  0.27398781531E+04  0.25500000920E-02 0.  1.
        2   -1    0    0  501    0  0.00000000000E+00  0.00000000000E+00 -0.11840915133E+04  0.11840915133E+04  0.25500000920E-02 0. -1.
    10030    2    1    2    0    0  0.00000000000E+00  0.00000000000E+00  0.15557866398E+04  0.39239696664E+04  0.36023694805E+04 0.  0.
        5    1    3    3  502    0  0.58848979725E+03 -0.45422367954E+03  0.25649694292E+04  0.26705298454E+04  0.46999998093E+01 0.  1.
       -5    1    3    3    0  502 -0.58848979725E+03  0.45422367954E+03 -0.10091827894E+04  0.12534398210E+04  0.46999998093E+01 0. -1.
</event>
<event>
 5   0  0.2482243E-08  0.3600483E+04  0.7818609E-02  0.8090381E-01
        2   -1    0    0  501    0  0.00000000000E+00  0.00000000000E+00  0.15758087507E+04  0.15758087507E+04  0.25500000920E-02 0.  1.
       -2   -1    0    0    0  501  0.00000000000E+00  0.00000000000E+00 -0.20566388456E+04  0.20566388456E+04  0.25500000920E-02 0. -1.
    10030    2    1    2    0    0  0.00000000000E+00  0.00000000000E+00 -0.48083009485E+03  0.36324475963E+04  0.36004830176E+04 0.  0.
        5    1    3    3  502    0 -0.86733101710E+03 -0.15112608567E+04  0.21601152020E+03  0.17558062356E+04  0.46999998093E+01 0. -1.
       -5    1    3    3    0  502  0.86733101710E+03  0.15112608567E+04 -0.69684161505E+03  0.18766413607E+04  0.46999998093E+01 0.  1.
</event>
<event>
 5   0  0.2476968E-08  0.3597972E+04  0.7818609E-02  0.8090956E-01
        2   -1    0    0  501    0  0.00000000000E+00  0.00000000000E+00  0.24538051548E+04  0.24538051548E+04  0.25500000920E-02 0. -1.
       -2   -1    0    0    0  501  0.00000000000E+00  0.00000000000E+00 -0.13189106468E+04  0.13189106468E+04  0.25500000920E-02 0.  1.
    10030    2    1    2    0    0  0.00000000000E+00  0.00000000000E+00  0.11348945080E+04  0.37727158017E+04  0.35979715085E+04 0.  0.
        2    1    3    3  502    0 -0.24540990603E+03  0.80912754359E+03  0.22324707829E+04  0.23872241622E+04  0.25500000920E-02 0. -1.
       -2    1    3    3    0  502  0.24540990603E+03 -0.80912754359E+03 -0.10975762749E+04  0.13854916395E+04  0.25500000920E-02 0.  1.
</event>
<event>
 5   0  0.2590795E-08  0.3602137E+04  0.7818609E-02  0.8090002E-01
        2   -1    0    0  501    0  0.00000000000E+00  0.00000000000E+00  0.29714434645E+04  0.29714434645E+04  0.25500000920E-02 0.  1.
       -2   -1    0    0    0  501  0.00000000000E+00  0.00000000000E+00 -0.10916739415E+04  0.10916739415E+04  0.25500000920E-02 0. -1.
    10030    2    1    2    0    0  0.00000000000E+00  0.00000000000E+00  0.18797695230E+04  0.40631174059E+04  0.36021368096E+04 0.  0.
        4    1    3    3  502    0 -0.16949180704E+04  0.26263843506E+03  0.31988917316E+03  0.17447225880E+04  0.12699999809E+01 0. -1.
       -4    1    3    3    0  502  0.16949180704E+04 -0.26263843506E+03  0.15598803498E+04  0.23183948179E+04  0.12699999809E+01 0.  1.
</event>
<event>
 5   0  0.2608070E-08  0.3599950E+04  0.7818609E-02  0.8090503E-01
        2   -1    0    0  501    0  0.00000000000E+00  0.00000000000E+00  0.19909404026E+04  0.19909404026E+04  0.25500000920E-02 0.  1.
       -2   -1    0    0    0  501  0.00000000000E+00  0.00000000000E+00 -0.16273262919E+04  0.16273262919E+04  0.25500000920E-02 0. -1.
    10030    2    1    2    0    0  0.00000000000E+00  0.00000000000E+00  0.36361411070E+03  0.36182666944E+04  0.35999498122E+04 0.  0.
        3    1    3    3  502    0 -0.17469220706E+04  0.15680850995E+03 -0.22470606809E+03  0.17682812154E+04  0.10100000352E+00 0. -1.
       -3    1    3    3    0  502  0.17469220706E+04 -0.15680850995E+03  0.58832017879E+03  0.18499854790E+04  0.10100000352E+00 0.  1.
</event>
<event>
 5   0  0.2482243E-08  0.3597727E+04  0.7818609E-02  0.8091013E-01
        2   -1    0    0  501    0  0.00000000000E+00  0.00000000000E+00  0.25656068227E+04  0.25656068227E+04  0.25500000920E-02 0. -1.
       -2   -1    0    0    0  501  0.00000000000E+00  0.00000000000E+00 -0.12612648117E+04  0.12612648117E+04  0.25500000920E-02 0.  1.
    10030    2    1    2    0    0  0.00000000000E+00  0.00000000000E+00  0.13043420111E+04  0.38268716344E+04  0.35977268413E+04 0.  0.
        5    1    3    3  502    0  0.16478134547E+04  0.68054453284E+03  0.90714093938E+03  0.20003391754E+04  0.46999998093E+01 0. -1.
       -5    1    3    3    0  502 -0.16478134547E+04 -0.68054453284E+03  0.39720107168E+03  0.18265324590E+04  0.46999998093E+01 0.  1.
</event>
<event>
 5   0  0.2494592E-08  0.3599960E+04  0.7818609E-02  0.8090501E-01
        2   -1    0    0  501    0  0.00000000000E+00  0.00000000000E+00  0.18518028061E+04  0.18518028061E+04  0.25500000920E-02 0. -1.
       -2   -1    0    0    0  501  0.00000000000E+00  0.00000000000E+00 -0.17496077511E+04  0.17496077511E+04  0.25500000920E-02 0.  1.
    10030    2    1    2    0    0  0.00000000000E+00  0.00000000000E+00  0.10219505497E+03  0.36014105572E+04  0.35999603014E+04 0.  0.
        1    1    3    3  502    0  0.19386189339E+03  0.11008838391E+04 -0.13602865039E+04  0.17606552853E+04  0.50400001928E-02 0.  1.
       -1    1    3    3    0  502 -0.19386189339E+03 -0.11008838391E+04  0.14624815588E+04  0.18407552719E+04  0.50400001928E-02 0. -1.
</event>
<event>
 5   0  0.2494592E-08  0.3602456E+04  0.7818609E-02  0.8089929E-01
        2   -1    0    0  501    0  0.00000000000E+00  0.00000000000E+00  0.14393918491E+04  0.14393918491E+04  0.25500000920E-02 0. -1.
       -2   -1    0    0    0  501  0.00000000000E+00  0.00000000000E+00 -0.22540234923E+04  0.22540234923E+04  0.25500000920E-02 0.  1.
    10030    2    1    2    0    0  0.00000000000E+00  0.00000000000E+00 -0.81463164315E+03  0.36934153414E+04  0.36024564078E+04 0.  0.
        1    1    3    3  502    0 -0.16081932572E+04 -0.38436559518E+03 -0.11397776449E+04  0.20082618214E+04  0.50400001928E-02 0.  1.
       -1    1    3    3    0  502  0.16081932572E+04  0.38436559518E+03  0.32514600176E+03  0.16851535200E+04  0.50400001928E-02 0. -1.
</event>
<event>
 5   0  0.8063410E-09  0.3600312E+04  0.7818609E-02  0.8090420E-01
       -1   -1    0    0    0  501  0.00000000000E+00  0.00000000000E+00  0.11432148509E+04  0.11432148509E+04  0.50400001928E-02 0.  1.
        1   -1    0    0  501    0  0.00000000000E+00  0.00000000000E+00 -0.28346048122E+04  0.28346048122E+04  0.50400001928E-02 0. -1.
    10030    2    1    2    0    0  0.00000000000E+00  0.00000000000E+00 -0.16913899613E+04  0.39778196631E+04  0.36003123852E+04 0.  0.
        2    1    3    3  502    0  0.16066451109E+04  0.42471600067E+03 -0.81131100042E+02  0.16638132254E+04  0.25500000920E-02 0.  1.
       -2    1    3    3    0  502 -0.16066451109E+04 -0.42471600067E+03 -0.16102588613E+04  0.23140064377E+04  0.25500000920E-02 0. -1.
</event>
<event>
 5   0  0.2608070E-08  0.3601716E+04  0.7818609E-02  0.8090099E-01
       -2   -1    0    0    0  501  0.00000000000E+00  0.00000000000E+00  0.16123589474E+04  0.16123589474E+04  0.25500000920E-02 0. -1.
        2   -1    0    0  501    0  0.00000000000E+00  0.00000000000E+00 -0.20113940484E+04  0.20113940484E+04  0.25500000920E-02 0.  1.
    10030    2    1    2    0    0  0.00000000000E+00  0.00000000000E+00 -0.39903510096E+03  0.36237529958E+04  0.36017158082E+04 0.  0.
        3    1    3    3  502    0  0.67505247036E+03  0.11214125423E+04  0.10449120762E+04  0.16748442271E+04  0.10100000352E+00 0. -1.
       -3    1    3    3    0  502 -0.67505247036E+03 -0.11214125423E+04 -0.14439471772E+04  0.19489087687E+04  0.10100000352E+00 0.  1.
</event>
<event>
 5   0  0.8146881E-09  0.3600335E+04  0.7818609E-02  0.8090415E-01
       -1   -1    0    0    0  501  0.00000000000E+00  0.00000000000E+00  0.24647177434E+04  0.24647177434E+04  0.50400001928E-02 0. -1.
        1   -1    0    0  501    0  0.00000000000E+00  0.00000000000E+00 -0.13147966199E+04  0.13147966199E+04  0.50400001928E-02 0.  1.
    10030    2    1    2    0    0  0.00000000000E+00  0.00000000000E+00  0.11499211234E+04  0.37795143633E+04  0.36003347389E+04 0.  0.
        4    1    3    3  502    0 -0.12967424398E+04 -0.75118877997E+03  0.16219821568E+04  0.22083145764E+04  0.12699999809E+01 0. -1.
       -4    1    3    3    0  502  0.12967424398E+04  0.75118877997E+03 -0.47206103335E+03  0.15711997869E+04  0.12699999809E+01 0.  1.
</event>
<event>
 5   0  0.8024500E-09  0.3599289E+04  0.7818609E-02  0.8090654E-01
        1   -1    0    0  501    0  0.00000000000E+00  0.00000000000E+00  0.23046837599E+04  0.23046837599E+04  0.50400001928E-02 0.  1.
       -1   -1    0    0    0  501  0.00000000000E+00  0.00000000000E+00 -0.14052778405E+04  0.14052778405E+04  0.50400001928E-02 0. -1.
    10030    2    1    2    0    0  0.00000000000E+00  0.00000000000E+00  0.89940591941E+03  0.37099616004E+04  0.35992893838E+04 0.  0.
        1    1    3    3  502    0 -0.15887478135E+04 -0.90048412613E+01 -0.42158144292E+03  0.16437553392E+04  0.50400001928E-02 0. -1.
       -1    1    3    3    0  502  0.15887478135E+04  0.90048412613E+01  0.13209873623E+04  0.20662062612E+04  0.50400001928E-02 0.  1.
</event>
<event>
 5   0  0.8024500E-09  0.3600048E+04  0.7818609E-02  0.8090481E-01
        1   -1    0    0  501    0  0.00000000000E+00  0.00000000000E+00  0.23515433632E+04  0.23515433632E+04  0.50400001928E-02 0. -1.
       -1   -1    0    0    0  501  0.00000000000E+00  0.00000000000E+00 -0.13778553084E+04  0.13778553084E+04  0.50400001928E-02 0.  1.
    10030    2    1    2    0    0  0.00000000000E+00  0.00000000000E+00  0.97368805487E+03  0.37293986716E+04  0.36000480585E+04 0.  0.
        5    1    3    3  502    0  0.87170155588E+03 -0.35048262581E+03  0.20773808249E+04  0.22799637837E+04  0.46999998093E+01 0. -1.
       -5    1    3    3    0  502 -0.87170155588E+03  0.35048262581E+03 -0.11036927700E+04  0.14494348879E+04  0.46999998093E+01 0.  1.
</event>
<event>
 5   0  0.2590795E-08  0.3599343E+04  0.7818609E-02  0.8090642E-01
       -2   -1    0    0    0  501  0.00000000000E+00  0.00000000000E+00  0.13534686282E+04  0.13534686282E+04  0.25500000920E-02 0. -1.
        2   -1    0    0  501    0  0.00000000000E+00  0.00000000000E+00 -0.23929760041E+04  0.23929760041E+04  0.25500000920E-02 0.  1.
    10030    2    1    2    0    0  0.00000000000E+00  0.00000000000E+00 -0.10395073760E+04  0.37464446323E+04  0.35993432454E+04 0.  0.
        4    1    3    3  502    0  0.18310263515E+01  0.46515448129E+03  0.12898155582E+04  0.13711301292E+04  0.12699999809E+01 0. -1.
       -4    1    3    3    0  502 -0.18310263515E+01 -0.46515448129E+03 -0.23293229342E+04  0.23753145031E+04  0.12699999809E+01 0.  1.
</event>
<event>
 5   0  0.8063410E-09  0.3599751E+04  0.7818609E-02  0.8090549E-01
       -1   -1    0    0    0  501  0.00000000000E+00  0.00000000000E+00  0.20664530468E+04  0.20664530468E+04  0.50400001928E-02 0.  1.
        1   -1    0    0  501    0  0.00000000000E+00  0.00000000000E+00 -0.15676868125E+04  0.15676868125E+04  0.50400001928E-02 0. -1.
    10030    2    1    2    0    0  0.00000000000E+00  0.00000000000E+00  0.49876623428E+03  0.36341398593E+04  0.35997506526E+04 0.  0.
        2    1    3    3  502    0 -0.18529531882E+03 -0.17065322210E+04  0.79581596856E+03  0.18920649123E+04  0.25500000920E-02 0.  1.
       -2    1    3    3    0  502  0.18529531882E+03  0.17065322210E+04 -0.29704973428E+03  0.17420749470E+04  0.25500000920E-02 0. -1.
</event>
<event>
 5   0  0.2476968E-08  0.3601250E+04  0.7818609E-02  0.8090206E-01
        2   -1    0    0  501    0  0.00000000000E+00  0.00000000000E+00  0.26459080714E+04  0.26459080714E+04  0.25500000920E-02 0. -1.
       -2   -1    0    0    0  501  0.00000000000E+00  0.00000000000E+00 -0.12253826144E+04  0.12253826144E+04  0.25500000920E-02 0.  1.
    10030    2    1    2    0    0  0.00000000000E+00  0.00000000000E+00  0.14205254570E+04  0.38712906858E+04  0.36012496442E+04 0.  0.
        2    1    3    3  502    0 -0.85073513985E+03  0.90343809746E+03 -0.69229416147E+03  0.14209932724E+04  0.25500000920E-02 0.  1.
       -2    1    3    3    0  502  0.85073513985E+03 -0.90343809746E+03  0.21128196184E+04  0.24502974134E+04  0.25500000920E-02 0. -1.
</event>
<event>
 5   0  0.2494592E-08  0.3601830E+04  0.7818609E-02  0.8090073E-01
        2   -1    0    0  501    0  0.00000000000E+00  0.00000000000E+00  0.13730849502E+04  0.13730849502E+04  0.25500000920E-02 0.  1.
       -2   -1    0    0    0  501  0.00000000000E+00  0.00000000000E+00 -0.23620494916E+04  0.23620494916E+04  0.25500000920E-02 0. -1.
    10030    2    1    2    0    0  0.00000000000E+00  0.00000000000E+00 -0.98896454140E+03  0.37351344419E+04  0.36018298731E+04 0.  0.
        1    1    3    3  502    0  0.46385170344E+03  0.12734431385E+04 -0.17243251602E+04  0.21931970017E+04  0.50400001928E-02 0. -1.
       -1    1    3    3    0  502 -0.46385170344E+03 -0.12734431385E+04  0.73536061883E+03  0.15419374402E+04  0.50400001928E-02 0.  1.
</event>
<event>
 5   0  0.2482243E-08  0.3601461E+04  0.7818609E-02  0.8090157E-01
        2   -1    0    0  501    0  0.00000000000E+00  0.00000000000E+00  0.21282558383E+04  0.21282558383E+04  0.25500000920E-02 0.  1.
       -2   -1    0    0    0  501  0.00000000000E+00  0.00000000000E+00 -0.15236090080E+04  0.15236090080E+04  0.25500000920E-02 0. -1.
    10030    2    1    2    0    0  0.00000000000E+00  0.00000000000E+00  0.60464683029E+03  0.36518648464E+04  0.36014606852E+04 0.  0.
        5    1    3    3  502    0  0.33609797494E+03  0.64419801415E+03 -0.13683567615E+04  0.15493144442E+04  0.46999998093E+01 0. -1.
       -5    1    3    3    0  502 -0.33609797494E+03 -0.64419801415E+03  0.19730035918E+04  0.21025504021E+04  0.46999998093E+01 0.  1.
</event>
<event>
 5   0  0.8063410E-09  0.3599669E+04  0.7818609E-02  0.8090568E-01
       -1   -1    0    0    0  501  0.00000000000E+00  0.00000000000E+00  0.16913772659E+04  0.16913772659E+04  0.50400001928E-02 0. -1.
        1   -1    0    0  501    0  0.00000000000E+00  0.00000000000E+00 -0.19152460017E+04  0.19152460017E+04  0.50400001928E-02 0.  1.
    10030    2    1    2    0    0  0.00000000000E+00  0.00000000000E+00 -0.22386873587E+03  0.36066232676E+04  0.35996686214E+04 0.  0.
        2    1    3    3  502    0  0.91743750323E+03  0.33084378953E+03  0.14036859099E+04  0.17092347174E+04  0.25500000920E-02 0. -1.
       -2    1    3    3    0  502 -0.91743750323E+03 -0.33084378953E+03 -0.16275546458E+04  0.18973885502E+04  0.25500000920E-02 0.  1.
</event>
<event>
 5   0  0.8146881E-09  0.3598148E+04  0.7818609E-02  0.8090916E-01
        1   -1    0    0  501    0  0.00000000000E+00  0.00000000000E+00  0.22113747605E+04  0.22113747605E+04  0.50400001928E-02 0.  1.
       -1   -1    0    0    0  501  0.00000000000E+00  0.00000000000E+00 -0.14636451314E+04  0.14636451314E+04  0.50400001928E-02 0. -1.
    10030    2    1    2    0    0  0.00000000000E+00  0.00000000000E+00  0.74772962915E+03  0.36750198919E+04  0.35981483582E+04 0.  0.
        4    1    3    3  502    0  0.81562476599E+03  0.18766349444E+03 -0.12527053439E+04  0.15065635192E+04  0.12699999809E+01 0. -1.
       -4    1    3    3    0  502 -0.81562476599E+03 -0.18766349444E+03  0.20004349730E+04  0.21684563727E+04  0.12699999809E+01 0.  1.
</event>
<event>
 5   0  0.2590795E-08  0.3598294E+04  0.7818609E-02  0.8090883E-01
       -2   -1    0    0    0  501  0.00000000000E+00  0.00000000000E+00  0.16973281003E+04  0.16973281003E+04  0.25500000920E-02 0.  1.
        2   -1    0    0  501    0  0.00000000000E+00  0.00000000000E+00 -0.19070739391E+04  0.19070739391E+04  0.25500000920E-02 0. -1.
    10030    2    1    2    0    0  0.00000000000E+00  0.00000000000E+00 -0.20974583884E+03  0.36044020394E+04  0.35982941437E+04 0.  0.
        4    1    3    3  502    0  0.32092900583E+02 -0.17792853020E+04  0.16023162754E+03  0.17867741681E+04  0.12699999809E+01 0.  1.
       -4    1    3    3    0  502 -0.32092900583E+02  0.17792853020E+04 -0.36997746638E+03  0.18176278714E+04  0.12699999809E+01 0. -1.
</event>
<event>
 5   0  0.2608070E-08  0.3602117E+04  0.7818609E-02  0.8090007E-01
       -2   -1    0    0    0  501  0.00000000000E+00  0.00000000000E+00  0.26840497866E+04  0.26840497866E+04  0.25500000920E-02 0.  1.
        2   -1    0    0  501    0  0.00000000000E+00  0.00000000000E+00 -0.12085512395E+04  0.12085512395E+04  0.25500000920E-02 0. -1.
    10030    2    1    2    0    0  0.00000000000E+00  0.00000000000E+00  0.14754985470E+04  0.38926010261E+04  0.36021169867E+04 0.  0.
        3    1    3    3  502    0  0.15547824078E+03 -0.17597689965E+04  0.35898245555E+03  0.18027281598E+04  0.10100000352E+00 0.  1.
       -3    1    3    3    0  502 -0.15547824078E+03  0.17597689965E+04  0.11165160915E+04  0.20898728663E+04  0.10100000352E+00 0. -1.
</event>
<event>
 5   0  0.8024500E-09  0.3599370E+04  0.7818609E-02  0.8090636E-01
        1   -1    0    0  501    0  0.00000000000E+00  0.00000000000E+00  0.18144505772E+04  0.18144505772E+04  0.50400001928E-02 0.  1.
       -1   -1    0    0    0  501  0.00000000000E+00  0.00000000000E+00 -0.17850397544E+04  0.17850397545E+04  0.50400001928E-02 0. -1.
    10030    2    1    2    0    0  0.00000000000E+00  0.00000000000E+00  0.29410822705E+02  0.35994903316E+04  0.35993701742E+04 0.  0.
        1    1    3    3  502    0  0.13904289815E+04  0.50292207670E+03  0.10407236016E+04  0.18081285858E+04  0.50400001928E-02 0.  1.
       -1    1    3    3    0  502 -0.13904289815E+04 -0.50292207670E+03 -0.10113127789E+04  0.17913617458E+04  0.50400001928E-02 0. -1.
</event>
<event>
 5   0  0.8247570E-09  0.3601009E+04  0.7818609E-02  0.8090261E-01
        1   -1    0    0  501    0  0.00000000000E+00  0.00000000000E+00  0.15914511048E+04  0.15914511048E+04  0.50400001928E-02 0. -1.
       -1   -1    0    0    0  501  0.00000000000E+00  0.00000000000E+00 -0.20370188782E+04  0.20370188782E+04  0.50400001928E-02 0.  1.
    10030    2    1    2    0    0  0.00000000000E+00  0.00000000000E+00 -0.44556777348E+03  0.36284699830E+04  0.36010087166E+04 0.  0.
        3    1    3    3  502    0 -0.39827386550E+03  0.72353299776E+03 -0.18348890750E+04  0.20121978030E+04  0.10100000352E+00 0.  1.
       -3    1    3    3    0  502  0.39827386550E+03 -0.72353299776E+03  0.13893213015E+04  0.16162721800E+04  0.10100000352E+00 0. -1.
</event>
<event>
 5   0  0.8063410E-09  0.3600288E+04  0.7818609E-02  0.8090426E-01
        1   -1    0    0  501    0  0.00000000000E+00  0.00000000000E+00  0.20153124951E+04  0.20153124951E+04  0.50400001928E-02 0. -1.
       -1   -1    0    0    0  501  0.00000000000E+00  0.00000000000E+00 -0.16079483533E+04  0.16079483533E+04  0.50400001928E-02 0.  1.
    10030    2    1    2    0    0  0.00000000000E+00  0.00000000000E+00  0.40736414183E+03  0.36232608483E+04  0.36002879928E+04 0.  0.
        2    1    3    3  502    0  0.11400080645E+04  0.84096663046E+03  0.13214786265E+04  0.19373045762E+04  0.25500000920E-02 0. -1.
       -2    1    3    3    0  502 -0.11400080645E+04 -0.84096663046E+03 -0.91411448467E+03  0.16859562722E+04  0.25500000920E-02 0.  1.
</event>
<event>
 5   0  0.8063410E-09  0.3600125E+04  0.7818609E-02  0.8090463E-01
        1   -1    0    0  501    0  0.00000000000E+00  0.00000000000E+00  0.28596796786E+04  0.28596796786E+04  0.50400001928E-02 0. -1.
       -1   -1    0    0    0  501  0.00000000000E+00  0.00000000000E+00 -0.11330725511E+04  0.11330725511E+04  0.50400001928E-02 0.  1.
    10030    2    1    2    0    0  0.00000000000E+00  0.00000000000E+00  0.17266071275E+04  0.39927522298E+04  0.36001247472E+04 0.  0.
        2    1    3    3  502    0 -0.89392100681E+02  0.44522070260E+03  0.27951093715E+04  0.28317571966E+04  0.25500000920E-02 0. -1.
       -2    1    3    3    0  502  0.89392100681E+02 -0.44522070260E+03 -0.10685022440E+04  0.11609950332E+04  0.25500000920E-02 0.  1.
</event>
<event>
 5   0  0.2482243E-08  0.3599450E+04  0.7818609E-02  0.8090618E-01
       -2   -1    0    0    0  501  0.00000000000E+00  0.00000000000E+00  0.26366504532E+04  0.26366504532E+04  0.25500000920E-02 0.  1.
        2   -1    0    0  501    0  0.00000000000E+00  0.00000000000E+00 -0.12284567197E+04  0.12284567197E+04  0.25500000920E-02 0. -1.
    10030    2    1    2    0    0  0.00000000000E+00  0.00000000000E+00  0.14081937334E+04  0.38651071729E+04  0.35994504952E+04 0.  0.
        5    1    3    3  502    0 -0.41900953855E+03  0.11330499232E+02 -0.11753043294E+04  0.12478219947E+04  0.46999998093E+01 0. -1.
       -5    1    3    3    0  502  0.41900953855E+03 -0.11330499232E+02  0.25834980628E+04  0.26172851783E+04  0.46999998093E+01 0.  1.
</event>
<event>
 5   0  0.8024500E-09  0.3601064E+04  0.7818609E-02  0.8090248E-01
        1   -1    0    0  501    0  0.00000000000E+00  0.00000000000E+00  0.26538261573E+04  0.26538261573E+04  0.50400001928E-02 0. -1.
       -1   -1    0    0    0  501  0.00000000000E+00  0.00000000000E+00 -0.12216002631E+04  0.12216002631E+04  0.50400001928E-02 0.  1.
    10030    2    1    2    0    0  0.00000000000E+00  0.00000000000E+00  0.14322258941E+04  0.38754264204E+04  0.36010635829E+04 0.  0.
        5    1    3    3  502    0  0.56893003797E+03 -0.37424625084E+02 -0.11218757007E+04  0.12584550721E+04  0.46999998093E+01 0.  1.
       -5    1    3    3    0  502 -0.56893003797E+03  0.37424625084E+02  0.25541015949E+04  0.26169713483E+04  0.46999998093E+01 0. -1.
</event>
<event>
 5   0  0.8247570E-09  0.3600328E+04  0.7818609E-02  0.8090417E-01
       -1   -1    0    0    0  501  0.00000000000E+00  0.00000000000E+00  0.10463669249E+04  0.10463669249E+04  0.50400001928E-02 0. -1.
        1   -1    0    0  501    0  0.00000000000E+00  0.00000000000E+00 -0.30969926687E+04  0.30969926687E+04  0.50400001928E-02 0.  1.
    10030    2    1    2    0    0  0.00000000000E+00  0.00000000000E+00 -0.20506257439E+04  0.41433595936E+04  0.36003281490E+04 0.  0.
        3    1    3    3  502    0  0.13703663160E+04 -0.45267708659E+03  0.21297535180E+03  0.14588279184E+04  0.10100000352E+00 0. -1.
       -3    1    3    3    0  502 -0.13703663160E+04  0.45267708659E+03 -0.22636010957E+04  0.26845316752E+04  0.10100000352E+00 0.  1.
</event>
<event>
 5   0  0.8024500E-09  0.3599904E+04  0.7818609E-02  0.8090514E-01
       -1   -1    0    0    0  501  0.00000000000E+00  0.00000000000E+00  0.11951676347E+04  0.11951676347E+04  0.50400001928E-02 0. -1.
        1   -1    0    0  501    0  0.00000000000E+00  0.00000000000E+00 -0.27107728893E+04  0.27107728894E+04  0.50400001928E-02 0.  1.
    10030    2    1    2    0    0  0.00000000000E+00  0.00000000000E+00 -0.15156052547E+04  0.39059405240E+04  0.35999044556E+04 0.  0.
        5    1    3    3  502    0  0.17991327275E+04 -0.76882268782E+01 -0.69969363659E+03  0.19304224810E+04  0.46999998093E+01 0. -1.
       -5    1    3    3    0  502 -0.17991327275E+04  0.76882268782E+01 -0.81591161810E+03  0.19755180431E+04  0.46999998093E+01 0.  1.
</event>
<event>
 5   0  0.8024500E-09  0.3600762E+04  0.7818609E-02  0.8090317E-01
       -1   -1    0    0    0  501  0.00000000000E+00  0.00000000000E+00  0.12688958071E+04  0.12688958072E+04  0.50400001928E-02 0. -1.
        1   -1    0    0  501    0  0.00000000000E+00  0.00000000000E+00 -0.25544825320E+04  0.25544825320E+04  0.50400001928E-02 0.  1.
    10030    2    1    2    0    0  0.00000000000E+00  0.00000000000E+00 -0.12855867249E+04  0.38233783392E+04  0.36007622384E+04 0.  0.
        1    1    3    3  502    0 -0.23193395697E+03  0.66510664598E+03  0.11165101564E+04  0.13201345160E+04  0.50400001928E-02 0. -1.
       -1    1    3    3    0  502  0.23193395697E+03 -0.66510664598E+03 -0.24020968813E+04  0.25032438232E+04  0.50400001928E-02 0.  1.
</event>
<event>
 5   0  0.2476968E-08  0.3602486E+04  0.7818609E-02  0.8089922E-01
       -2   -1    0    0    0  501  0.00000000000E+00  0.00000000000E+00  0.14337236236E+04  0.14337236236E+04  0.25500000920E-02 0.  1.
        2   -1    0    0  501    0  0.00000000000E+00  0.00000000000E+00 -0.22629721102E+04  0.22629721102E+04  0.25500000920E-02 0. -1.
    10030    2    1    2    0    0  0.00000000000E+00  0.00000000000E+00 -0.82924848657E+03  0.36966957338E+04  0.36024861271E+04 0.  0.
        2    1    3    3  502    0 -0.11096434975E+04  0.17752241110E+03 -0.18591499265E+04  0.21723860953E+04  0.25500000920E-02 0. -1.
       -2    1    3    3    0  502  0.11096434975E+04 -0.17752241110E+03  0.10299014399E+04  0.15243096385E+04  0.25500000920E-02 0.  1.
</event>
<event>
 5   0  0.2494592E-08  0.3598944E+04  0.7818609E-02  0.8090734E-01
       -2   -1    0    0    0  501  0.00000000000E+00  0.00000000000E+00  0.13812822497E+04  0.13812822497E+04  0.25500000920E-02 0.  1.
        2   -1    0    0  501    0  0.00000000000E+00  0.00000000000E+00 -0.23442710210E+04  0.23442710210E+04  0.25500000920E-02 0. -1.
    10030    2    1    2    0    0  0.00000000000E+00  0.00000000000E+00 -0.96298877133E+03  0.37255532708E+04  0.35989442618E+04 0.  0.
        1    1    3    3  502    0  0.10934133575E+04 -0.26981385585E+03  0.97135620381E+03  0.14872407881E+04  0.50400001928E-02 0.  1.
       -1    1    3    3    0  502 -0.10934133575E+04  0.26981385585E+03 -0.19343449751E+04  0.22383124826E+04  0.50400001928E-02 0. -1.
</event>
<event>
 5   0  0.8024500E-09  0.3599996E+04  0.7818609E-02  0.8090493E-01
       -3   -1    0    0    0  501  0.00000000000E+00  0.00000000000E+00  0.14886157659E+04  0.14886157693E+04  0.10100000352E+00 0.  1.
        3   -1    0    0  501    0  0.00000000000E+00  0.00000000000E+00 -0.21765133874E+04  0.21765133898E+04  0.10100000352E+00 0. -1.
    10030    2    1    2    0    0  0.00000000000E+00  0.00000000000E+00 -0.68789762155E+03  0.36651291591E+04  0.35999956409E+04 0.  0.
        4    1    3    3  502    0 -0.22278483045E+03 -0.17778963197E+04 -0.16925723195E+03  0.17997772161E+04  0.12699999809E+01 0.  1.
       -4    1    3    3    0  502  0.22278483045E+03  0.17778963197E+04 -0.51864038960E+03  0.18653519429E+04  0.12699999809E+01 0. -1.
</event>
<event>
 5   0  0.8063410E-09  0.3596619E+04  0.7818609E-02  0.8091267E-01
       -1   -1    0    0    0  501  0.00000000000E+00  0.00000000000E+00  0.13448328099E+04  0.13448328099E+04  0.50400001928E-02 0.  1.
        1   -1    0    0  501    0  0.00000000000E+00  0.00000000000E+00 -0.24046979783E+04  0.24046979783E+04  0.50400001928E-02 0. -1.
    10030    2    1    2    0    0  0.00000000000E+00  0.00000000000E+00 -0.10598651683E+04  0.37495307882E+04  0.35966188228E+04 0.  0.
        2    1    3    3  502    0  0.22956135455E+02  0.17908855290E+04 -0.69841668720E+03  0.19223901350E+04  0.25500000920E-02 0. -1.
       -2    1    3    3    0  502 -0.22956135455E+02 -0.17908855290E+04 -0.36144848115E+03  0.18271406532E+04  0.25500000920E-02 0.  1.
</event>
<event>
 5   0  0.8247570E-09  0.3597705E+04  0.7818609E-02  0.8091018E-01
       -1   -1    0    0    0  501  0.00000000000E+00  0.00000000000E+00  0.14992481376E+04  0.14992481376E+04  0.50400001928E-02 0.  1.
        1   -1    0    0  501    0  0.00000000000E+00  0.00000000000E+00 -0.21583287535E+04  0.21583287535E+04  0.50400001928E-02 0. -1.
    10030    2    1    2    0    0  0.00000000000E+00  0.00000000000E+00 -0.65908061586E+03  0.36575768911E+04  0.35977050263E+04 0.  0.
        3    1    3    3  502    0 -0.61485161404E+03  0.85959352232E+03  0.11503376145E+04  0.15621204078E+04  0.10100000352E+00 0.  1.
       -3    1    3    3    0  502  0.61485161404E+03 -0.85959352232E+03 -0.18094182304E+04  0.20954564833E+04  0.10100000352E+00 0. -1.
</event>
<event>
 5   0  0.2476968E-08  0.3600430E+04  0.7818609E-02  0.8090393E-01
        2   -1    0    0  501    0  0.00000000000E+00  0.00000000000E+00  0.24019066116E+04  0.24019066116E+04  0.25500000920E-02 0. -1.
       -2   -1    0    0    0  501  0.00000000000E+00  0.00000000000E+00 -0.13492504276E+04  0.13492504276E+04  0.25500000920E-02 0.  1.
    10030    2    1    2    0    0  0.00000000000E+00  0.00000000000E+00  0.10526561840E+04  0.37511570393E+04  0.36004297093E+04 0.  0.
        2    1    3    3  502    0  0.20537965695E+03  0.13254138337E+04  0.17773764466E+04  0.22266498753E+04  0.25500000920E-02 0. -1.
       -2    1    3    3    0  502 -0.20537965695E+03 -0.13254138337E+04 -0.72472026258E+03  0.15245071640E+04  0.25500000920E-02 0.  1.
</event>
<event>
 5   0  0.2494592E-08  0.3600432E+04  0.7818609E-02  0.8090393E-01
       -2   -1    0    0    0  501  0.00000000000E+00  0.00000000000E+00  0.14430336632E+04  0.14430336632E+04  0.25500000920E-02 0.  1.
        2   -1    0    0  501    0  0.00000000000E+00  0.00000000000E+00 -0.22458091900E+04  0.22458091900E+04  0.25500000920E-02 0. -1.
    10030    2    1    2    0    0  0.00000000000E+00  0.00000000000E+00 -0.80277552673E+03  0.36888428532E+04  0.36004323420E+04 0.  0.
        1    1    3    3  502    0 -0.93396442336E+02 -0.42563687318E+03  0.13881821785E+04  0.14549705853E+04  0.50400001928E-02 0.  1.
       -1    1    3    3    0  502  0.93396442336E+02  0.42563687318E+03 -0.21909577052E+04  0.22338722679E+04  0.50400001928E-02 0. -1.
</event>
<event>
 5   0  0.8024500E-09  0.3599851E+04  0.7818609E-02  0.8090526E-01
        1   -1    0    0  501    0  0.00000000000E+00  0.00000000000E+00  0.25332933232E+04  0.25332933232E+04  0.50400001928E-02 0. -1.
       -1   -1    0    0    0  501  0.00000000000E+00  0.00000000000E+00 -0.12788615417E+04  0.12788615418E+04  0.50400001928E-02 0.  1.
    10030    2    1    2    0    0  0.00000000000E+00  0.00000000000E+00  0.12544317815E+04  0.38121548650E+04  0.35998507775E+04 0.  0.
        1    1    3    3  502    0 -0.82577087472E+03  0.15987457259E+04  0.67271454115E+03  0.19210492673E+04  0.50400001928E-02 0. -1.
       -1    1    3    3    0  502  0.82577087472E+03 -0.15987457259E+04  0.58171724031E+03  0.18911055976E+04  0.50400001928E-02 0.  1.
</event>
<event>
 5   0  0.2476968E-08  0.3598306E+04  0.7818609E-02  0.8090880E-01
        2   -1    0    0  501    0  0.00000000000E+00  0.00000000000E+00  0.16191383474E+04  0.16191383474E+04  0.25500000920E-02 0. -1.
       -2   -1    0    0    0  501  0.00000000000E+00  0.00000000000E+00 -0.19991810029E+04  0.19991810029E+04  0.25500000920E-02 0.  1.
    10030    2    1    2    0    0  0.00000000000E+00  0.00000000000E+00 -0.38004265555E+03  0.36183193503E+04  0.35983055041E+04 0.  0.
        2    1    3    3  502    0 -0.18842345891E+02 -0.13184534436E+04  0.10408277050E+04  0.16798800042E+04  0.25500000920E-02 0. -1.
       -2    1    3    3    0  502  0.18842345891E+02  0.13184534436E+04 -0.14208703606E+04  0.19384393461E+04  0.25500000920E-02 0.  1.
</event>
<event>
 5   0  0.8146881E-09  0.3599264E+04  0.7818609E-02  0.8090660E-01
        1   -1    0    0  501    0  0.00000000000E+00  0.00000000000E+00  0.12489375275E+04  0.12489375275E+04  0.50400001928E-02 0. -1.
       -1   -1    0    0    0  501  0.00000000000E+00  0.00000000000E+00 -0.25931439837E+04  0.25931439837E+04  0.50400001928E-02 0.  1.
    10030    2    1    2    0    0  0.00000000000E+00  0.00000000000E+00 -0.13442064562E+04  0.38420815111E+04  0.35992637221E+04 0.  0.
        4    1    3    3  502    0 -0.97950750708E+03 -0.51142016613E+03  0.84417841197E+03  0.13905482181E+04  0.12699999809E+01 0. -1.
       -4    1    3    3    0  502  0.97950750708E+03  0.51142016613E+03 -0.21883848682E+04  0.24515332930E+04  0.12699999809E+01 0.  1.
</event>
<event>
 5   0  0.8247570E-09  0.3599950E+04  0.7818609E-02  0.8090503E-01
       -1   -1    0    0    0  501  0.00000000000E+00  0.00000000000E+00  0.12410516667E+04  0.12410516668E+04  0.50400001928E-02 0.  1.
        1   -1    0    0  501    0  0.00000000000E+00  0.00000000000E+00 -0.26106170360E+04  0.26106170360E+04  0.50400001928E-02 0. -1.
    10030    2    1    2    0    0  0.00000000000E+00  0.00000000000E+00 -0.13695653692E+04  0.38516687028E+04  0.35999503462E+04 0.  0.
        3    1    3    3  502    0  0.17972923168E+04 -0.82952398821E+02 -0.62847342253E+03  0.19058120646E+04  0.10100000352E+00 0.  1.
       -3    1    3    3    0  502 -0.17972923168E+04  0.82952398821E+02 -0.74109194672E+03  0.19458566382E+04  0.10100000352E+00 0. -1.
</event>
<event>
 5   0  0.2482243E-08  0.3601460E+04  0.7818609E-02  0.8090157E-01
       -2   -1    0    0    0  501  0.00000000000E+00  0.00000000000E+00  0.28087750702E+04  0.28087750702E+04  0.25500000920E-02 0. -1.
        2   -1    0    0  501    0  0.00000000000E+00  0.00000000000E+00 -0.11544635863E+04  0.11544635863E+04  0.25500000920E-02 0.  1.
    10030    2    1    2    0    0  0.00000000000E+00  0.00000000000E+00  0.16543114839E+04  0.39632386565E+04  0.36014600043E+04 0.  0.
        5    1    3    3  502    0 -0.57673971206E+03 -0.14025390250E+04 -0.24139636362E+03  0.15355906702E+04  0.46999998093E+01 0.  1.
       -5    1    3    3    0  502  0.57673971206E+03  0.14025390250E+04  0.18957078475E+04  0.24276479862E+04  0.46999998093E+01 0. -1.
</event>
<event>
 5   0  0.2476968E-08  0.3601561E+04  0.7818609E-02  0.8090134E-01
        2   -1    0    0  501    0  0.00000000000E+00  0.00000000000E+00  0.21499966424E+04  0.21499966424E+04  0.25500000920E-02 0. -1.
       -2   -1    0    0    0  501  0.00000000000E+00  0.00000000000E+00 -0.15082861650E+04  0.15082861650E+04  0.25500000920E-02 0.  1.
    10030    2    1    2    0    0  0.00000000000E+00  0.00000000000E+00  0.64171047739E+03  0.36582828075E+04  0.36015608787E+04 0.  0.
        2    1    3    3  502    0  0.16692048529E+04  0.10935294456E+03 -0.35643497782E+03  0.17103358737E+04  0.25500000920E-02 0.  1.
       -2    1    3    3    0  502 -0.16692048529E+04 -0.10935294456E+03  0.99814545521E+03  0.19479469338E+04  0.25500000920E-02 0. -1.
</event>
<event>
 5   0  0.8024500E-09  0.3595360E+04  0.7818609E-02  0.8091555E-01
        3   -1    0    0  501    0  0.00000000000E+00  0.00000000000E+00  0.12147987843E+04  0.12147987885E+04  0.10100000352E+00 0.  1.
       -3   -1    0    0    0  501  0.00000000000E+00  0.00000000000E+00 -0.26602382663E+04  0.26602382682E+04  0.10100000352E+00 0. -1.
    10030    2    1    2    0    0  0.00000000000E+00  0.00000000000E+00 -0.14454394820E+04  0.38750370568E+04  0.35953604681E+04 0.  0.
        2    1    3    3  502    0  0.14693763983E+04  0.76640947805E+03 -0.14734699972E+04  0.22175581888E+04  0.25500000920E-02 0. -1.
       -2    1    3    3    0  502 -0.14693763983E+04 -0.76640947805E+03  0.28030515198E+02  0.16574788680E+04  0.25500000920E-02 0.  1.
</event>
<event>
 5   0  0.8063410E-09  0.3598952E+04  0.7818609E-02  0.8090732E-01
        1   -1    0    0  501    0  0.00000000000E+00  0.00000000000E+00  0.12726559330E+04  0.12726559330E+04  0.50400001928E-02 0.  1.
       -1   -1    0    0    0  501  0.00000000000E+00  0.00000000000E+00 -0.25443755216E+04  0.25443755216E+04  0.50400001928E-02 0. -1.
    10030    2    1    2    0    0  0.00000000000E+00  0.00000000000E+00 -0.12717195886E+04  0.38170314546E+04  0.35989524050E+04 0.  0.
        2    1    3    3  502    0  0.10371335986E+04 -0.11478854421E+04 -0.16107005107E+04  0.22333032093E+04  0.25500000920E-02 0. -1.
       -2    1    3    3    0  502 -0.10371335986E+04  0.11478854421E+04  0.33898092210E+03  0.15837282453E+04  0.25500000920E-02 0.  1.
</event>
<event>
 5   0  0.8024500E-09  0.3599314E+04  0.7818609E-02  0.8090649E-01
       -1   -1    0    0    0  501  0.00000000000E+00  0.00000000000E+00  0.11958059638E+04  0.11958059638E+04  0.50400001928E-02 0.  1.
        1   -1    0    0  501    0  0.00000000000E+00  0.00000000000E+00 -0.27084374201E+04  0.27084374201E+04  0.50400001928E-02 0. -1.
    10030    2    1    2    0    0  0.00000000000E+00  0.00000000000E+00 -0.15126314563E+04  0.39042433840E+04  0.35993141678E+04 0.  0.
        1    1    3    3  502    0  0.42222339670E+03 -0.20262574797E+03 -0.26411797694E+04  0.26823796086E+04  0.50400001928E-02 0. -1.
       -1    1    3    3    0  502 -0.42222339670E+03  0.20262574797E+03  0.11285483131E+04  0.12218637753E+04  0.50400001928E-02 0.  1.
</event>
<event>
 5   0  0.2476968E-08  0.3590254E+04  0.7818609E-02  0.8092728E-01
       -2   -1    0    0    0  501  0.00000000000E+00  0.00000000000E+00  0.31912099265E+04  0.31912099265E+04  0.25500000920E-02 0. -1.
        2   -1    0    0  501    0  0.00000000000E+00  0.00000000000E+00 -0.10097990834E+04  0.10097990834E+04  0.25500000920E-02 0.  1.
    10030    2    1    2    0    0  0.00000000000E+00  0.00000000000E+00  0.21814108431E+04  0.42010090099E+04  0.35902539513E+04 0.  0.
        2    1    3    3  502    0 -0.77001845774E+03 -0.10481775589E+04 -0.35706095178E+03  0.13487390939E+04  0.25500000920E-02 0.  1.
       -2    1    3    3    0  502  0.77001845774E+03  0.10481775589E+04  0.25384717949E+04  0.28522699160E+04  0.25500000920E-02 0. -1.
</event>
<event>
 5   0  0.8024500E-09  0.3598660E+04  0.7818609E-02  0.8090799E-01
        1   -1    0    0  501    0  0.00000000000E+00  0.00000000000E+00  0.22446351074E+04  0.22446351074E+04  0.50400001928E-02 0. -1.
       -1   -1    0    0    0  501  0.00000000000E+00  0.00000000000E+00 -0.14423674763E+04  0.14423674763E+04  0.50400001928E-02 0.  1.
    10030    2    1    2    0    0  0.00000000000E+00  0.00000000000E+00  0.80226763113E+03  0.36870025837E+04  0.35986601257E+04 0.  0.
        1    1    3    3  502    0  0.16897074557E+04  0.25102816372E+03  0.98021890599E+03  0.19695064175E+04  0.50400001928E-02 0. -1.
       -1    1    3    3    0  502 -0.16897074557E+04 -0.25102816372E+03 -0.17795127486E+03  0.17174961663E+04  0.50400001928E-02 0.  1.
</event>
<event>
 5   0  0.2482243E-08  0.3578857E+04  0.7818609E-02  0.8095352E-01
        2   -1    0    0  501    0  0.00000000000E+00  0.00000000000E+00  0.18048163327E+04  0.18048163327E+04  0.25500000920E-02 0.  1.
       -2   -1    0    0    0  501  0.00000000000E+00  0.00000000000E+00 -0.17741713960E+04  0.17741713960E+04  0.25500000920E-02 0. -1.
    10030    2    1    2    0    0  0.00000000000E+00  0.00000000000E+00  0.30644936733E+02  0.35789877287E+04  0.35788565283E+04 0.  0.
        5    1    3    3  502    0  0.12682463384E+04  0.25214050770E+03  0.12523026597E+04  0.18000854569E+04  0.46999998093E+01 0.  1.
       -5    1    3    3    0  502 -0.12682463384E+04 -0.25214050770E+03 -0.12216577230E+04  0.17789022718E+04  0.46999998093E+01 0. -1.
</event>
<event>
 5   0  0.8247570E-09  0.3600129E+04  0.7818609E-02  0.8090462E-01
        1   -1    0    0  501    0  0.00000000000E+00  0.00000000000E+00  0.24982203230E+04  0.24982203230E+04  0.50400001928E-02 0. -1.
       -1   -1    0    0    0  501  0.00000000000E+00  0.00000000000E+00 -0.12970159622E+04  0.12970159622E+04  0.50400001928E-02 0.  1.
    10030    2    1    2    0    0  0.00000000000E+00  0.00000000000E+00  0.12012043608E+04  0.37952362852E+04  0.36001286844E+04 0.  0.
        3    1    3    3  502    0 -0.14733078687E+04 -0.73822791661E+03  0.13641586925E+04  0.21392862084E+04  0.10100000352E+00 0. -1.
       -3    1    3    3    0  502  0.14733078687E+04  0.73822791661E+03 -0.16295433173E+03  0.16559500769E+04  0.10100000352E+00 0.  1.
</event>
<event>
 5   0  0.8024500E-09  0.3599322E+04  0.7818609E-02  0.8090647E-01
       -3   -1    0    0    0  501  0.00000000000E+00  0.00000000000E+00  0.14538197957E+04  0.14538197992E+04  0.10100000352E+00 0.  1.
        3   -1    0    0  501    0  0.00000000000E+00  0.00000000000E+00 -0.22277728213E+04  0.22277728236E+04  0.10100000352E+00 0. -1.
    10030    2    1    2    0    0  0.00000000000E+00  0.00000000000E+00 -0.77395302562E+03  0.36815926228E+04  0.35993222909E+04 0.  0.
        5    1    3    3  502    0  0.52521309760E+03 -0.49110403611E+03 -0.20744509792E+04  0.21955411468E+04  0.46999998093E+01 0. -1.
       -5    1    3    3    0  502 -0.52521309760E+03  0.49110403611E+03  0.13004979535E+04  0.14860514760E+04  0.46999998093E+01 0.  1.
</event>
<event>
 5   0  0.8024500E-09  0.3599255E+04  0.7818609E-02  0.8090662E-01
        1   -1    0    0  501    0  0.00000000000E+00  0.00000000000E+00  0.21084204320E+04  0.21084204320E+04  0.50400001928E-02 0.  1.
       -1   -1    0    0    0  501  0.00000000000E+00  0.00000000000E+00 -0.15360596104E+04  0.15360596104E+04  0.50400001928E-02 0. -1.
    10030    2    1    2    0    0  0.00000000000E+00  0.00000000000E+00  0.57236082163E+03  0.36444800424E+04  0.35992551826E+04 0.  0.
        5    1    3    3  502    0 -0.12915918252E+04 -0.45906931164E+03  0.14668865453E+04  0.20076683746E+04  0.46999998093E+01 0.  1.
       -5    1    3    3    0  502  0.12915918252E+04  0.45906931164E+03 -0.89452572364E+03  0.16368116678E+04  0.46999998093E+01 0. -1.
</event>
<event>
 5   0  0.2476968E-08  0.3599862E+04  0.7818609E-02  0.8090523E-01
       -2   -1    0    0    0  501  0.00000000000E+00  0.00000000000E+00  0.16524228039E+04  0.16524228039E+04  0.25500000920E-02 0. -1.
        2   -1    0    0  501    0  0.00000000000E+00  0.00000000000E+00 -0.19606065110E+04  0.19606065110E+04  0.25500000920E-02 0.  1.
    10030    2    1    2    0    0  0.00000000000E+00  0.00000000000E+00 -0.30818370705E+03  0.36130293149E+04  0.35998616130E+04 0.  0.
        2    1    3    3  502    0 -0.12506738247E+03  0.10981698143E+04  0.12717142728E+04  0.16848964309E+04  0.25500000920E-02 0. -1.
       -2    1    3    3    0  502  0.12506738247E+03 -0.10981698143E+04 -0.15798979799E+04  0.19281328839E+04  0.25500000920E-02 0.  1.
</event>
<event>
 5   0  0.8024500E-09  0.3598120E+04  0.7818609E-02  0.8090922E-01
       -1   -1    0    0    0  501  0.00000000000E+00  0.00000000000E+00  0.18435441260E+04  0.18435441260E+04  0.50400001928E-02 0. -1.
        1   -1    0    0  501    0  0.00000000000E+00  0.00000000000E+00 -0.17556492705E+04  0.17556492706E+04  0.50400001928E-02 0.  1.
    10030    2    1    2    0    0  0.00000000000E+00  0.00000000000E+00  0.87894855428E+02  0.35991933965E+04  0.35981200091E+04 0.  0.
        1    1    3    3  502    0 -0.10223447432E+03  0.12280274030E+04 -0.12672119655E+04  0.17675772560E+04  0.50400001928E-02 0.  1.
       -1    1    3    3    0  502  0.10223447432E+03 -0.12280274030E+04  0.13551068209E+04  0.18316161406E+04  0.50400001928E-02 0. -1.
</event>
<event>
 5   0  0.2476968E-08  0.3600778E+04  0.7818609E-02  0.8090314E-01
        2   -1    0    0  501    0  0.00000000000E+00  0.00000000000E+00  0.23241035160E+04  0.23241035160E+04  0.25500000920E-02 0. -1.
       -2   -1    0    0    0  501  0.00000000000E+00  0.00000000000E+00 -0.13946884362E+04  0.13946884362E+04  0.25500000920E-02 0.  1.
    10030    2    1    2    0    0  0.00000000000E+00  0.00000000000E+00  0.92941507983E+03  0.37187919522E+04  0.36007778595E+04 0.  0.
        2    1    3    3  502    0 -0.98499599188E+03 -0.15055266157E+04  0.39486872952E+03  0.18419415865E+04  0.25500000920E-02 0.  1.
       -2    1    3    3    0  502  0.98499599188E+03  0.15055266157E+04  0.53454635031E+03  0.18768503657E+04  0.25500000920E-02 0. -1.
</event>
<event>
 5   0  0.8063410E-09  0.3598795E+04  0.7818609E-02  0.8090768E-01
        1   -1    0    0  501    0  0.00000000000E+00  0.00000000000E+00  0.15789045491E+04  0.15789045491E+04  0.50400001928E-02 0. -1.
       -1   -1    0    0    0  501  0.00000000000E+00  0.00000000000E+00 -0.20506821983E+04  0.20506821983E+04  0.50400001928E-02 0.  1.
    10030    2    1    2    0    0  0.00000000000E+00  0.00000000000E+00 -0.47177764920E+03  0.36295867474E+04  0.35987950493E+04 0.  0.
        2    1    3    3  502    0 -0.20951275662E+03 -0.11731009944E+04  0.11238939072E+04  0.16380473292E+04  0.25500000920E-02 0. -1.
       -2    1    3    3    0  502  0.20951275662E+03  0.11731009944E+04 -0.15956715564E+04  0.19915394182E+04  0.25500000920E-02 0.  1.
</event>
<event>
 5   0  0.8063410E-09  0.3599639E+04  0.7818609E-02  0.8090574E-01
       -1   -1    0    0    0  501  0.00000000000E+00  0.00000000000E+00  0.16341474919E+04  0.16341474919E+04  0.50400001928E-02 0.  1.
        1   -1    0    0  501    0  0.00000000000E+00  0.00000000000E+00 -0.19822873444E+04  0.19822873444E+04  0.50400001928E-02 0. -1.
    10030    2    1    2    0    0  0.00000000000E+00  0.00000000000E+00 -0.34813985243E+03  0.36164348363E+04  0.35996388108E+04 0.  0.
        2    1    3    3  502    0 -0.40656910273E+03 -0.11239262492E+04  0.11778840487E+04  0.16780701658E+04  0.25500000920E-02 0.  1.
       -2    1    3    3    0  502  0.40656910273E+03  0.11239262492E+04 -0.15260239012E+04  0.19383646705E+04  0.25500000920E-02 0. -1.
</event>
<event>
 5   0  0.8146881E-09  0.3599185E+04  0.7818609E-02  0.8090678E-01
        1   -1    0    0  501    0  0.00000000000E+00  0.00000000000E+00  0.15456226433E+04  0.15456226434E+04  0.50400001928E-02 0.  1.
       -1   -1    0    0    0  501  0.00000000000E+00  0.00000000000E+00 -0.20952932895E+04  0.20952932895E+04  0.50400001928E-02 0. -1.
    10030    2    1    2    0    0  0.00000000000E+00  0.00000000000E+00 -0.54967064612E+03  0.36409159328E+04  0.35991847703E+04 0.  0.
        4    1    3    3  502    0  0.24054674251E+03  0.15885082974E+04  0.54531141213E+03  0.16966400607E+04  0.12699999809E+01 0.  1.
       -4    1    3    3    0  502 -0.24054674251E+03 -0.15885082974E+04 -0.10949820582E+04  0.19442758722E+04  0.12699999809E+01 0. -1.
</event>
<event>
 5   0  0.8146881E-09  0.3599999E+04  0.7818609E-02  0.8090492E-01
        1   -1    0    0  501    0  0.00000000000E+00  0.00000000000E+00  0.28459881300E+04  0.28459881300E+04  0.50400001928E-02 0.  1.
       -1   -1    0    0    0  501  0.00000000000E+00  0.00000000000E+00 -0.11384442236E+04  0.11384442236E+04  0.50400001928E-02 0. -1.
    10030    2    1    2    0    0  0.00000000000E+00  0.00000000000E+00  0.17075439064E+04  0.39844323536E+04  0.35999993039E+04 0.  0.
        4    1    3    3  502    0 -0.21108581832E+03  0.18046680268E+03  0.28221332860E+04  0.28357650443E+04  0.12699999809E+01 0.  1.
       -4    1    3    3    0  502  0.21108581832E+03 -0.18046680268E+03 -0.11145893796E+04  0.11486673093E+04  0.12699999809E+01 0. -1.
</event>
<event>
 5   0  0.8024500E-09  0.3600125E+04  0.7818609E-02  0.8090463E-01
       -1   -1    0    0    0  501  0.00000000000E+00  0.00000000000E+00  0.13982876289E+04  0.13982876290E+04  0.50400001928E-02 0. -1.
        1   -1    0    0  501    0  0.00000000000E+00  0.00000000000E+00 -0.23172802016E+04  0.23172802016E+04  0.50400001928E-02 0.  1.
    10030    2    1    2    0    0  0.00000000000E+00  0.00000000000E+00 -0.91899257260E+03  0.37155678305E+04  0.36001245749E+04 0.  0.
        5    1    3    3  502    0  0.10639201573E+04  0.14476672249E+04 -0.57504926797E+03  0.18863642929E+04  0.46999998093E+01 0.  1.
       -5    1    3    3    0  502 -0.10639201573E+04 -0.14476672249E+04 -0.34394330463E+03  0.18292035376E+04  0.46999998093E+01 0. -1.
</event>
<event>
 5   0  0.8247570E-09  0.3600811E+04  0.7818609E-02  0.8090306E-01
       -1   -1    0    0    0  501  0.00000000000E+00  0.00000000000E+00  0.29829972820E+04  0.29829972820E+04  0.50400001928E-02 0.  1.
        1   -1    0    0  501    0  0.00000000000E+00  0.00000000000E+00 -0.10866455701E+04  0.10866455701E+04  0.50400001928E-02 0. -1.
    10030    2    1    2    0    0  0.00000000000E+00  0.00000000000E+00  0.18963517119E+04  0.40696428521E+04  0.36008114541E+04 0.  0.
        3    1    3    3  502    0 -0.64353190031E+03 -0.98526096850E+03  0.24881510298E+04  0.27524113137E+04  0.10100000352E+00 0.  1.
       -3    1    3    3    0  502  0.64353190031E+03  0.98526096850E+03 -0.59179931788E+03  0.13172315383E+04  0.10100000352E+00 0. -1.
</event>
<event>
 5   0  0.2482243E-08  0.3599565E+04  0.7818609E-02  0.8090591E-01
        2   -1    0    0  501    0  0.00000000000E+00  0.00000000000E+00  0.11811277454E+04  0.11811277454E+04  0.25500000920E-02 0.  1.
       -2   -1    0    0    0  501  0.00000000000E+00  0.00000000000E+00 -0.27424780586E+04  0.27424780586E+04  0.25500000920E-02 0. -1.
    10030    2    1    2    0    0  0.00000000000E+00  0.00000000000E+00 -0.15613503132E+04  0.39236058040E+04  0.35995649327E+04 0.  0.
        5    1    3    3  502    0  0.13878528774E+04 -0.73474757817E+03  0.17780416028E+03  0.15803879341E+04  0.46999998093E+01 0.  1.
       -5    1    3    3    0  502 -0.13878528774E+04  0.73474757817E+03 -0.17391544735E+04  0.23432178699E+04  0.46999998093E+01 0. -1.
</event>
<event>
 5   0  0.8024500E-09  0.3602779E+04  0.7818609E-02  0.8089855E-01
       -1   -1    0    0    0  501  0.00000000000E+00  0.00000000000E+00  0.15231405251E+04  0.15231405251E+04  0.50400001928E-02 0.  1.
        1   -1    0    0  501    0  0.00000000000E+00  0.00000000000E+00 -0.21304696467E+04  0.21304696467E+04  0.50400001928E-02 0. -1.
    10030    2    1    2    0    0  0.00000000000E+00  0.00000000000E+00 -0.60732912159E+03  0.36536101718E+04  0.36027792918E+04 0.  0.
        5    1    3    3  502    0  0.11188933763E+04  0.11633801147E+04 -0.11147023980E+04  0.19616215754E+04  0.46999998093E+01 0. -1.
       -5    1    3    3    0  502 -0.11188933763E+04 -0.11633801147E+04  0.50737327643E+03  0.16919885964E+04  0.46999998093E+01 0.  1.
</event>
<event>
 5   0  0.2494592E-08  0.3601178E+04  0.7818609E-02  0.8090222E-01
       -2   -1    0    0    0  501  0.00000000000E+00  0.00000000000E+00  0.14313570487E+04  0.14313570487E+04  0.25500000920E-02 0.  1.
        2   -1    0    0  501    0  0.00000000000E+00  0.00000000000E+00 -0.22650674754E+04  0.22650674754E+04  0.25500000920E-02 0. -1.
    10030    2    1    2    0    0  0.00000000000E+00  0.00000000000E+00 -0.83371042670E+03  0.36964245240E+04  0.36011777499E+04 0.  0.
        1    1    3    3  502    0 -0.13487268771E+04 -0.10048940320E+04  0.24298778299E+03  0.16993879096E+04  0.50400001928E-02 0.  1.
       -1    1    3    3    0  502  0.13487268771E+04  0.10048940320E+04 -0.10766982097E+04  0.19970366144E+04  0.50400001928E-02 0. -1.
</event>
<event>
 5   0  0.8247570E-09  0.3599820E+04  0.7818609E-02  0.8090533E-01
        1   -1    0    0  501    0  0.00000000000E+00  0.00000000000E+00  0.31382748604E+04  0.31382748604E+04  0.50400001928E-02 0.  1.
       -1   -1    0    0    0  501  0.00000000000E+00  0.00000000000E+00 -0.10323108734E+04  0.10323108734E+04  0.50400001928E-02 0. -1.
    10030    2    1    2    0    0  0.00000000000E+00  0.00000000000E+00  0.21059639870E+04  0.41705857338E+04  0.35998195855E+04 0.  0.
        3    1    3    3  502    0  0.13510554165E+04  0.93570360125E+03  0.20258175301E+03  0.16558778170E+04  0.10100000352E+00 0. -1.
       -3    1    3    3    0  502 -0.13510554165E+04 -0.93570360125E+03  0.19033822340E+04  0.25147079168E+04  0.10100000352E+00 0.  1.
</event>
<event>
 5   0  0.8146881E-09  0.3601721E+04  0.7818609E-02  0.8090098E-01
        1   -1    0    0  501    0  0.00000000000E+00  0.00000000000E+00  0.20168886780E+04  0.20168886780E+04  0.50400001928E-02 0.  1.
       -1   -1    0    0    0  501  0.00000000000E+00  0.00000000000E+00 -0.16079708825E+04  0.16079708825E+04  0.50400001928E-02 0. -1.
    10030    2    1    2    0    0  0.00000000000E+00  0.00000000000E+00  0.40891779550E+03  0.36248595606E+04  0.36017208485E+04 0.  0.
        4    1    3    3  502    0  0.32516678261E+03  0.85941471508E+03 -0.13542872761E+04  0.16365887474E+04  0.12699999809E+01 0. -1.
       -4    1    3    3    0  502 -0.32516678261E+03 -0.85941471508E+03  0.17632050716E+04  0.19882708132E+04  0.12699999809E+01 0.  1.
</event>
<event>
 5   0  0.2494592E-08  0.3592780E+04  0.7818609E-02  0.8092148E-01
       -2   -1    0    0    0  501  0.00000000000E+00  0.00000000000E+00  0.14083259307E+04  0.14083259307E+04  0.25500000920E-02 0.  1.
        2   -1    0    0  501    0  0.00000000000E+00  0.00000000000E+00 -0.22913851705E+04  0.22913851705E+04  0.25500000920E-02 0. -1.
    10030    2    1    2    0    0  0.00000000000E+00  0.00000000000E+00 -0.88305923986E+03  0.36997111012E+04  0.35927800672E+04 0.  0.
        1    1    3    3  502    0  0.11313812840E+04 -0.10411555301E+04 -0.13981502357E+04  0.20781849122E+04  0.50400001928E-02 0.  1.
       -1    1    3    3    0  502 -0.11313812840E+04  0.10411555301E+04  0.51509099583E+03  0.16215261890E+04  0.50400001928E-02 0. -1.
</event>
<event>
 5   0  0.2608070E-08  0.3599930E+04  0.7818609E-02  0.8090508E-01
       -2   -1    0    0    0  501  0.00000000000E+00  0.00000000000E+00  0.14961095710E+04  0.14961095710E+04  0.25500000920E-02 0. -1.
        2   -1    0    0  501    0  0.00000000000E+00  0.00000000000E+00 -0.21655330533E+04  0.21655330533E+04  0.25500000920E-02 0.  1.
    10030    2    1    2    0    0  0.00000000000E+00  0.00000000000E+00 -0.66942348225E+03  0.36616426243E+04  0.35999304034E+04 0.  0.
        3    1    3    3  502    0  0.49463179638E+03  0.89291802523E+03  0.11732382923E+04  0.15551370726E+04  0.10100000352E+00 0. -1.
       -3    1    3    3    0  502 -0.49463179638E+03 -0.89291802523E+03 -0.18426617746E+04  0.21065055517E+04  0.10100000352E+00 0.  1.
</event>
<event>
 5   0  0.2494592E-08  0.3599006E+04  0.7818609E-02  0.8090719E-01
       -2   -1    0    0    0  501  0.00000000000E+00  0.00000000000E+00  0.10411681475E+04  0.10411681475E+04  0.25500000920E-02 0.  1.
        2   -1    0    0  501    0  0.00000000000E+00  0.00000000000E+00 -0.31101717498E+04  0.31101717498E+04  0.25500000920E-02 0. -1.
    10030    2    1    2    0    0  0.00000000000E+00  0.00000000000E+00 -0.20690036023E+04  0.41513398973E+04  0.35990063958E+04 0.  0.
        1    1    3    3  502    0 -0.11312076099E+04 -0.10657444949E+04  0.11770768109E+02  0.15542138000E+04  0.50400001928E-02 0.  1.
       -1    1    3    3    0  502  0.11312076099E+04  0.10657444949E+04 -0.20807743704E+04  0.25971260974E+04  0.50400001928E-02 0. -1.
</event>
<event>
 5   0  0.2608070E-08  0.3598043E+04  0.7818609E-02  0.8090940E-01
        2   -1    0    0  501    0  0.00000000000E+00  0.00000000000E+00  0.12498277352E+04  0.12498277352E+04  0.25500000920E-02 0.  1.
       -2   -1    0    0    0  501  0.00000000000E+00  0.00000000000E+00 -0.25895396005E+04  0.25895396005E+04  0.25500000920E-02 0. -1.
    10030    2    1    2    0    0  0.00000000000E+00  0.00000000000E+00 -0.13397118653E+04  0.38393673357E+04  0.35980430315E+04 0.  0.
        3    1    3    3  502    0  0.13007550533E+04  0.37136269564E+03 -0.19354059240E+04  0.23612856797E+04  0.10100000352E+00 0. -1.
       -3    1    3    3    0  502 -0.13007550533E+04 -0.37136269564E+03  0.59569405862E+03  0.14780816561E+04  0.10100000352E+00 0.  1.
</event>
<event>
 5   0  0.2476968E-08  0.3599648E+04  0.7818609E-02  0.8090572E-01
       -2   -1    0    0    0  501  0.00000000000E+00  0.00000000000E+00  0.17289571227E+04  0.17289571227E+04  0.25500000920E-02 0.  1.
        2   -1    0    0  501    0  0.00000000000E+00  0.00000000000E+00 -0.18735956074E+04  0.18735956074E+04  0.25500000920E-02 0. -1.
    10030    2    1    2    0    0  0.00000000000E+00  0.00000000000E+00 -0.14463848469E+03  0.36025527300E+04  0.35996480219E+04 0.  0.
        2    1    3    3  502    0 -0.92616515211E+03  0.15067278850E+04  0.26164999232E+03  0.17878678717E+04  0.25500000920E-02 0. -1.
       -2    1    3    3    0  502  0.92616515211E+03 -0.15067278850E+04 -0.40628847701E+03  0.18146848583E+04  0.25500000920E-02 0.  1.
</event>
<event>
 5   0  0.2494592E-08  0.3598531E+04  0.7818609E-02  0.8090828E-01
       -2   -1    0    0    0  501  0.00000000000E+00  0.00000000000E+00  0.97641228142E+03  0.97641228143E+03  0.25500000920E-02 0.  1.
        2   -1    0    0  501    0  0.00000000000E+00  0.00000000000E+00 -0.33155628490E+04  0.33155628490E+04  0.25500000920E-02 0. -1.
    10030    2    1    2    0    0  0.00000000000E+00  0.00000000000E+00 -0.23391505676E+04  0.42919751305E+04  0.35985309701E+04 0.  0.
        1    1    3    3  502    0  0.21630211819E+03  0.13704090436E+04 -0.25360124643E+04  0.28907035082E+04  0.50400001928E-02 0. -1.
       -1    1    3    3    0  502 -0.21630211819E+03 -0.13704090436E+04  0.19686189672E+03  0.14012716223E+04  0.50400001928E-02 0.  1.
</event>
<event>
 5   0  0.8024500E-09  0.3602798E+04  0.7818609E-02  0.8089851E-01
        1   -1    0    0  501    0  0.00000000000E+00  0.00000000000E+00  0.26861217109E+04  0.26861217109E+04  0.50400001928E-02 0. -1.
       -1   -1    0    0    0  501  0.00000000000E+00  0.00000000000E+00 -0.12080758059E+04  0.12080758059E+04  0.50400001928E-02 0.  1.
    10030    2    1    2    0    0  0.00000000000E+00  0.00000000000E+00  0.14780459050E+04  0.38941975169E+04  0.36027981630E+04 0.  0.
        5    1    3    3  502    0  0.12674250650E+04  0.12309021070E+04  0.11189189654E+04  0.20912886060E+04  0.46999998093E+01 0. -1.
       -5    1    3    3    0  502 -0.12674250650E+04 -0.12309021070E+04  0.35912693957E+03  0.18029089109E+04  0.46999998093E+01 0.  1.
</event>
<event>
 5   0  0.8024500E-09  0.3598705E+04  0.7818609E-02  0.8090788E-01
        1   -1    0    0  501    0  0.00000000000E+00  0.00000000000E+00  0.13748448888E+04  0.13748448888E+04  0.50400001928E-02 0.  1.
       -1   -1    0    0    0  501  0.00000000000E+00  0.00000000000E+00 -0.23549343025E+04  0.23549343025E+04  0.50400001928E-02 0. -1.
    10030    2    1    2    0    0  0.00000000000E+00  0.00000000000E+00 -0.98008941373E+03  0.37297791913E+04  0.35987049833E+04 0.  0.
        5    1    3    3  502    0  0.20040304711E+03  0.14402996508E+04  0.60828105335E+03  0.15762780197E+04  0.46999998093E+01 0.  1.
       -5    1    3    3    0  502 -0.20040304711E+03 -0.14402996508E+04 -0.15883704671E+04  0.21535011716E+04  0.46999998093E+01 0. -1.
</event>
<event>
 5   0  0.2476968E-08  0.3602480E+04  0.7818609E-02  0.8089924E-01
        2   -1    0    0  501    0  0.00000000000E+00  0.00000000000E+00  0.20310176404E+04  0.20310176404E+04  0.25500000920E-02 0.  1.
       -2   -1    0    0    0  501  0.00000000000E+00  0.00000000000E+00 -0.15974579261E+04  0.15974579261E+04  0.25500000920E-02 0. -1.
    10030    2    1    2    0    0  0.00000000000E+00  0.00000000000E+00  0.43355971434E+03  0.36284755665E+04  0.36024798280E+04 0.  0.
        2    1    3    3  502    0  0.62616151888E+02 -0.17270215968E+04 -0.29476380491E+03  0.17531143941E+04  0.25500000920E-02 0. -1.
       -2    1    3    3    0  502 -0.62616151888E+02  0.17270215968E+04  0.72832351925E+03  0.18753611724E+04  0.25500000920E-02 0.  1.
</event>
<event>
 5   0  0.8247570E-09  0.3599094E+04  0.7818609E-02  0.8090699E-01
       -1   -1    0    0    0  501  0.00000000000E+00  0.00000000000E+00  0.14122875022E+04  0.14122875022E+04  0.50400001928E-02 0. -1.
        1   -1    0    0  501    0  0.00000000000E+00  0.00000000000E+00 -0.22929964007E+04  0.22929964007E+04  0.50400001928E-02 0.  1.
    10030    2    1    2    0    0  0.00000000000E+00  0.00000000000E+00 -0.88070889846E+03  0.37052839029E+04  0.35990944191E+04 0.  0.
        3    1    3    3  502    0  0.16801289047E+04  0.46074286516E+03  0.23783157390E+02  0.17423210878E+04  0.10100000352E+00 0.  1.
       -3    1    3    3    0  502 -0.16801289047E+04 -0.46074286516E+03 -0.90449205585E+03  0.19629628151E+04  0.10100000352E+00 0. -1.
</event>
<event>
 5   0  0.8024500E-09  0.3598371E+04  0.7818609E-02  0.8090865E-01
       -1   -1    0    0    0  501  0.00000000000E+00  0.00000000000E+00  0.18944595201E+04  0.18944595201E+04  0.50400001928E-02 0.  1.
        1   -1    0    0  501    0  0.00000000000E+00  0.00000000000E+00 -0.17087031683E+04  0.17087031683E+04  0.50400001928E-02 0. -1.
    10030    2    1    2    0    0  0.00000000000E+00  0.00000000000E+00  0.18575635175E+03  0.36031626884E+04  0.35983712895E+04 0.  0.
        5    1    3    3  502    0 -0.14599330613E+04 -0.10100227252E+04  0.38566526936E+03  0.18166756009E+04  0.46999998093E+01 0.  1.
       -5    1    3    3    0  502  0.14599330613E+04  0.10100227252E+04 -0.19990891761E+03  0.17864870876E+04  0.46999998093E+01 0. -1.
</event>
<event>
 5   0  0.2482243E-08  0.3606614E+04  0.7818609E-02  0.8088978E-01
        2   -1    0    0  501    0  0.00000000000E+00  0.00000000000E+00  0.21302810010E+04  0.21302810010E+04  0.25500000920E-02 0. -1.
       -2   -1    0    0    0  501  0.00000000000E+00  0.00000000000E+00 -0.15265196338E+04  0.15265196338E+04  0.25500000920E-02 0.  1.
    10030    2    1    2    0    0  0.00000000000E+00  0.00000000000E+00  0.60376136726E+03  0.36568006348E+04  0.36066137988E+04 0.  0.
        5    1    3    3  502    0 -0.14705983094E+04  0.62534968407E+02 -0.75440472800E+03  0.16540007840E+04  0.46999998093E+01 0.  1.
       -5    1    3    3    0  502  0.14705983094E+04 -0.62534968407E+02  0.13581660953E+04  0.20027998508E+04  0.46999998093E+01 0. -1.
</event>
<event>
 5   0  0.2608070E-08  0.3599731E+04  0.7818609E-02  0.8090553E-01
       -2   -1    0    0    0  501  0.00000000000E+00  0.00000000000E+00  0.14138663419E+04  0.14138663419E+04  0.25500000920E-02 0.  1.
        2   -1    0    0  501    0  0.00000000000E+00  0.00000000000E+00 -0.22912466863E+04  0.22912466863E+04  0.25500000920E-02 0. -1.
    10030    2    1    2    0    0  0.00000000000E+00  0.00000000000E+00 -0.87738034440E+03  0.37051130282E+04  0.35997314182E+04 0.  0.
        3    1    3    3  502    0 -0.15048522571E+04  0.21441721002E+03 -0.14307325426E+04  0.20874747123E+04  0.10100000352E+00 0. -1.
       -3    1    3    3    0  502  0.15048522571E+04 -0.21441721002E+03  0.55335219822E+03  0.16176383159E+04  0.10100000352E+00 0.  1.
</event>
<event>
 5   0  0.8024500E-09  0.3592254E+04  0.7818609E-02  0.8092268E-01
        3   -1    0    0  501    0  0.00000000000E+00  0.00000000000E+00  0.23695917906E+04  0.23695917927E+04  0.10100000352E+00 0.  1.
       -3   -1    0    0    0  501  0.00000000000E+00  0.00000000000E+00 -0.13614461019E+04  0.13614461057E+04  0.10100000352E+00 0. -1.
    10030    2    1    2    0    0  0.00000000000E+00  0.00000000000E+00  0.10081456886E+04  0.37310378984E+04  0.35922536199E+04 0.  0.
        4    1    3    3  502    0  0.12242513116E+04 -0.10264224087E+04 -0.34845277679E+03  0.16351621282E+04  0.12699999809E+01 0. -1.
       -4    1    3    3    0  502 -0.12242513116E+04  0.10264224087E+04  0.13565984654E+04  0.20958757702E+04  0.12699999809E+01 0.  1.
</event>
<event>
 5   0  0.2476968E-08  0.3599597E+04  0.7818609E-02  0.8090584E-01
        2   -1    0    0  501    0  0.00000000000E+00  0.00000000000E+00  0.18410400375E+04  0.18410400375E+04  0.25500000920E-02 0. -1.
       -2   -1    0    0    0  501  0.00000000000E+00  0.00000000000E+00 -0.17594806248E+04  0.17594806248E+04  0.25500000920E-02 0.  1.
    10030    2    1    2    0    0  0.00000000000E+00  0.00000000000E+00  0.81559412697E+02  0.36005206623E+04  0.35995967971E+04 0.  0.
        2    1    3    3  502    0  0.11424209126E+04  0.69395668497E+03 -0.11647569284E+04  0.17729523751E+04  0.25500000920E-02 0.  1.
       -2    1    3    3    0  502 -0.11424209126E+04 -0.69395668497E+03  0.12463163411E+04  0.18275682872E+04  0.25500000920E-02 0. -1.
</event>
<event>
 5   0  0.8024500E-09  0.3600592E+04  0.7818609E-02  0.8090356E-01
       -1   -1    0    0    0  501  0.00000000000E+00  0.00000000000E+00  0.22551416110E+04  0.22551416110E+04  0.50400001928E-02 0.  1.
        1   -1    0    0  501    0  0.00000000000E+00  0.00000000000E+00 -0.14371890972E+04  0.14371890972E+04  0.50400001928E-02 0. -1.
    10030    2    1    2    0    0  0.00000000000E+00  0.00000000000E+00  0.81795251381E+03  0.36923307082E+04  0.36005915825E+04 0.  0.
        1    1    3    3  502    0 -0.81663242977E+03 -0.11591440330E+04  0.15465469524E+04  0.20981684610E+04  0.50400001928E-02 0.  1.
       -1    1    3    3    0  502  0.81663242977E+03  0.11591440330E+04 -0.72859443861E+03  0.15941622472E+04  0.50400001928E-02 0. -1.
</event>
<event>
 5   0  0.2494592E-08  0.3599352E+04  0.7818609E-02  0.8090640E-01
        2   -1    0    0  501    0  0.00000000000E+00  0.00000000000E+00  0.20422862152E+04  0.20422862152E+04  0.25500000920E-02 0.  1.
       -2   -1    0    0    0  501  0.00000000000E+00  0.00000000000E+00 -0.15858862252E+04  0.15858862252E+04  0.25500000920E-02 0. -1.
    10030    2    1    2    0    0  0.00000000000E+00  0.00000000000E+00  0.45639999003E+03  0.36281724404E+04  0.35993519287E+04 0.  0.
        1    1    3    3  502    0 -0.78510084062E+03  0.16319622389E+03  0.18522547379E+04  0.20183815178E+04  0.50400001928E-02 0.  1.
       -1    1    3    3    0  502  0.78510084062E+03 -0.16319622389E+03 -0.13958547478E+04  0.16097909226E+04  0.50400001928E-02 0. -1.
</event>
<event>
 5   0  0.8063410E-09  0.3602062E+04  0.7818609E-02  0.8090019E-01
       -1   -1    0    0    0  501  0.00000000000E+00  0.00000000000E+00  0.13918061619E+04  0.13918061619E+04  0.50400001928E-02 0.  1.
        1   -1    0    0  501    0  0.00000000000E+00  0.00000000000E+00 -0.23305780629E+04  0.23305780629E+04  0.50400001928E-02 0. -1.
    10030    2    1    2    0    0  0.00000000000E+00  0.00000000000E+00 -0.93877190095E+03  0.37223842248E+04  0.36020621365E+04 0.  0.
        2    1    3    3  502    0  0.20436267178E+03  0.10492955733E+03  0.13766035318E+04  0.13956402105E+04  0.25500000920E-02 0.  1.
       -2    1    3    3    0  502 -0.20436267178E+03 -0.10492955733E+03 -0.23153754327E+04  0.23267440143E+04  0.25500000920E-02 0. -1.
</event>
<event>
 5   0  0.8247570E-09  0.3596664E+04  0.7818609E-02  0.8091256E-01
        1   -1    0    0  501    0  0.00000000000E+00  0.00000000000E+00  0.24971893823E+04  0.24971893823E+04  0.50400001928E-02 0. -1.
       -1   -1    0    0    0  501  0.00000000000E+00  0.00000000000E+00 -0.12950551475E+04  0.12950551475E+04  0.50400001928E-02 0.  1.
    10030    2    1    2    0    0  0.00000000000E+00  0.00000000000E+00  0.12021342349E+04  0.37922445298E+04  0.35966639898E+04 0.  0.
        3    1    3    3  502    0  0.13535802192E+04  0.34511697356E+03  0.17952234449E+04  0.22746675279E+04  0.10100000352E+00 0. -1.
       -3    1    3    3    0  502 -0.13535802192E+04 -0.34511697356E+03 -0.59308921003E+03  0.15175770019E+04  0.10100000352E+00 0.  1.
</event>
<event>
 5   0  0.8024500E-09  0.3600884E+04  0.7818609E-02  0.8090289E-01
       -1   -1    0    0    0  501  0.00000000000E+00  0.00000000000E+00  0.19688149020E+04  0.19688149020E+04  0.50400001928E-02 0.  1.
        1   -1    0    0  501    0  0.00000000000E+00  0.00000000000E+00 -0.16464682302E+04  0.16464682303E+04  0.50400001928E-02 0. -1.
    10030    2    1    2    0    0  0.00000000000E+00  0.00000000000E+00  0.32234667171E+03  0.36152831322E+04  0.36008838845E+04 0.  0.
        5    1    3    3  502    0 -0.11315418689E+03 -0.17713210833E+04  0.46435246254E+03  0.18346736902E+04  0.46999998093E+01 0. -1.
       -5    1    3    3    0  502  0.11315418689E+03  0.17713210833E+04 -0.14200579083E+03  0.17806094420E+04  0.46999998093E+01 0.  1.
</event>
<event>
 5   0  0.8063410E-09  0.3598173E+04  0.7818609E-02  0.8090910E-01
       -1   -1    0    0    0  501  0.00000000000E+00  0.00000000000E+00  0.20694699866E+04  0.20694699866E+04  0.50400001928E-02 0. -1.
        1   -1    0    0  501    0  0.00000000000E+00  0.00000000000E+00 -0.15640294642E+04  0.15640294642E+04  0.50400001928E-02 0.  1.
    10030    2    1    2    0    0  0.00000000000E+00  0.00000000000E+00  0.50544052240E+03  0.36334994508E+04  0.35981728887E+04 0.  0.
        2    1    3    3  502    0  0.80850154059E+03 -0.15364111081E+04  0.72902708472E+03  0.18830067245E+04  0.25500000920E-02 0. -1.
       -2    1    3    3    0  502 -0.80850154059E+03  0.15364111081E+04 -0.22358656232E+03  0.17504927263E+04  0.25500000920E-02 0.  1.
</event>
<event>
 5   0  0.2590795E-08  0.3593325E+04  0.7818609E-02  0.8092022E-01
       -2   -1    0    0    0  501  0.00000000000E+00  0.00000000000E+00  0.10605890622E+04  0.10605890622E+04  0.25500000920E-02 0.  1.
        2   -1    0    0  501    0  0.00000000000E+00  0.00000000000E+00 -0.30435874675E+04  0.30435874675E+04  0.25500000920E-02 0. -1.
    10030    2    1    2    0    0  0.00000000000E+00  0.00000000000E+00 -0.19829984052E+04  0.41041765297E+04  0.35933246878E+04 0.  0.
        4    1    3    3  502    0  0.19266342736E+03  0.10241151949E+04  0.68015203619E+03  0.12444032843E+04  0.12699999809E+01 0.  1.
       -4    1    3    3    0  502 -0.19266342736E+03 -0.10241151949E+04 -0.26631504414E+04  0.28597732454E+04  0.12699999809E+01 0. -1.
</event>
<event>
 5   0  0.8146881E-09  0.3600737E+04  0.7818609E-02  0.8090323E-01
       -1   -1    0    0    0  501  0.00000000000E+00  0.00000000000E+00  0.12577816132E+04  0.12577816132E+04  0.50400001928E-02 0.  1.
        1   -1    0    0  501    0  0.00000000000E+00  0.00000000000E+00 -0.25770185406E+04  0.25770185406E+04  0.50400001928E-02 0. -1.
    10030    2    1    2    0    0  0.00000000000E+00  0.00000000000E+00 -0.13192369274E+04  0.38348001538E+04  0.36007368897E+04 0.  0.
        4    1    3    3  502    0 -0.10272149283E+04  0.76208411398E+03  0.68978112118E+03  0.14531835100E+04  0.12699999809E+01 0.  1.
       -4    1    3    3    0  502  0.10272149283E+04 -0.76208411398E+03 -0.20090180486E+04  0.23816166438E+04  0.12699999809E+01 0. -1.
</event>
<event>
 5   0  0.8024500E-09  0.3601370E+04  0.7818609E-02  0.8090178E-01
        1   -1    0    0  501    0  0.00000000000E+00  0.00000000000E+00  0.24011295261E+04  0.24011295261E+04  0.50400001928E-02 0.  1.
       -1   -1    0    0    0  501  0.00000000000E+00  0.00000000000E+00 -0.13503922230E+04  0.13503922230E+04  0.50400001928E-02 0. -1.
    10030    2    1    2    0    0  0.00000000000E+00  0.00000000000E+00  0.10507373031E+04  0.37515217491E+04  0.36013700940E+04 0.  0.
        5    1    3    3  502    0 -0.13027044436E+04 -0.61638488774E+03  0.16499509968E+04  0.21907372227E+04  0.46999998093E+01 0.  1.
       -5    1    3    3    0  502  0.13027044436E+04  0.61638488774E+03 -0.59921369366E+03  0.15607845264E+04  0.46999998093E+01 0. -1.
</event>
<event>
 5   0  0.8063410E-09  0.3594472E+04  0.7818609E-02  0.8091759E-01
       -1   -1    0    0    0  501  0.00000000000E+00  0.00000000000E+00  0.18161490406E+04  0.18161490406E+04  0.50400001928E-02 0.  1.
        1   -1    0    0  501    0  0.00000000000E+00  0.00000000000E+00 -0.17785197256E+04  0.17785197256E+04  0.50400001928E-02 0. -1.
    10030    2    1    2    0    0  0.00000000000E+00  0.00000000000E+00  0.37629314951E+02  0.35946687662E+04  0.35944718073E+04 0.  0.
        2    1    3    3  502    0  0.65434808123E+03 -0.14883210283E+04 -0.74724689755E+03  0.17893151820E+04  0.25500000920E-02 0. -1.
       -2    1    3    3    0  502 -0.65434808123E+03  0.14883210283E+04  0.78487621250E+03  0.18053535841E+04  0.25500000920E-02 0.  1.
</event>
<event>
 5   0  0.2494592E-08  0.3599861E+04  0.7818609E-02  0.8090524E-01
       -2   -1    0    0    0  501  0.00000000000E+00  0.00000000000E+00  0.15456934609E+04  0.15456934609E+04  0.25500000920E-02 0. -1.
        2   -1    0    0  501    0  0.00000000000E+00  0.00000000000E+00 -0.20959847287E+04  0.20959847287E+04  0.25500000920E-02 0.  1.
    10030    2    1    2    0    0  0.00000000000E+00  0.00000000000E+00 -0.55029126775E+03  0.36416781896E+04  0.35998610469E+04 0.  0.
        1    1    3    3  502    0  0.14912673819E+04 -0.84546394734E+03 -0.83021076005E+03  0.19047145709E+04  0.50400001928E-02 0.  1.
       -1    1    3    3    0  502 -0.14912673819E+04  0.84546394734E+03  0.27991949230E+03  0.17369636187E+04  0.50400001928E-02 0. -1.
</event>
<event>
 5   0  0.2608070E-08  0.3600067E+04  0.7818609E-02  0.8090476E-01
        2   -1    0    0  501    0  0.00000000000E+00  0.00000000000E+00  0.19150080349E+04  0.19150080349E+04  0.25500000920E-02 0.  1.
       -2   -1    0    0    0  501  0.00000000000E+00  0.00000000000E+00 -0.16919616096E+04  0.16919616096E+04  0.25500000920E-02 0. -1.
    10030    2    1    2    0    0  0.00000000000E+00  0.00000000000E+00  0.22304642534E+03  0.36069696445E+04  0.36000667089E+04 0.  0.
        3    1    3    3  502    0 -0.16586683919E+04  0.37151927686E+03 -0.48199145631E+03  0.17667832865E+04  0.10100000352E+00 0. -1.
       -3    1    3    3    0  502  0.16586683919E+04 -0.37151927686E+03  0.70503788164E+03  0.18401863580E+04  0.10100000352E+00 0.  1.
</event>
<event>
 5   0  0.2608070E-08  0.3600008E+04  0.7818609E-02  0.8090490E-01
        2   -1    0    0  501    0  0.00000000000E+00  0.00000000000E+00  0.20272378890E+04  0.20272378890E+04  0.25500000920E-02 0.  1.
       -2   -1    0    0    0  501  0.00000000000E+00  0.00000000000E+00 -0.15982412167E+04  0.15982412167E+04  0.25500000920E-02 0. -1.
    10030    2    1    2    0    0  0.00000000000E+00  0.00000000000E+00  0.42899667228E+03  0.36254791057E+04  0.36000084168E+04 0.  0.
        3    1    3    3  502    0  0.13223176429E+04 -0.32452098468E+03 -0.97119201342E+03  0.16724388645E+04  0.10100000352E+00 0. -1.
       -3    1    3    3    0  502 -0.13223176429E+04  0.32452098468E+03  0.14001886857E+04  0.19530402413E+04  0.10100000352E+00 0.  1.
</event>
<event>
 5   0  0.8146881E-09  0.3599163E+04  0.7818609E-02  0.8090683E-01
        1   -1    0    0  501    0  0.00000000000E+00  0.00000000000E+00  0.19400152075E+04  0.19400152075E+04  0.50400001928E-02 0. -1.
       -1   -1    0    0    0  501  0.00000000000E+00  0.00000000000E+00 -0.16693136432E+04  0.16693136433E+04  0.50400001928E-02 0.  1.
    10030    2    1    2    0    0  0.00000000000E+00  0.00000000000E+00  0.27070156421E+03  0.36093288507E+04  0.35991631549E+04 0.  0.
        4    1    3    3  502    0  0.70441094306E+03  0.16250109279E+04  0.45505673838E+03  0.18286425404E+04  0.12699999809E+01 0.  1.
       -4    1    3    3    0  502 -0.70441094306E+03 -0.16250109279E+04 -0.18435517417E+03  0.17806863103E+04  0.12699999809E+01 0. -1.
</event>
<event>
 5   0  0.2494592E-08  0.3600853E+04  0.7818609E-02  0.8090296E-01
       -2   -1    0    0    0  501  0.00000000000E+00  0.00000000000E+00  0.13514648913E+04  0.13514648913E+04  0.25500000920E-02 0. -1.
        2   -1    0    0  501    0  0.00000000000E+00  0.00000000000E+00 -0.23985350432E+04  0.23985350432E+04  0.25500000920E-02 0.  1.
    10030    2    1    2    0    0  0.00000000000E+00  0.00000000000E+00 -0.10470701519E+04  0.37499999344E+04  0.36008531774E+04 0.  0.
        1    1    3    3  502    0 -0.37292294968E+03  0.13367125020E+04  0.67099847523E+03  0.15414638475E+04  0.50400001928E-02 0. -1.
       -1    1    3    3    0  502  0.37292294968E+03 -0.13367125020E+04 -0.17180686271E+04  0.22085360869E+04  0.50400001928E-02 0.  1.
</event>
<event>
 5   0  0.8063410E-09  0.3599085E+04  0.7818609E-02  0.8090701E-01
       -1   -1    0    0    0  501  0.00000000000E+00  0.00000000000E+00  0.11886742480E+04  0.11886742480E+04  0.50400001928E-02 0.  1.
        1   -1    0    0  501    0  0.00000000000E+00  0.00000000000E+00 -0.27243401636E+04  0.27243401636E+04  0.50400001928E-02 0. -1.
    10030    2    1    2    0    0  0.00000000000E+00  0.00000000000E+00 -0.15356659156E+04  0.39130144116E+04  0.35990848811E+04 0.  0.
        2    1    3    3  502    0 -0.75251701855E+03 -0.10294060024E+04  0.61272613497E+03  0.14147055868E+04  0.25500000920E-02 0.  1.
       -2    1    3    3    0  502  0.75251701855E+03  0.10294060024E+04 -0.21483920505E+04  0.24983088247E+04  0.25500000920E-02 0. -1.
</event>
<event>
 5   0  0.8247570E-09  0.3601216E+04  0.7818609E-02  0.8090213E-01
       -1   -1    0    0    0  501  0.00000000000E+00  0.00000000000E+00  0.19165111169E+04  0.19165111169E+04  0.50400001928E-02 0.  1.
        1   -1    0    0  501    0  0.00000000000E+00  0.00000000000E+00 -0.16917143223E+04  0.16917143223E+04  0.50400001928E-02 0. -1.
    10030    2    1    2    0    0  0.00000000000E+00  0.00000000000E+00  0.22479679458E+03  0.36082254392E+04  0.36012160753E+04 0.  0.
        3    1    3    3  502    0 -0.23552993139E+03 -0.17423989333E+04 -0.27663675948E+03  0.17798753604E+04  0.10100000352E+00 0. -1.
       -3    1    3    3    0  502  0.23552993139E+03  0.17423989333E+04  0.50143355406E+03  0.18283500789E+04  0.10100000352E+00 0.  1.
</event>
<event>
 5   0  0.8024500E-09  0.3599214E+04  0.7818609E-02  0.8090672E-01
       -1   -1    0    0    0  501  0.00000000000E+00  0.00000000000E+00  0.21652522682E+04  0.21652522682E+04  0.50400001928E-02 0.  1.
        1   -1    0    0  501    0  0.00000000000E+00  0.00000000000E+00 -0.14957082916E+04  0.14957082916E+04  0.50400001928E-02 0. -1.
    10030    2    1    2    0    0  0.00000000000E+00  0.00000000000E+00  0.66954397662E+03  0.36609605597E+04  0.35992142314E+04 0.  0.
        5    1    3    3  502    0  0.16804428529E+04 -0.62083879272E+03  0.50868681894E+03  0.18622871309E+04  0.46999998093E+01 0. -1.
       -5    1    3    3    0  502 -0.16804428529E+04  0.62083879272E+03  0.16085715768E+03  0.17986734288E+04  0.46999998093E+01 0.  1.
</event>
<event>
 5   0  0.2476968E-08  0.3600025E+04  0.7818609E-02  0.8090486E-01
       -2   -1    0    0    0  501  0.00000000000E+00  0.00000000000E+00  0.27233898879E+04  0.27233898879E+04  0.25500000920E-02 0. -1.
        2   -1    0    0  501    0  0.00000000000E+00  0.00000000000E+00 -0.11897104552E+04  0.11897104552E+04  0.25500000920E-02 0.  1.
    10030    2    1    2    0    0  0.00000000000E+00  0.00000000000E+00  0.15336794327E+04  0.39131003431E+04  0.36000252350E+04 0.  0.
        2    1    3    3  502    0 -0.14388302338E+03  0.17477833974E+04  0.32585304169E+03  0.17837122339E+04  0.25500000920E-02 0.  1.
       -2    1    3    3    0  502  0.14388302338E+03 -0.17477833974E+04  0.12078263910E+04  0.21293881092E+04  0.25500000920E-02 0. -1.
</event>
<event>
 5   0  0.2494592E-08  0.3600979E+04  0.7818609E-02  0.8090267E-01
       -2   -1    0    0    0  501  0.00000000000E+00  0.00000000000E+00  0.16156815264E+04  0.16156815264E+04  0.25500000920E-02 0.  1.
        2   -1    0    0  501    0  0.00000000000E+00  0.00000000000E+00 -0.20064364609E+04  0.20064364609E+04  0.25500000920E-02 0. -1.
    10030    2    1    2    0    0  0.00000000000E+00  0.00000000000E+00 -0.39075493451E+03  0.36221179874E+04  0.36009789357E+04 0.  0.
        1    1    3    3  502    0 -0.33454751853E+03 -0.15789475316E+04  0.60728248587E+03  0.17244678505E+04  0.50400001928E-02 0.  1.
       -1    1    3    3    0  502  0.33454751853E+03  0.15789475316E+04 -0.99803742038E+03  0.18976501369E+04  0.50400001928E-02 0. -1.
</event>
<event>
 5   0  0.2482243E-08  0.3598566E+04  0.7818609E-02  0.8090820E-01
        2   -1    0    0  501    0  0.00000000000E+00  0.00000000000E+00  0.19658943064E+04  0.19658943064E+04  0.25500000920E-02 0. -1.
       -2   -1    0    0    0  501  0.00000000000E+00  0.00000000000E+00 -0.16467920767E+04  0.16467920767E+04  0.25500000920E-02 0.  1.
    10030    2    1    2    0    0  0.00000000000E+00  0.00000000000E+00  0.31910222964E+03  0.36126863831E+04  0.35985659185E+04 0.  0.
        5    1    3    3  502    0  0.76579575654E+03 -0.11929076357E+04 -0.95291495818E+03  0.17080810213E+04  0.46999998093E+01 0.  1.
       -5    1    3    3    0  502 -0.76579575654E+03  0.11929076357E+04  0.12720171878E+04  0.19046053618E+04  0.46999998093E+01 0. -1.
</event>
<event>
 5   0  0.8063410E-09  0.3600264E+04  0.7818609E-02  0.8090431E-01
       -1   -1    0    0    0  501  0.00000000000E+00  0.00000000000E+00  0.17440185198E+04  0.17440185198E+04  0.50400001928E-02 0.  1.
        1   -1    0    0  501    0  0.00000000000E+00  0.00000000000E+00 -0.18580513350E+04  0.18580513350E+04  0.50400001928E-02 0. -1.
    10030    2    1    2    0    0  0.00000000000E+00  0.00000000000E+00 -0.11403281527E+03  0.36020698548E+04  0.36002644008E+04 0.  0.
        2    1    3    3  502    0  0.69318098961E+02 -0.60084202630E+03  0.16393160128E+04  0.17473331478E+04  0.25500000920E-02 0.  1.
       -2    1    3    3    0  502 -0.69318098961E+02  0.60084202630E+03 -0.17533488281E+04  0.18547367070E+04  0.25500000920E-02 0. -1.
</event>
<event>
 5   0  0.2590795E-08  0.3599463E+04  0.7818609E-02  0.8090615E-01
        2   -1    0    0  501    0  0.00000000000E+00  0.00000000000E+00  0.17968647875E+04  0.17968647875E+04  0.25500000920E-02 0. -1.
       -2   -1    0    0    0  501  0.00000000000E+00  0.00000000000E+00 -0.18026029052E+04  0.18026029052E+04  0.25500000920E-02 0.  1.
    10030    2    1    2    0    0  0.00000000000E+00  0.00000000000E+00 -0.57381176969E+01  0.35994676927E+04  0.35994631190E+04 0.  0.
        4    1    3    3  502    0 -0.17673371019E+04  0.20006663091E+03  0.27194938440E+03  0.17992957425E+04  0.12699999809E+01 0. -1.
       -4    1    3    3    0  502  0.17673371019E+04 -0.20006663091E+03 -0.27768750210E+03  0.18001719502E+04  0.12699999809E+01 0.  1.
</event>
<event>
 5   0  0.2494592E-08  0.3609705E+04  0.7818609E-02  0.8088272E-01
        2   -1    0    0  501    0  0.00000000000E+00  0.00000000000E+00  0.17086384269E+04  0.17086384269E+04  0.25500000920E-02 0. -1.
       -2   -1    0    0    0  501  0.00000000000E+00  0.00000000000E+00 -0.19064842276E+04  0.19064842276E+04  0.25500000920E-02 0.  1.
    10030    2    1    2    0    0  0.00000000000E+00  0.00000000000E+00 -0.19784580068E+03  0.36151226545E+04  0.36097048143E+04 0.  0.
        1    1    3    3  502    0  0.17351262350E+03 -0.14738542166E+03 -0.18920467556E+04  0.19056941041E+04  0.50400001928E-02 0.  1.
       -1    1    3    3    0  502 -0.17351262350E+03  0.14738542166E+03  0.16942009549E+04  0.17094285504E+04  0.50400001928E-02 0. -1.
</event>
<event>
 5   0  0.8024500E-09  0.3598587E+04  0.7818609E-02  0.8090815E-01
       -1   -1    0    0    0  501  0.00000000000E+00  0.00000000000E+00  0.24589265145E+04  0.24589265145E+04  0.50400001928E-02 0.  1.
        1   -1    0    0  501    0  0.00000000000E+00  0.00000000000E+00 -0.13166139826E+04  0.13166139826E+04  0.50400001928E-02 0. -1.
    10030    2    1    2    0    0  0.00000000000E+00  0.00000000000E+00  0.11423125319E+04  0.37755404971E+04  0.35985869622E+04 0.  0.
        1    1    3    3  502    0  0.82647524275E+03 -0.48060040134E+03 -0.10280736127E+04  0.14039136105E+04  0.50400001928E-02 0. -1.
       -1    1    3    3    0  502 -0.82647524275E+03  0.48060040134E+03  0.21703861446E+04  0.23716268866E+04  0.50400001928E-02 0.  1.
</event>
<event>
 5   0  0.8024500E-09  0.3600503E+04  0.7818609E-02  0.8090376E-01
       -1   -1    0    0    0  501  0.00000000000E+00  0.00000000000E+00  0.14495066961E+04  0.14495066961E+04  0.50400001928E-02 0. -1.
        1   -1    0    0  501    0  0.00000000000E+00  0.00000000000E+00 -0.22358679518E+04  0.22358679518E+04  0.50400001928E-02 0.  1.
    10030    2    1    2    0    0  0.00000000000E+00  0.00000000000E+00 -0.78636125563E+03  0.36853746479E+04  0.36005030581E+04 0.  0.
        5    1    3    3  502    0 -0.11021048657E+04  0.13097663311E+04  0.17741884520E+03  0.17209365222E+04  0.46999998093E+01 0. -1.
       -5    1    3    3    0  502  0.11021048657E+04 -0.13097663311E+04 -0.96378010083E+03  0.19644381257E+04  0.46999998093E+01 0.  1.
</event>
<event>
 5   0  0.2482243E-08  0.3597772E+04  0.7818609E-02  0.8091002E-01
       -2   -1    0    0    0  501  0.00000000000E+00  0.00000000000E+00  0.15929143255E+04  0.15929143255E+04  0.25500000920E-02 0.  1.
        2   -1    0    0  501    0  0.00000000000E+00  0.00000000000E+00 -0.20314908097E+04  0.20314908097E+04  0.25500000920E-02 0. -1.
    10030    2    1    2    0    0  0.00000000000E+00  0.00000000000E+00 -0.43857648420E+03  0.36244051352E+04  0.35977719844E+04 0.  0.
        5    1    3    3  502    0  0.13136155302E+03  0.23356480838E+03 -0.20112648789E+04  0.20290433411E+04  0.46999998093E+01 0. -1.
       -5    1    3    3    0  502 -0.13136155302E+03 -0.23356480838E+03  0.15726883947E+04  0.15953617941E+04  0.46999998093E+01 0.  1.
</event>
<event>
 5   0  0.2482243E-08  0.3599620E+04  0.7818609E-02  0.8090579E-01
       -2   -1    0    0    0  501  0.00000000000E+00  0.00000000000E+00  0.16662843632E+04  0.16662843632E+04  0.25500000920E-02 0. -1.
        2   -1    0    0  501    0  0.00000000000E+00  0.00000000000E+00 -0.19440358861E+04  0.19440358861E+04  0.25500000920E-02 0.  1.
    10030    2    1    2    0    0  0.00000000000E+00  0.00000000000E+00 -0.27775152287E+03  0.36103202493E+04  0.35996203125E+04 0.  0.
        5    1    3    3  502    0 -0.11010382639E+04  0.14141166227E+04 -0.30454371050E+03  0.18179053999E+04  0.46999998093E+01 0.  1.
       -5    1    3    3    0  502  0.11010382639E+04 -0.14141166227E+04  0.26792187627E+02  0.17924148495E+04  0.46999998093E+01 0. -1.
</event>
<event>
 5   0  0.2482243E-08  0.3596358E+04  0.7818609E-02  0.8091326E-01
        2   -1    0    0  501    0  0.00000000000E+00  0.00000000000E+00  0.11188578123E+04  0.11188578123E+04  0.25500000920E-02 0.  1.
       -2   -1    0    0    0  501  0.00000000000E+00  0.00000000000E+00 -0.28899537863E+04  0.28899537863E+04  0.25500000920E-02 0. -1.
    10030    2    1    2    0    0  0.00000000000E+00  0.00000000000E+00 -0.17710959740E+04  0.40088115986E+04  0.35963578081E+04 0.  0.
        5    1    3    3  502    0 -0.11046149631E+04 -0.14183183459E+04 -0.93047046353E+03  0.20242525832E+04  0.46999998093E+01 0. -1.
       -5    1    3    3    0  502  0.11046149631E+04  0.14183183459E+04 -0.84062551046E+03  0.19845590155E+04  0.46999998093E+01 0.  1.
</event>
<event>
 5   0  0.2590795E-08  0.3599627E+04  0.7818609E-02  0.8090577E-01
        2   -1    0    0  501    0  0.00000000000E+00  0.00000000000E+00  0.25609281375E+04  0.25609281375E+04  0.25500000920E-02 0.  1.
       -2   -1    0    0    0  501  0.00000000000E+00  0.00000000000E+00 -0.12649038249E+04  0.12649038249E+04  0.25500000920E-02 0. -1.
    10030    2    1    2    0    0  0.00000000000E+00  0.00000000000E+00  0.12960243126E+04  0.38258319624E+04  0.35996265342E+04 0.  0.
        4    1    3    3  502    0 -0.67633579795E+02  0.15229096107E+04 -0.36893220816E+03  0.15684197686E+04  0.12699999809E+01 0. -1.
       -4    1    3    3    0  502  0.67633579795E+02 -0.15229096107E+04  0.16649565208E+04  0.22574121938E+04  0.12699999809E+01 0.  1.
</event>
<event>
 5   0  0.2590795E-08  0.3600463E+04  0.7818609E-02  0.8090386E-01
        2   -1    0    0  501    0  0.00000000000E+00  0.00000000000E+00  0.16445151021E+04  0.16445151021E+04  0.25500000920E-02 0. -1.
       -2   -1    0    0    0  501  0.00000000000E+00  0.00000000000E+00 -0.19706927733E+04  0.19706927733E+04  0.25500000920E-02 0.  1.
    10030    2    1    2    0    0  0.00000000000E+00  0.00000000000E+00 -0.32617767128E+03  0.36152078754E+04  0.36004633187E+04 0.  0.
        4    1    3    3  502    0 -0.36784087092E+03  0.36584565158E+03 -0.18940052033E+04  0.19637737319E+04  0.12699999809E+01 0.  1.
       -4    1    3    3    0  502  0.36784087092E+03 -0.36584565158E+03  0.15678275320E+04  0.16514341435E+04  0.12699999809E+01 0. -1.
</event>
<event>
 5   0  0.8024500E-09  0.3600438E+04  0.7818609E-02  0.8090391E-01
       -1   -1    0    0    0  501  0.00000000000E+00  0.00000000000E+00  0.16555412563E+04  0.16555412563E+04  0.50400001928E-02 0.  1.
        1   -1    0    0  501    0  0.00000000000E+00  0.00000000000E+00 -0.19575399250E+04  0.19575399250E+04  0.50400001928E-02 0. -1.
    10030    2    1    2    0    0  0.00000000000E+00  0.00000000000E+00 -0.30199866864E+03  0.36130811813E+04  0.36004378104E+04 0.  0.
        5    1    3    3  502    0 -0.16471772527E+04 -0.72484199574E+03 -0.10417504573E+03  0.18026267918E+04  0.46999998093E+01 0. -1.
       -5    1    3    3    0  502  0.16471772527E+04  0.72484199574E+03 -0.19782362291E+03  0.18104543894E+04  0.46999998093E+01 0.  1.
</event>
<event>
 5   0  0.2608070E-08  0.3600822E+04  0.7818609E-02  0.8090304E-01
        2   -1    0    0  501    0  0.00000000000E+00  0.00000000000E+00  0.20801912710E+04  0.20801912710E+04  0.25500000920E-02 0.  1.
       -2   -1    0    0    0  501  0.00000000000E+00  0.00000000000E+00 -0.15582600560E+04  0.15582600560E+04  0.25500000920E-02 0. -1.
    10030    2    1    2    0    0  0.00000000000E+00  0.00000000000E+00  0.52193121508E+03  0.36384513270E+04  0.36008215543E+04 0.  0.
        3    1    3    3  502    0 -0.99845658846E+03 -0.48654544651E+03  0.16927551578E+04  0.20246140534E+04  0.10100000352E+00 0.  1.
       -3    1    3    3    0  502  0.99845658846E+03  0.48654544651E+03 -0.11708239428E+04  0.16138372736E+04  0.10100000352E+00 0. -1.
</event>
<event>
 5   0  0.2476968E-08  0.3600857E+04  0.7818609E-02  0.8090296E-01
       -2   -1    0    0    0  501  0.00000000000E+00  0.00000000000E+00  0.13965439805E+04  0.13965439805E+04  0.25500000920E-02 0.  1.
        2   -1    0    0  501    0  0.00000000000E+00  0.00000000000E+00 -0.23211170879E+04  0.23211170879E+04  0.25500000920E-02 0. -1.
    10030    2    1    2    0    0  0.00000000000E+00  0.00000000000E+00 -0.92457310734E+03  0.37176610684E+04  0.36008566188E+04 0.  0.
        2    1    3    3  502    0  0.11199036519E+04  0.13553203890E+04 -0.86276676504E+03  0.19584289717E+04  0.25500000920E-02 0. -1.
       -2    1    3    3    0  502 -0.11199036519E+04 -0.13553203890E+04 -0.61806342299E+02  0.17592320967E+04  0.25500000920E-02 0.  1.
</event>
<event>
 5   0  0.8247570E-09  0.3600208E+04  0.7818609E-02  0.8090444E-01
       -1   -1    0    0    0  501  0.00000000000E+00  0.00000000000E+00  0.19475760611E+04  0.19475760611E+04  0.50400001928E-02 0. -1.
        1   -1    0    0  501    0  0.00000000000E+00  0.00000000000E+00 -0.16637989730E+04  0.16637989730E+04  0.50400001928E-02 0.  1.
    10030    2    1    2    0    0  0.00000000000E+00  0.00000000000E+00  0.28377708815E+03  0.36113750341E+04  0.36002083552E+04 0.  0.
        3    1    3    3  502    0  0.76564742950E+03  0.12369999853E+04  0.12053608798E+04  0.18892537709E+04  0.10100000352E+00 0. -1.
       -3    1    3    3    0  502 -0.76564742950E+03 -0.12369999853E+04 -0.92158379164E+03  0.17221212632E+04  0.10100000352E+00 0.  1.
</event>
<event>
 5   0  0.2482243E-08  0.3598197E+04  0.7818609E-02  0.8090905E-01
        2   -1    0    0  501    0  0.00000000000E+00  0.00000000000E+00  0.95899689785E+03  0.95899689785E+03  0.25500000920E-02 0. -1.
       -2   -1    0    0    0  501  0.00000000000E+00  0.00000000000E+00 -0.33751469243E+04  0.33751469243E+04  0.25500000920E-02 0.  1.
    10030    2    1    2    0    0  0.00000000000E+00  0.00000000000E+00 -0.24161500265E+04  0.43341438222E+04  0.35981970097E+04 0.  0.
        5    1    3    3  502    0 -0.33853918056E+03  0.10075841940E+04  0.54032259344E+03  0.11923947668E+04  0.46999998093E+01 0. -1.
       -5    1    3    3    0  502  0.33853918056E+03 -0.10075841940E+04 -0.29564726199E+04  0.31417490554E+04  0.46999998093E+01 0.  1.
</event>
<event>
 5   0  0.2476968E-08  0.3602751E+04  0.7818609E-02  0.8089862E-01
        2   -1    0    0  501    0  0.00000000000E+00  0.00000000000E+00  0.28641444031E+04  0.28641444031E+04  0.25500000920E-02 0. -1.
       -2   -1    0    0    0  501  0.00000000000E+00  0.00000000000E+00 -0.11329577260E+04  0.11329577260E+04  0.25500000920E-02 0.  1.
    10030    2    1    2    0    0  0.00000000000E+00  0.00000000000E+00  0.17311866771E+04  0.39971021291E+04  0.36027514651E+04 0.  0.
        2    1    3    3  502    0  0.14863491955E+04  0.11880356132E+03  0.19869731302E+04  0.24842323638E+04  0.25500000920E-02 0. -1.
       -2    1    3    3    0  502 -0.14863491955E+04 -0.11880356132E+03 -0.25578645308E+03  0.15128697653E+04  0.25500000920E-02 0.  1.
</event>
<event>
 5   0  0.8024500E-09  0.3598759E+04  0.7818609E-02  0.8090776E-01
        1   -1    0    0  501    0  0.00000000000E+00  0.00000000000E+00  0.16150665624E+04  0.16150665624E+04  0.50400001928E-02 0.  1.
       -1   -1    0    0    0  501  0.00000000000E+00  0.00000000000E+00 -0.20047260673E+04  0.20047260673E+04  0.50400001928E-02 0. -1.
    10030    2    1    2    0    0  0.00000000000E+00  0.00000000000E+00 -0.38965950494E+03  0.36197926297E+04  0.35987586961E+04 0.  0.
        1    1    3    3  502    0  0.11628595627E+03 -0.13182611296E+04 -0.14211485112E+04  0.19419057445E+04  0.50400001928E-02 0. -1.
       -1    1    3    3    0  502 -0.11628595627E+03  0.13182611296E+04  0.10314890063E+04  0.16778868852E+04  0.50400001928E-02 0.  1.
</event>
<event>
 5   0  0.2482243E-08  0.3601100E+04  0.7818609E-02  0.8090240E-01
       -2   -1    0    0    0  501  0.00000000000E+00  0.00000000000E+00  0.14843012561E+04  0.14843012561E+04  0.25500000920E-02 0. -1.
        2   -1    0    0  501    0  0.00000000000E+00  0.00000000000E+00 -0.21841794753E+04  0.21841794753E+04  0.25500000920E-02 0.  1.
    10030    2    1    2    0    0  0.00000000000E+00  0.00000000000E+00 -0.69987821913E+03  0.36684807314E+04  0.36011000201E+04 0.  0.
        5    1    3    3  502    0  0.10663776173E+04  0.75036589678E+03  0.91496546079E+03  0.15929199873E+04  0.46999998093E+01 0. -1.
       -5    1    3    3    0  502 -0.10663776173E+04 -0.75036589678E+03 -0.16148436799E+04  0.20755607440E+04  0.46999998093E+01 0.  1.
</event>
<event>
 5   0  0.2482243E-08  0.3599643E+04  0.7818609E-02  0.8090573E-01
        2   -1    0    0  501    0  0.00000000000E+00  0.00000000000E+00  0.23019484473E+04  0.23019484473E+04  0.25500000920E-02 0.  1.
       -2   -1    0    0    0  501  0.00000000000E+00  0.00000000000E+00 -0.14072244342E+04  0.14072244342E+04  0.25500000920E-02 0. -1.
    10030    2    1    2    0    0  0.00000000000E+00  0.00000000000E+00  0.89472401309E+03  0.37091728816E+04  0.35996433720E+04 0.  0.
        5    1    3    3  502    0  0.41988472871E+03  0.64768317642E+03 -0.12280070423E+04  0.14504551245E+04  0.46999998093E+01 0. -1.
       -5    1    3    3    0  502 -0.41988472871E+03 -0.64768317642E+03  0.21227310554E+04  0.22587177570E+04  0.46999998093E+01 0.  1.
</event>
<event>
 5   0  0.2608070E-08  0.3600070E+04  0.7818609E-02  0.8090476E-01
        2   -1    0    0  501    0  0.00000000000E+00  0.00000000000E+00  0.29082720506E+04  0.29082720506E+04  0.25500000920E-02 0.  1.
       -2   -1    0    0    0  501  0.00000000000E+00  0.00000000000E+00 -0.11141066995E+04  0.11141066995E+04  0.25500000920E-02 0. -1.
    10030    2    1    2    0    0  0.00000000000E+00  0.00000000000E+00  0.17941653512E+04  0.40223787501E+04  0.36000696524E+04 0.  0.
        3    1    3    3  502    0  0.26431109414E+03 -0.87826711739E+03 -0.83344761734E+03  0.12392935185E+04  0.10100000352E+00 0. -1.
       -3    1    3    3    0  502 -0.26431109414E+03  0.87826711739E+03  0.26276129685E+04  0.27830852316E+04  0.10100000352E+00 0.  1.
</event>
<event>
 5   0  0.8063410E-09  0.3598877E+04  0.7818609E-02  0.8090749E-01
        1   -1    0    0  501    0  0.00000000000E+00  0.00000000000E+00  0.13017915141E+04  0.13017915141E+04  0.50400001928E-02 0.  1.
       -1   -1    0    0    0  501  0.00000000000E+00  0.00000000000E+00 -0.24873253183E+04  0.24873253183E+04  0.50400001928E-02 0. -1.
    10030    2    1    2    0    0  0.00000000000E+00  0.00000000000E+00 -0.11855338042E+04  0.37891168323E+04  0.35988770427E+04 0.  0.
        2    1    3    3  502    0  0.54704143748E+03  0.68153402053E+03  0.10633521423E+04  0.13763941056E+04  0.25500000920E-02 0.  1.
       -2    1    3    3    0  502 -0.54704143748E+03 -0.68153402053E+03 -0.22488859465E+04  0.24127227267E+04  0.25500000920E-02 0. -1.
</event>
<event>
 5   0  0.8024500E-09  0.3596472E+04  0.7818609E-02  0.8091300E-01
        1   -1    0    0  501    0  0.00000000000E+00  0.00000000000E+00  0.12362690216E+04  0.12362690216E+04  0.50400001928E-02 0. -1.
       -1   -1    0    0    0  501  0.00000000000E+00  0.00000000000E+00 -0.26156540314E+04  0.26156540314E+04  0.50400001928E-02 0.  1.
    10030    2    1    2    0    0  0.00000000000E+00  0.00000000000E+00 -0.13793850098E+04  0.38519230530E+04  0.35964716322E+04 0.  0.
        5    1    3    3  502    0  0.10583657560E+04 -0.12778682181E+04  0.52758606241E+02  0.16600875931E+04  0.46999998093E+01 0.  1.
       -5    1    3    3    0  502 -0.10583657560E+04  0.12778682181E+04 -0.14321436160E+04  0.21918354599E+04  0.46999998093E+01 0. -1.
</event>
<event>
 5   0  0.2476968E-08  0.3600355E+04  0.7818609E-02  0.8090410E-01
       -2   -1    0    0    0  501  0.00000000000E+00  0.00000000000E+00  0.14468652837E+04  0.14468652837E+04  0.25500000920E-02 0. -1.
        2   -1    0    0  501    0  0.00000000000E+00  0.00000000000E+00 -0.22397659718E+04  0.22397659718E+04  0.25500000920E-02 0.  1.
    10030    2    1    2    0    0  0.00000000000E+00  0.00000000000E+00 -0.79290068810E+03  0.36866312555E+04  0.36003553314E+04 0.  0.
        2    1    3    3  502    0  0.39911806548E+03  0.66028579101E+03 -0.20618838876E+04  0.22015080563E+04  0.25500000920E-02 0.  1.
       -2    1    3    3    0  502 -0.39911806548E+03 -0.66028579101E+03  0.12689831995E+04  0.14851231992E+04  0.25500000920E-02 0. -1.
</event>
<event>
 5   0  0.2494592E-08  0.3599334E+04  0.7818609E-02  0.8090644E-01
        2   -1    0    0  501    0  0.00000000000E+00  0.00000000000E+00  0.25340915327E+04  0.25340915327E+04  0.25500000920E-02 0.  1.
       -2   -1    0    0    0  501  0.00000000000E+00  0.00000000000E+00 -0.12780919445E+04  0.12780919445E+04  0.25500000920E-02 0. -1.
    10030    2    1    2    0    0  0.00000000000E+00  0.00000000000E+00  0.12559995882E+04  0.38121834772E+04  0.35993343688E+04 0.  0.
        1    1    3    3  502    0  0.14643247468E+04  0.14175957860E+03 -0.46985922068E+03  0.15443802736E+04  0.50400001928E-02 0. -1.
       -1    1    3    3    0  502 -0.14643247468E+04 -0.14175957860E+03  0.17258588089E+04  0.22678032036E+04  0.50400001928E-02 0.  1.
</event>
<event>
 5   0  0.8146881E-09  0.3598996E+04  0.7818609E-02  0.8090722E-01
       -1   -1    0    0    0  501  0.00000000000E+00  0.00000000000E+00  0.15467922015E+04  0.15467922015E+04  0.50400001928E-02 0.  1.
        1   -1    0    0  501    0  0.00000000000E+00  0.00000000000E+00 -0.20934894217E+04  0.20934894217E+04  0.50400001928E-02 0. -1.
    10030    2    1    2    0    0  0.00000000000E+00  0.00000000000E+00 -0.54669722022E+03  0.36402816233E+04  0.35989960331E+04 0.  0.
        4    1    3    3  502    0  0.15404359856E+04 -0.39798431108E+03  0.57704381877E+03  0.16924289407E+04  0.12699999809E+01 0.  1.
       -4    1    3    3    0  502 -0.15404359856E+04  0.39798431108E+03 -0.11237410390E+04  0.19478526826E+04  0.12699999809E+01 0. -1.
</event>
<event>
 5   0  0.8247570E-09  0.3602335E+04  0.7818609E-02  0.8089957E-01
       -1   -1    0    0    0  501  0.00000000000E+00  0.00000000000E+00  0.18193646759E+04  0.18193646759E+04  0.50400001928E-02 0.  1.
        1   -1    0    0  501    0  0.00000000000E+00  0.00000000000E+00 -0.17831528205E+04  0.17831528205E+04  0.50400001928E-02 0. -1.
    10030    2    1    2    0    0  0.00000000000E+00  0.00000000000E+00  0.36211855423E+02  0.36025174964E+04  0.36023354943E+04 0.  0.
        3    1    3    3  502    0  0.15221977278E+04  0.43281826950E+03  0.87825848462E+03  0.18099048464E+04  0.10100000352E+00 0.  1.
       -3    1    3    3    0  502 -0.15221977278E+04 -0.43281826950E+03 -0.84204662919E+03  0.17926126500E+04  0.10100000352E+00 0. -1.
</event>
<event>
 5   0  0.2476968E-08  0.3601493E+04  0.7818609E-02  0.8090150E-01
       -2   -1    0    0    0  501  0.00000000000E+00  0.00000000000E+00  0.11577408410E+04  0.11577408410E+04  0.25500000920E-02 0. -1.
        2   -1    0    0  501    0  0.00000000000E+00  0.00000000000E+00 -0.28008751011E+04  0.28008751011E+04  0.25500000920E-02 0.  1.
    10030    2    1    2    0    0  0.00000000000E+00  0.00000000000E+00 -0.16431342601E+04  0.39586159421E+04  0.36014927434E+04 0.  0.
        2    1    3    3  502    0 -0.14978370981E+03 -0.15296164867E+04 -0.18529783538E+04  0.24074240457E+04  0.25500000920E-02 0. -1.
       -2    1    3    3    0  502  0.14978370981E+03  0.15296164867E+04  0.20984409375E+03  0.15511918965E+04  0.25500000920E-02 0.  1.
</event>
<event>
 5   0  0.8247570E-09  0.3604373E+04  0.7818609E-02  0.8089491E-01
        1   -1    0    0  501    0  0.00000000000E+00  0.00000000000E+00  0.22794551237E+04  0.22794551237E+04  0.50400001928E-02 0.  1.
       -1   -1    0    0    0  501  0.00000000000E+00  0.00000000000E+00 -0.14248473704E+04  0.14248473705E+04  0.50400001928E-02 0. -1.
    10030    2    1    2    0    0  0.00000000000E+00  0.00000000000E+00  0.85460775330E+03  0.37043024942E+04  0.36043726994E+04 0.  0.
        3    1    3    3  502    0  0.12516727242E+04 -0.11956583379E+04 -0.88192128200E+02  0.17332228164E+04  0.10100000352E+00 0. -1.
       -3    1    3    3    0  502 -0.12516727242E+04  0.11956583379E+04  0.94279988150E+03  0.19710796778E+04  0.10100000352E+00 0.  1.
</event>
<event>
 5   0  0.8024500E-09  0.3599401E+04  0.7818609E-02  0.8090629E-01
        1   -1    0    0  501    0  0.00000000000E+00  0.00000000000E+00  0.19405724294E+04  0.19405724294E+04  0.50400001928E-02 0.  1.
       -1   -1    0    0    0  501  0.00000000000E+00  0.00000000000E+00 -0.16690548178E+04  0.16690548178E+04  0.50400001928E-02 0. -1.
    10030    2    1    2    0    0  0.00000000000E+00  0.00000000000E+00  0.27151761163E+03  0.36096272472E+04  0.35994009294E+04 0.  0.
        1    1    3    3  502    0  0.97194385650E+03  0.10773973034E+04  0.12034252788E+04  0.18851239246E+04  0.50400001928E-02 0.  1.
       -1    1    3    3    0  502 -0.97194385650E+03 -0.10773973034E+04 -0.93190766713E+03  0.17245033226E+04  0.50400001928E-02 0. -1.
</event>
<event>
 5   0  0.8063410E-09  0.3601981E+04  0.7818609E-02  0.8090038E-01
       -1   -1    0    0    0  501  0.00000000000E+00  0.00000000000E+00  0.15812418735E+04  0.15812418735E+04  0.50400001928E-02 0. -1.
        1   -1    0    0  501    0  0.00000000000E+00  0.00000000000E+00 -0.20512783610E+04  0.20512783610E+04  0.50400001928E-02 0.  1.
    10030    2    1    2    0    0  0.00000000000E+00  0.00000000000E+00 -0.47003648752E+03  0.36325202345E+04  0.36019812541E+04 0.  0.
        2    1    3    3  502    0  0.56408935994E+03  0.16395719050E+04 -0.72615280889E+03  0.18798113574E+04  0.25500000920E-02 0.  1.
       -2    1    3    3    0  502 -0.56408935994E+03 -0.16395719050E+04  0.25611632137E+03  0.17527088771E+04  0.25500000920E-02 0. -1.
</event>
<event>
 5   0  0.2590795E-08  0.3600266E+04  0.7818609E-02  0.8090431E-01
       -2   -1    0    0    0  501  0.00000000000E+00  0.00000000000E+00  0.15741168479E+04  0.15741168479E+04  0.25500000920E-02 0. -1.
        2   -1    0    0  501    0  0.00000000000E+00  0.00000000000E+00 -0.20586014305E+04  0.20586014305E+04  0.25500000920E-02 0.  1.
    10030    2    1    2    0    0  0.00000000000E+00  0.00000000000E+00 -0.48448458266E+03  0.36327182784E+04  0.36002662095E+04 0.  0.
        4    1    3    3  502    0  0.58106966177E+03 -0.34456610072E+03  0.14413630184E+04  0.15918218221E+04  0.12699999809E+01 0. -1.
       -4    1    3    3    0  502 -0.58106966177E+03  0.34456610072E+03 -0.19258476011E+04  0.20408964563E+04  0.12699999809E+01 0.  1.
</event>
<event>
 5   0  0.8024500E-09  0.3598952E+04  0.7818609E-02  0.8090732E-01
        4   -1    0    0  501    0  0.00000000000E+00  0.00000000000E+00  0.15266333889E+04  0.15266339171E+04  0.12699999809E+01 0.  1.
       -4   -1    0    0    0  501  0.00000000000E+00  0.00000000000E+00 -0.21210805293E+04  0.21210809095E+04  0.12699999809E+01 0. -1.
    10030    2    1    2    0    0  0.00000000000E+00  0.00000000000E+00 -0.59444714043E+03  0.36477148266E+04  0.35989520771E+04 0.  0.
        4    1    3    3  502    0  0.13039229490E+04 -0.72604497414E+03  0.72176188992E+03  0.16577992038E+04  0.12699999809E+01 0.  1.
       -4    1    3    3    0  502 -0.13039229490E+04  0.72604497414E+03 -0.13162090303E+04  0.19899156228E+04  0.12699999809E+01 0. -1.
</event>
<event>
 5   0  0.2590795E-08  0.3599269E+04  0.7818609E-02  0.8090659E-01
       -2   -1    0    0    0  501  0.00000000000E+00  0.00000000000E+00  0.15271584218E+04  0.15271584218E+04  0.25500000920E-02 0. -1.
        2   -1    0    0  501    0  0.00000000000E+00  0.00000000000E+00 -0.21207254778E+04  0.21207254778E+04  0.25500000920E-02 0.  1.
    10030    2    1    2    0    0  0.00000000000E+00  0.00000000000E+00 -0.59356705597E+03  0.36478838997E+04  0.35992686890E+04 0.  0.
        4    1    3    3  502    0  0.99032803028E+03  0.15008384093E+04 -0.37137531806E+03  0.18360791862E+04  0.12699999809E+01 0. -1.
       -4    1    3    3    0  502 -0.99032803028E+03 -0.15008384093E+04 -0.22219173791E+03  0.18118047134E+04  0.12699999809E+01 0.  1.
</event>
<event>
 5   0  0.2494592E-08  0.3601208E+04  0.7818609E-02  0.8090215E-01
       -2   -1    0    0    0  501  0.00000000000E+00  0.00000000000E+00  0.15513922898E+04  0.15513922898E+04  0.25500000920E-02 0. -1.
        2   -1    0    0  501    0  0.00000000000E+00  0.00000000000E+00 -0.20898486436E+04  0.20898486437E+04  0.25500000920E-02 0.  1.
    10030    2    1    2    0    0  0.00000000000E+00  0.00000000000E+00 -0.53845635387E+03  0.36412409334E+04  0.36012081709E+04 0.  0.
        1    1    3    3  502    0 -0.80496921100E+03  0.14771372784E+04  0.37998821466E+03  0.17246161930E+04  0.50400001928E-02 0.  1.
       -1    1    3    3    0  502  0.80496921100E+03 -0.14771372784E+04 -0.91844456853E+03  0.19166247404E+04  0.50400001928E-02 0. -1.
</event>
<event>
 5   0  0.2482243E-08  0.3599435E+04  0.7818609E-02  0.8090621E-01
       -2   -1    0    0    0  501  0.00000000000E+00  0.00000000000E+00  0.13156599034E+04  0.13156599034E+04  0.25500000920E-02 0. -1.
        2   -1    0    0  501    0  0.00000000000E+00  0.00000000000E+00 -0.24618695159E+04  0.24618695159E+04  0.25500000920E-02 0.  1.
    10030    2    1    2    0    0  0.00000000000E+00  0.00000000000E+00 -0.11462096126E+04  0.37775294193E+04  0.35994349609E+04 0.  0.
        5    1    3    3  502    0 -0.77488078067E+03  0.16566543421E+03  0.11227288601E+04  0.13742006563E+04  0.46999998093E+01 0. -1.
       -5    1    3    3    0  502  0.77488078067E+03 -0.16566543421E+03 -0.22689384727E+04  0.24033287630E+04  0.46999998093E+01 0.  1.
</event>
<event>
 5   0  0.2608070E-08  0.3599423E+04  0.7818609E-02  0.8090624E-01
        2   -1    0    0  501    0  0.00000000000E+00  0.00000000000E+00  0.28744560691E+04  0.28744560691E+04  0.25500000920E-02 0. -1.
       -2   -1    0    0    0  501  0.00000000000E+00  0.00000000000E+00 -0.11268084883E+04  0.11268084883E+04  0.25500000920E-02 0.  1.
    10030    2    1    2    0    0  0.00000000000E+00  0.00000000000E+00  0.17476475807E+04  0.40012645574E+04  0.35994230082E+04 0.  0.
        3    1    3    3  502    0 -0.16595024347E+03 -0.33582331378E+03  0.28306410487E+04  0.28553188155E+04  0.10100000352E+00 0. -1.
       -3    1    3    3    0  502  0.16595024347E+03  0.33582331378E+03 -0.10829934680E+04  0.11459457419E+04  0.10100000352E+00 0.  1.
</event>
<event>
 5   0  0.2590795E-08  0.3599080E+04  0.7818609E-02  0.8090703E-01
       -2   -1    0    0    0  501  0.00000000000E+00  0.00000000000E+00  0.13455305521E+04  0.13455305521E+04  0.25500000920E-02 0.  1.
        2   -1    0    0  501    0  0.00000000000E+00  0.00000000000E+00 -0.24067408821E+04  0.24067408821E+04  0.25500000920E-02 0. -1.
    10030    2    1    2    0    0  0.00000000000E+00  0.00000000000E+00 -0.10612103300E+04  0.37522714341E+04  0.35990795422E+04 0.  0.
        4    1    3    3  502    0 -0.60298568012E+03 -0.96729800990E+03 -0.19823864088E+04  0.22867257503E+04  0.12699999809E+01 0. -1.
       -4    1    3    3    0  502  0.60298568012E+03  0.96729800990E+03  0.92117607881E+03  0.14655456839E+04  0.12699999809E+01 0.  1.
</event>
<event>
 5   0  0.8247570E-09  0.3600506E+04  0.7818609E-02  0.8090376E-01
       -1   -1    0    0    0  501  0.00000000000E+00  0.00000000000E+00  0.29788485291E+04  0.29788485291E+04  0.50400001928E-02 0.  1.
        1   -1    0    0  501    0  0.00000000000E+00  0.00000000000E+00 -0.10879743769E+04  0.10879743769E+04  0.50400001928E-02 0. -1.
    10030    2    1    2    0    0  0.00000000000E+00  0.00000000000E+00  0.18908741522E+04  0.40668229060E+04  0.36005060047E+04 0.  0.
        3    1    3    3  502    0  0.98736288533E+03  0.76422670383E+03 -0.51944449277E+03  0.13523130235E+04  0.10100000352E+00 0. -1.
       -3    1    3    3    0  502 -0.98736288533E+03 -0.76422670383E+03  0.24103186449E+04  0.27145098826E+04  0.10100000352E+00 0.  1.
</event>
<event>
 5   0  0.8063410E-09  0.3600406E+04  0.7818609E-02  0.8090399E-01
       -1   -1    0    0    0  501  0.00000000000E+00  0.00000000000E+00  0.13401307810E+04  0.13401307810E+04  0.50400001928E-02 0.  1.
        1   -1    0    0  501    0  0.00000000000E+00  0.00000000000E+00 -0.24182193925E+04  0.24182193925E+04  0.50400001928E-02 0. -1.
    10030    2    1    2    0    0  0.00000000000E+00  0.00000000000E+00 -0.10780886115E+04  0.37583501735E+04  0.36004056677E+04 0.  0.
        2    1    3    3  502    0 -0.11899617270E+04  0.77971631708E+03 -0.16905045413E+04  0.22094732520E+04  0.25500000920E-02 0. -1.
       -2    1    3    3    0  502  0.11899617270E+04 -0.77971631708E+03  0.61241592981E+03  0.15488769215E+04  0.25500000920E-02 0.  1.
</event>
<event>
 5   0  0.8024500E-09  0.3600754E+04  0.7818609E-02  0.8090319E-01
        1   -1    0    0  501    0  0.00000000000E+00  0.00000000000E+00  0.14075520602E+04  0.14075520602E+04  0.50400001928E-02 0. -1.
       -1   -1    0    0    0  501  0.00000000000E+00  0.00000000000E+00 -0.23028336290E+04  0.23028336290E+04  0.50400001928E-02 0.  1.
    10030    2    1    2    0    0  0.00000000000E+00  0.00000000000E+00 -0.89528156881E+03  0.37103856893E+04  0.36007544870E+04 0.  0.
        5    1    3    3  502    0  0.11514041651E+04 -0.13681717809E+04 -0.23220457087E+03  0.18032100894E+04  0.46999998093E+01 0.  1.
       -5    1    3    3    0  502 -0.11514041651E+04  0.13681717809E+04 -0.66307699794E+03  0.19071755999E+04  0.46999998093E+01 0. -1.
</event>
<event>
 5   0  0.2590795E-08  0.3600522E+04  0.7818609E-02  0.8090372E-01
        2   -1    0    0  501    0  0.00000000000E+00  0.00000000000E+00  0.12625638057E+04  0.12625638057E+04  0.25500000920E-02 0.  1.
       -2   -1    0    0    0  501  0.00000000000E+00  0.00000000000E+00 -0.25669511990E+04  0.25669511990E+04  0.25500000920E-02 0. -1.
    10030    2    1    2    0    0  0.00000000000E+00  0.00000000000E+00 -0.13043873933E+04  0.38295150048E+04  0.36005220038E+04 0.  0.
        4    1    3    3  502    0  0.18016656152E+03  0.10014231865E+03 -0.25543581484E+04  0.25626618265E+04  0.12699999809E+01 0. -1.
       -4    1    3    3    0  502 -0.18016656152E+03 -0.10014231865E+03  0.12499707551E+04  0.12668531783E+04  0.12699999809E+01 0.  1.
</event>
<event>
 5   0  0.8024500E-09  0.3600813E+04  0.7818609E-02  0.8090305E-01
       -1   -1    0    0    0  501  0.00000000000E+00  0.00000000000E+00  0.22622892633E+04  0.22622892633E+04  0.50400001928E-02 0.  1.
        1   -1    0    0  501    0  0.00000000000E+00  0.00000000000E+00 -0.14328249039E+04  0.14328249039E+04  0.50400001928E-02 0. -1.
    10030    2    1    2    0    0  0.00000000000E+00  0.00000000000E+00  0.82946435945E+03  0.36951141672E+04  0.36008134616E+04 0.  0.
        1    1    3    3  502    0  0.17070354204E+03  0.63316104162E+02  0.22528180247E+04  0.22601631978E+04  0.50400001928E-02 0.  1.
       -1    1    3    3    0  502 -0.17070354204E+03 -0.63316104162E+02 -0.14233536652E+04  0.14349509694E+04  0.50400001928E-02 0. -1.
</event>
<event>
 5   0  0.8024500E-09  0.3598171E+04  0.7818609E-02  0.8090911E-01
        1   -1    0    0  501    0  0.00000000000E+00  0.00000000000E+00  0.15525224524E+04  0.15525224524E+04  0.50400001928E-02 0. -1.
       -1   -1    0    0    0  501  0.00000000000E+00  0.00000000000E+00 -0.20848066228E+04  0.20848066228E+04  0.50400001928E-02 0.  1.
    10030    2    1    2    0    0  0.00000000000E+00  0.00000000000E+00 -0.53228417046E+03  0.36373290752E+04  0.35981712526E+04 0.  0.
        5    1    3    3  502    0  0.33605519298E+03 -0.15980500711E+04  0.49705084136E+03  0.17069794232E+04  0.46999998093E+01 0. -1.
       -5    1    3    3    0  502 -0.33605519298E+03  0.15980500711E+04 -0.10293350118E+04  0.19303496520E+04  0.46999998093E+01 0.  1.
</event>
<event>
 5   0  0.8024500E-09  0.3599881E+04  0.7818609E-02  0.8090519E-01
       -1   -1    0    0    0  501  0.00000000000E+00  0.00000000000E+00  0.27818280138E+04  0.27818280138E+04  0.50400001928E-02 0. -1.
        1   -1    0    0  501    0  0.00000000000E+00  0.00000000000E+00 -0.11646248499E+04  0.11646248499E+04  0.50400001928E-02 0.  1.
    10030    2    1    2    0    0  0.00000000000E+00  0.00000000000E+00  0.16172031639E+04  0.39464528638E+04  0.35998811276E+04 0.  0.
        1    1    3    3  502    0 -0.45059528316E+03 -0.11723150669E+04 -0.60487979857E+03  0.13940008236E+04  0.50400001928E-02 0.  1.
       -1    1    3    3    0  502  0.45059528316E+03  0.11723150669E+04  0.22220829625E+04  0.25524520402E+04  0.50400001928E-02 0. -1.
</event>
<event>
 5   0  0.8063410E-09  0.3600116E+04  0.7818609E-02  0.8090465E-01
        1   -1    0    0  501    0  0.00000000000E+00  0.00000000000E+00  0.16423538344E+04  0.16423538344E+04  0.50400001928E-02 0.  1.
       -1   -1    0    0    0  501  0.00000000000E+00  0.00000000000E+00 -0.19729053190E+04  0.19729053190E+04  0.50400001928E-02 0. -1.
    10030    2    1    2    0    0  0.00000000000E+00  0.00000000000E+00 -0.33055148458E+03  0.36152591533E+04  0.36001158956E+04 0.  0.
        2    1    3    3  502    0  0.65937622564E+03 -0.15392591529E+04 -0.82844197327E+03  0.18682643951E+04  0.25500000920E-02 0. -1.
       -2    1    3    3    0  502 -0.65937622564E+03  0.15392591529E+04  0.49789048869E+03  0.17469947583E+04  0.25500000920E-02 0.  1.
</event>
<event>
 5   0  0.2482243E-08  0.3600299E+04  0.7818609E-02  0.8090423E-01
       -2   -1    0    0    0  501  0.00000000000E+00  0.00000000000E+00  0.17214821769E+04  0.17214821769E+04  0.25500000920E-02 0.  1.
        2   -1    0    0  501    0  0.00000000000E+00  0.00000000000E+00 -0.18824112808E+04  0.18824112808E+04  0.25500000920E-02 0. -1.
    10030    2    1    2    0    0  0.00000000000E+00  0.00000000000E+00 -0.16092910382E+03  0.36038934577E+04  0.36002985818E+04 0.  0.
        5    1    3    3  502    0 -0.10370033806E+04  0.10716832375E+03  0.13885341842E+04  0.17363497147E+04  0.46999998093E+01 0.  1.
       -5    1    3    3    0  502  0.10370033806E+04 -0.10716832375E+03 -0.15494632880E+04  0.18675437430E+04  0.46999998093E+01 0. -1.
</event>
<event>
 5   0  0.2590795E-08  0.3599984E+04  0.7818609E-02  0.8090495E-01
       -2   -1    0    0    0  501  0.00000000000E+00  0.00000000000E+00  0.12383207126E+04  0.12383207126E+04  0.25500000920E-02 0. -1.
        2   -1    0    0  501    0  0.00000000000E+00  0.00000000000E+00 -0.26164235993E+04  0.26164235993E+04  0.25500000920E-02 0.  1.
    10030    2    1    2    0    0  0.00000000000E+00  0.00000000000E+00 -0.13781028868E+04  0.38547443119E+04  0.35999841866E+04 0.  0.
        4    1    3    3  502    0 -0.13061587328E+04  0.12376094755E+04 -0.63835004380E+03  0.19092459874E+04  0.12699999809E+01 0. -1.
       -4    1    3    3    0  502  0.13061587328E+04 -0.12376094755E+04 -0.73975284296E+03  0.19454983245E+04  0.12699999809E+01 0.  1.
</event>
<event>
 5   0  0.8247570E-09  0.3599133E+04  0.7818609E-02  0.8090690E-01
        1   -1    0    0  501    0  0.00000000000E+00  0.00000000000E+00  0.11869223330E+04  0.11869223330E+04  0.50400001928E-02 0.  1.
       -1   -1    0    0    0  501  0.00000000000E+00  0.00000000000E+00 -0.27284345286E+04  0.27284345286E+04  0.50400001928E-02 0. -1.
    10030    2    1    2    0    0  0.00000000000E+00  0.00000000000E+00 -0.15415121955E+04  0.39153568616E+04  0.35991331602E+04 0.  0.
        3    1    3    3  502    0 -0.12927872706E+04 -0.31639160267E+02 -0.21321654009E+04  0.24936778603E+04  0.10100000352E+00 0. -1.
       -3    1    3    3    0  502  0.12927872706E+04  0.31639160267E+02  0.59065320540E+03  0.14216790013E+04  0.10100000352E+00 0.  1.
</event>
<event>
 5   0  0.8063410E-09  0.3600401E+04  0.7818609E-02  0.8090400E-01
        1   -1    0    0  501    0  0.00000000000E+00  0.00000000000E+00  0.18555297487E+04  0.18555297487E+04  0.50400001928E-02 0. -1.
       -1   -1    0    0    0  501  0.00000000000E+00  0.00000000000E+00 -0.17465213359E+04  0.17465213359E+04  0.50400001928E-02 0.  1.
    10030    2    1    2    0    0  0.00000000000E+00  0.00000000000E+00  0.10900841279E+03  0.36020510845E+04  0.36004012528E+04 0.  0.
        2    1    3    3  502    0  0.15742115891E+04 -0.65570182700E+03  0.63151391400E+03  0.18184875135E+04  0.25500000920E-02 0. -1.
       -2    1    3    3    0  502 -0.15742115891E+04  0.65570182700E+03 -0.52250550121E+03  0.17835635710E+04  0.25500000920E-02 0.  1.
</event>
<event>
 5   0  0.2590795E-08  0.3602168E+04  0.7818609E-02  0.8089995E-01
        2   -1    0    0  501    0  0.00000000000E+00  0.00000000000E+00  0.21076516699E+04  0.21076516699E+04  0.25500000920E-02 0. -1.
       -2   -1    0    0    0  501  0.00000000000E+00  0.00000000000E+00 -0.15391079325E+04  0.15391079325E+04  0.25500000920E-02 0.  1.
    10030    2    1    2    0    0  0.00000000000E+00  0.00000000000E+00  0.56854373735E+03  0.36467596024E+04  0.36021679051E+04 0.  0.
        4    1    3    3  502    0  0.88335269685E+03 -0.10064438789E+04 -0.93507166390E+03  0.16332794917E+04  0.12699999809E+01 0.  1.
       -4    1    3    3    0  502 -0.88335269685E+03  0.10064438789E+04  0.15036154013E+04  0.20134801107E+04  0.12699999809E+01 0. -1.
</event>
<event>
 5   0  0.8024500E-09  0.3595370E+04  0.7818609E-02  0.8091553E-01
       -1   -1    0    0    0  501  0.00000000000E+00  0.00000000000E+00  0.10127389452E+04  0.10127389453E+04  0.50400001928E-02 0. -1.
        1   -1    0    0  501    0  0.00000000000E+00  0.00000000000E+00 -0.31910206200E+04  0.31910206200E+04  0.50400001928E-02 0.  1.
    10030    2    1    2    0    0  0.00000000000E+00  0.00000000000E+00 -0.21782816747E+04  0.42037595652E+04  0.35953697206E+04 0.  0.
        1    1    3    3  502    0  0.17110294227E+03  0.12718929431E+04 -0.25609974686E+04  0.28645585890E+04  0.50400001928E-02 0.  1.
       -1    1    3    3    0  502 -0.17110294227E+03 -0.12718929431E+04  0.38271579392E+03  0.13392009762E+04  0.50400001928E-02 0. -1.
</event>
<event>
 5   0  0.2494592E-08  0.3599854E+04  0.7818609E-02  0.8090525E-01
        2   -1    0    0  501    0  0.00000000000E+00  0.00000000000E+00  0.27723422167E+04  0.27723422167E+04  0.25500000920E-02 0.  1.
       -2   -1    0    0    0  501  0.00000000000E+00  0.00000000000E+00 -0.11685918769E+04  0.11685918769E+04  0.25500000920E-02 0. -1.
    10030    2    1    2    0    0  0.00000000000E+00  0.00000000000E+00  0.16037503398E+04  0.39409340936E+04  0.35998536606E+04 0.  0.
        1    1    3    3  502    0  0.10333028211E+04 -0.20714052946E+03  0.23992758032E+04  0.26205240505E+04  0.50400001928E-02 0.  1.
       -1    1    3    3    0  502 -0.10333028211E+04  0.20714052946E+03 -0.79552546342E+03  0.13204100432E+04  0.50400001928E-02 0. -1.
</event>
<event>
 5   0  0.8024500E-09  0.3604009E+04  0.7818609E-02  0.8089574E-01
        1   -1    0    0  501    0  0.00000000000E+00  0.00000000000E+00  0.28317597935E+04  0.28317597935E+04  0.50400001928E-02 0.  1.
       -1   -1    0    0    0  501  0.00000000000E+00  0.00000000000E+00 -0.11467145223E+04  0.11467145223E+04  0.50400001928E-02 0. -1.
    10030    2    1    2    0    0  0.00000000000E+00  0.00000000000E+00  0.16850452712E+04  0.39784743159E+04  0.36040089229E+04 0.  0.
        1    1    3    3  502    0  0.41507822204E+02  0.62712805330E+03  0.27068461031E+04  0.27788537781E+04  0.50400001928E-02 0.  1.
       -1    1    3    3    0  502 -0.41507822204E+02 -0.62712805330E+03 -0.10218008319E+04  0.11996205377E+04  0.50400001928E-02 0. -1.
</event>
<event>
 5   0  0.8024500E-09  0.3600348E+04  0.7818609E-02  0.8090412E-01
        1   -1    0    0  501    0  0.00000000000E+00  0.00000000000E+00  0.26130173463E+04  0.26130173463E+04  0.50400001928E-02 0. -1.
       -1   -1    0    0    0  501  0.00000000000E+00  0.00000000000E+00 -0.12401856792E+04  0.12401856792E+04  0.50400001928E-02 0.  1.
    10030    2    1    2    0    0  0.00000000000E+00  0.00000000000E+00  0.13728316671E+04  0.38532030255E+04  0.36003481456E+04 0.  0.
        1    1    3    3  502    0 -0.11368660077E+04 -0.99465832282E+03  0.17343772692E+04  0.22999726108E+04  0.50400001928E-02 0.  1.
       -1    1    3    3    0  502  0.11368660077E+04  0.99465832282E+03 -0.36154560213E+03  0.15532304147E+04  0.50400001928E-02 0. -1.
</event>
<event>
 5   0  0.2608070E-08  0.3599741E+04  0.7818609E-02  0.8090551E-01
        2   -1    0    0  501    0  0.00000000000E+00  0.00000000000E+00  0.18776435870E+04  0.18776435870E+04  0.25500000920E-02 0.  1.
       -2   -1    0    0    0  501  0.00000000000E+00  0.00000000000E+00 -0.17253185541E+04  0.17253185541E+04  0.25500000920E-02 0. -1.
    10030    2    1    2    0    0  0.00000000000E+00  0.00000000000E+00  0.15232503298E+03  0.36029621411E+04  0.35997407232E+04 0.  0.
        3    1    3    3  502    0 -0.61443811879E+03 -0.16915698492E+04  0.10048553911E+03  0.18025093925E+04  0.10100000352E+00 0. -1.
       -3    1    3    3    0  502  0.61443811879E+03  0.16915698492E+04  0.51839493870E+02  0.18004527486E+04  0.10100000352E+00 0.  1.
</event>
<event>
 5   0  0.8024500E-09  0.3601375E+04  0.7818609E-02  0.8090177E-01
        3   -1    0    0  501    0  0.00000000000E+00  0.00000000000E+00  0.25841994421E+04  0.25841994441E+04  0.10100000352E+00 0.  1.
       -3   -1    0    0    0  501  0.00000000000E+00  0.00000000000E+00 -0.12547309033E+04  0.12547309074E+04  0.10100000352E+00 0. -1.
    10030    2    1    2    0    0  0.00000000000E+00  0.00000000000E+00  0.13294685388E+04  0.38389303515E+04  0.36013746886E+04 0.  0.
        4    1    3    3  502    0  0.16861069042E+04 -0.32075598041E+03  0.84168770505E+02  0.17184082420E+04  0.12699999809E+01 0. -1.
       -4    1    3    3    0  502 -0.16861069042E+04  0.32075598041E+03  0.12452997683E+04  0.21205221095E+04  0.12699999809E+01 0.  1.
</event>
<event>
 5   0  0.2608070E-08  0.3599344E+04  0.7818609E-02  0.8090642E-01
       -2   -1    0    0    0  501  0.00000000000E+00  0.00000000000E+00  0.18688291263E+04  0.18688291263E+04  0.25500000920E-02 0.  1.
        2   -1    0    0  501    0  0.00000000000E+00  0.00000000000E+00 -0.17330741093E+04  0.17330741093E+04  0.25500000920E-02 0. -1.
    10030    2    1    2    0    0  0.00000000000E+00  0.00000000000E+00  0.13575501697E+03  0.36019032356E+04  0.35993440366E+04 0.  0.
        3    1    3    3  502    0 -0.81413278432E+03 -0.15592551522E+04  0.44858268094E+03  0.18153003201E+04  0.10100000352E+00 0.  1.
       -3    1    3    3    0  502  0.81413278432E+03  0.15592551522E+04 -0.31282766397E+03  0.17866029155E+04  0.10100000352E+00 0. -1.
</event>
<event>
 5   0  0.2590795E-08  0.3601358E+04  0.7818609E-02  0.8090181E-01
       -2   -1    0    0    0  501  0.00000000000E+00  0.00000000000E+00  0.12900953987E+04  0.12900953987E+04  0.25500000920E-02 0. -1.
        2   -1    0    0  501    0  0.00000000000E+00  0.00000000000E+00 -0.25133372829E+04  0.25133372829E+04  0.25500000920E-02 0.  1.
    10030    2    1    2    0    0  0.00000000000E+00  0.00000000000E+00 -0.12232418842E+04  0.38034326815E+04  0.36013580016E+04 0.  0.
        4    1    3    3  502    0 -0.27944729292E+03 -0.86620293549E+02  0.12648263476E+04  0.12982223104E+04  0.12699999809E+01 0. -1.
       -4    1    3    3    0  502  0.27944729292E+03  0.86620293549E+02 -0.24880682318E+04  0.25052103711E+04  0.12699999809E+01 0.  1.
</event>
<event>
 5   0  0.2608070E-08  0.3598722E+04  0.7818609E-02  0.8090785E-01
        2   -1    0    0  501    0  0.00000000000E+00  0.00000000000E+00  0.16815814842E+04  0.16815814842E+04  0.25500000920E-02 0. -1.
       -2   -1    0    0    0  501  0.00000000000E+00  0.00000000000E+00 -0.19253897206E+04  0.19253897206E+04  0.25500000920E-02 0.  1.
    10030    2    1    2    0    0  0.00000000000E+00  0.00000000000E+00 -0.24380823647E+03  0.36069712048E+04  0.35987218309E+04 0.  0.
        3    1    3    3  502    0 -0.17919181659E+04 -0.34962024881E+02  0.38169956871E+02  0.17926656164E+04  0.10100000352E+00 0. -1.
       -3    1    3    3    0  502  0.17919181659E+04  0.34962024881E+02 -0.28197819334E+03  0.18143055884E+04  0.10100000352E+00 0.  1.
</event>
<event>
 5   0  0.2494592E-08  0.3599741E+04  0.7818609E-02  0.8090551E-01
        2   -1    0    0  501    0  0.00000000000E+00  0.00000000000E+00  0.15432169232E+04  0.15432169232E+04  0.25500000920E-02 0. -1.
       -2   -1    0    0    0  501  0.00000000000E+00  0.00000000000E+00 -0.20992088313E+04  0.20992088314E+04  0.25500000920E-02 0.  1.
    10030    2    1    2    0    0  0.00000000000E+00  0.00000000000E+00 -0.55599190815E+03  0.36424257546E+04  0.35997414318E+04 0.  0.
        1    1    3    3  502    0  0.17470096465E+04 -0.42340389194E+03 -0.18625091160E+03  0.18072086107E+04  0.50400001928E-02 0. -1.
       -1    1    3    3    0  502 -0.17470096465E+04  0.42340389194E+03 -0.36974099656E+03  0.18352171438E+04  0.50400001928E-02 0.  1.
</event>
<event>
 5   0  0.8063410E-09  0.3601016E+04  0.7818609E-02  0.8090259E-01
        1   -1    0    0  501    0  0.00000000000E+00  0.00000000000E+00  0.29020398891E+04  0.29020398891E+04  0.50400001928E-02 0. -1.
       -1   -1    0    0    0  501  0.00000000000E+00  0.00000000000E+00 -0.11170862150E+04  0.11170862150E+04  0.50400001928E-02 0.  1.
    10030    2    1    2    0    0  0.00000000000E+00  0.00000000000E+00  0.17849536741E+04  0.40191261041E+04  0.36010158320E+04 0.  0.
        2    1    3    3  502    0  0.59101618545E+02 -0.17947274013E+04  0.10392326876E+04  0.20747395078E+04  0.25500000920E-02 0.  1.
       -2    1    3    3    0  502 -0.59101618545E+02  0.17947274013E+04  0.74572098645E+03  0.19443865963E+04  0.25500000920E-02 0. -1.
</event>
<event>
 5   0  0.8146881E-09  0.3599878E+04  0.7818609E-02  0.8090520E-01
        1   -1    0    0  501    0  0.00000000000E+00  0.00000000000E+00  0.17397126544E+04  0.17397126544E+04  0.50400001928E-02 0. -1.
       -1   -1    0    0    0  501  0.00000000000E+00  0.00000000000E+00 -0.18622504396E+04  0.18622504397E+04  0.50400001928E-02 0.  1.
    10030    2    1    2    0    0  0.00000000000E+00  0.00000000000E+00 -0.12253778527E+03  0.36019630940E+04  0.35998781399E+04 0.  0.
        4    1    3    3  502    0 -0.72714694952E+02 -0.91040457801E+03  0.14906468624E+04  0.17481858035E+04  0.12699999809E+01 0. -1.
       -4    1    3    3    0  502  0.72714694952E+02  0.91040457801E+03 -0.16131846476E+04  0.18537772905E+04  0.12699999809E+01 0.  1.
</event>
<event>
 5   0  0.2482243E-08  0.3600755E+04  0.7818609E-02  0.8090319E-01
       -2   -1    0    0    0  501  0.00000000000E+00  0.00000000000E+00  0.10804258304E+04  0.10804258304E+04  0.25500000920E-02 0.  1.
        2   -1    0    0  501    0  0.00000000000E+00  0.00000000000E+00 -0.30000749058E+04  0.30000749058E+04  0.25500000920E-02 0. -1.
    10030    2    1    2    0    0  0.00000000000E+00  0.00000000000E+00 -0.19196490753E+04  0.40805007362E+04  0.36007545995E+04 0.  0.
        5    1    3    3  502    0  0.17917302889E+04 -0.13706048851E+03 -0.83438139547E+03  0.19812363334E+04  0.46999998093E+01 0.  1.
       -5    1    3    3    0  502 -0.17917302889E+04  0.13706048851E+03 -0.10852676799E+04  0.20992644028E+04  0.46999998093E+01 0. -1.
</event>
<event>
 5   0  0.8024500E-09  0.3602635E+04  0.7818609E-02  0.8089888E-01
       -1   -1    0    0    0  501  0.00000000000E+00  0.00000000000E+00  0.18418186212E+04  0.18418186213E+04  0.50400001928E-02 0.  1.
        1   -1    0    0  501    0  0.00000000000E+00  0.00000000000E+00 -0.17617068687E+04  0.17617068687E+04  0.50400001928E-02 0. -1.
    10030    2    1    2    0    0  0.00000000000E+00  0.00000000000E+00  0.80111752595E+02  0.36035254899E+04  0.36026348779E+04 0.  0.
        1    1    3    3  502    0 -0.76727630860E+03  0.12658333318E+04  0.10668073527E+04  0.18245889635E+04  0.50400001928E-02 0.  1.
       -1    1    3    3    0  502  0.76727630860E+03 -0.12658333318E+04 -0.98669560015E+03  0.17789365264E+04  0.50400001928E-02 0. -1.
</event>
<event>
 5   0  0.8146881E-09  0.3581679E+04  0.7818609E-02  0.8094701E-01
       -1   -1    0    0    0  501  0.00000000000E+00  0.00000000000E+00  0.21263074557E+04  0.21263074557E+04  0.50400001928E-02 0.  1.
        1   -1    0    0  501    0  0.00000000000E+00  0.00000000000E+00 -0.15082981619E+04  0.15082981619E+04  0.50400001928E-02 0. -1.
    10030    2    1    2    0    0  0.00000000000E+00  0.00000000000E+00  0.61800929382E+03  0.36346056176E+04  0.35816787277E+04 0.  0.
        4    1    3    3  502    0 -0.46896372015E+03 -0.11314718004E+03 -0.14411180996E+04  0.15197211077E+04  0.12699999809E+01 0. -1.
       -4    1    3    3    0  502  0.46896372015E+03  0.11314718004E+03  0.20591273934E+04  0.21148845100E+04  0.12699999809E+01 0.  1.
</event>
<event>
 5   0  0.8024500E-09  0.3600050E+04  0.7818609E-02  0.8090480E-01
        1   -1    0    0  501    0  0.00000000000E+00  0.00000000000E+00  0.24592195559E+04  0.24592195559E+04  0.50400001928E-02 0.  1.
       -1   -1    0    0    0  501  0.00000000000E+00  0.00000000000E+00 -0.13175280580E+04  0.13175280580E+04  0.50400001928E-02 0. -1.
    10030    2    1    2    0    0  0.00000000000E+00  0.00000000000E+00  0.11416914978E+04  0.37767476139E+04  0.36000504251E+04 0.  0.
        5    1    3    3  502    0 -0.17581203386E+04 -0.28622815614E+03  0.84270776631E+03  0.19705563051E+04  0.46999998093E+01 0.  1.
       -5    1    3    3    0  502  0.17581203386E+04  0.28622815614E+03  0.29898373151E+03  0.18061913088E+04  0.46999998093E+01 0. -1.
</event>
<event>
 5   0  0.2590795E-08  0.3598282E+04  0.7818609E-02  0.8090885E-01
        2   -1    0    0  501    0  0.00000000000E+00  0.00000000000E+00  0.23552573814E+04  0.23552573814E+04  0.25500000920E-02 0.  1.
       -2   -1    0    0    0  501  0.00000000000E+00  0.00000000000E+00 -0.13743333819E+04  0.13743333819E+04  0.25500000920E-02 0. -1.
    10030    2    1    2    0    0  0.00000000000E+00  0.00000000000E+00  0.98092399945E+03  0.37295907633E+04  0.35982822803E+04 0.  0.
        4    1    3    3  502    0 -0.88801028398E+03 -0.44348974651E+03 -0.10648500309E+04  0.14557309576E+04  0.12699999809E+01 0. -1.
       -4    1    3    3    0  502  0.88801028398E+03  0.44348974651E+03  0.20457740303E+04  0.22738598057E+04  0.12699999809E+01 0.  1.
</event>
<event>
 5   0  0.8024500E-09  0.3596809E+04  0.7818609E-02  0.8091223E-01
        1   -1    0    0  501    0  0.00000000000E+00  0.00000000000E+00  0.22350336848E+04  0.22350336849E+04  0.50400001928E-02 0. -1.
       -1   -1    0    0    0  501  0.00000000000E+00  0.00000000000E+00 -0.14470734473E+04  0.14470734473E+04  0.50400001928E-02 0.  1.
    10030    2    1    2    0    0  0.00000000000E+00  0.00000000000E+00  0.78796023756E+03  0.36821071321E+04  0.35968085293E+04 0.  0.
        1    1    3    3  502    0 -0.27678202860E+03 -0.15623628454E+04 -0.47266102528E+03  0.16555948770E+04  0.50400001928E-02 0.  1.
       -1    1    3    3    0  502  0.27678202860E+03  0.15623628454E+04  0.12606212628E+04  0.20265122551E+04  0.50400001928E-02 0. -1.
</event>
<event>
 5   0  0.2476968E-08  0.3600369E+04  0.7818609E-02  0.8090407E-01
       -2   -1    0    0    0  501  0.00000000000E+00  0.00000000000E+00  0.13393547595E+04  0.13393547595E+04  0.25500000920E-02 0. -1.
        2   -1    0    0  501    0  0.00000000000E+00  0.00000000000E+00 -0.24195712719E+04  0.24195712719E+04  0.25500000920E-02 0.  1.
    10030    2    1    2    0    0  0.00000000000E+00  0.00000000000E+00 -0.10802165124E+04  0.37589260314E+04  0.36003690361E+04 0.  0.
        2    1    3    3  502    0 -0.17534583079E+04 -0.12608743231E+03 -0.13555122903E+03  0.17632039626E+04  0.25500000920E-02 0. -1.
       -2    1    3    3    0  502  0.17534583079E+04  0.12608743231E+03 -0.94466528340E+03  0.19957220688E+04  0.25500000920E-02 0.  1.
</event>
<event>
 5   0  0.2482243E-08  0.3603291E+04  0.7818609E-02  0.8089738E-01
       -2   -1    0    0    0  501  0.00000000000E+00  0.00000000000E+00  0.16774467024E+04  0.16774467024E+04  0.25500000920E-02 0.  1.
        2   -1    0    0  501    0  0.00000000000E+00  0.00000000000E+00 -0.19350396473E+04  0.19350396473E+04  0.25500000920E-02 0. -1.
    10030    2    1    2    0    0  0.00000000000E+00  0.00000000000E+00 -0.25759294485E+03  0.36124863497E+04  0.36032906490E+04 0.  0.
        5    1    3    3  502    0 -0.10300110071E+04  0.11206623796E+04 -0.10951531128E+04  0.18751504671E+04  0.46999998093E+01 0. -1.
       -5    1    3    3    0  502  0.10300110071E+04 -0.11206623796E+04  0.83756016799E+03  0.17373358825E+04  0.46999998093E+01 0.  1.
</event>
<event>
 5   0  0.8247570E-09  0.3601265E+04  0.7818609E-02  0.8090202E-01
       -1   -1    0    0    0  501  0.00000000000E+00  0.00000000000E+00  0.16104181204E+04  0.16104181204E+04  0.50400001928E-02 0. -1.
        1   -1    0    0  501    0  0.00000000000E+00  0.00000000000E+00 -0.20133145342E+04  0.20133145342E+04  0.50400001928E-02 0.  1.
    10030    2    1    2    0    0  0.00000000000E+00  0.00000000000E+00 -0.40289641377E+03  0.36237326546E+04  0.36012654487E+04 0.  0.
        3    1    3    3  502    0  0.40610529793E+03  0.50118287576E+03  0.14901621732E+04  0.16237885024E+04  0.10100000352E+00 0. -1.
       -3    1    3    3    0  502 -0.40610529793E+03 -0.50118287576E+03 -0.18930585870E+04  0.19999441522E+04  0.10100000352E+00 0.  1.
</event>
<event>
 5   0  0.8024500E-09  0.3602131E+04  0.7818609E-02  0.8090004E-01
        1   -1    0    0  501    0  0.00000000000E+00  0.00000000000E+00  0.21806094286E+04  0.21806094286E+04  0.50400001928E-02 0.  1.
       -1   -1    0    0    0  501  0.00000000000E+00  0.00000000000E+00 -0.14875823430E+04  0.14875823430E+04  0.50400001928E-02 0. -1.
    10030    2    1    2    0    0  0.00000000000E+00  0.00000000000E+00  0.69302708560E+03  0.36681917716E+04  0.36021305268E+04 0.  0.
        5    1    3    3  502    0 -0.26283332795E+03 -0.17611819720E+04  0.71428591978E+02  0.17821244150E+04  0.46999998093E+01 0. -1.
       -5    1    3    3    0  502  0.26283332795E+03  0.17611819720E+04  0.62159849363E+03  0.18860673567E+04  0.46999998093E+01 0.  1.
</event>
<event>
 5   0  0.2476968E-08  0.3599657E+04  0.7818609E-02  0.8090570E-01
       -2   -1    0    0    0  501  0.00000000000E+00  0.00000000000E+00  0.13610174248E+04  0.13610174248E+04  0.25500000920E-02 0.  1.
        2   -1    0    0  501    0  0.00000000000E+00  0.00000000000E+00 -0.23801187476E+04  0.23801187476E+04  0.25500000920E-02 0. -1.
    10030    2    1    2    0    0  0.00000000000E+00  0.00000000000E+00 -0.10191013228E+04  0.37411361724E+04  0.35996572551E+04 0.  0.
        2    1    3    3  502    0 -0.76533177144E+03 -0.14944185573E+04  0.16428639048E+03  0.16870120221E+04  0.25500000920E-02 0.  1.
       -2    1    3    3    0  502  0.76533177144E+03  0.14944185573E+04 -0.11833877133E+04  0.20541241502E+04  0.25500000920E-02 0. -1.
</event>
<event>
 5   0  0.8146881E-09  0.3600242E+04  0.7818609E-02  0.8090436E-01
        1   -1    0    0  501    0  0.00000000000E+00  0.00000000000E+00  0.19426567993E+04  0.19426567993E+04  0.50400001928E-02 0.  1.
       -1   -1    0    0    0  501  0.00000000000E+00  0.00000000000E+00 -0.16680430022E+04  0.16680430023E+04  0.50400001928E-02 0. -1.
    10030    2    1    2    0    0  0.00000000000E+00  0.00000000000E+00  0.27461379708E+03  0.36106998016E+04  0.36002417029E+04 0.  0.
        4    1    3    3  502    0 -0.63654214629E+03  0.44271880794E+03 -0.14919883583E+04  0.16814329369E+04  0.12699999809E+01 0. -1.
       -4    1    3    3    0  502  0.63654214629E+03 -0.44271880794E+03  0.17666021554E+04  0.19292668647E+04  0.12699999809E+01 0.  1.
</event>
<event>
 5   0  0.2608070E-08  0.3599188E+04  0.7818609E-02  0.8090678E-01
       -2   -1    0    0    0  501  0.00000000000E+00  0.00000000000E+00  0.19444005148E+04  0.19444005148E+04  0.25500000920E-02 0. -1.
        2   -1    0    0  501    0  0.00000000000E+00  0.00000000000E+00 -0.16655721989E+04  0.16655721989E+04  0.25500000920E-02 0.  1.
    10030    2    1    2    0    0  0.00000000000E+00  0.00000000000E+00  0.27882831589E+03  0.36099727136E+04  0.35991884868E+04 0.  0.
        3    1    3    3  502    0  0.29234327956E+03 -0.12900946579E+04 -0.10843772155E+04  0.17104627372E+04  0.10100000352E+00 0.  1.
       -3    1    3    3    0  502 -0.29234327956E+03  0.12900946579E+04  0.13632055314E+04  0.18995099765E+04  0.10100000352E+00 0. -1.
</event>
<event>
 5   0  0.2482243E-08  0.3610444E+04  0.7818609E-02  0.8088104E-01
       -2   -1    0    0    0  501  0.00000000000E+00  0.00000000000E+00  0.29078532455E+04  0.29078532455E+04  0.25500000920E-02 0. -1.
        2   -1    0    0  501    0  0.00000000000E+00  0.00000000000E+00 -0.11206981275E+04  0.11206981276E+04  0.25500000920E-02 0.  1.
    10030    2    1    2    0    0  0.00000000000E+00  0.00000000000E+00  0.17871551179E+04  0.40285513730E+04  0.36104435669E+04 0.  0.
        5    1    3    3  502    0 -0.78927445991E+03 -0.15281545349E+04  0.28182206405E+03  0.17428873232E+04  0.46999998093E+01 0.  1.
       -5    1    3    3    0  502  0.78927445991E+03  0.15281545349E+04  0.15053330539E+04  0.22856640498E+04  0.46999998093E+01 0. -1.
</event>
<event>
 5   0  0.2494592E-08  0.3599644E+04  0.7818609E-02  0.8090573E-01
        2   -1    0    0  501    0  0.00000000000E+00  0.00000000000E+00  0.17152719418E+04  0.17152719418E+04  0.25500000920E-02 0. -1.
       -2   -1    0    0    0  501  0.00000000000E+00  0.00000000000E+00 -0.18885395794E+04  0.18885395794E+04  0.25500000920E-02 0.  1.
    10030    2    1    2    0    0  0.00000000000E+00  0.00000000000E+00 -0.17326763756E+03  0.36038115212E+04  0.35996438443E+04 0.  0.
        1    1    3    3  502    0 -0.13164738682E+04  0.97533071027E+03  0.65920221046E+03  0.17660467136E+04  0.50400001928E-02 0. -1.
       -1    1    3    3    0  502  0.13164738682E+04 -0.97533071027E+03 -0.83246984803E+03  0.18377648076E+04  0.50400001928E-02 0.  1.
</event>
<event>
 5   0  0.8024500E-09  0.3600204E+04  0.7818609E-02  0.8090445E-01
        1   -1    0    0  501    0  0.00000000000E+00  0.00000000000E+00  0.22921089372E+04  0.22921089372E+04  0.50400001928E-02 0. -1.
       -1   -1    0    0    0  501  0.00000000000E+00  0.00000000000E+00 -0.14137053173E+04  0.14137053173E+04  0.50400001928E-02 0.  1.
    10030    2    1    2    0    0  0.00000000000E+00  0.00000000000E+00  0.87840361992E+03  0.37058142545E+04  0.36002036566E+04 0.  0.
        1    1    3    3  502    0 -0.63850419341E+03  0.10774604994E+04  0.17700951925E+04  0.21683739814E+04  0.50400001928E-02 0. -1.
       -1    1    3    3    0  502  0.63850419341E+03 -0.10774604994E+04 -0.89169157253E+03  0.15374402731E+04  0.50400001928E-02 0.  1.
</event>
<event>
 5   0  0.2494592E-08  0.3599375E+04  0.7818609E-02  0.8090635E-01
        2   -1    0    0  501    0  0.00000000000E+00  0.00000000000E+00  0.34248018774E+04  0.34248018774E+04  0.25500000920E-02 0. -1.
       -2   -1    0    0    0  501  0.00000000000E+00  0.00000000000E+00 -0.94571184709E+03  0.94571184709E+03  0.25500000920E-02 0.  1.
    10030    2    1    2    0    0  0.00000000000E+00  0.00000000000E+00  0.24790900304E+04  0.43705137245E+04  0.35993753399E+04 0.  0.
        1    1    3    3  502    0  0.23262448313E+03  0.19703153328E+03  0.33932220567E+04  0.34068888302E+04  0.50400001928E-02 0. -1.
       -1    1    3    3    0  502 -0.23262448313E+03 -0.19703153328E+03 -0.91413202638E+03  0.96362489431E+03  0.50400001928E-02 0.  1.
</event>
<event>
 5   0  0.8024500E-09  0.3618848E+04  0.7818609E-02  0.8086188E-01
       -1   -1    0    0    0  501  0.00000000000E+00  0.00000000000E+00  0.21502878111E+04  0.21502878111E+04  0.50400001928E-02 0. -1.
        1   -1    0    0  501    0  0.00000000000E+00  0.00000000000E+00 -0.15225938538E+04  0.15225938538E+04  0.50400001928E-02 0.  1.
    10030    2    1    2    0    0  0.00000000000E+00  0.00000000000E+00  0.62769395730E+03  0.36728816648E+04  0.36188478857E+04 0.  0.
        1    1    3    3  502    0  0.61052163995E+03 -0.32600956447E+03 -0.13829395621E+04  0.15464607145E+04  0.50400001928E-02 0.  1.
       -1    1    3    3    0  502 -0.61052163995E+03  0.32600956447E+03  0.20106335194E+04  0.21264209504E+04  0.50400001928E-02 0. -1.
</event>
<event>
 5   0  0.2590795E-08  0.3603057E+04  0.7818609E-02  0.8089792E-01
        2   -1    0    0  501    0  0.00000000000E+00  0.00000000000E+00  0.28904971114E+04  0.28904971114E+04  0.25500000920E-02 0. -1.
       -2   -1    0    0    0  501  0.00000000000E+00  0.00000000000E+00 -0.11228191743E+04  0.11228191743E+04  0.25500000920E-02 0.  1.
    10030    2    1    2    0    0  0.00000000000E+00  0.00000000000E+00  0.17676779372E+04  0.40133162857E+04  0.36030573572E+04 0.  0.
        4    1    3    3  502    0 -0.41387575641E+03  0.37050393425E+03 -0.10250451985E+04  0.11658840332E+04  0.12699999809E+01 0.  1.
       -4    1    3    3    0  502  0.41387575641E+03 -0.37050393425E+03  0.27927231357E+04  0.28474322525E+04  0.12699999809E+01 0. -1.
</event>
<event>
 5   0  0.8024500E-09  0.3600218E+04  0.7818609E-02  0.8090442E-01
       -1   -1    0    0    0  501  0.00000000000E+00  0.00000000000E+00  0.21011036418E+04  0.21011036418E+04  0.50400001928E-02 0. -1.
        1   -1    0    0  501    0  0.00000000000E+00  0.00000000000E+00 -0.15422336933E+04  0.15422336933E+04  0.50400001928E-02 0.  1.
    10030    2    1    2    0    0  0.00000000000E+00  0.00000000000E+00  0.55886994852E+03  0.36433373350E+04  0.36002182319E+04 0.  0.
        1    1    3    3  502    0 -0.14643545476E+04 -0.99122113747E+03  0.62042647819E+03  0.18739750797E+04  0.50400001928E-02 0. -1.
       -1    1    3    3    0  502  0.14643545476E+04  0.99122113747E+03 -0.61556529670E+02  0.17693622554E+04  0.50400001928E-02 0.  1.
</event>
<event>
 5   0  0.2482243E-08  0.3602037E+04  0.7818609E-02  0.8090025E-01
        2   -1    0    0  501    0  0.00000000000E+00  0.00000000000E+00  0.27595213172E+04  0.27595213172E+04  0.25500000920E-02 0. -1.
       -2   -1    0    0    0  501  0.00000000000E+00  0.00000000000E+00 -0.11754456395E+04  0.11754456395E+04  0.25500000920E-02 0.  1.
    10030    2    1    2    0    0  0.00000000000E+00  0.00000000000E+00  0.15840756777E+04  0.39349669567E+04  0.36020368123E+04 0.  0.
        5    1    3    3  502    0 -0.47898881293E+03  0.77702664371E+03  0.24880990149E+04  0.26502564943E+04  0.46999998093E+01 0. -1.
       -5    1    3    3    0  502  0.47898881293E+03 -0.77702664371E+03 -0.90402333714E+03  0.12847104623E+04  0.46999998093E+01 0.  1.
</event>
<event>
 5   0  0.2482243E-08  0.3600285E+04  0.7818609E-02  0.8090427E-01
       -2   -1    0    0    0  501  0.00000000000E+00  0.00000000000E+00  0.20346402433E+04  0.20346402433E+04  0.25500000920E-02 0. -1.
        2   -1    0    0  501    0  0.00000000000E+00  0.00000000000E+00 -0.15926708552E+04  0.15926708552E+04  0.25500000920E-02 0.  1.
    10030    2    1    2    0    0  0.00000000000E+00  0.00000000000E+00  0.44196938810E+03  0.36273110984E+04  0.36002845533E+04 0.  0.
        5    1    3    3  502    0 -0.51061809996E+02  0.13906707909E+04 -0.92947933954E+03  0.16734773646E+04  0.46999998093E+01 0. -1.
       -5    1    3    3    0  502  0.51061809996E+02 -0.13906707909E+04  0.13714487276E+04  0.19538337339E+04  0.46999998093E+01 0.  1.
</event>
<event>
 5   0  0.2476968E-08  0.3599781E+04  0.7818609E-02  0.8090542E-01
       -2   -1    0    0    0  501  0.00000000000E+00  0.00000000000E+00  0.12844989804E+04  0.12844989804E+04  0.25500000920E-02 0. -1.
        2   -1    0    0  501    0  0.00000000000E+00  0.00000000000E+00 -0.25220776770E+04  0.25220776770E+04  0.25500000920E-02 0.  1.
    10030    2    1    2    0    0  0.00000000000E+00  0.00000000000E+00 -0.12375786965E+04  0.38065766574E+04  0.35997812181E+04 0.  0.
        2    1    3    3  502    0 -0.12254708684E+04 -0.11286691275E+04  0.10146563647E+03  0.16691219620E+04  0.25500000920E-02 0. -1.
       -2    1    3    3    0  502  0.12254708684E+04  0.11286691275E+04 -0.13390443330E+04  0.21374546953E+04  0.25500000920E-02 0.  1.
</event>
<event>
 5   0  0.2476968E-08  0.3597384E+04  0.7818609E-02  0.8091091E-01
       -2   -1    0    0    0  501  0.00000000000E+00  0.00000000000E+00  0.25948622657E+04  0.25948622657E+04  0.25500000920E-02 0. -1.
        2   -1    0    0  501    0  0.00000000000E+00  0.00000000000E+00 -0.12468071881E+04  0.12468071881E+04  0.25500000920E-02 0.  1.
    10030    2    1    2    0    0  0.00000000000E+00  0.00000000000E+00  0.13480550776E+04  0.38416694537E+04  0.35973840078E+04 0.  0.
        2    1    3    3  502    0  0.69422346859E+03 -0.69162544893E+03 -0.93670705026E+03  0.13556223973E+04  0.25500000920E-02 0.  1.
       -2    1    3    3    0  502 -0.69422346859E+03  0.69162544893E+03  0.22847621279E+04  0.24860470565E+04  0.25500000920E-02 0. -1.
</event>
<event>
 5   0  0.2494592E-08  0.3603110E+04  0.7818609E-02  0.8089780E-01
        2   -1    0    0  501    0  0.00000000000E+00  0.00000000000E+00  0.15692940196E+04  0.15692940196E+04  0.25500000920E-02 0.  1.
       -2   -1    0    0    0  501  0.00000000000E+00  0.00000000000E+00 -0.20681918296E+04  0.20681918296E+04  0.25500000920E-02 0. -1.
    10030    2    1    2    0    0  0.00000000000E+00  0.00000000000E+00 -0.49889781000E+03  0.36374858493E+04  0.36031103617E+04 0.  0.
        1    1    3    3  502    0 -0.60201386110E+03 -0.65604538017E+03  0.13316297460E+04  0.16018907610E+04  0.50400001928E-02 0.  1.
       -1    1    3    3    0  502  0.60201386110E+03  0.65604538017E+03 -0.18305275560E+04  0.20355950882E+04  0.50400001928E-02 0. -1.
</event>
<event>
 5   0  0.8024500E-09  0.3595250E+04  0.7818609E-02  0.8091581E-01
        1   -1    0    0  501    0  0.00000000000E+00  0.00000000000E+00  0.18995805398E+04  0.18995805398E+04  0.50400001928E-02 0. -1.
       -1   -1    0    0    0  501  0.00000000000E+00  0.00000000000E+00 -0.17011419809E+04  0.17011419809E+04  0.50400001928E-02 0.  1.
    10030    2    1    2    0    0  0.00000000000E+00  0.00000000000E+00  0.19843855890E+03  0.36007225207E+04  0.35952503125E+04 0.  0.
        5    1    3    3  502    0 -0.43718777314E+03  0.16522820389E+04 -0.45864292018E+03  0.17696170499E+04  0.46999998093E+01 0.  1.
       -5    1    3    3    0  502  0.43718777314E+03 -0.16522820389E+04  0.65708147909E+03  0.18311054708E+04  0.46999998093E+01 0. -1.
</event>
<event>
 5   0  0.8247570E-09  0.3599546E+04  0.7818609E-02  0.8090596E-01
        1   -1    0    0  501    0  0.00000000000E+00  0.00000000000E+00  0.19352418518E+04  0.19352418519E+04  0.50400001928E-02 0.  1.
       -1   -1    0    0    0  501  0.00000000000E+00  0.00000000000E+00 -0.16737871774E+04  0.16737871774E+04  0.50400001928E-02 0. -1.
    10030    2    1    2    0    0  0.00000000000E+00  0.00000000000E+00  0.26145467445E+03  0.36090290293E+04  0.35995460807E+04 0.  0.
        3    1    3    3  502    0  0.69852989368E+03  0.16582085807E+04  0.17062257804E+03  0.18074047095E+04  0.10100000352E+00 0. -1.
       -3    1    3    3    0  502 -0.69852989368E+03 -0.16582085807E+04  0.90832096415E+02  0.18016243198E+04  0.10100000352E+00 0.  1.
</event>
<event>
 5   0  0.2608070E-08  0.3599636E+04  0.7818609E-02  0.8090575E-01
       -2   -1    0    0    0  501  0.00000000000E+00  0.00000000000E+00  0.20195679530E+04  0.20195679530E+04  0.25500000920E-02 0. -1.
        2   -1    0    0  501    0  0.00000000000E+00  0.00000000000E+00 -0.16039789562E+04  0.16039789562E+04  0.25500000920E-02 0.  1.
    10030    2    1    2    0    0  0.00000000000E+00  0.00000000000E+00  0.41558899681E+03  0.36235469091E+04  0.35996358133E+04 0.  0.
        3    1    3    3  502    0  0.79842725306E+03 -0.39061190564E+03  0.17832081637E+04  0.19924595616E+04  0.10100000352E+00 0. -1.
       -3    1    3    3    0  502 -0.79842725306E+03  0.39061190564E+03 -0.13676191669E+04  0.16310873475E+04  0.10100000352E+00 0.  1.
</event>
<event>
 5   0  0.8024500E-09  0.3600134E+04  0.7818609E-02  0.8090461E-01
       -1   -1    0    0    0  501  0.00000000000E+00  0.00000000000E+00  0.14743154487E+04  0.14743154487E+04  0.50400001928E-02 0.  1.
        1   -1    0    0  501    0  0.00000000000E+00  0.00000000000E+00 -0.21977936146E+04  0.21977936146E+04  0.50400001928E-02 0. -1.
    10030    2    1    2    0    0  0.00000000000E+00  0.00000000000E+00 -0.72347816587E+03  0.36721090634E+04  0.36001339304E+04 0.  0.
        1    1    3    3  502    0  0.35983837172E+03  0.17602121250E+04 -0.24810854579E+03  0.18136670668E+04  0.50400001928E-02 0.  1.
       -1    1    3    3    0  502 -0.35983837172E+03 -0.17602121250E+04 -0.47536962008E+03  0.18584419965E+04  0.50400001928E-02 0. -1.
</event>
<event>
 5   0  0.2476968E-08  0.3590916E+04  0.7818609E-02  0.8092576E-01
       -2   -1    0    0    0  501  0.00000000000E+00  0.00000000000E+00  0.24549907211E+04  0.24549907211E+04  0.25500000920E-02 0. -1.
        2   -1    0    0  501    0  0.00000000000E+00  0.00000000000E+00 -0.13131086110E+04  0.13131086110E+04  0.25500000920E-02 0.  1.
    10030    2    1    2    0    0  0.00000000000E+00  0.00000000000E+00  0.11418821101E+04  0.37680993321E+04  0.35909160145E+04 0.  0.
        2    1    3    3  502    0 -0.16422941089E+04 -0.36967003748E+03  0.12261571652E+04  0.20826058846E+04  0.25500000920E-02 0. -1.
       -2    1    3    3    0  502  0.16422941089E+04  0.36967003748E+03 -0.84275055117E+02  0.16854934475E+04  0.25500000920E-02 0.  1.
</event>
<event>
 5   0  0.8146881E-09  0.3603256E+04  0.7818609E-02  0.8089746E-01
       -1   -1    0    0    0  501  0.00000000000E+00  0.00000000000E+00  0.26115861281E+04  0.26115861281E+04  0.50400001928E-02 0. -1.
        1   -1    0    0  501    0  0.00000000000E+00  0.00000000000E+00 -0.12428703265E+04  0.12428703265E+04  0.50400001928E-02 0.  1.
    10030    2    1    2    0    0  0.00000000000E+00  0.00000000000E+00  0.13687158016E+04  0.38544564546E+04  0.36032556966E+04 0.  0.
        4    1    3    3  502    0 -0.16822118962E+04 -0.25028183099E+03  0.13202613109E+04  0.21530372502E+04  0.12699999809E+01 0. -1.
       -4    1    3    3    0  502  0.16822118962E+04  0.25028183099E+03  0.48454490639E+02  0.17014192044E+04  0.12699999809E+01 0.  1.
</event>
<event>
 5   0  0.8024500E-09  0.3602304E+04  0.7818609E-02  0.8089964E-01
        1   -1    0    0  501    0  0.00000000000E+00  0.00000000000E+00  0.24468059626E+04  0.24468059626E+04  0.50400001928E-02 0. -1.
       -1   -1    0    0    0  501  0.00000000000E+00  0.00000000000E+00 -0.13258706350E+04  0.13258706350E+04  0.50400001928E-02 0.  1.
    10030    2    1    2    0    0  0.00000000000E+00  0.00000000000E+00  0.11209353276E+04  0.37726765976E+04  0.36023038047E+04 0.  0.
        1    1    3    3  502    0 -0.15576256109E+04  0.65200020853E+03 -0.95950526948E+02  0.16913037336E+04  0.50400001928E-02 0.  1.
       -1    1    3    3    0  502  0.15576256109E+04 -0.65200020853E+03  0.12168858545E+04  0.20813728639E+04  0.50400001928E-02 0. -1.
</event>
<event>
 5   0  0.8063410E-09  0.3597557E+04  0.7818609E-02  0.8091052E-01
        1   -1    0    0  501    0  0.00000000000E+00  0.00000000000E+00  0.22305913368E+04  0.22305913368E+04  0.50400001928E-02 0.  1.
       -1   -1    0    0    0  501  0.00000000000E+00  0.00000000000E+00 -0.14505587656E+04  0.14505587657E+04  0.50400001928E-02 0. -1.
    10030    2    1    2    0    0  0.00000000000E+00  0.00000000000E+00  0.78003257120E+03  0.36811501025E+04  0.35975568467E+04 0.  0.
        2    1    3    3  502    0  0.49534402527E+03  0.12341756437E+04  0.16293781000E+04  0.21031947641E+04  0.25500000920E-02 0.  1.
       -2    1    3    3    0  502 -0.49534402527E+03 -0.12341756437E+04 -0.84934552877E+03  0.15779553384E+04  0.25500000920E-02 0. -1.
</event>
<event>
 5   0  0.8024500E-09  0.3599881E+04  0.7818609E-02  0.8090519E-01
       -1   -1    0    0    0  501  0.00000000000E+00  0.00000000000E+00  0.21204151762E+04  0.21204151762E+04  0.50400001928E-02 0.  1.
        1   -1    0    0  501    0  0.00000000000E+00  0.00000000000E+00 -0.15279016863E+04  0.15279016863E+04  0.50400001928E-02 0. -1.
    10030    2    1    2    0    0  0.00000000000E+00  0.00000000000E+00  0.59251348991E+03  0.36483168626E+04  0.35998810667E+04 0.  0.
        5    1    3    3  502    0  0.12545974302E+04 -0.32591611589E+03  0.15618698384E+04  0.20297033056E+04  0.46999998093E+01 0.  1.
       -5    1    3    3    0  502 -0.12545974302E+04  0.32591611589E+03 -0.96935634852E+03  0.16186135570E+04  0.46999998093E+01 0. -1.
</event>
<event>
 5   0  0.2590795E-08  0.3600830E+04  0.7818609E-02  0.8090302E-01
       -2   -1    0    0    0  501  0.00000000000E+00  0.00000000000E+00  0.16794626489E+04  0.16794626489E+04  0.25500000920E-02 0. -1.
        2   -1    0    0  501    0  0.00000000000E+00  0.00000000000E+00 -0.19300780057E+04  0.19300780057E+04  0.25500000920E-02 0.  1.
    10030    2    1    2    0    0  0.00000000000E+00  0.00000000000E+00 -0.25061535682E+03  0.36095406547E+04  0.36008298600E+04 0.  0.
        4    1    3    3  502    0 -0.71778558754E+03 -0.27990655540E+03 -0.17564898329E+04  0.19180255409E+04  0.12699999809E+01 0.  1.
       -4    1    3    3    0  502  0.71778558754E+03  0.27990655540E+03  0.15058744761E+04  0.16915151138E+04  0.12699999809E+01 0. -1.
</event>
<event>
 5   0  0.2590795E-08  0.3600815E+04  0.7818609E-02  0.8090305E-01
        2   -1    0    0  501    0  0.00000000000E+00  0.00000000000E+00  0.13271718387E+04  0.13271718387E+04  0.25500000920E-02 0.  1.
       -2   -1    0    0    0  501  0.00000000000E+00  0.00000000000E+00 -0.24423875864E+04  0.24423875864E+04  0.25500000920E-02 0. -1.
    10030    2    1    2    0    0  0.00000000000E+00  0.00000000000E+00 -0.11152157476E+04  0.37695594251E+04  0.36008154765E+04 0.  0.
        4    1    3    3  502    0  0.82198287123E+03 -0.31342927463E+03 -0.22020731308E+04  0.23712910907E+04  0.12699999809E+01 0. -1.
       -4    1    3    3    0  502 -0.82198287123E+03  0.31342927463E+03  0.10868573831E+04  0.13982683344E+04  0.12699999809E+01 0.  1.
</event>
<event>
 5   0  0.8063410E-09  0.3603851E+04  0.7818609E-02  0.8089610E-01
        1   -1    0    0  501    0  0.00000000000E+00  0.00000000000E+00  0.24015838921E+04  0.24015838921E+04  0.50400001928E-02 0. -1.
       -1   -1    0    0    0  501  0.00000000000E+00  0.00000000000E+00 -0.13519978395E+04  0.13519978395E+04  0.50400001928E-02 0.  1.
    10030    2    1    2    0    0  0.00000000000E+00  0.00000000000E+00  0.10495860526E+04  0.37535817316E+04  0.36038514029E+04 0.  0.
        2    1    3    3  502    0 -0.27283877388E+03  0.12415593856E+04  0.18549698623E+04  0.22487382895E+04  0.25500000920E-02 0.  1.
       -2    1    3    3    0  502  0.27283877388E+03 -0.12415593856E+04 -0.80538380966E+03  0.15048434422E+04  0.25500000920E-02 0. -1.
</event>
<event>
 5   0  0.2590795E-08  0.3599905E+04  0.7818609E-02  0.8090513E-01
       -2   -1    0    0    0  501  0.00000000000E+00  0.00000000000E+00  0.28665432587E+04  0.28665432587E+04  0.25500000920E-02 0.  1.
        2   -1    0    0  501    0  0.00000000000E+00  0.00000000000E+00 -0.11302215911E+04  0.11302215911E+04  0.25500000920E-02 0. -1.
    10030    2    1    2    0    0  0.00000000000E+00  0.00000000000E+00  0.17363216676E+04  0.39967648498E+04  0.35999050447E+04 0.  0.
        4    1    3    3  502    0 -0.83983043048E+03 -0.13097231754E+04 -0.13667696091E+03  0.15618489532E+04  0.12699999809E+01 0. -1.
       -4    1    3    3    0  502  0.83983043048E+03  0.13097231754E+04  0.18729986285E+04  0.24349158966E+04  0.12699999809E+01 0.  1.
</event>
<event>
 5   0  0.2494592E-08  0.3595637E+04  0.7818609E-02  0.8091492E-01
       -2   -1    0    0    0  501  0.00000000000E+00  0.00000000000E+00  0.12707198940E+04  0.12707198940E+04  0.25500000920E-02 0. -1.
        2   -1    0    0  501    0  0.00000000000E+00  0.00000000000E+00 -0.25435591870E+04  0.25435591870E+04  0.25500000920E-02 0.  1.
    10030    2    1    2    0    0  0.00000000000E+00  0.00000000000E+00 -0.12728392931E+04  0.38142790810E+04  0.35956369452E+04 0.  0.
        1    1    3    3  502    0 -0.16662449030E+04  0.40090143067E+03 -0.60197746941E+02  0.17148521227E+04  0.50400001928E-02 0. -1.
       -1    1    3    3    0  502  0.16662449030E+04 -0.40090143067E+03 -0.12126415461E+04  0.20994269583E+04  0.50400001928E-02 0.  1.
</event>
<event>
 5   0  0.2590795E-08  0.3598389E+04  0.7818609E-02  0.8090861E-01
       -2   -1    0    0    0  501  0.00000000000E+00  0.00000000000E+00  0.14419166960E+04  0.14419166960E+04  0.25500000920E-02 0.  1.
        2   -1    0    0  501    0  0.00000000000E+00  0.00000000000E+00 -0.22449982490E+04  0.22449982490E+04  0.25500000920E-02 0. -1.
    10030    2    1    2    0    0  0.00000000000E+00  0.00000000000E+00 -0.80308155299E+03  0.36869149451E+04  0.35983887827E+04 0.  0.
        4    1    3    3  502    0  0.15548789294E+03  0.23074757695E+03  0.14197380636E+04  0.14467476322E+04  0.12699999809E+01 0.  1.
       -4    1    3    3    0  502 -0.15548789294E+03 -0.23074757695E+03 -0.22228196166E+04  0.22401673129E+04  0.12699999809E+01 0. -1.
</event>
<event>
 5   0  0.8024500E-09  0.3598284E+04  0.7818609E-02  0.8090885E-01
       -1   -1    0    0    0  501  0.00000000000E+00  0.00000000000E+00  0.31664629837E+04  0.31664629837E+04  0.50400001928E-02 0.  1.
        1   -1    0    0  501    0  0.00000000000E+00  0.00000000000E+00 -0.10222485117E+04  0.10222485117E+04  0.50400001928E-02 0. -1.
    10030    2    1    2    0    0  0.00000000000E+00  0.00000000000E+00  0.21442144720E+04  0.41887114954E+04  0.35982840758E+04 0.  0.
        5    1    3    3  502    0  0.33872077513E+03 -0.33294701876E+03  0.30921582560E+04  0.31284261620E+04  0.46999998093E+01 0.  1.
       -5    1    3    3    0  502 -0.33872077513E+03  0.33294701876E+03 -0.94794378396E+03  0.10602853335E+04  0.46999998093E+01 0. -1.
</event>
<event>
 5   0  0.2482243E-08  0.3601030E+04  0.7818609E-02  0.8090256E-01
       -2   -1    0    0    0  501  0.00000000000E+00  0.00000000000E+00  0.23581209589E+04  0.23581209589E+04  0.25500000920E-02 0.  1.
        2   -1    0    0  501    0  0.00000000000E+00  0.00000000000E+00 -0.13747617497E+04  0.13747617497E+04  0.25500000920E-02 0. -1.
    10030    2    1    2    0    0  0.00000000000E+00  0.00000000000E+00  0.98335920921E+03  0.37328827087E+04  0.36010301279E+04 0.  0.
        5    1    3    3  502    0  0.90406052542E+02  0.11264809574E+04  0.19446798583E+04  0.22492075144E+04  0.46999998093E+01 0.  1.
       -5    1    3    3    0  502 -0.90406052542E+02 -0.11264809574E+04 -0.96132064910E+03  0.14836751942E+04  0.46999998093E+01 0. -1.
</event>
<event>
 5   0  0.8024500E-09  0.3600100E+04  0.7818609E-02  0.8090469E-01
       -1   -1    0    0    0  501  0.00000000000E+00  0.00000000000E+00  0.15394419147E+04  0.15394419147E+04  0.50400001928E-02 0.  1.
        1   -1    0    0  501    0  0.00000000000E+00  0.00000000000E+00 -0.21047759918E+04  0.21047759919E+04  0.50400001928E-02 0. -1.
    10030    2    1    2    0    0  0.00000000000E+00  0.00000000000E+00 -0.56533407712E+03  0.36442179066E+04  0.36001002114E+04 0.  0.
        5    1    3    3  502    0 -0.10456306154E+04 -0.10897217766E+04  0.70878521644E+03  0.16683031821E+04  0.46999998093E+01 0.  1.
       -5    1    3    3    0  502  0.10456306154E+04  0.10897217766E+04 -0.12741192936E+04  0.19759147245E+04  0.46999998093E+01 0. -1.
</event>
<event>
 5   0  0.8247570E-09  0.3598777E+04  0.7818609E-02  0.8090772E-01
        1   -1    0    0  501    0  0.00000000000E+00  0.00000000000E+00  0.12247405378E+04  0.12247405378E+04  0.50400001928E-02 0.  1.
       -1   -1    0    0    0  501  0.00000000000E+00  0.00000000000E+00 -0.26436615890E+04  0.26436615890E+04  0.50400001928E-02 0. -1.
    10030    2    1    2    0    0  0.00000000000E+00  0.00000000000E+00 -0.14189210512E+04  0.38684021268E+04  0.35987773014E+04 0.  0.
        3    1    3    3  502    0  0.10721655601E+04  0.34086195722E+03  0.80005715880E+03  0.13805134298E+04  0.10100000352E+00 0.  1.
       -3    1    3    3    0  502 -0.10721655601E+04 -0.34086195722E+03 -0.22189782100E+04  0.24878886970E+04  0.10100000352E+00 0. -1.
</event>
<event>
 5   0  0.2608070E-08  0.3599478E+04  0.7818609E-02  0.8090611E-01
        2   -1    0    0  501    0  0.00000000000E+00  0.00000000000E+00  0.17194772214E+04  0.17194772214E+04  0.25500000920E-02 0. -1.
       -2   -1    0    0    0  501  0.00000000000E+00  0.00000000000E+00 -0.18837471726E+04  0.18837471726E+04  0.25500000920E-02 0.  1.
    10030    2    1    2    0    0  0.00000000000E+00  0.00000000000E+00 -0.16426995115E+03  0.36032243940E+04  0.35994779367E+04 0.  0.
        3    1    3    3  502    0 -0.15420721744E+03 -0.17872324274E+04  0.63208185329E+02  0.17949860446E+04  0.10100000352E+00 0.  1.
       -3    1    3    3    0  502  0.15420721744E+03  0.17872324274E+04 -0.22747813648E+03  0.18082383494E+04  0.10100000352E+00 0. -1.
</event>
<event>
 5   0  0.8024500E-09  0.3602935E+04  0.7818609E-02  0.8089820E-01
       -1   -1    0    0    0  501  0.00000000000E+00  0.00000000000E+00  0.28949821025E+04  0.28949821025E+04  0.50400001928E-02 0.  1.
        1   -1    0    0  501    0  0.00000000000E+00  0.00000000000E+00 -0.11210033409E+04  0.11210033409E+04  0.50400001928E-02 0. -1.
    10030    2    1    2    0    0  0.00000000000E+00  0.00000000000E+00  0.17739787616E+04  0.40159854434E+04  0.36029346976E+04 0.  0.
        1    1    3    3  502    0 -0.12198491500E+03  0.13181917820E+04  0.22488506674E+04  0.26095668640E+04  0.50400001928E-02 0.  1.
       -1    1    3    3    0  502  0.12198491500E+03 -0.13181917820E+04 -0.47487190573E+03  0.14064185794E+04  0.50400001928E-02 0. -1.
</event>
<event>
 5   0  0.8146881E-09  0.3598444E+04  0.7818609E-02  0.8090848E-01
       -1   -1    0    0    0  501  0.00000000000E+00  0.00000000000E+00  0.18791475940E+04  0.18791475940E+04  0.50400001928E-02 0.  1.
        1   -1    0    0  501    0  0.00000000000E+00  0.00000000000E+00 -0.17226958890E+04  0.17226958890E+04  0.50400001928E-02 0. -1.
    10030    2    1    2    0    0  0.00000000000E+00  0.00000000000E+00  0.15645170494E+03  0.36018434830E+04  0.35984440165E+04 0.  0.
        4    1    3    3  502    0 -0.17375440804E+04 -0.46040894195E+03  0.15680094953E+03  0.18043347737E+04  0.12699999809E+01 0.  1.
       -4    1    3    3    0  502  0.17375440804E+04  0.46040894195E+03 -0.34924459512E+00  0.17975087093E+04  0.12699999809E+01 0. -1.
</event>
<event>
 5   0  0.8024500E-09  0.3600049E+04  0.7818609E-02  0.8090480E-01
       -1   -1    0    0    0  501  0.00000000000E+00  0.00000000000E+00  0.16521628013E+04  0.16521628013E+04  0.50400001928E-02 0. -1.
        1   -1    0    0  501    0  0.00000000000E+00  0.00000000000E+00 -0.19611191871E+04  0.19611191872E+04  0.50400001928E-02 0.  1.
    10030    2    1    2    0    0  0.00000000000E+00  0.00000000000E+00 -0.30895638582E+03  0.36132819885E+04  0.36000489830E+04 0.  0.
        5    1    3    3  502    0 -0.85015675985E+03  0.44190041871E+02 -0.17462924211E+04  0.19427502634E+04  0.46999998093E+01 0.  1.
       -5    1    3    3    0  502  0.85015675985E+03 -0.44190041871E+02  0.14373360353E+04  0.16705317251E+04  0.46999998093E+01 0. -1.
</event>
<event>
 5   0  0.8024500E-09  0.3592886E+04  0.7818609E-02  0.8092123E-01
        1   -1    0    0  501    0  0.00000000000E+00  0.00000000000E+00  0.20822848836E+04  0.20822848836E+04  0.50400001928E-02 0.  1.
       -1   -1    0    0    0  501  0.00000000000E+00  0.00000000000E+00 -0.15498394675E+04  0.15498394676E+04  0.50400001928E-02 0. -1.
    10030    2    1    2    0    0  0.00000000000E+00  0.00000000000E+00  0.53244541606E+03  0.36321243512E+04  0.35928859126E+04 0.  0.
        1    1    3    3  502    0 -0.12031708109E+03 -0.17620399546E+04 -0.65917267651E+02  0.17673726511E+04  0.50400001928E-02 0.  1.
       -1    1    3    3    0  502  0.12031708109E+03  0.17620399546E+04  0.59836268371E+03  0.18647517001E+04  0.50400001928E-02 0. -1.
</event>
<event>
 5   0  0.8024500E-09  0.3600484E+04  0.7818609E-02  0.8090381E-01
       -1   -1    0    0    0  501  0.00000000000E+00  0.00000000000E+00  0.14078713285E+04  0.14078713285E+04  0.50400001928E-02 0. -1.
        1   -1    0    0  501    0  0.00000000000E+00  0.00000000000E+00 -0.23019657610E+04  0.23019657610E+04  0.50400001928E-02 0.  1.
    10030    2    1    2    0    0  0.00000000000E+00  0.00000000000E+00 -0.89409443255E+03  0.37098370895E+04  0.36004841864E+04 0.  0.
        1    1    3    3  502    0 -0.38801352730E+02 -0.15416946157E+04  0.50989232463E+03  0.16242900036E+04  0.50400001928E-02 0. -1.
       -1    1    3    3    0  502  0.38801352730E+02  0.15416946157E+04 -0.14039867572E+04  0.20855470859E+04  0.50400001928E-02 0.  1.
</event>
<event>
 5   0  0.2590795E-08  0.3602822E+04  0.7818609E-02  0.8089846E-01
       -2   -1    0    0    0  501  0.00000000000E+00  0.00000000000E+00  0.15010872521E+04  0.15010872521E+04  0.25500000920E-02 0. -1.
        2   -1    0    0  501    0  0.00000000000E+00  0.00000000000E+00 -0.21618208793E+04  0.21618208793E+04  0.25500000920E-02 0.  1.
    10030    2    1    2    0    0  0.00000000000E+00  0.00000000000E+00 -0.66073362714E+03  0.36629081314E+04  0.36028220957E+04 0.  0.
        4    1    3    3  502    0  0.15640436792E+04  0.83039746000E+03 -0.66646688911E+03  0.18920814727E+04  0.12699999809E+01 0. -1.
       -4    1    3    3    0  502 -0.15640436792E+04 -0.83039746000E+03  0.57332619717E+01  0.17708266587E+04  0.12699999809E+01 0.  1.
</event>
<event>
 5   0  0.8146881E-09  0.3600389E+04  0.7818609E-02  0.8090403E-01
       -1   -1    0    0    0  501  0.00000000000E+00  0.00000000000E+00  0.14472203506E+04  0.14472203506E+04  0.50400001928E-02 0. -1.
        1   -1    0    0  501    0  0.00000000000E+00  0.00000000000E+00 -0.22392578243E+04  0.22392578243E+04  0.50400001928E-02 0.  1.
    10030    2    1    2    0    0  0.00000000000E+00  0.00000000000E+00 -0.79203747366E+03  0.36864781749E+04  0.36003885866E+04 0.  0.
        4    1    3    3  502    0 -0.30548415114E+03  0.10757315116E+04  0.10484507216E+04  0.15328957499E+04  0.12699999809E+01 0. -1.
       -4    1    3    3    0  502  0.30548415114E+03 -0.10757315116E+04 -0.18404881952E+04  0.21535824250E+04  0.12699999809E+01 0.  1.
</event>
<event>
 5   0  0.8024500E-09  0.3600945E+04  0.7818609E-02  0.8090275E-01
       -1   -1    0    0    0  501  0.00000000000E+00  0.00000000000E+00  0.14108214109E+04  0.14108214109E+04  0.50400001928E-02 0.  1.
        1   -1    0    0  501    0  0.00000000000E+00  0.00000000000E+00 -0.22977408061E+04  0.22977408061E+04  0.50400001928E-02 0. -1.
    10030    2    1    2    0    0  0.00000000000E+00  0.00000000000E+00 -0.88691939515E+03  0.37085622170E+04  0.36009453903E+04 0.  0.
        1    1    3    3  502    0 -0.17226842218E+04 -0.50071605063E+03 -0.60081475820E+03  0.18919132816E+04  0.50400001928E-02 0. -1.
       -1    1    3    3    0  502  0.17226842218E+04  0.50071605063E+03 -0.28610463695E+03  0.18166489354E+04  0.50400001928E-02 0.  1.
</event>
<event>
 5   0  0.8247570E-09  0.3595741E+04  0.7818609E-02  0.8091468E-01
       -1   -1    0    0    0  501  0.00000000000E+00  0.00000000000E+00  0.11939202675E+04  0.11939202675E+04  0.50400001928E-02 0. -1.
        1   -1    0    0  501    0  0.00000000000E+00  0.00000000000E+00 -0.27073316069E+04  0.27073316069E+04  0.50400001928E-02 0.  1.
    10030    2    1    2    0    0  0.00000000000E+00  0.00000000000E+00 -0.15134113394E+04  0.39012518744E+04  0.35957408562E+04 0.  0.
        3    1    3    3  502    0  0.34696609678E+03 -0.17067032738E+02 -0.26705727201E+04  0.26930717442E+04  0.10100000352E+00 0.  1.
       -3    1    3    3    0  502 -0.34696609678E+03  0.17067032738E+02  0.11571613807E+04  0.12081801302E+04  0.10100000352E+00 0. -1.
</event>
<event>
 5   0  0.8024500E-09  0.3599402E+04  0.7818609E-02  0.8090629E-01
       -1   -1    0    0    0  501  0.00000000000E+00  0.00000000000E+00  0.13722481942E+04  0.13722481942E+04  0.50400001928E-02 0. -1.
        1   -1    0    0  501    0  0.00000000000E+00  0.00000000000E+00 -0.23603044915E+04  0.23603044915E+04  0.50400001928E-02 0.  1.
    10030    2    1    2    0    0  0.00000000000E+00  0.00000000000E+00 -0.98805629736E+03  0.37325526857E+04  0.35994019371E+04 0.  0.
        5    1    3    3  502    0 -0.15620161201E+04  0.37654735813E+03 -0.13347081695E+04  0.20888155161E+04  0.46999998093E+01 0.  1.
       -5    1    3    3    0  502  0.15620161201E+04 -0.37654735813E+03  0.34665187215E+03  0.16437371697E+04  0.46999998093E+01 0. -1.
</event>
<event>
 5   0  0.2590795E-08  0.3600626E+04  0.7818609E-02  0.8090348E-01
        2   -1    0    0  501    0  0.00000000000E+00  0.00000000000E+00  0.29351553223E+04  0.29351553223E+04  0.25500000920E-02 0. -1.
       -2   -1    0    0    0  501  0.00000000000E+00  0.00000000000E+00 -0.11042438474E+04  0.11042438474E+04  0.25500000920E-02 0.  1.
    10030    2    1    2    0    0  0.00000000000E+00  0.00000000000E+00  0.18309114749E+04  0.40393991697E+04  0.36006261710E+04 0.  0.
        4    1    3    3  502    0 -0.82607211027E+02 -0.96234424547E+03  0.26198693903E+04  0.27922477743E+04  0.12699999809E+01 0. -1.
       -4    1    3    3    0  502  0.82607211027E+02  0.96234424547E+03 -0.78895791534E+03  0.12471513955E+04  0.12699999809E+01 0.  1.
</event>
<event>
 5   0  0.8063410E-09  0.3598758E+04  0.7818609E-02  0.8090776E-01
        1   -1    0    0  501    0  0.00000000000E+00  0.00000000000E+00  0.22869462520E+04  0.22869462520E+04  0.50400001928E-02 0. -1.
       -1   -1    0    0    0  501  0.00000000000E+00  0.00000000000E+00 -0.14157593928E+04  0.14157593928E+04  0.50400001928E-02 0.  1.
    10030    2    1    2    0    0  0.00000000000E+00  0.00000000000E+00  0.87118685918E+03  0.37027056447E+04  0.35987584731E+04 0.  0.
        2    1    3    3  502    0  0.12987113991E+04  0.29447337613E+03 -0.80948386599E+03  0.15584062361E+04  0.25500000920E-02 0.  1.
       -2    1    3    3    0  502 -0.12987113991E+04 -0.29447337613E+03  0.16806707252E+04  0.21442994086E+04  0.25500000920E-02 0. -1.
</event>
<event>
 5   0  0.8146881E-09  0.3595601E+04  0.7818609E-02  0.8091500E-01
        1   -1    0    0  501    0  0.00000000000E+00  0.00000000000E+00  0.20383182350E+04  0.20383182350E+04  0.50400001928E-02 0. -1.
       -1   -1    0    0    0  501  0.00000000000E+00  0.00000000000E+00 -0.15856636101E+04  0.15856636101E+04  0.50400001928E-02 0.  1.
    10030    2    1    2    0    0  0.00000000000E+00  0.00000000000E+00  0.45265462487E+03  0.36239818451E+04  0.35956012299E+04 0.  0.
        4    1    3    3  502    0  0.28408195582E+03  0.53875006791E+03 -0.14785117320E+04  0.15990474501E+04  0.12699999809E+01 0.  1.
       -4    1    3    3    0  502 -0.28408195582E+03 -0.53875006791E+03  0.19311663568E+04  0.20249343950E+04  0.12699999809E+01 0. -1.
</event>
<event>
 5   0  0.2590795E-08  0.3599808E+04  0.7818609E-02  0.8090536E-01
        2   -1    0    0  501    0  0.00000000000E+00  0.00000000000E+00  0.15621158258E+04  0.15621158258E+04  0.25500000920E-02 0. -1.
       -2   -1    0    0    0  501  0.00000000000E+00  0.00000000000E+00 -0.20738888922E+04  0.20738888922E+04  0.25500000920E-02 0.  1.
    10030    2    1    2    0    0  0.00000000000E+00  0.00000000000E+00 -0.51177306638E+03  0.36360047179E+04  0.35998081390E+04 0.  0.
        4    1    3    3  502    0  0.12015958858E+04  0.13390508631E+04 -0.30898085499E+03  0.18254754636E+04  0.12699999809E+01 0.  1.
       -4    1    3    3    0  502 -0.12015958858E+04 -0.13390508631E+04 -0.20279221139E+03  0.18105292543E+04  0.12699999809E+01 0. -1.
</event>
<event>
 5   0  0.2482243E-08  0.3599946E+04  0.7818609E-02  0.8090504E-01
       -2   -1    0    0    0  501  0.00000000000E+00  0.00000000000E+00  0.15071426221E+04  0.15071426221E+04  0.25500000920E-02 0.  1.
        2   -1    0    0  501    0  0.00000000000E+00  0.00000000000E+00 -0.21496984875E+04  0.21496984875E+04  0.25500000920E-02 0. -1.
    10030    2    1    2    0    0  0.00000000000E+00  0.00000000000E+00 -0.64255586546E+03  0.36568411096E+04  0.35999456746E+04 0.  0.
        5    1    3    3  502    0 -0.14730195765E+04  0.89334961178E+03  0.20852029412E+03  0.17353279243E+04  0.46999998093E+01 0.  1.
       -5    1    3    3    0  502  0.14730195765E+04 -0.89334961178E+03 -0.85107615958E+03  0.19215131853E+04  0.46999998093E+01 0. -1.
</event>
<event>
 5   0  0.8146881E-09  0.3599896E+04  0.7818609E-02  0.8090516E-01
       -1   -1    0    0    0  501  0.00000000000E+00  0.00000000000E+00  0.14557964936E+04  0.14557964936E+04  0.50400001928E-02 0.  1.
        1   -1    0    0  501    0  0.00000000000E+00  0.00000000000E+00 -0.22254571333E+04  0.22254571333E+04  0.50400001928E-02 0. -1.
    10030    2    1    2    0    0  0.00000000000E+00  0.00000000000E+00 -0.76966063965E+03  0.36812536269E+04  0.35998959382E+04 0.  0.
        4    1    3    3  502    0 -0.62735537011E+03  0.12267147403E+04 -0.15691968342E+04  0.20882490589E+04  0.12699999809E+01 0. -1.
       -4    1    3    3    0  502  0.62735537011E+03 -0.12267147403E+04  0.79953619458E+03  0.15930045681E+04  0.12699999809E+01 0.  1.
</event>
<event>
 5   0  0.2590795E-08  0.3601498E+04  0.7818609E-02  0.8090149E-01
        2   -1    0    0  501    0  0.00000000000E+00  0.00000000000E+00  0.16516676512E+04  0.16516676512E+04  0.25500000920E-02 0.  1.
       -2   -1    0    0    0  501  0.00000000000E+00  0.00000000000E+00 -0.19632862366E+04  0.19632862366E+04  0.25500000920E-02 0. -1.
    10030    2    1    2    0    0  0.00000000000E+00  0.00000000000E+00 -0.31161858536E+03  0.36149538878E+04  0.36014976701E+04 0.  0.
        4    1    3    3  502    0  0.16165670961E+04 -0.18510599104E+03 -0.93014571318E+03  0.18742267912E+04  0.12699999809E+01 0. -1.
       -4    1    3    3    0  502 -0.16165670961E+04  0.18510599104E+03  0.61852712782E+03  0.17407270966E+04  0.12699999809E+01 0.  1.
</event>
<event>
 5   0  0.2608070E-08  0.3601632E+04  0.7818609E-02  0.8090118E-01
       -2   -1    0    0    0  501  0.00000000000E+00  0.00000000000E+00  0.16456520443E+04  0.16456520443E+04  0.25500000920E-02 0. -1.
        2   -1    0    0  501    0  0.00000000000E+00  0.00000000000E+00 -0.19706103664E+04  0.19706103664E+04  0.25500000920E-02 0.  1.
    10030    2    1    2    0    0  0.00000000000E+00  0.00000000000E+00 -0.32495832205E+03  0.36162624107E+04  0.36016323955E+04 0.  0.
        3    1    3    3  502    0  0.64465661255E+03 -0.53222770663E+03  0.14390204231E+04  0.16642200179E+04  0.10100000352E+00 0. -1.
       -3    1    3    3    0  502 -0.64465661255E+03  0.53222770663E+03 -0.17639787451E+04  0.19520423928E+04  0.10100000352E+00 0.  1.
</event>
<event>
 5   0  0.8024500E-09  0.3599813E+04  0.7818609E-02  0.8090535E-01
       -1   -1    0    0    0  501  0.00000000000E+00  0.00000000000E+00  0.15084503756E+04  0.15084503756E+04  0.50400001928E-02 0. -1.
        1   -1    0    0  501    0  0.00000000000E+00  0.00000000000E+00 -0.21476761053E+04  0.21476761053E+04  0.50400001928E-02 0.  1.
    10030    2    1    2    0    0  0.00000000000E+00  0.00000000000E+00 -0.63922572972E+03  0.36561264809E+04  0.35998126772E+04 0.  0.
        5    1    3    3  502    0 -0.37241876760E+03 -0.59952991879E+03 -0.20012649011E+04  0.21220780279E+04  0.46999998093E+01 0.  1.
       -5    1    3    3    0  502  0.37241876760E+03  0.59952991879E+03  0.13620391714E+04  0.15340484531E+04  0.46999998093E+01 0. -1.
</event>
<event>
 5   0  0.2476968E-08  0.3601728E+04  0.7818609E-02  0.8090096E-01
        2   -1    0    0  501    0  0.00000000000E+00  0.00000000000E+00  0.14194013023E+04  0.14194013023E+04  0.25500000920E-02 0. -1.
       -2   -1    0    0    0  501  0.00000000000E+00  0.00000000000E+00 -0.22848442865E+04  0.22848442865E+04  0.25500000920E-02 0.  1.
    10030    2    1    2    0    0  0.00000000000E+00  0.00000000000E+00 -0.86544298416E+03  0.37042455888E+04  0.36017278942E+04 0.  0.
        2    1    3    3  502    0 -0.13393319092E+03 -0.12557417787E+03 -0.22751942132E+04  0.22825896875E+04  0.25500000920E-02 0.  1.
       -2    1    3    3    0  502  0.13393319092E+03  0.12557417787E+03  0.14097512291E+04  0.14216559013E+04  0.25500000920E-02 0. -1.
</event>
<event>
 5   0  0.8024500E-09  0.3600568E+04  0.7818609E-02  0.8090362E-01
       -3   -1    0    0    0  501  0.00000000000E+00  0.00000000000E+00  0.21224841373E+04  0.21224841397E+04  0.10100000352E+00 0. -1.
        3   -1    0    0  501    0  0.00000000000E+00  0.00000000000E+00 -0.15269950749E+04  0.15269950783E+04  0.10100000352E+00 0.  1.
    10030    2    1    2    0    0  0.00000000000E+00  0.00000000000E+00  0.59548906236E+03  0.36494792179E+04  0.36005681967E+04 0.  0.
        3    1    3    3  502    0  0.76304074762E+03 -0.91481859926E+03  0.16658574742E+04  0.20479759243E+04  0.10100000352E+00 0. -1.
       -3    1    3    3    0  502 -0.76304074762E+03  0.91481859926E+03 -0.10703684119E+04  0.16015032936E+04  0.10100000352E+00 0.  1.
</event>
<event>
 5   0  0.2476968E-08  0.3606052E+04  0.7818609E-02  0.8089107E-01
       -2   -1    0    0    0  501  0.00000000000E+00  0.00000000000E+00  0.27364805091E+04  0.27364805091E+04  0.25500000920E-02 0.  1.
        2   -1    0    0  501    0  0.00000000000E+00  0.00000000000E+00 -0.11879868231E+04  0.11879868231E+04  0.25500000920E-02 0. -1.
    10030    2    1    2    0    0  0.00000000000E+00  0.00000000000E+00  0.15484936860E+04  0.39244673322E+04  0.36060520165E+04 0.  0.
        2    1    3    3  502    0  0.88385344086E+03  0.46783201679E+02 -0.93529142446E+03  0.12876939161E+04  0.25500000920E-02 0. -1.
       -2    1    3    3    0  502 -0.88385344086E+03 -0.46783201679E+02  0.24837851104E+04  0.26367734161E+04  0.25500000920E-02 0.  1.
</event>
<event>
 5   0  0.8247570E-09  0.3597129E+04  0.7818609E-02  0.8091150E-01
        1   -1    0    0  501    0  0.00000000000E+00  0.00000000000E+00  0.21405681002E+04  0.21405681002E+04  0.50400001928E-02 0.  1.
       -1   -1    0    0    0  501  0.00000000000E+00  0.00000000000E+00 -0.15112032008E+04  0.15112032008E+04  0.50400001928E-02 0. -1.
    10030    2    1    2    0    0  0.00000000000E+00  0.00000000000E+00  0.62936489947E+03  0.36517713010E+04  0.35971285017E+04 0.  0.
        3    1    3    3  502    0  0.16833325687E+04 -0.42043887815E+03  0.79564714271E+03  0.19087775598E+04  0.10100000352E+00 0.  1.
       -3    1    3    3    0  502 -0.16833325687E+04  0.42043887815E+03 -0.16628224324E+03  0.17429937411E+04  0.10100000352E+00 0. -1.
</event>
<event>
 5   0  0.2608070E-08  0.3587994E+04  0.7818609E-02  0.8093247E-01
        2   -1    0    0  501    0  0.00000000000E+00  0.00000000000E+00  0.19913793369E+04  0.19913793369E+04  0.25500000920E-02 0. -1.
       -2   -1    0    0    0  501  0.00000000000E+00  0.00000000000E+00 -0.16161790296E+04  0.16161790296E+04  0.25500000920E-02 0.  1.
    10030    2    1    2    0    0  0.00000000000E+00  0.00000000000E+00  0.37520030727E+03  0.36075583665E+04  0.35879941607E+04 0.  0.
        3    1    3    3  502    0  0.82599892940E+03 -0.21324801118E+03  0.17743932642E+04  0.19688119290E+04  0.10100000352E+00 0. -1.
       -3    1    3    3    0  502 -0.82599892940E+03  0.21324801118E+03 -0.13991929569E+04  0.16387464375E+04  0.10100000352E+00 0.  1.
</event>
<event>
 5   0  0.8146881E-09  0.3599869E+04  0.7818609E-02  0.8090522E-01
        1   -1    0    0  501    0  0.00000000000E+00  0.00000000000E+00  0.11957917598E+04  0.11957917598E+04  0.50400001928E-02 0. -1.
       -1   -1    0    0    0  501  0.00000000000E+00  0.00000000000E+00 -0.27093049683E+04  0.27093049683E+04  0.50400001928E-02 0.  1.
    10030    2    1    2    0    0  0.00000000000E+00  0.00000000000E+00 -0.15135132085E+04  0.39050967281E+04  0.35998691953E+04 0.  0.
        4    1    3    3  502    0 -0.15646779004E+04 -0.88712696253E+03 -0.82994376711E+03  0.19809137914E+04  0.12699999809E+01 0.  1.
       -4    1    3    3    0  502  0.15646779004E+04  0.88712696253E+03 -0.68356944143E+03  0.19241829367E+04  0.12699999809E+01 0. -1.
</event>
<event>
 5   0  0.8024500E-09  0.3599495E+04  0.7818609E-02  0.8090607E-01
        1   -1    0    0  501    0  0.00000000000E+00  0.00000000000E+00  0.19871694848E+04  0.19871694848E+04  0.50400001928E-02 0.  1.
       -1   -1    0    0    0  501  0.00000000000E+00  0.00000000000E+00 -0.16300026554E+04  0.16300026554E+04  0.50400001928E-02 0. -1.
    10030    2    1    2    0    0  0.00000000000E+00  0.00000000000E+00  0.35716682940E+03  0.36171721402E+04  0.35994952630E+04 0.  0.
        1    1    3    3  502    0  0.11361359271E+03 -0.66736107506E+03 -0.14971828324E+04  0.16431175510E+04  0.50400001928E-02 0. -1.
       -1    1    3    3    0  502 -0.11361359271E+03  0.66736107506E+03  0.18543496618E+04  0.19740545892E+04  0.50400001928E-02 0.  1.
</event>
<event>
 5   0  0.2476968E-08  0.3600024E+04  0.7818609E-02  0.8090486E-01
       -2   -1    0    0    0  501  0.00000000000E+00  0.00000000000E+00  0.20186056485E+04  0.20186056485E+04  0.25500000920E-02 0.  1.
        2   -1    0    0  501    0  0.00000000000E+00  0.00000000000E+00 -0.16050893182E+04  0.16050893182E+04  0.25500000920E-02 0. -1.
    10030    2    1    2    0    0  0.00000000000E+00  0.00000000000E+00  0.41351633038E+03  0.36236949667E+04  0.36000235355E+04 0.  0.
        2    1    3    3  502    0  0.50372944445E+03  0.14851620509E+03  0.19397763391E+04  0.20096100772E+04  0.25500000920E-02 0.  1.
       -2    1    3    3    0  502 -0.50372944445E+03 -0.14851620509E+03 -0.15262600087E+04  0.16140848896E+04  0.25500000920E-02 0. -1.
</event>
<event>
 5   0  0.8024500E-09  0.3601081E+04  0.7818609E-02  0.8090244E-01
       -1   -1    0    0    0  501  0.00000000000E+00  0.00000000000E+00  0.29131268100E+04  0.29131268100E+04  0.50400001928E-02 0.  1.
        1   -1    0    0  501    0  0.00000000000E+00  0.00000000000E+00 -0.11128747234E+04  0.11128747235E+04  0.50400001928E-02 0. -1.
    10030    2    1    2    0    0  0.00000000000E+00  0.00000000000E+00  0.18002520866E+04  0.40260015335E+04  0.36010805007E+04 0.  0.
        5    1    3    3  502    0 -0.15296662166E+04  0.69128624974E+03  0.16282576745E+04  0.23385894377E+04  0.46999998093E+01 0. -1.
       -5    1    3    3    0  502  0.15296662166E+04 -0.69128624974E+03  0.17199441204E+03  0.16874120958E+04  0.46999998093E+01 0.  1.
</event>
<event>
 5   0  0.2590795E-08  0.3613855E+04  0.7818609E-02  0.8087325E-01
       -2   -1    0    0    0  501  0.00000000000E+00  0.00000000000E+00  0.13378859377E+04  0.13378859377E+04  0.25500000920E-02 0. -1.
        2   -1    0    0  501    0  0.00000000000E+00  0.00000000000E+00 -0.24404072199E+04  0.24404072199E+04  0.25500000920E-02 0.  1.
    10030    2    1    2    0    0  0.00000000000E+00  0.00000000000E+00 -0.11025212822E+04  0.37782931576E+04  0.36138547296E+04 0.  0.
        4    1    3    3  502    0  0.99145750786E+03  0.23259905089E+03 -0.21117912071E+04  0.23445157333E+04  0.12699999809E+01 0.  1.
       -4    1    3    3    0  502 -0.99145750786E+03 -0.23259905089E+03  0.10092699249E+04  0.14337774243E+04  0.12699999809E+01 0. -1.
</event>
<event>
 5   0  0.2608070E-08  0.3598024E+04  0.7818609E-02  0.8090944E-01
       -2   -1    0    0    0  501  0.00000000000E+00  0.00000000000E+00  0.11035797395E+04  0.11035797395E+04  0.25500000920E-02 0. -1.
        2   -1    0    0  501    0  0.00000000000E+00  0.00000000000E+00 -0.29326789314E+04  0.29326789314E+04  0.25500000920E-02 0.  1.
    10030    2    1    2    0    0  0.00000000000E+00  0.00000000000E+00 -0.18290991919E+04  0.40362586710E+04  0.35980244865E+04 0.  0.
        3    1    3    3  502    0 -0.65136982802E+03 -0.30883416946E+03 -0.27635730471E+04  0.28560457269E+04  0.10100000352E+00 0.  1.
       -3    1    3    3    0  502  0.65136982802E+03  0.30883416946E+03  0.93447385524E+03  0.11802129441E+04  0.10100000352E+00 0. -1.
</event>
<event>
 5   0  0.2482243E-08  0.3589505E+04  0.7818609E-02  0.8092900E-01
       -2   -1    0    0    0  501  0.00000000000E+00  0.00000000000E+00  0.18470973706E+04  0.18470973706E+04  0.25500000920E-02 0. -1.
        2   -1    0    0  501    0  0.00000000000E+00  0.00000000000E+00 -0.17438910541E+04  0.17438910541E+04  0.25500000920E-02 0.  1.
    10030    2    1    2    0    0  0.00000000000E+00  0.00000000000E+00  0.10320631647E+03  0.35909884247E+04  0.35895050248E+04 0.  0.
        5    1    3    3  502    0  0.37586754205E+03  0.15600242873E+04  0.85577756798E+03  0.18186064781E+04  0.46999998093E+01 0. -1.
       -5    1    3    3    0  502 -0.37586754205E+03 -0.15600242873E+04 -0.75257125150E+03  0.17723819467E+04  0.46999998093E+01 0.  1.
</event>
<event>
 5   0  0.8146881E-09  0.3599731E+04  0.7818609E-02  0.8090553E-01
        1   -1    0    0  501    0  0.00000000000E+00  0.00000000000E+00  0.24682357914E+04  0.24682357914E+04  0.50400001928E-02 0. -1.
       -1   -1    0    0    0  501  0.00000000000E+00  0.00000000000E+00 -0.13124825484E+04  0.13124825484E+04  0.50400001928E-02 0.  1.
    10030    2    1    2    0    0  0.00000000000E+00  0.00000000000E+00  0.11557532430E+04  0.37807183398E+04  0.35997313242E+04 0.  0.
        4    1    3    3  502    0 -0.51960364755E+03  0.93813253796E+03 -0.94028701249E+03  0.14262615076E+04  0.12699999809E+01 0.  1.
       -4    1    3    3    0  502  0.51960364755E+03 -0.93813253796E+03  0.20960402555E+04  0.23544568322E+04  0.12699999809E+01 0. -1.
</event>
<event>
 5   0  0.8247570E-09  0.3600752E+04  0.7818609E-02  0.8090319E-01
        1   -1    0    0  501    0  0.00000000000E+00  0.00000000000E+00  0.20886975976E+04  0.20886975976E+04  0.50400001928E-02 0.  1.
       -1   -1    0    0    0  501  0.00000000000E+00  0.00000000000E+00 -0.15518540144E+04  0.15518540145E+04  0.50400001928E-02 0. -1.
    10030    2    1    2    0    0  0.00000000000E+00  0.00000000000E+00  0.53684358315E+03  0.36405516121E+04  0.36007520058E+04 0.  0.
        3    1    3    3  502    0  0.69147868333E+03  0.33207685964E+03 -0.13783649510E+04  0.15774370855E+04  0.10100000352E+00 0. -1.
       -3    1    3    3    0  502 -0.69147868333E+03 -0.33207685964E+03  0.19152085342E+04  0.20631145266E+04  0.10100000352E+00 0.  1.
</event>
<event>
 5   0  0.8024500E-09  0.3600402E+04  0.7818609E-02  0.8090400E-01
       -1   -1    0    0    0  501  0.00000000000E+00  0.00000000000E+00  0.14660179804E+04  0.14660179804E+04  0.50400001928E-02 0. -1.
        1   -1    0    0  501    0  0.00000000000E+00  0.00000000000E+00 -0.22105616046E+04  0.22105616046E+04  0.50400001928E-02 0.  1.
    10030    2    1    2    0    0  0.00000000000E+00  0.00000000000E+00 -0.74454362423E+03  0.36765795850E+04  0.36004016771E+04 0.  0.
        5    1    3    3  502    0 -0.76016294017E+03  0.86921914012E+03  0.10380032091E+04  0.15526951926E+04  0.46999998093E+01 0. -1.
       -5    1    3    3    0  502  0.76016294017E+03 -0.86921914012E+03 -0.17825468333E+04  0.21238843924E+04  0.46999998093E+01 0.  1.
</event>
<event>
 5   0  0.2590795E-08  0.3601742E+04  0.7818609E-02  0.8090093E-01
        2   -1    0    0  501    0  0.00000000000E+00  0.00000000000E+00  0.15663512352E+04  0.15663512352E+04  0.25500000920E-02 0.  1.
       -2   -1    0    0    0  501  0.00000000000E+00  0.00000000000E+00 -0.20705043420E+04  0.20705043420E+04  0.25500000920E-02 0. -1.
    10030    2    1    2    0    0  0.00000000000E+00  0.00000000000E+00 -0.50415310688E+03  0.36368555772E+04  0.36017423748E+04 0.  0.
        4    1    3    3  502    0  0.15913751915E+04 -0.44368708317E+03  0.47171145983E+03  0.17180938689E+04  0.12699999809E+01 0.  1.
       -4    1    3    3    0  502 -0.15913751915E+04  0.44368708317E+03 -0.97586456671E+03  0.19187617083E+04  0.12699999809E+01 0. -1.
</event>
<event>
 5   0  0.2494592E-08  0.3598722E+04  0.7818609E-02  0.8090785E-01
        2   -1    0    0  501    0  0.00000000000E+00  0.00000000000E+00  0.20966119609E+04  0.20966119609E+04  0.25500000920E-02 0.  1.
       -2   -1    0    0    0  501  0.00000000000E+00  0.00000000000E+00 -0.15442532514E+04  0.15442532514E+04  0.25500000920E-02 0. -1.
    10030    2    1    2    0    0  0.00000000000E+00  0.00000000000E+00  0.55235870947E+03  0.36408652123E+04  0.35987219051E+04 0.  0.
        1    1    3    3  502    0 -0.21002572405E+03  0.17602147242E+04 -0.36033230708E+02  0.17730665734E+04  0.50400001928E-02 0. -1.
       -1    1    3    3    0  502  0.21002572405E+03 -0.17602147242E+04  0.58839194017E+03  0.18677986389E+04  0.50400001928E-02 0.  1.
</event>
<event>
 5   0  0.2482243E-08  0.3598926E+04  0.7818609E-02  0.8090738E-01
        2   -1    0    0  501    0  0.00000000000E+00  0.00000000000E+00  0.20854691104E+04  0.20854691104E+04  0.25500000920E-02 0.  1.
       -2   -1    0    0    0  501  0.00000000000E+00  0.00000000000E+00 -0.15526806851E+04  0.15526806851E+04  0.25500000920E-02 0. -1.
    10030    2    1    2    0    0  0.00000000000E+00  0.00000000000E+00  0.53278842535E+03  0.36381497955E+04  0.35989262883E+04 0.  0.
        5    1    3    3  502    0 -0.77173403569E+03  0.33712540948E+03  0.18739515034E+04  0.20544934390E+04  0.46999998093E+01 0.  1.
       -5    1    3    3    0  502  0.77173403569E+03 -0.33712540948E+03 -0.13411630781E+04  0.15836563565E+04  0.46999998093E+01 0. -1.
</event>
<event>
 5   0  0.2590795E-08  0.3599545E+04  0.7818609E-02  0.8090596E-01
       -2   -1    0    0    0  501  0.00000000000E+00  0.00000000000E+00  0.13619443150E+04  0.13619443150E+04  0.25500000920E-02 0. -1.
        2   -1    0    0  501    0  0.00000000000E+00  0.00000000000E+00 -0.23783509948E+04  0.23783509948E+04  0.25500000920E-02 0.  1.
    10030    2    1    2    0    0  0.00000000000E+00  0.00000000000E+00 -0.10164066798E+04  0.37402953098E+04  0.35995453137E+04 0.  0.
        4    1    3    3  502    0 -0.55646317137E+03 -0.98822278739E+03  0.94391895826E+03  0.14755406302E+04  0.12699999809E+01 0. -1.
       -4    1    3    3    0  502  0.55646317137E+03  0.98822278739E+03 -0.19603256381E+04  0.22647546796E+04  0.12699999809E+01 0.  1.
</event>
<event>
 5   0  0.2476968E-08  0.3599374E+04  0.7818609E-02  0.8090635E-01
        2   -1    0    0  501    0  0.00000000000E+00  0.00000000000E+00  0.26375611116E+04  0.26375611116E+04  0.25500000920E-02 0.  1.
       -2   -1    0    0    0  501  0.00000000000E+00  0.00000000000E+00 -0.12279803751E+04  0.12279803751E+04  0.25500000920E-02 0. -1.
    10030    2    1    2    0    0  0.00000000000E+00  0.00000000000E+00  0.14095807365E+04  0.38655414868E+04  0.35993739918E+04 0.  0.
        2    1    3    3  502    0  0.53390053217E+03  0.10287005952E+04  0.21834102892E+04  0.24719537180E+04  0.25500000920E-02 0.  1.
       -2    1    3    3    0  502 -0.53390053217E+03 -0.10287005952E+04 -0.77382955268E+03  0.13935877688E+04  0.25500000920E-02 0. -1.
</event>
<event>
 5   0  0.2482243E-08  0.3600666E+04  0.7818609E-02  0.8090339E-01
       -2   -1    0    0    0  501  0.00000000000E+00  0.00000000000E+00  0.14455613860E+04  0.14455613861E+04  0.25500000920E-02 0.  1.
        2   -1    0    0  501    0  0.00000000000E+00  0.00000000000E+00 -0.22421735439E+04  0.22421735439E+04  0.25500000920E-02 0. -1.
    10030    2    1    2    0    0  0.00000000000E+00  0.00000000000E+00 -0.79661215788E+03  0.36877349300E+04  0.36006663250E+04 0.  0.
        5    1    3    3  502    0  0.30190826581E+03  0.23799897798E+03  0.14030261859E+04  0.14547496976E+04  0.46999998093E+01 0.  1.
       -5    1    3    3    0  502 -0.30190826581E+03 -0.23799897798E+03 -0.21996383438E+04  0.22329852323E+04  0.46999998093E+01 0. -1.
</event>
<event>
 5   0  0.2482243E-08  0.3600810E+04  0.7818609E-02  0.8090306E-01
       -2   -1    0    0    0  501  0.00000000000E+00  0.00000000000E+00  0.14622705023E+04  0.14622705023E+04  0.25500000920E-02 0.  1.
        2   -1    0    0  501    0  0.00000000000E+00  0.00000000000E+00 -0.22167290761E+04  0.22167290761E+04  0.25500000920E-02 0. -1.
    10030    2    1    2    0    0  0.00000000000E+00  0.00000000000E+00 -0.75445857381E+03  0.36789995784E+04  0.36008096532E+04 0.  0.
        5    1    3    3  502    0 -0.16069020763E+04 -0.37351066940E+03  0.35939143067E+03  0.16884397512E+04  0.46999998093E+01 0.  1.
       -5    1    3    3    0  502  0.16069020763E+04  0.37351066940E+03 -0.11138500045E+04  0.19905598272E+04  0.46999998093E+01 0. -1.
</event>
<event>
 5   0  0.8063410E-09  0.3599350E+04  0.7818609E-02  0.8090641E-01
        1   -1    0    0  501    0  0.00000000000E+00  0.00000000000E+00  0.15728851719E+04  0.15728851719E+04  0.50400001928E-02 0. -1.
       -1   -1    0    0    0  501  0.00000000000E+00  0.00000000000E+00 -0.20591650851E+04  0.20591650851E+04  0.50400001928E-02 0.  1.
    10030    2    1    2    0    0  0.00000000000E+00  0.00000000000E+00 -0.48627991321E+03  0.36320502571E+04  0.35993500685E+04 0.  0.
        2    1    3    3  502    0  0.18466339624E+03  0.14805221354E+04  0.77237458974E+03  0.16800621626E+04  0.25500000920E-02 0.  1.
       -2    1    3    3    0  502 -0.18466339624E+03 -0.14805221354E+04 -0.12586545030E+04  0.19519880945E+04  0.25500000920E-02 0. -1.
</event>
<event>
 5   0  0.8063410E-09  0.3599697E+04  0.7818609E-02  0.8090561E-01
       -1   -1    0    0    0  501  0.00000000000E+00  0.00000000000E+00  0.13798410218E+04  0.13798410218E+04  0.50400001928E-02 0.  1.
        1   -1    0    0  501    0  0.00000000000E+00  0.00000000000E+00 -0.23477011105E+04  0.23477011105E+04  0.50400001928E-02 0. -1.
    10030    2    1    2    0    0  0.00000000000E+00  0.00000000000E+00 -0.96786008874E+03  0.37275421324E+04  0.35996968202E+04 0.  0.
        2    1    3    3  502    0  0.24014096614E+03  0.56052309716E+03  0.12696110911E+04  0.14084623349E+04  0.25500000920E-02 0.  1.
       -2    1    3    3    0  502 -0.24014096614E+03 -0.56052309716E+03 -0.22374711799E+04  0.23190797974E+04  0.25500000920E-02 0. -1.
</event>
<event>
 5   0  0.8063410E-09  0.3598725E+04  0.7818609E-02  0.8090784E-01
        1   -1    0    0  501    0  0.00000000000E+00  0.00000000000E+00  0.18169362981E+04  0.18169362981E+04  0.50400001928E-02 0.  1.
       -1   -1    0    0    0  501  0.00000000000E+00  0.00000000000E+00 -0.17819581921E+04  0.17819581921E+04  0.50400001928E-02 0. -1.
    10030    2    1    2    0    0  0.00000000000E+00  0.00000000000E+00  0.34978106039E+02  0.35988944902E+04  0.35987245079E+04 0.  0.
        2    1    3    3  502    0 -0.32784693214E+03 -0.16052257733E+04  0.76148059417E+03  0.18066781920E+04  0.25500000920E-02 0.  1.
       -2    1    3    3    0  502  0.32784693214E+03  0.16052257733E+04 -0.72650248813E+03  0.17922162982E+04  0.25500000920E-02 0. -1.
</event>
<event>
 5   0  0.8024500E-09  0.3592295E+04  0.7818609E-02  0.8092259E-01
        1   -1    0    0  501    0  0.00000000000E+00  0.00000000000E+00  0.10804691854E+04  0.10804691854E+04  0.50400001928E-02 0.  1.
       -1   -1    0    0    0  501  0.00000000000E+00  0.00000000000E+00 -0.29858747930E+04  0.29858747930E+04  0.50400001928E-02 0. -1.
    10030    2    1    2    0    0  0.00000000000E+00  0.00000000000E+00 -0.19054056076E+04  0.40663439784E+04  0.35922949240E+04 0.  0.
        5    1    3    3  502    0 -0.10537679628E+04 -0.14443755196E+04 -0.75836074388E+03  0.19421072754E+04  0.46999998093E+01 0.  1.
       -5    1    3    3    0  502  0.10537679628E+04  0.14443755196E+04 -0.11470448637E+04  0.21242367031E+04  0.46999998093E+01 0. -1.
</event>
<event>
 5   0  0.2608070E-08  0.3598809E+04  0.7818609E-02  0.8090765E-01
       -2   -1    0    0    0  501  0.00000000000E+00  0.00000000000E+00  0.13902126362E+04  0.13902126362E+04  0.25500000920E-02 0.  1.
        2   -1    0    0  501    0  0.00000000000E+00  0.00000000000E+00 -0.23290365097E+04  0.23290365097E+04  0.25500000920E-02 0. -1.
    10030    2    1    2    0    0  0.00000000000E+00  0.00000000000E+00 -0.93882387351E+03  0.37192491460E+04  0.35988086840E+04 0.  0.
        3    1    3    3  502    0  0.65721956651E+03  0.10593297545E+03 -0.21970940905E+04  0.22957312139E+04  0.10100000352E+00 0. -1.
       -3    1    3    3    0  502 -0.65721956651E+03 -0.10593297545E+03  0.12582702169E+04  0.14235179321E+04  0.10100000352E+00 0.  1.
</event>
<event>
 5   0  0.8247570E-09  0.3600344E+04  0.7818609E-02  0.8090413E-01
        1   -1    0    0  501    0  0.00000000000E+00  0.00000000000E+00  0.22201525892E+04  0.22201525892E+04  0.50400001928E-02 0. -1.
       -1   -1    0    0    0  501  0.00000000000E+00  0.00000000000E+00 -0.14596384619E+04  0.14596384619E+04  0.50400001928E-02 0.  1.
    10030    2    1    2    0    0  0.00000000000E+00  0.00000000000E+00  0.76051412727E+03  0.36797910510E+04  0.36003444893E+04 0.  0.
        3    1    3    3  502    0 -0.13437570916E+04 -0.99385431599E+03  0.10637364550E+04  0.19811523865E+04  0.10100000352E+00 0. -1.
       -3    1    3    3    0  502  0.13437570916E+04  0.99385431599E+03 -0.30322232773E+03  0.16986386646E+04  0.10100000352E+00 0.  1.
</event>
<event>
 5   0  0.8063410E-09  0.3601758E+04  0.7818609E-02  0.8090089E-01
       -1   -1    0    0    0  501  0.00000000000E+00  0.00000000000E+00  0.19339025005E+04  0.19339025005E+04  0.50400001928E-02 0. -1.
        1   -1    0    0  501    0  0.00000000000E+00  0.00000000000E+00 -0.16770053237E+04  0.16770053237E+04  0.50400001928E-02 0.  1.
    10030    2    1    2    0    0  0.00000000000E+00  0.00000000000E+00  0.25689717680E+03  0.36109078243E+04  0.36017577870E+04 0.  0.
        2    1    3    3  502    0 -0.22954913521E+03  0.94584489673E+03 -0.13906067600E+04  0.16973810813E+04  0.25500000920E-02 0.  1.
       -2    1    3    3    0  502  0.22954913521E+03 -0.94584489673E+03  0.16475039368E+04  0.19135267430E+04  0.25500000920E-02 0. -1.
</event>
<event>
 5   0  0.8024500E-09  0.3599301E+04  0.7818609E-02  0.8090652E-01
       -1   -1    0    0    0  501  0.00000000000E+00  0.00000000000E+00  0.13105149197E+04  0.13105149197E+04  0.50400001928E-02 0. -1.
        1   -1    0    0  501    0  0.00000000000E+00  0.00000000000E+00 -0.24713510159E+04  0.24713510160E+04  0.50400001928E-02 0.  1.
    10030    2    1    2    0    0  0.00000000000E+00  0.00000000000E+00 -0.11608360962E+04  0.37818659357E+04  0.35993012535E+04 0.  0.
        5    1    3    3  502    0  0.88246745792E+03 -0.51809930075E+03 -0.21358932339E+04  0.23683829286E+04  0.46999998093E+01 0.  1.
       -5    1    3    3    0  502 -0.88246745792E+03  0.51809930075E+03  0.97505713766E+03  0.14134830071E+04  0.46999998093E+01 0. -1.
</event>
<event>
 5   0  0.2476968E-08  0.3598826E+04  0.7818609E-02  0.8090761E-01
       -2   -1    0    0    0  501  0.00000000000E+00  0.00000000000E+00  0.20393729611E+04  0.20393729611E+04  0.25500000920E-02 0.  1.
        2   -1    0    0  501    0  0.00000000000E+00  0.00000000000E+00 -0.15876873137E+04  0.15876873137E+04  0.25500000920E-02 0. -1.
    10030    2    1    2    0    0  0.00000000000E+00  0.00000000000E+00  0.45168564734E+03  0.36270602748E+04  0.35988256852E+04 0.  0.
        2    1    3    3  502    0  0.15145814215E+04 -0.93447945967E+03 -0.42095959809E+02  0.17801631422E+04  0.25500000920E-02 0. -1.
       -2    1    3    3    0  502 -0.15145814215E+04  0.93447945967E+03  0.49378160715E+03  0.18468971326E+04  0.25500000920E-02 0.  1.
</event>
<event>
 5   0  0.2590795E-08  0.3601200E+04  0.7818609E-02  0.8090217E-01
       -2   -1    0    0    0  501  0.00000000000E+00  0.00000000000E+00  0.12672379183E+04  0.12672379183E+04  0.25500000920E-02 0.  1.
        2   -1    0    0  501    0  0.00000000000E+00  0.00000000000E+00 -0.25584460672E+04  0.25584460672E+04  0.25500000920E-02 0. -1.
    10030    2    1    2    0    0  0.00000000000E+00  0.00000000000E+00 -0.12912081489E+04  0.38256839855E+04  0.36011997269E+04 0.  0.
        4    1    3    3  502    0  0.92979393527E+03 -0.12052434828E+04  0.37613430940E+03  0.15679946576E+04  0.12699999809E+01 0.  1.
       -4    1    3    3    0  502 -0.92979393527E+03  0.12052434828E+04 -0.16673424583E+04  0.22576893278E+04  0.12699999809E+01 0. -1.
</event>
<event>
 5   0  0.8247570E-09  0.3599689E+04  0.7818609E-02  0.8090563E-01
        1   -1    0    0  501    0  0.00000000000E+00  0.00000000000E+00  0.19175217646E+04  0.19175217646E+04  0.50400001928E-02 0. -1.
       -1   -1    0    0    0  501  0.00000000000E+00  0.00000000000E+00 -0.16893894773E+04  0.16893894773E+04  0.50400001928E-02 0.  1.
    10030    2    1    2    0    0  0.00000000000E+00  0.00000000000E+00  0.22813228737E+03  0.36069112419E+04  0.35996894820E+04 0.  0.
        3    1    3    3  502    0  0.60439044577E+03 -0.16033715146E+04 -0.43781379070E+03  0.17685499570E+04  0.10100000352E+00 0. -1.
       -3    1    3    3    0  502 -0.60439044577E+03  0.16033715146E+04  0.66594607806E+03  0.18383612849E+04  0.10100000352E+00 0.  1.
</event>
<event>
 5   0  0.2476968E-08  0.3601230E+04  0.7818609E-02  0.8090210E-01
        2   -1    0    0  501    0  0.00000000000E+00  0.00000000000E+00  0.15805761847E+04  0.15805761847E+04  0.25500000920E-02 0.  1.
       -2   -1    0    0    0  501  0.00000000000E+00  0.00000000000E+00 -0.20512861430E+04  0.20512861430E+04  0.25500000920E-02 0. -1.
    10030    2    1    2    0    0  0.00000000000E+00  0.00000000000E+00 -0.47070995829E+03  0.36318623277E+04  0.36012298042E+04 0.  0.
        2    1    3    3  502    0  0.55859154104E+03 -0.14807063498E+04 -0.11015544416E+04  0.19281955274E+04  0.25500000920E-02 0. -1.
       -2    1    3    3    0  502 -0.55859154104E+03  0.14807063498E+04  0.63084448333E+03  0.17036668003E+04  0.25500000920E-02 0.  1.
</event>
<event>
 5   0  0.8024500E-09  0.3600747E+04  0.7818609E-02  0.8090321E-01
        1   -1    0    0  501    0  0.00000000000E+00  0.00000000000E+00  0.19015300989E+04  0.19015300989E+04  0.50400001928E-02 0. -1.
       -1   -1    0    0    0  501  0.00000000000E+00  0.00000000000E+00 -0.17045986021E+04  0.17045986021E+04  0.50400001928E-02 0.  1.
    10030    2    1    2    0    0  0.00000000000E+00  0.00000000000E+00  0.19693149679E+03  0.36061287009E+04  0.36007474492E+04 0.  0.
        5    1    3    3  502    0  0.62859833367E+03 -0.16711971133E+04  0.32965224470E+03  0.18156894969E+04  0.46999998093E+01 0. -1.
       -5    1    3    3    0  502 -0.62859833367E+03  0.16711971133E+04 -0.13272074791E+03  0.17904392041E+04  0.46999998093E+01 0.  1.
</event>
<event>
 5   0  0.8146881E-09  0.3600140E+04  0.7818609E-02  0.8090460E-01
       -1   -1    0    0    0  501  0.00000000000E+00  0.00000000000E+00  0.21023524350E+04  0.21023524350E+04  0.50400001928E-02 0.  1.
        1   -1    0    0  501    0  0.00000000000E+00  0.00000000000E+00 -0.15412503941E+04  0.15412503941E+04  0.50400001928E-02 0. -1.
    10030    2    1    2    0    0  0.00000000000E+00  0.00000000000E+00  0.56110204083E+03  0.36436028291E+04  0.36001397300E+04 0.  0.
        4    1    3    3  502    0 -0.16390198755E+04 -0.71599456271E+03  0.48601806289E+03  0.18534426176E+04  0.12699999809E+01 0. -1.
       -4    1    3    3    0  502  0.16390198755E+04  0.71599456271E+03  0.75083977940E+02  0.17901602115E+04  0.12699999809E+01 0.  1.
</event>
<event>
 5   0  0.8063410E-09  0.3597605E+04  0.7818609E-02  0.8091040E-01
        1   -1    0    0  501    0  0.00000000000E+00  0.00000000000E+00  0.13414047045E+04  0.13414047045E+04  0.50400001928E-02 0. -1.
       -1   -1    0    0    0  501  0.00000000000E+00  0.00000000000E+00 -0.24121660543E+04  0.24121660543E+04  0.50400001928E-02 0.  1.
    10030    2    1    2    0    0  0.00000000000E+00  0.00000000000E+00 -0.10707613498E+04  0.37535707589E+04  0.35976052554E+04 0.  0.
        2    1    3    3  502    0  0.25763616477E+03  0.36701376454E+03 -0.23529162773E+04  0.23952641827E+04  0.25500000920E-02 0.  1.
       -2    1    3    3    0  502 -0.25763616477E+03 -0.36701376454E+03  0.12821549275E+04  0.13583065762E+04  0.25500000920E-02 0. -1.
</event>
<event>
 5   0  0.8024500E-09  0.3601117E+04  0.7818609E-02  0.8090236E-01
       -1   -1    0    0    0  501  0.00000000000E+00  0.00000000000E+00  0.17378913755E+04  0.17378913755E+04  0.50400001928E-02 0.  1.
        1   -1    0    0  501    0  0.00000000000E+00  0.00000000000E+00 -0.18654856335E+04  0.18654856335E+04  0.50400001928E-02 0. -1.
    10030    2    1    2    0    0  0.00000000000E+00  0.00000000000E+00 -0.12759425795E+03  0.36033770090E+04  0.36011172675E+04 0.  0.
        5    1    3    3  502    0 -0.75581778946E+03  0.90626281165E+03  0.12969887750E+04  0.17535035749E+04  0.46999998093E+01 0.  1.
       -5    1    3    3    0  502  0.75581778946E+03 -0.90626281165E+03 -0.14245830329E+04  0.18498734342E+04  0.46999998093E+01 0. -1.
</event>
<event>
 5   0  0.8024500E-09  0.3600115E+04  0.7818609E-02  0.8090465E-01
        1   -1    0    0  501    0  0.00000000000E+00  0.00000000000E+00  0.13305224048E+04  0.13305224048E+04  0.50400001928E-02 0.  1.
       -1   -1    0    0    0  501  0.00000000000E+00  0.00000000000E+00 -0.24352892143E+04  0.24352892143E+04  0.50400001928E-02 0. -1.
    10030    2    1    2    0    0  0.00000000000E+00  0.00000000000E+00 -0.11047668095E+04  0.37658116191E+04  0.36001149214E+04 0.  0.
        1    1    3    3  502    0 -0.13082708603E+04 -0.74979838680E+03 -0.15807048915E+04  0.21845819322E+04  0.50400001928E-02 0. -1.
       -1    1    3    3    0  502  0.13082708603E+04  0.74979838680E+03  0.47593808195E+03  0.15812296869E+04  0.50400001928E-02 0.  1.
</event>
<event>
 5   0  0.2608070E-08  0.3600054E+04  0.7818609E-02  0.8090479E-01
        2   -1    0    0  501    0  0.00000000000E+00  0.00000000000E+00  0.22146878955E+04  0.22146878955E+04  0.25500000920E-02 0. -1.
       -2   -1    0    0    0  501  0.00000000000E+00  0.00000000000E+00 -0.14630038104E+04  0.14630038104E+04  0.25500000920E-02 0.  1.
    10030    2    1    2    0    0  0.00000000000E+00  0.00000000000E+00  0.75168408507E+03  0.36776917059E+04  0.36000537940E+04 0.  0.
        3    1    3    3  502    0  0.16279870735E+04 -0.70631349273E+03  0.67884170537E+02  0.17759022868E+04  0.10100000352E+00 0. -1.
       -3    1    3    3    0  502 -0.16279870735E+04  0.70631349273E+03  0.68379991454E+03  0.19017894191E+04  0.10100000352E+00 0.  1.
</event>
<event>
 5   0  0.2608070E-08  0.3600266E+04  0.7818609E-02  0.8090431E-01
        2   -1    0    0  501    0  0.00000000000E+00  0.00000000000E+00  0.13743190419E+04  0.13743190419E+04  0.25500000920E-02 0.  1.
       -2   -1    0    0    0  501  0.00000000000E+00  0.00000000000E+00 -0.23578795478E+04  0.23578795478E+04  0.25500000920E-02 0. -1.
    10030    2    1    2    0    0  0.00000000000E+00  0.00000000000E+00 -0.98356050594E+03  0.37321985897E+04  0.36002659685E+04 0.  0.
        3    1    3    3  502    0 -0.15479613764E+04  0.91857860539E+03 -0.51513754006E+03  0.18722547296E+04  0.10100000352E+00 0. -1.
       -3    1    3    3    0  502  0.15479613764E+04 -0.91857860539E+03 -0.46842296588E+03  0.18599438600E+04  0.10100000352E+00 0.  1.
</event>
<event>
 5   0  0.8024500E-09  0.3603590E+04  0.7818609E-02  0.8089670E-01
        1   -1    0    0  501    0  0.00000000000E+00  0.00000000000E+00  0.13829449678E+04  0.13829449678E+04  0.50400001928E-02 0.  1.
       -1   -1    0    0    0  501  0.00000000000E+00  0.00000000000E+00 -0.23475010151E+04  0.23475010151E+04  0.50400001928E-02 0. -1.
    10030    2    1    2    0    0  0.00000000000E+00  0.00000000000E+00 -0.96455604728E+03  0.37304459828E+04  0.36035897190E+04 0.  0.
        5    1    3    3  502    0 -0.66019703530E+03 -0.10121632418E+04  0.90122235763E+03  0.15075007069E+04  0.46999998093E+01 0.  1.
       -5    1    3    3    0  502  0.66019703530E+03  0.10121632418E+04 -0.18657784049E+04  0.22229452759E+04  0.46999998093E+01 0. -1.
</event>
<event>
 5   0  0.8247570E-09  0.3590391E+04  0.7818609E-02  0.8092696E-01
        1   -1    0    0  501    0  0.00000000000E+00  0.00000000000E+00  0.11995525888E+04  0.11995525888E+04  0.50400001928E-02 0. -1.
       -1   -1    0    0    0  501  0.00000000000E+00  0.00000000000E+00 -0.26866071073E+04  0.26866071073E+04  0.50400001928E-02 0.  1.
    10030    2    1    2    0    0  0.00000000000E+00  0.00000000000E+00 -0.14870545185E+04  0.38861596962E+04  0.35903907925E+04 0.  0.
        3    1    3    3  502    0 -0.92109060698E+03 -0.14298499509E+04 -0.12189197102E+03  0.17052086239E+04  0.10100000352E+00 0. -1.
       -3    1    3    3    0  502  0.92109060698E+03  0.14298499509E+04 -0.13651625475E+04  0.21809510722E+04  0.10100000352E+00 0.  1.
</event>
<event>
 5   0  0.8247570E-09  0.3601750E+04  0.7818609E-02  0.8090091E-01
       -1   -1    0    0    0  501  0.00000000000E+00  0.00000000000E+00  0.21331014108E+04  0.21331014108E+04  0.50400001928E-02 0. -1.
        1   -1    0    0  501    0  0.00000000000E+00  0.00000000000E+00 -0.15203924756E+04  0.15203924756E+04  0.50400001928E-02 0.  1.
    10030    2    1    2    0    0  0.00000000000E+00  0.00000000000E+00  0.61270893512E+03  0.36534938864E+04  0.36017503160E+04 0.  0.
        3    1    3    3  502    0 -0.86945221761E+03 -0.15666912922E+03  0.18981853191E+04  0.20937048241E+04  0.10100000352E+00 0. -1.
       -3    1    3    3    0  502  0.86945221761E+03  0.15666912922E+03 -0.12854763840E+04  0.15597890623E+04  0.10100000352E+00 0.  1.
</event>
<event>
 5   0  0.2476968E-08  0.3600246E+04  0.7818609E-02  0.8090435E-01
        2   -1    0    0  501    0  0.00000000000E+00  0.00000000000E+00  0.12957878360E+04  0.12957878360E+04  0.25500000920E-02 0.  1.
       -2   -1    0    0    0  501  0.00000000000E+00  0.00000000000E+00 -0.25007517078E+04  0.25007517078E+04  0.25500000920E-02 0. -1.
    10030    2    1    2    0    0  0.00000000000E+00  0.00000000000E+00 -0.12049638718E+04  0.37965395437E+04  0.36002464603E+04 0.  0.
        2    1    3    3  502    0  0.10407498350E+04  0.44568123787E+03 -0.20783050164E+04  0.23666735571E+04  0.25500000920E-02 0. -1.
       -2    1    3    3    0  502 -0.10407498350E+04 -0.44568123787E+03  0.87334114455E+03  0.14298659866E+04  0.25500000920E-02 0.  1.
</event>
<event>
 5   0  0.2476968E-08  0.3600227E+04  0.7818609E-02  0.8090440E-01
        2   -1    0    0  501    0  0.00000000000E+00  0.00000000000E+00  0.23404434412E+04  0.23404434412E+04  0.25500000920E-02 0.  1.
       -2   -1    0    0    0  501  0.00000000000E+00  0.00000000000E+00 -0.13845274128E+04  0.13845274128E+04  0.25500000920E-02 0. -1.
    10030    2    1    2    0    0  0.00000000000E+00  0.00000000000E+00  0.95591602842E+03  0.37249708541E+04  0.36002267165E+04 0.  0.
        2    1    3    3  502    0 -0.16064963684E+04  0.44738941612E+03 -0.22333269702E+03  0.16825175675E+04  0.25500000920E-02 0. -1.
       -2    1    3    3    0  502  0.16064963684E+04 -0.44738941612E+03  0.11792487254E+04  0.20424532866E+04  0.25500000920E-02 0.  1.
</event>
<event>
 5   0  0.8146881E-09  0.3598080E+04  0.7818609E-02  0.8090932E-01
        1   -1    0    0  501    0  0.00000000000E+00  0.00000000000E+00  0.22820219724E+04  0.22820219724E+04  0.50400001928E-02 0.  1.
       -1   -1    0    0    0  501  0.00000000000E+00  0.00000000000E+00 -0.14182797460E+04  0.14182797461E+04  0.50400001928E-02 0. -1.
    10030    2    1    2    0    0  0.00000000000E+00  0.00000000000E+00  0.86374222630E+03  0.37003017184E+04  0.35980803457E+04 0.  0.
        4    1    3    3  502    0  0.17045526219E+03 -0.15195552322E+04  0.14066610132E+04  0.20776910066E+04  0.12699999809E+01 0.  1.
       -4    1    3    3    0  502 -0.17045526219E+03  0.15195552322E+04 -0.54291878685E+03  0.16226107118E+04  0.12699999809E+01 0. -1.
</event>
<event>
 5   0  0.2494592E-08  0.3601409E+04  0.7818609E-02  0.8090169E-01
        2   -1    0    0  501    0  0.00000000000E+00  0.00000000000E+00  0.15823955353E+04  0.15823955353E+04  0.25500000920E-02 0.  1.
       -2   -1    0    0    0  501  0.00000000000E+00  0.00000000000E+00 -0.20491316540E+04  0.20491316540E+04  0.25500000920E-02 0. -1.
    10030    2    1    2    0    0  0.00000000000E+00  0.00000000000E+00 -0.46673611874E+03  0.36315271893E+04  0.36014090467E+04 0.  0.
        1    1    3    3  502    0  0.16611858113E+04  0.34971761535E+03 -0.83897041299E+03  0.18935976510E+04  0.50400001928E-02 0.  1.
       -1    1    3    3    0  502 -0.16611858113E+04 -0.34971761535E+03  0.37223429425E+03  0.17379295382E+04  0.50400001928E-02 0. -1.
</event>
<event>
 5   0  0.2482243E-08  0.3599482E+04  0.7818609E-02  0.8090610E-01
       -2   -1    0    0    0  501  0.00000000000E+00  0.00000000000E+00  0.18505805153E+04  0.18505805153E+04  0.25500000920E-02 0.  1.
        2   -1    0    0  501    0  0.00000000000E+00  0.00000000000E+00 -0.17502985109E+04  0.17502985109E+04  0.25500000920E-02 0. -1.
    10030    2    1    2    0    0  0.00000000000E+00  0.00000000000E+00  0.10028200440E+03  0.36008790261E+04  0.35994823628E+04 0.  0.
        5    1    3    3  502    0 -0.55229342222E+03  0.12474229043E+02  0.17636578020E+04  0.18481597775E+04  0.46999998093E+01 0.  1.
       -5    1    3    3    0  502  0.55229342222E+03 -0.12474229043E+02 -0.16633757976E+04  0.17527192486E+04  0.46999998093E+01 0. -1.
</event>
<event>
 5   0  0.2482243E-08  0.3600599E+04  0.7818609E-02  0.8090354E-01
       -2   -1    0    0    0  501  0.00000000000E+00  0.00000000000E+00  0.15857336802E+04  0.15857336802E+04  0.25500000920E-02 0.  1.
        2   -1    0    0  501    0  0.00000000000E+00  0.00000000000E+00 -0.20438984038E+04  0.20438984038E+04  0.25500000920E-02 0. -1.
    10030    2    1    2    0    0  0.00000000000E+00  0.00000000000E+00 -0.45816472360E+03  0.36296320840E+04  0.36005991379E+04 0.  0.
        5    1    3    3  502    0 -0.10720051535E+04  0.52991628023E+03  0.11275215608E+04  0.16435733246E+04  0.46999998093E+01 0.  1.
       -5    1    3    3    0  502  0.10720051535E+04 -0.52991628023E+03 -0.15856862844E+04  0.19860587594E+04  0.46999998093E+01 0. -1.
</event>
<event>
 5   0  0.2476968E-08  0.3599253E+04  0.7818609E-02  0.8090663E-01
       -2   -1    0    0    0  501  0.00000000000E+00  0.00000000000E+00  0.15403116499E+04  0.15403116499E+04  0.25500000920E-02 0. -1.
        2   -1    0    0  501    0  0.00000000000E+00  0.00000000000E+00 -0.21025974681E+04  0.21025974681E+04  0.25500000920E-02 0.  1.
    10030    2    1    2    0    0  0.00000000000E+00  0.00000000000E+00 -0.56228581818E+03  0.36429091181E+04  0.35992529087E+04 0.  0.
        2    1    3    3  502    0 -0.17621381991E+04  0.22398181949E+03 -0.57336004153E+03  0.18665584977E+04  0.25500000920E-02 0. -1.
       -2    1    3    3    0  502  0.17621381991E+04 -0.22398181949E+03  0.11074223352E+02  0.17763506204E+04  0.25500000920E-02 0.  1.
</event>
<event>
 5   0  0.8024500E-09  0.3600269E+04  0.7818609E-02  0.8090430E-01
       -3   -1    0    0    0  501  0.00000000000E+00  0.00000000000E+00  0.27585054112E+04  0.27585054130E+04  0.10100000352E+00 0.  1.
        3   -1    0    0  501    0  0.00000000000E+00  0.00000000000E+00 -0.11747243156E+04  0.11747243200E+04  0.10100000352E+00 0. -1.
    10030    2    1    2    0    0  0.00000000000E+00  0.00000000000E+00  0.15837810956E+04  0.39332297330E+04  0.36002685419E+04 0.  0.
        4    1    3    3  502    0 -0.60450616756E+03 -0.11063226476E+04 -0.61189791409E+03  0.14013558354E+04  0.12699999809E+01 0. -1.
       -4    1    3    3    0  502  0.60450616756E+03  0.11063226476E+04  0.21956790097E+04  0.25318738976E+04  0.12699999809E+01 0.  1.
</event>
<event>
 5   0  0.2608070E-08  0.3598626E+04  0.7818609E-02  0.8090806E-01
        2   -1    0    0  501    0  0.00000000000E+00  0.00000000000E+00  0.16273430067E+04  0.16273430067E+04  0.25500000920E-02 0. -1.
       -2   -1    0    0    0  501  0.00000000000E+00  0.00000000000E+00 -0.19894564361E+04  0.19894564361E+04  0.25500000920E-02 0.  1.
    10030    2    1    2    0    0  0.00000000000E+00  0.00000000000E+00 -0.36211342939E+03  0.36167994428E+04  0.35986264149E+04 0.  0.
        3    1    3    3  502    0  0.11791003673E+04 -0.18792454509E+03 -0.15339356490E+04  0.19438497618E+04  0.10100000352E+00 0.  1.
       -3    1    3    3    0  502 -0.11791003673E+04  0.18792454509E+03  0.11718222196E+04  0.16729496811E+04  0.10100000352E+00 0. -1.
</event>
<event>
 5   0  0.8247570E-09  0.3600103E+04  0.7818609E-02  0.8090468E-01
       -1   -1    0    0    0  501  0.00000000000E+00  0.00000000000E+00  0.24560108025E+04  0.24560108025E+04  0.50400001928E-02 0.  1.
        1   -1    0    0  501    0  0.00000000000E+00  0.00000000000E+00 -0.13192879183E+04  0.13192879183E+04  0.50400001928E-02 0. -1.
    10030    2    1    2    0    0  0.00000000000E+00  0.00000000000E+00  0.11367228842E+04  0.37752987208E+04  0.36001029869E+04 0.  0.
        3    1    3    3  502    0 -0.35785650566E+02  0.15180894677E+04 -0.44527377559E+03  0.15824490482E+04  0.10100000352E+00 0. -1.
       -3    1    3    3    0  502  0.35785650566E+02 -0.15180894677E+04  0.15819966598E+04  0.21928496726E+04  0.10100000352E+00 0.  1.
</event>
<event>
 5   0  0.2590795E-08  0.3600283E+04  0.7818609E-02  0.8090427E-01
       -2   -1    0    0    0  501  0.00000000000E+00  0.00000000000E+00  0.14905423143E+04  0.14905423143E+04  0.25500000920E-02 0.  1.
        2   -1    0    0  501    0  0.00000000000E+00  0.00000000000E+00 -0.21740472388E+04  0.21740472388E+04  0.25500000920E-02 0. -1.
    10030    2    1    2    0    0  0.00000000000E+00  0.00000000000E+00 -0.68350492455E+03  0.36645895531E+04  0.36002829904E+04 0.  0.
        4    1    3    3  502    0  0.59417527303E+03  0.16870529819E+04 -0.13485906484E+03  0.17937058285E+04  0.12699999809E+01 0.  1.
       -4    1    3    3    0  502 -0.59417527303E+03 -0.16870529819E+04 -0.54864585971E+03  0.18708837246E+04  0.12699999809E+01 0. -1.
</event>
<event>
 5   0  0.8063410E-09  0.3604257E+04  0.7818609E-02  0.8089517E-01
        1   -1    0    0  501    0  0.00000000000E+00  0.00000000000E+00  0.26559229620E+04  0.26559229620E+04  0.50400001928E-02 0. -1.
       -1   -1    0    0    0  501  0.00000000000E+00  0.00000000000E+00 -0.12228015056E+04  0.12228015056E+04  0.50400001928E-02 0.  1.
    10030    2    1    2    0    0  0.00000000000E+00  0.00000000000E+00  0.14331214564E+04  0.38787244676E+04  0.36042567038E+04 0.  0.
        2    1    3    3  502    0 -0.47112218809E+03  0.77089604597E+03  0.23946075691E+04  0.25593714540E+04  0.25500000920E-02 0. -1.
       -2    1    3    3    0  502  0.47112218809E+03 -0.77089604597E+03 -0.96148611263E+03  0.13193530136E+04  0.25500000920E-02 0.  1.
</event>
<event>
 5   0  0.8024500E-09  0.3616171E+04  0.7818609E-02  0.8086798E-01
       -1   -1    0    0    0  501  0.00000000000E+00  0.00000000000E+00  0.14763066648E+04  0.14763066648E+04  0.50400001928E-02 0.  1.
        1   -1    0    0  501    0  0.00000000000E+00  0.00000000000E+00 -0.22144269394E+04  0.22144269394E+04  0.50400001928E-02 0. -1.
    10030    2    1    2    0    0  0.00000000000E+00  0.00000000000E+00 -0.73812027454E+03  0.36907336042E+04  0.36161710409E+04 0.  0.
        1    1    3    3  502    0 -0.26332884528E+03  0.59657536275E+02  0.14556152346E+04  0.14804448026E+04  0.50400001928E-02 0.  1.
       -1    1    3    3    0  502  0.26332884528E+03 -0.59657536275E+02 -0.21937355091E+04  0.22102888016E+04  0.50400001928E-02 0. -1.
</event>
<event>
 5   0  0.2482243E-08  0.3619422E+04  0.7818609E-02  0.8086057E-01
        2   -1    0    0  501    0  0.00000000000E+00  0.00000000000E+00  0.17941935396E+04  0.17941935396E+04  0.25500000920E-02 0.  1.
       -2   -1    0    0    0  501  0.00000000000E+00  0.00000000000E+00 -0.18253622496E+04  0.18253622496E+04  0.25500000920E-02 0. -1.
    10030    2    1    2    0    0  0.00000000000E+00  0.00000000000E+00 -0.31168710070E+02  0.36195557892E+04  0.36194215867E+04 0.  0.
        5    1    3    3  502    0  0.16453797307E+04 -0.48012189725E+03 -0.59632920473E+03  0.18147788032E+04  0.46999998093E+01 0. -1.
       -5    1    3    3    0  502 -0.16453797307E+04  0.48012189725E+03  0.56516049466E+03  0.18047769859E+04  0.46999998093E+01 0.  1.
</event>
<event>
 5   0  0.8024500E-09  0.3599132E+04  0.7818609E-02  0.8090691E-01
       -1   -1    0    0    0  501  0.00000000000E+00  0.00000000000E+00  0.20130516524E+04  0.20130516524E+04  0.50400001928E-02 0.  1.
        1   -1    0    0  501    0  0.00000000000E+00  0.00000000000E+00 -0.16087205117E+04  0.16087205117E+04  0.50400001928E-02 0. -1.
    10030    2    1    2    0    0  0.00000000000E+00  0.00000000000E+00  0.40433114066E+03  0.36217721641E+04  0.35991318310E+04 0.  0.
        5    1    3    3  502    0 -0.97788650451E+03 -0.14968580112E+04 -0.30029051742E+01  0.17879812719E+04  0.46999998093E+01 0. -1.
       -5    1    3    3    0  502  0.97788650451E+03  0.14968580112E+04  0.40733404584E+03  0.18337908922E+04  0.46999998093E+01 0.  1.
</event>
<event>
 5   0  0.2608070E-08  0.3599965E+04  0.7818609E-02  0.8090500E-01
        2   -1    0    0  501    0  0.00000000000E+00  0.00000000000E+00  0.17251363696E+04  0.17251363696E+04  0.25500000920E-02 0. -1.
       -2   -1    0    0    0  501  0.00000000000E+00  0.00000000000E+00 -0.18780760387E+04  0.18780760387E+04  0.25500000920E-02 0.  1.
    10030    2    1    2    0    0  0.00000000000E+00  0.00000000000E+00 -0.15293966908E+03  0.36032124083E+04  0.35999651550E+04 0.  0.
        3    1    3    3  502    0 -0.10856526367E+04 -0.10475495876E+04 -0.10591576041E+04  0.18433167461E+04  0.10100000352E+00 0. -1.
       -3    1    3    3    0  502  0.10856526367E+04  0.10475495876E+04  0.90621793498E+03  0.17598956622E+04  0.10100000352E+00 0.  1.
</event>
<event>
 5   0  0.2494592E-08  0.3604121E+04  0.7818609E-02  0.8089548E-01
       -2   -1    0    0    0  501  0.00000000000E+00  0.00000000000E+00  0.11642502417E+04  0.11642502417E+04  0.25500000920E-02 0. -1.
        2   -1    0    0  501    0  0.00000000000E+00  0.00000000000E+00 -0.27892821031E+04  0.27892821031E+04  0.25500000920E-02 0.  1.
    10030    2    1    2    0    0  0.00000000000E+00  0.00000000000E+00 -0.16250318614E+04  0.39535323448E+04  0.36041211760E+04 0.  0.
        1    1    3    3  502    0 -0.50400153188E+03  0.68072478555E+03 -0.25573244285E+04  0.26939398677E+04  0.50400001928E-02 0.  1.
       -1    1    3    3    0  502  0.50400153188E+03 -0.68072478555E+03  0.93229256712E+03  0.12595924772E+04  0.50400001928E-02 0. -1.
</event>
<event>
 5   0  0.8063410E-09  0.3595906E+04  0.7818609E-02  0.8091430E-01
        1   -1    0    0  501    0  0.00000000000E+00  0.00000000000E+00  0.17309021585E+04  0.17309021585E+04  0.50400001928E-02 0. -1.
       -1   -1    0    0    0  501  0.00000000000E+00  0.00000000000E+00 -0.18676011824E+04  0.18676011824E+04  0.50400001928E-02 0.  1.
    10030    2    1    2    0    0  0.00000000000E+00  0.00000000000E+00 -0.13669902386E+03  0.35985033410E+04  0.35959059598E+04 0.  0.
        2    1    3    3  502    0 -0.71598008932E+03 -0.15885153751E+04  0.37539646057E+03  0.17823947621E+04  0.25500000920E-02 0. -1.
       -2    1    3    3    0  502  0.71598008932E+03  0.15885153751E+04 -0.51209548443E+03  0.18161085789E+04  0.25500000920E-02 0.  1.
</event>
<event>
 5   0  0.8063410E-09  0.3601554E+04  0.7818609E-02  0.8090136E-01
        1   -1    0    0  501    0  0.00000000000E+00  0.00000000000E+00  0.25341078415E+04  0.25341078415E+04  0.50400001928E-02 0. -1.
       -1   -1    0    0    0  501  0.00000000000E+00  0.00000000000E+00 -0.12796608112E+04  0.12796608112E+04  0.50400001928E-02 0.  1.
    10030    2    1    2    0    0  0.00000000000E+00  0.00000000000E+00  0.12544470303E+04  0.38137686527E+04  0.36015543845E+04 0.  0.
        2    1    3    3  502    0 -0.15794294260E+03  0.17872335901E+04  0.46438120805E+03  0.18533212849E+04  0.25500000920E-02 0.  1.
       -2    1    3    3    0  502  0.15794294260E+03 -0.17872335901E+04  0.79006582224E+03  0.19604473678E+04  0.25500000920E-02 0. -1.
</event>
<event>
 5   0  0.2608070E-08  0.3607358E+04  0.7818609E-02  0.8088808E-01
        2   -1    0    0  501    0  0.00000000000E+00  0.00000000000E+00  0.19102158289E+04  0.19102158289E+04  0.25500000920E-02 0. -1.
       -2   -1    0    0    0  501  0.00000000000E+00  0.00000000000E+00 -0.17030838033E+04  0.17030838033E+04  0.25500000920E-02 0.  1.
    10030    2    1    2    0    0  0.00000000000E+00  0.00000000000E+00  0.20713202558E+03  0.36132996322E+04  0.36073578359E+04 0.  0.
        3    1    3    3  502    0 -0.42977184586E+03  0.97869083799E+03  0.15587900587E+04  0.18900703832E+04  0.10100000352E+00 0. -1.
       -3    1    3    3    0  502  0.42977184586E+03 -0.97869083799E+03 -0.13516580332E+04  0.17232292490E+04  0.10100000352E+00 0.  1.
</event>
<event>
 5   0  0.2608070E-08  0.3599854E+04  0.7818609E-02  0.8090525E-01
       -2   -1    0    0    0  501  0.00000000000E+00  0.00000000000E+00  0.15060267735E+04  0.15060267735E+04  0.25500000920E-02 0. -1.
        2   -1    0    0  501    0  0.00000000000E+00  0.00000000000E+00 -0.21511812221E+04  0.21511812221E+04  0.25500000920E-02 0.  1.
    10030    2    1    2    0    0  0.00000000000E+00  0.00000000000E+00 -0.64515444854E+03  0.36572079956E+04  0.35998536166E+04 0.  0.
        3    1    3    3  502    0 -0.17787219224E+04  0.77720375695E+02 -0.59106871428E+03  0.18759675821E+04  0.10100000352E+00 0.  1.
       -3    1    3    3    0  502  0.17787219224E+04 -0.77720375695E+02 -0.54085734254E+02  0.17812404135E+04  0.10100000352E+00 0. -1.
</event>
<event>
 5   0  0.8146881E-09  0.3598029E+04  0.7818609E-02  0.8090943E-01
       -1   -1    0    0    0  501  0.00000000000E+00  0.00000000000E+00  0.14574317284E+04  0.14574317284E+04  0.50400001928E-02 0.  1.
        1   -1    0    0  501    0  0.00000000000E+00  0.00000000000E+00 -0.22206550496E+04  0.22206550496E+04  0.50400001928E-02 0. -1.
    10030    2    1    2    0    0  0.00000000000E+00  0.00000000000E+00 -0.76322332114E+03  0.36780867780E+04  0.35980289755E+04 0.  0.
        4    1    3    3  502    0 -0.64540048082E+03  0.85936087497E+02 -0.20959853356E+04  0.21947853953E+04  0.12699999809E+01 0. -1.
       -4    1    3    3    0  502  0.64540048082E+03 -0.85936087497E+02  0.13327620144E+04  0.14833013827E+04  0.12699999809E+01 0.  1.
</event>
<event>
 5   0  0.8146881E-09  0.3599319E+04  0.7818609E-02  0.8090648E-01
       -1   -1    0    0    0  501  0.00000000000E+00  0.00000000000E+00  0.19911811774E+04  0.19911811774E+04  0.50400001928E-02 0.  1.
        1   -1    0    0  501    0  0.00000000000E+00  0.00000000000E+00 -0.16265589779E+04  0.16265589779E+04  0.50400001928E-02 0. -1.
    10030    2    1    2    0    0  0.00000000000E+00  0.00000000000E+00  0.36462219955E+03  0.36177401553E+04  0.35993186137E+04 0.  0.
        4    1    3    3  502    0  0.10361127396E+04  0.97047015534E+03 -0.92943766207E+03  0.16968199410E+04  0.12699999809E+01 0. -1.
       -4    1    3    3    0  502 -0.10361127396E+04 -0.97047015534E+03  0.12940598616E+04  0.19209202143E+04  0.12699999809E+01 0.  1.
</event>
<event>
 5   0  0.8024500E-09  0.3598655E+04  0.7818609E-02  0.8090800E-01
        1   -1    0    0  501    0  0.00000000000E+00  0.00000000000E+00  0.32872925636E+04  0.32872925636E+04  0.50400001928E-02 0.  1.
       -1   -1    0    0    0  501  0.00000000000E+00  0.00000000000E+00 -0.98487703526E+03  0.98487703527E+03  0.50400001928E-02 0. -1.
    10030    2    1    2    0    0  0.00000000000E+00  0.00000000000E+00  0.23024155283E+04  0.42721695988E+04  0.35986547231E+04 0.  0.
        1    1    3    3  502    0  0.16339248297E+04  0.40931347547E+03  0.19023426995E+04  0.25408966167E+04  0.50400001928E-02 0.  1.
       -1    1    3    3    0  502 -0.16339248297E+04 -0.40931347547E+03  0.40007282878E+03  0.17312729821E+04  0.50400001928E-02 0. -1.
</event>
<event>
 5   0  0.8024500E-09  0.3601478E+04  0.7818609E-02  0.8090153E-01
       -1   -1    0    0    0  501  0.00000000000E+00  0.00000000000E+00  0.13496682011E+04  0.13496682011E+04  0.50400001928E-02 0. -1.
        1   -1    0    0  501    0  0.00000000000E+00  0.00000000000E+00 -0.24025616625E+04  0.24025616625E+04  0.50400001928E-02 0.  1.
    10030    2    1    2    0    0  0.00000000000E+00  0.00000000000E+00 -0.10528934614E+04  0.37522298636E+04  0.36014780727E+04 0.  0.
        1    1    3    3  502    0 -0.48499235972E+03 -0.12273477210E+04  0.75001512100E+03  0.15179336939E+04  0.50400001928E-02 0. -1.
       -1    1    3    3    0  502  0.48499235972E+03  0.12273477210E+04 -0.18029085824E+04  0.22342961697E+04  0.50400001928E-02 0.  1.
</event>
<event>
 5   0  0.8063410E-09  0.3598359E+04  0.7818609E-02  0.8090868E-01
       -1   -1    0    0    0  501  0.00000000000E+00  0.00000000000E+00  0.15614930069E+04  0.15614930069E+04  0.50400001928E-02 0.  1.
        1   -1    0    0  501    0  0.00000000000E+00  0.00000000000E+00 -0.20730455474E+04  0.20730455474E+04  0.50400001928E-02 0. -1.
    10030    2    1    2    0    0  0.00000000000E+00  0.00000000000E+00 -0.51155254044E+03  0.36345385543E+04  0.35983585843E+04 0.  0.
        2    1    3    3  502    0  0.37750145783E+03  0.17591252937E+04 -0.25993784542E+03  0.18178550088E+04  0.25500000920E-02 0. -1.
       -2    1    3    3    0  502 -0.37750145783E+03 -0.17591252937E+04 -0.25161469503E+03  0.18166835455E+04  0.25500000920E-02 0.  1.
</event>
<event>
 5   0  0.8024500E-09  0.3600024E+04  0.7818609E-02  0.8090486E-01
        1   -1    0    0  501    0  0.00000000000E+00  0.00000000000E+00  0.13401341367E+04  0.13401341368E+04  0.50400001928E-02 0. -1.
       -1   -1    0    0    0  501  0.00000000000E+00  0.00000000000E+00 -0.24177002538E+04  0.24177002538E+04  0.50400001928E-02 0.  1.
    10030    2    1    2    0    0  0.00000000000E+00  0.00000000000E+00 -0.10775661170E+04  0.37578343905E+04  0.36000236902E+04 0.  0.
        5    1    3    3  502    0 -0.13182983981E+03  0.13498191845E+04 -0.17741441828E+04  0.22331593335E+04  0.46999998093E+01 0.  1.
       -5    1    3    3    0  502  0.13182983981E+03 -0.13498191845E+04  0.69657806581E+03  0.15246750570E+04  0.46999998093E+01 0. -1.
</event>
<event>
 5   0  0.8063410E-09  0.3592244E+04  0.7818609E-02  0.8092271E-01
        1   -1    0    0  501    0  0.00000000000E+00  0.00000000000E+00  0.20683182711E+04  0.20683182711E+04  0.50400001928E-02 0.  1.
       -1   -1    0    0    0  501  0.00000000000E+00  0.00000000000E+00 -0.15597477368E+04  0.15597477368E+04  0.50400001928E-02 0. -1.
    10030    2    1    2    0    0  0.00000000000E+00  0.00000000000E+00  0.50857053431E+03  0.36280660079E+04  0.35922442803E+04 0.  0.
        2    1    3    3  502    0 -0.10905836289E+04  0.13626750039E+04 -0.17397014749E+03  0.17540015479E+04  0.25500000920E-02 0. -1.
       -2    1    3    3    0  502  0.10905836289E+04 -0.13626750039E+04  0.68254068180E+03  0.18740644600E+04  0.25500000920E-02 0.  1.
</event>
<event>
 5   0  0.2494592E-08  0.3598920E+04  0.7818609E-02  0.8090739E-01
       -2   -1    0    0    0  501  0.00000000000E+00  0.00000000000E+00  0.17297652307E+04  0.17297652307E+04  0.25500000920E-02 0.  1.
        2   -1    0    0  501    0  0.00000000000E+00  0.00000000000E+00 -0.18719623768E+04  0.18719623768E+04  0.25500000920E-02 0. -1.
    10030    2    1    2    0    0  0.00000000000E+00  0.00000000000E+00 -0.14219714603E+03  0.36017276075E+04  0.35989195226E+04 0.  0.
        1    1    3    3  502    0 -0.39518596505E+02  0.14964472715E+04 -0.10704463278E+04  0.18403183139E+04  0.50400001928E-02 0.  1.
       -1    1    3    3    0  502  0.39518596505E+02 -0.14964472715E+04  0.92824918175E+03  0.17614092936E+04  0.50400001928E-02 0. -1.
</event>
<event>
 5   0  0.2494592E-08  0.3597984E+04  0.7818609E-02  0.8090954E-01
       -2   -1    0    0    0  501  0.00000000000E+00  0.00000000000E+00  0.15689349782E+04  0.15689349782E+04  0.25500000920E-02 0. -1.
        2   -1    0    0  501    0  0.00000000000E+00  0.00000000000E+00 -0.20627834285E+04  0.20627834285E+04  0.25500000920E-02 0.  1.
    10030    2    1    2    0    0  0.00000000000E+00  0.00000000000E+00 -0.49384845031E+03  0.36317184068E+04  0.35979844766E+04 0.  0.
        1    1    3    3  502    0 -0.15737480065E+04  0.61471989544E+03  0.37677668964E+03  0.17310470853E+04  0.50400001928E-02 0. -1.
       -1    1    3    3    0  502  0.15737480065E+04 -0.61471989544E+03 -0.87062513995E+03  0.19006713214E+04  0.50400001928E-02 0.  1.
</event>
<event>
 5   0  0.2476968E-08  0.3600805E+04  0.7818609E-02  0.8090307E-01
        2   -1    0    0  501    0  0.00000000000E+00  0.00000000000E+00  0.26861770019E+04  0.26861770019E+04  0.25500000920E-02 0. -1.
       -2   -1    0    0    0  501  0.00000000000E+00  0.00000000000E+00 -0.12067143397E+04  0.12067143397E+04  0.25500000920E-02 0.  1.
    10030    2    1    2    0    0  0.00000000000E+00  0.00000000000E+00  0.14794626622E+04  0.38928913416E+04  0.36008045252E+04 0.  0.
        2    1    3    3  502    0 -0.10008547427E+04  0.13183358089E+04  0.15055170194E+04  0.22374764840E+04  0.25500000920E-02 0. -1.
       -2    1    3    3    0  502  0.10008547427E+04 -0.13183358089E+04 -0.26054357133E+02  0.16554148576E+04  0.25500000920E-02 0.  1.
</event>
<event>
 5   0  0.8146881E-09  0.3598015E+04  0.7818609E-02  0.8090947E-01
       -1   -1    0    0    0  501  0.00000000000E+00  0.00000000000E+00  0.10086077660E+04  0.10086077660E+04  0.50400001928E-02 0. -1.
        1   -1    0    0  501    0  0.00000000000E+00  0.00000000000E+00 -0.32088070342E+04  0.32088070342E+04  0.50400001928E-02 0.  1.
    10030    2    1    2    0    0  0.00000000000E+00  0.00000000000E+00 -0.22001992682E+04  0.42174148003E+04  0.35980148385E+04 0.  0.
        4    1    3    3  502    0  0.83384693086E+03  0.85372653132E+03 -0.26780581577E+04  0.29319186215E+04  0.12699999809E+01 0.  1.
       -4    1    3    3    0  502 -0.83384693086E+03 -0.85372653132E+03  0.47785888950E+03  0.12854961787E+04  0.12699999809E+01 0. -1.
</event>
<event>
 5   0  0.8146881E-09  0.3598727E+04  0.7818609E-02  0.8090783E-01
       -1   -1    0    0    0  501  0.00000000000E+00  0.00000000000E+00  0.12736561602E+04  0.12736561603E+04  0.50400001928E-02 0. -1.
        1   -1    0    0  501    0  0.00000000000E+00  0.00000000000E+00 -0.25420592448E+04  0.25420592448E+04  0.50400001928E-02 0.  1.
    10030    2    1    2    0    0  0.00000000000E+00  0.00000000000E+00 -0.12684030846E+04  0.38157154051E+04  0.35987272288E+04 0.  0.
        4    1    3    3  502    0 -0.17904798112E+04  0.11909142264E+03 -0.77529294634E+03  0.19547586774E+04  0.12699999809E+01 0.  1.
       -4    1    3    3    0  502  0.17904798112E+04 -0.11909142264E+03 -0.49311013823E+03  0.18609567277E+04  0.12699999809E+01 0. -1.
</event>
<event>
 5   0  0.8024500E-09  0.3600263E+04  0.7818609E-02  0.8090431E-01
        1   -1    0    0  501    0  0.00000000000E+00  0.00000000000E+00  0.18966884145E+04  0.18966884145E+04  0.50400001928E-02 0. -1.
       -1   -1    0    0    0  501  0.00000000000E+00  0.00000000000E+00 -0.17084902202E+04  0.17084902202E+04  0.50400001928E-02 0.  1.
    10030    2    1    2    0    0  0.00000000000E+00  0.00000000000E+00  0.18819819438E+03  0.36051786347E+04  0.36002631054E+04 0.  0.
        1    1    3    3  502    0  0.15057986818E+04 -0.58977828255E+03 -0.69767984752E+03  0.17612567281E+04  0.50400001928E-02 0.  1.
       -1    1    3    3    0  502 -0.15057986818E+04  0.58977828255E+03  0.88587804189E+03  0.18439219066E+04  0.50400001928E-02 0. -1.
</event>
<event>
 5   0  0.8063410E-09  0.3599301E+04  0.7818609E-02  0.8090652E-01
       -1   -1    0    0    0  501  0.00000000000E+00  0.00000000000E+00  0.18028497994E+04  0.18028497994E+04  0.50400001928E-02 0. -1.
        1   -1    0    0  501    0  0.00000000000E+00  0.00000000000E+00 -0.17964569449E+04  0.17964569450E+04  0.50400001928E-02 0.  1.
    10030    2    1    2    0    0  0.00000000000E+00  0.00000000000E+00  0.63928544764E+01  0.35993067444E+04  0.35993010671E+04 0.  0.
        2    1    3    3  502    0  0.15530945155E+04  0.32319921125E+03 -0.84661768001E+03  0.17981439877E+04  0.25500000920E-02 0.  1.
       -2    1    3    3    0  502 -0.15530945155E+04 -0.32319921125E+03  0.85301053448E+03  0.18011627567E+04  0.25500000920E-02 0. -1.
</event>
<event>
 5   0  0.8063410E-09  0.3599364E+04  0.7818609E-02  0.8090637E-01
        1   -1    0    0  501    0  0.00000000000E+00  0.00000000000E+00  0.26150159429E+04  0.26150159429E+04  0.50400001928E-02 0. -1.
       -1   -1    0    0    0  501  0.00000000000E+00  0.00000000000E+00 -0.12385607299E+04  0.12385607299E+04  0.50400001928E-02 0.  1.
    10030    2    1    2    0    0  0.00000000000E+00  0.00000000000E+00  0.13764552129E+04  0.38535766728E+04  0.35993644189E+04 0.  0.
        2    1    3    3  502    0  0.13684267774E+04  0.27188550570E+03 -0.52887444794E+03  0.14920528660E+04  0.25500000920E-02 0.  1.
       -2    1    3    3    0  502 -0.13684267774E+04 -0.27188550570E+03  0.19053296609E+04  0.23615238068E+04  0.25500000920E-02 0. -1.
</event>
<event>
 5   0  0.2608070E-08  0.3602270E+04  0.7818609E-02  0.8089972E-01
       -2   -1    0    0    0  501  0.00000000000E+00  0.00000000000E+00  0.20322857401E+04  0.20322857401E+04  0.25500000920E-02 0.  1.
        2   -1    0    0  501    0  0.00000000000E+00  0.00000000000E+00 -0.15962754231E+04  0.15962754231E+04  0.25500000920E-02 0. -1.
    10030    2    1    2    0    0  0.00000000000E+00  0.00000000000E+00  0.43601031695E+03  0.36285611632E+04  0.36022702728E+04 0.  0.
        3    1    3    3  502    0 -0.10446209878E+04 -0.14448095872E+04  0.47556649569E+03  0.18452293228E+04  0.10100000352E+00 0.  1.
       -3    1    3    3    0  502  0.10446209878E+04  0.14448095872E+04 -0.39556178738E+02  0.17833318404E+04  0.10100000352E+00 0. -1.
</event>
<event>
 5   0  0.2494592E-08  0.3600182E+04  0.7818609E-02  0.8090450E-01
       -2   -1    0    0    0  501  0.00000000000E+00  0.00000000000E+00  0.15658380487E+04  0.15658380487E+04  0.25500000920E-02 0. -1.
        2   -1    0    0  501    0  0.00000000000E+00  0.00000000000E+00 -0.20693884591E+04  0.20693884591E+04  0.25500000920E-02 0.  1.
    10030    2    1    2    0    0  0.00000000000E+00  0.00000000000E+00 -0.50355041044E+03  0.36352265078E+04  0.36001817659E+04 0.  0.
        1    1    3    3  502    0 -0.15283308709E+03  0.16331723189E+04  0.49687128834E+03  0.17139109816E+04  0.50400001928E-02 0.  1.
       -1    1    3    3    0  502  0.15283308709E+03 -0.16331723189E+04 -0.10004216988E+04  0.19213155262E+04  0.50400001928E-02 0. -1.
</event>
<event>
 5   0  0.2608070E-08  0.3597787E+04  0.7818609E-02  0.8090999E-01
       -2   -1    0    0    0  501  0.00000000000E+00  0.00000000000E+00  0.14904951991E+04  0.14904951991E+04  0.25500000920E-02 0.  1.
        2   -1    0    0  501    0  0.00000000000E+00  0.00000000000E+00 -0.21711025491E+04  0.21711025491E+04  0.25500000920E-02 0. -1.
    10030    2    1    2    0    0  0.00000000000E+00  0.00000000000E+00 -0.68060735000E+03  0.36615977482E+04  0.35977870566E+04 0.  0.
        3    1    3    3  502    0 -0.17489075848E+04 -0.42111256874E+03 -0.34243369779E+03  0.18311947967E+04  0.10100000352E+00 0.  1.
       -3    1    3    3    0  502  0.17489075848E+04  0.42111256874E+03 -0.33817365221E+03  0.18304029515E+04  0.10100000352E+00 0. -1.
</event>
<event>
 5   0  0.8024500E-09  0.3598068E+04  0.7818609E-02  0.8090934E-01
        1   -1    0    0  501    0  0.00000000000E+00  0.00000000000E+00  0.21115141603E+04  0.21115141603E+04  0.50400001928E-02 0.  1.
       -1   -1    0    0    0  501  0.00000000000E+00  0.00000000000E+00 -0.15327973051E+04  0.15327973051E+04  0.50400001928E-02 0. -1.
    10030    2    1    2    0    0  0.00000000000E+00  0.00000000000E+00  0.57871685522E+03  0.36443114653E+04  0.35980679340E+04 0.  0.
        1    1    3    3  502    0  0.12574224752E+04 -0.72837681105E+03 -0.78487599044E+03  0.16515672497E+04  0.50400001928E-02 0. -1.
       -1    1    3    3    0  502 -0.12574224752E+04  0.72837681105E+03  0.13635928457E+04  0.19927442156E+04  0.50400001928E-02 0.  1.
</event>
<event>
 5   0  0.2476968E-08  0.3591957E+04  0.7818609E-02  0.8092337E-01
       -2   -1    0    0    0  501  0.00000000000E+00  0.00000000000E+00  0.18389332612E+04  0.18389332612E+04  0.25500000920E-02 0. -1.
        2   -1    0    0  501    0  0.00000000000E+00  0.00000000000E+00 -0.17540271531E+04  0.17540271531E+04  0.25500000920E-02 0.  1.
    10030    2    1    2    0    0  0.00000000000E+00  0.00000000000E+00  0.84906108071E+02  0.35929604144E+04  0.35919570560E+04 0.  0.
        2    1    3    3  502    0 -0.54232322657E+03 -0.50536514490E+03  0.16787677202E+04  0.18351483510E+04  0.25500000920E-02 0. -1.
       -2    1    3    3    0  502  0.54232322657E+03  0.50536514490E+03 -0.15938616121E+04  0.17578120634E+04  0.25500000920E-02 0.  1.
</event>
<event>
 5   0  0.2476968E-08  0.3599750E+04  0.7818609E-02  0.8090549E-01
       -2   -1    0    0    0  501  0.00000000000E+00  0.00000000000E+00  0.18142676510E+04  0.18142676510E+04  0.25500000920E-02 0. -1.
        2   -1    0    0  501    0  0.00000000000E+00  0.00000000000E+00 -0.17855963535E+04  0.17855963535E+04  0.25500000920E-02 0.  1.
    10030    2    1    2    0    0  0.00000000000E+00  0.00000000000E+00  0.28671297555E+02  0.35998640045E+04  0.35997498257E+04 0.  0.
        2    1    3    3  502    0 -0.16484147605E+04 -0.39373653837E+03  0.62036643609E+03  0.18047587649E+04  0.25500000920E-02 0. -1.
       -2    1    3    3    0  502  0.16484147605E+04  0.39373653837E+03 -0.59169513854E+03  0.17951052396E+04  0.25500000920E-02 0.  1.
</event>
<event>
 5   0  0.8024500E-09  0.3600409E+04  0.7818609E-02  0.8090398E-01
        1   -1    0    0  501    0  0.00000000000E+00  0.00000000000E+00  0.19627165899E+04  0.19627165899E+04  0.50400001928E-02 0.  1.
       -1   -1    0    0    0  501  0.00000000000E+00  0.00000000000E+00 -0.16511485059E+04  0.16511485059E+04  0.50400001928E-02 0. -1.
    10030    2    1    2    0    0  0.00000000000E+00  0.00000000000E+00  0.31156808405E+03  0.36138650958E+04  0.36004091795E+04 0.  0.
        1    1    3    3  502    0  0.13597085540E+04  0.33014693561E+03  0.12926831646E+04  0.19049498983E+04  0.50400001928E-02 0.  1.
       -1    1    3    3    0  502 -0.13597085540E+04 -0.33014693561E+03 -0.98111508051E+03  0.17089151975E+04  0.50400001928E-02 0. -1.
</event>
<event>
 5   0  0.8146881E-09  0.3600916E+04  0.7818609E-02  0.8090282E-01
       -1   -1    0    0    0  501  0.00000000000E+00  0.00000000000E+00  0.17897323769E+04  0.17897323769E+04  0.50400001928E-02 0. -1.
        1   -1    0    0  501    0  0.00000000000E+00  0.00000000000E+00 -0.18112478440E+04  0.18112478440E+04  0.50400001928E-02 0.  1.
    10030    2    1    2    0    0  0.00000000000E+00  0.00000000000E+00 -0.21515467083E+02  0.36009802209E+04  0.36009159440E+04 0.  0.
        4    1    3    3  502    0 -0.31010781399E+03 -0.68632665764E+03 -0.16461572681E+04  0.18102614457E+04  0.12699999809E+01 0.  1.
       -4    1    3    3    0  502  0.31010781399E+03  0.68632665764E+03  0.16246418011E+04  0.17907187752E+04  0.12699999809E+01 0. -1.
</event>
<event>
 5   0  0.8024500E-09  0.3599787E+04  0.7818609E-02  0.8090540E-01
        1   -1    0    0  501    0  0.00000000000E+00  0.00000000000E+00  0.24632596068E+04  0.24632596068E+04  0.50400001928E-02 0.  1.
       -1   -1    0    0    0  501  0.00000000000E+00  0.00000000000E+00 -0.13151748367E+04  0.13151748367E+04  0.50400001928E-02 0. -1.
    10030    2    1    2    0    0  0.00000000000E+00  0.00000000000E+00  0.11480847701E+04  0.37784344435E+04  0.35997872443E+04 0.  0.
        5    1    3    3  502    0  0.47922138507E+03 -0.11138310444E+04 -0.82212833149E+03  0.14649879913E+04  0.46999998093E+01 0. -1.
       -5    1    3    3    0  502 -0.47922138507E+03  0.11138310444E+04  0.19702131016E+04  0.23134464521E+04  0.46999998093E+01 0.  1.
</event>
<event>
 5   0  0.2590795E-08  0.3601587E+04  0.7818609E-02  0.8090128E-01
       -2   -1    0    0    0  501  0.00000000000E+00  0.00000000000E+00  0.18642046772E+04  0.18642046772E+04  0.25500000920E-02 0. -1.
        2   -1    0    0  501    0  0.00000000000E+00  0.00000000000E+00 -0.17395396713E+04  0.17395396713E+04  0.25500000920E-02 0.  1.
    10030    2    1    2    0    0  0.00000000000E+00  0.00000000000E+00  0.12466500587E+03  0.36037443485E+04  0.36015874230E+04 0.  0.
        4    1    3    3  502    0  0.13728896131E+04 -0.42219664363E+03 -0.10244949923E+04  0.17642753463E+04  0.12699999809E+01 0.  1.
       -4    1    3    3    0  502 -0.13728896131E+04  0.42219664363E+03  0.11491599982E+04  0.18394690021E+04  0.12699999809E+01 0. -1.
</event>
<event>
 5   0  0.8024500E-09  0.3601467E+04  0.7818609E-02  0.8090156E-01
        1   -1    0    0  501    0  0.00000000000E+00  0.00000000000E+00  0.26057112999E+04  0.26057112999E+04  0.50400001928E-02 0. -1.
       -1   -1    0    0    0  501  0.00000000000E+00  0.00000000000E+00 -0.12444358066E+04  0.12444358066E+04  0.50400001928E-02 0.  1.
    10030    2    1    2    0    0  0.00000000000E+00  0.00000000000E+00  0.13612754934E+04  0.38501471065E+04  0.36014666142E+04 0.  0.
        5    1    3    3  502    0  0.24965862916E+03 -0.63310493033E+03 -0.11016535923E+04  0.12949185346E+04  0.46999998093E+01 0.  1.
       -5    1    3    3    0  502 -0.24965862916E+03  0.63310493033E+03  0.24629290856E+04  0.25552285719E+04  0.46999998093E+01 0. -1.
</event>
<event>
 5   0  0.2494592E-08  0.3600790E+04  0.7818609E-02  0.8090311E-01
        2   -1    0    0  501    0  0.00000000000E+00  0.00000000000E+00  0.13831324082E+04  0.13831324082E+04  0.25500000920E-02 0.  1.
       -2   -1    0    0    0  501  0.00000000000E+00  0.00000000000E+00 -0.23435368409E+04  0.23435368409E+04  0.25500000920E-02 0. -1.
    10030    2    1    2    0    0  0.00000000000E+00  0.00000000000E+00 -0.96040443271E+03  0.37266692491E+04  0.36007897769E+04 0.  0.
        1    1    3    3  502    0 -0.16170536407E+04  0.64508643900E+03 -0.95495710256E+03  0.19856842796E+04  0.50400001928E-02 0. -1.
       -1    1    3    3    0  502  0.16170536407E+04 -0.64508643900E+03 -0.54473301502E+01  0.17409849695E+04  0.50400001928E-02 0.  1.
</event>
<event>
 5   0  0.8024500E-09  0.3588939E+04  0.7818609E-02  0.8093030E-01
        1   -1    0    0  501    0  0.00000000000E+00  0.00000000000E+00  0.11837491704E+04  0.11837491704E+04  0.50400001928E-02 0.  1.
       -1   -1    0    0    0  501  0.00000000000E+00  0.00000000000E+00 -0.27202736551E+04  0.27202736551E+04  0.50400001928E-02 0. -1.
    10030    2    1    2    0    0  0.00000000000E+00  0.00000000000E+00 -0.15365244847E+04  0.39040228255E+04  0.35889394993E+04 0.  0.
        5    1    3    3  502    0  0.44131662734E+03  0.83386434083E+03 -0.24287093869E+04  0.26055213452E+04  0.46999998093E+01 0. -1.
       -5    1    3    3    0  502 -0.44131662734E+03 -0.83386434083E+03  0.89218490223E+03  0.12985014803E+04  0.46999998093E+01 0.  1.
</event>
<event>
 5   0  0.8247570E-09  0.3598791E+04  0.7818609E-02  0.8090769E-01
       -1   -1    0    0    0  501  0.00000000000E+00  0.00000000000E+00  0.14454957383E+04  0.14454957383E+04  0.50400001928E-02 0. -1.
        1   -1    0    0  501    0  0.00000000000E+00  0.00000000000E+00 -0.22399406317E+04  0.22399406317E+04  0.50400001928E-02 0.  1.
    10030    2    1    2    0    0  0.00000000000E+00  0.00000000000E+00 -0.79444489341E+03  0.36854363700E+04  0.35987912621E+04 0.  0.
        3    1    3    3  502    0 -0.81517936420E+03  0.98814035865E+03 -0.16913265018E+04  0.21216795494E+04  0.10100000352E+00 0.  1.
       -3    1    3    3    0  502  0.81517936420E+03 -0.98814035865E+03  0.89688160843E+03  0.15637568206E+04  0.10100000352E+00 0. -1.
</event>
<event>
 5   0  0.8247570E-09  0.3600252E+04  0.7818609E-02  0.8090434E-01
        1   -1    0    0  501    0  0.00000000000E+00  0.00000000000E+00  0.15660141550E+04  0.15660141550E+04  0.50400001928E-02 0.  1.
       -1   -1    0    0    0  501  0.00000000000E+00  0.00000000000E+00 -0.20692361130E+04  0.20692361130E+04  0.50400001928E-02 0. -1.
    10030    2    1    2    0    0  0.00000000000E+00  0.00000000000E+00 -0.50322195800E+03  0.36352502680E+04  0.36002516818E+04 0.  0.
        3    1    3    3  502    0 -0.85214953308E+02  0.99239639523E+03  0.12624122130E+04  0.16080412927E+04  0.10100000352E+00 0.  1.
       -3    1    3    3    0  502  0.85214953308E+02 -0.99239639523E+03 -0.17656341710E+04  0.20272089753E+04  0.10100000352E+00 0. -1.
</event>
<event>
 5   0  0.8024500E-09  0.3600024E+04  0.7818609E-02  0.8090486E-01
        3   -1    0    0  501    0  0.00000000000E+00  0.00000000000E+00  0.20501265516E+04  0.20501265541E+04  0.10100000352E+00 0.  1.
       -3   -1    0    0    0  501  0.00000000000E+00  0.00000000000E+00 -0.15804114434E+04  0.15804114467E+04  0.10100000352E+00 0. -1.
    10030    2    1    2    0    0  0.00000000000E+00  0.00000000000E+00  0.46971510819E+03  0.36305380008E+04  0.36000241516E+04 0.  0.
        2    1    3    3  502    0  0.58012122457E+02  0.95384094429E+03 -0.13034784853E+04  0.16162407354E+04  0.25500000920E-02 0. -1.
       -2    1    3    3    0  502 -0.58012122457E+02 -0.95384094429E+03  0.17731935934E+04  0.20142972654E+04  0.25500000920E-02 0.  1.
</event>
<event>
 5   0  0.2590795E-08  0.3602627E+04  0.7818609E-02  0.8089890E-01
        2   -1    0    0  501    0  0.00000000000E+00  0.00000000000E+00  0.21903284335E+04  0.21903284335E+04  0.25500000920E-02 0. -1.
       -2   -1    0    0    0  501  0.00000000000E+00  0.00000000000E+00 -0.14813901223E+04  0.14813901223E+04  0.25500000920E-02 0.  1.
    10030    2    1    2    0    0  0.00000000000E+00  0.00000000000E+00  0.70893831112E+03  0.36717185558E+04  0.36026273224E+04 0.  0.
        4    1    3    3  502    0  0.51331213570E+03  0.15008309861E+04  0.12245071647E+04  0.20038469021E+04  0.12699999809E+01 0. -1.
       -4    1    3    3    0  502 -0.51331213570E+03 -0.15008309861E+04 -0.51556885360E+03  0.16678716537E+04  0.12699999809E+01 0.  1.
</event>
<event>
 5   0  0.2608070E-08  0.3600864E+04  0.7818609E-02  0.8090294E-01
       -2   -1    0    0    0  501  0.00000000000E+00  0.00000000000E+00  0.12901809063E+04  0.12901809063E+04  0.25500000920E-02 0. -1.
        2   -1    0    0  501    0  0.00000000000E+00  0.00000000000E+00 -0.25124810320E+04  0.25124810320E+04  0.25500000920E-02 0.  1.
    10030    2    1    2    0    0  0.00000000000E+00  0.00000000000E+00 -0.12223001257E+04  0.38026619383E+04  0.36008638158E+04 0.  0.
        3    1    3    3  502    0  0.64244788749E+03  0.15652241892E+04 -0.12611854746E+04  0.21102736463E+04  0.10100000352E+00 0.  1.
       -3    1    3    3    0  502 -0.64244788749E+03 -0.15652241892E+04  0.38885348868E+02  0.16923882921E+04  0.10100000352E+00 0. -1.
</event>
<event>
 5   0  0.2476968E-08  0.3600184E+04  0.7818609E-02  0.8090450E-01
       -2   -1    0    0    0  501  0.00000000000E+00  0.00000000000E+00  0.22368968733E+04  0.22368968733E+04  0.25500000920E-02 0.  1.
        2   -1    0    0  501    0  0.00000000000E+00  0.00000000000E+00 -0.14485829241E+04  0.14485829241E+04  0.25500000920E-02 0. -1.
    10030    2    1    2    0    0  0.00000000000E+00  0.00000000000E+00  0.78831394922E+03  0.36854797975E+04  0.36001836696E+04 0.  0.
        2    1    3    3  502    0 -0.50746638015E+02  0.23640915418E+03  0.22201971458E+04  0.22333248477E+04  0.25500000920E-02 0.  1.
       -2    1    3    3    0  502  0.50746638015E+02 -0.23640915418E+03 -0.14318831966E+04  0.14521549497E+04  0.25500000920E-02 0. -1.
</event>
<event>
 5   0  0.2494592E-08  0.3601492E+04  0.7818609E-02  0.8090150E-01
        2   -1    0    0  501    0  0.00000000000E+00  0.00000000000E+00  0.26435589346E+04  0.26435589346E+04  0.25500000920E-02 0.  1.
       -2   -1    0    0    0  501  0.00000000000E+00  0.00000000000E+00 -0.12266363903E+04  0.12266363903E+04  0.25500000920E-02 0. -1.
    10030    2    1    2    0    0  0.00000000000E+00  0.00000000000E+00  0.14169225443E+04  0.38701953248E+04  0.36014916848E+04 0.  0.
        1    1    3    3  502    0  0.41507121944E+03 -0.61012676948E+03 -0.10566953844E+04  0.12888537262E+04  0.50400001928E-02 0. -1.
       -1    1    3    3    0  502 -0.41507121944E+03  0.61012676948E+03  0.24736179287E+04  0.25813415987E+04  0.50400001928E-02 0.  1.
</event>
<event>
 5   0  0.2482243E-08  0.3600556E+04  0.7818609E-02  0.8090364E-01
        2   -1    0    0  501    0  0.00000000000E+00  0.00000000000E+00  0.18158247640E+04  0.18158247640E+04  0.25500000920E-02 0.  1.
       -2   -1    0    0    0  501  0.00000000000E+00  0.00000000000E+00 -0.17848638687E+04  0.17848638687E+04  0.25500000920E-02 0. -1.
    10030    2    1    2    0    0  0.00000000000E+00  0.00000000000E+00  0.30960895298E+02  0.36006886327E+04  0.36005555200E+04 0.  0.
        5    1    3    3  502    0 -0.13363182382E+04 -0.10475158737E+04  0.61378509437E+03  0.18054889010E+04  0.46999998093E+01 0.  1.
       -5    1    3    3    0  502  0.13363182382E+04  0.10475158737E+04 -0.58282419907E+03  0.17951997317E+04  0.46999998093E+01 0. -1.
</event>
<event>
 5   0  0.2608070E-08  0.3600318E+04  0.7818609E-02  0.8090419E-01
        2   -1    0    0  501    0  0.00000000000E+00  0.00000000000E+00  0.22905790543E+04  0.22905790543E+04  0.25500000920E-02 0. -1.
       -2   -1    0    0    0  501  0.00000000000E+00  0.00000000000E+00 -0.14147397292E+04  0.14147397292E+04  0.25500000920E-02 0.  1.
    10030    2    1    2    0    0  0.00000000000E+00  0.00000000000E+00  0.87583932513E+03  0.37053187836E+04  0.36003184254E+04 0.  0.
        3    1    3    3  502    0 -0.13108152582E+04  0.61757258666E+03 -0.66138024109E+03  0.15928139798E+04  0.10100000352E+00 0.  1.
       -3    1    3    3    0  502  0.13108152582E+04 -0.61757258666E+03  0.15372195662E+04  0.21125048037E+04  0.10100000352E+00 0. -1.
</event>
<event>
 5   0  0.8247570E-09  0.3599348E+04  0.7818609E-02  0.8090641E-01
        1   -1    0    0  501    0  0.00000000000E+00  0.00000000000E+00  0.17869756465E+04  0.17869756465E+04  0.50400001928E-02 0.  1.
       -1   -1    0    0    0  501  0.00000000000E+00  0.00000000000E+00 -0.18124625546E+04  0.18124625546E+04  0.50400001928E-02 0. -1.
    10030    2    1    2    0    0  0.00000000000E+00  0.00000000000E+00 -0.25486908093E+02  0.35994382011E+04  0.35993479661E+04 0.  0.
        3    1    3    3  502    0 -0.14870504539E+02  0.31587291496E+03 -0.17844621074E+04  0.18122642890E+04  0.10100000352E+00 0. -1.
       -3    1    3    3    0  502  0.14870504539E+02 -0.31587291496E+03  0.17589751993E+04  0.17871739121E+04  0.10100000352E+00 0.  1.
</event>
<event>
 5   0  0.8247570E-09  0.3599946E+04  0.7818609E-02  0.8090504E-01
        1   -1    0    0  501    0  0.00000000000E+00  0.00000000000E+00  0.23603633729E+04  0.23603633729E+04  0.50400001928E-02 0. -1.
       -1   -1    0    0    0  501  0.00000000000E+00  0.00000000000E+00 -0.13726284816E+04  0.13726284816E+04  0.50400001928E-02 0.  1.
    10030    2    1    2    0    0  0.00000000000E+00  0.00000000000E+00  0.98773489131E+03  0.37329918544E+04  0.35999455510E+04 0.  0.
        3    1    3    3  502    0 -0.26988001803E+03 -0.15083208398E+03  0.23326239983E+04  0.23530236440E+04  0.10100000352E+00 0. -1.
       -3    1    3    3    0  502  0.26988001803E+03  0.15083208398E+03 -0.13448891070E+04  0.13799682105E+04  0.10100000352E+00 0.  1.
</event>
<event>
 5   0  0.8024500E-09  0.3584977E+04  0.7818609E-02  0.8093942E-01
        1   -1    0    0  501    0  0.00000000000E+00  0.00000000000E+00  0.21886727777E+04  0.21886727777E+04  0.50400001928E-02 0.  1.
       -1   -1    0    0    0  501  0.00000000000E+00  0.00000000000E+00 -0.14680197412E+04  0.14680197412E+04  0.50400001928E-02 0. -1.
    10030    2    1    2    0    0  0.00000000000E+00  0.00000000000E+00  0.72065303657E+03  0.36566925189E+04  0.35849769007E+04 0.  0.
        5    1    3    3  502    0  0.18721012380E+03 -0.62674808229E+03 -0.13419298613E+04  0.14928692614E+04  0.46999998093E+01 0. -1.
       -5    1    3    3    0  502 -0.18721012380E+03  0.62674808229E+03  0.20625828978E+04  0.21638232575E+04  0.46999998093E+01 0.  1.
</event>
<event>
 5   0  0.8247570E-09  0.3599350E+04  0.7818609E-02  0.8090641E-01
       -1   -1    0    0    0  501  0.00000000000E+00  0.00000000000E+00  0.13491779594E+04  0.13491779594E+04  0.50400001928E-02 0.  1.
        1   -1    0    0  501    0  0.00000000000E+00  0.00000000000E+00 -0.24005952235E+04  0.24005952235E+04  0.50400001928E-02 0. -1.
    10030    2    1    2    0    0  0.00000000000E+00  0.00000000000E+00 -0.10514172641E+04  0.37497731829E+04  0.35993500330E+04 0.  0.
        3    1    3    3  502    0 -0.96524866739E+03  0.12858446234E+04 -0.13680336780E+04  0.21110702356E+04  0.10100000352E+00 0. -1.
       -3    1    3    3    0  502  0.96524866739E+03 -0.12858446234E+04  0.31661641388E+03  0.16387029472E+04  0.10100000352E+00 0.  1.
</event>
<event>
 5   0  0.2476968E-08  0.3597046E+04  0.7818609E-02  0.8091169E-01
        2   -1    0    0  501    0  0.00000000000E+00  0.00000000000E+00  0.13665685010E+04  0.13665685010E+04  0.25500000920E-02 0.  1.
       -2   -1    0    0    0  501  0.00000000000E+00  0.00000000000E+00 -0.23670127790E+04  0.23670127790E+04  0.25500000920E-02 0. -1.
    10030    2    1    2    0    0  0.00000000000E+00  0.00000000000E+00 -0.10004442780E+04  0.37335812800E+04  0.35970460687E+04 0.  0.
        2    1    3    3  502    0 -0.44838207322E+03 -0.11222020335E+04 -0.18828117385E+04  0.22372670673E+04  0.25500000920E-02 0. -1.
       -2    1    3    3    0  502  0.44838207322E+03  0.11222020335E+04  0.88236746051E+03  0.14963142127E+04  0.25500000920E-02 0.  1.
</event>
<event>
 5   0  0.2608070E-08  0.3604568E+04  0.7818609E-02  0.8089446E-01
       -2   -1    0    0    0  501  0.00000000000E+00  0.00000000000E+00  0.16894106507E+04  0.16894106507E+04  0.25500000920E-02 0. -1.
        2   -1    0    0  501    0  0.00000000000E+00  0.00000000000E+00 -0.19226984828E+04  0.19226984828E+04  0.25500000920E-02 0.  1.
    10030    2    1    2    0    0  0.00000000000E+00  0.00000000000E+00 -0.23328783209E+03  0.36121091335E+04  0.36045678215E+04 0.  0.
        3    1    3    3  502    0  0.14571341236E+04 -0.68995440028E+03  0.69061602058E+03  0.17539177366E+04  0.10100000352E+00 0. -1.
       -3    1    3    3    0  502 -0.14571341236E+04  0.68995440028E+03 -0.92390385267E+03  0.18581913970E+04  0.10100000352E+00 0.  1.
</event>
<event>
 5   0  0.8247570E-09  0.3598518E+04  0.7818609E-02  0.8090831E-01
        1   -1    0    0  501    0  0.00000000000E+00  0.00000000000E+00  0.17052149638E+04  0.17052149638E+04  0.50400001928E-02 0.  1.
       -1   -1    0    0    0  501  0.00000000000E+00  0.00000000000E+00 -0.18984891753E+04  0.18984891753E+04  0.50400001928E-02 0. -1.
    10030    2    1    2    0    0  0.00000000000E+00  0.00000000000E+00 -0.19327421143E+03  0.36037041391E+04  0.35985175561E+04 0.  0.
        3    1    3    3  502    0  0.15819316052E+04 -0.16713823740E+03 -0.93861603038E+03  0.18470091653E+04  0.10100000352E+00 0. -1.
       -3    1    3    3    0  502 -0.15819316052E+04  0.16713823740E+03  0.74534181894E+03  0.17566949739E+04  0.10100000352E+00 0.  1.
</event>
<event>
 5   0  0.8063410E-09  0.3596852E+04  0.7818609E-02  0.8091213E-01
       -1   -1    0    0    0  501  0.00000000000E+00  0.00000000000E+00  0.17806219013E+04  0.17806219013E+04  0.50400001928E-02 0.  1.
        1   -1    0    0  501    0  0.00000000000E+00  0.00000000000E+00 -0.18164085186E+04  0.18164085186E+04  0.50400001928E-02 0. -1.
    10030    2    1    2    0    0  0.00000000000E+00  0.00000000000E+00 -0.35786617268E+02  0.35970304199E+04  0.35968523961E+04 0.  0.
        2    1    3    3  502    0  0.17322031034E+04 -0.47338342716E+03 -0.11647470232E+03  0.17994959897E+04  0.25500000920E-02 0. -1.
       -2    1    3    3    0  502 -0.17322031034E+04  0.47338342716E+03  0.80688085051E+02  0.17975344302E+04  0.25500000920E-02 0.  1.
</event>
<event>
 5   0  0.2476968E-08  0.3601088E+04  0.7818609E-02  0.8090243E-01
        2   -1    0    0  501    0  0.00000000000E+00  0.00000000000E+00  0.28357368484E+04  0.28357368484E+04  0.25500000920E-02 0. -1.
       -2   -1    0    0    0  501  0.00000000000E+00  0.00000000000E+00 -0.11432509090E+04  0.11432509090E+04  0.25500000920E-02 0.  1.
    10030    2    1    2    0    0  0.00000000000E+00  0.00000000000E+00  0.16924859395E+04  0.39789877574E+04  0.36010880187E+04 0.  0.
        2    1    3    3  502    0 -0.12961604794E+04  0.12428541691E+04  0.70116191130E+03  0.19277827938E+04  0.25500000920E-02 0.  1.
       -2    1    3    3    0  502  0.12961604794E+04 -0.12428541691E+04  0.99132402816E+03  0.20512049636E+04  0.25500000920E-02 0. -1.
</event>
<event>
 5   0  0.8146881E-09  0.3600229E+04  0.7818609E-02  0.8090439E-01
       -1   -1    0    0    0  501  0.00000000000E+00  0.00000000000E+00  0.16261831838E+04  0.16261831838E+04  0.50400001928E-02 0.  1.
        1   -1    0    0  501    0  0.00000000000E+00  0.00000000000E+00 -0.19926494557E+04  0.19926494557E+04  0.50400001928E-02 0. -1.
    10030    2    1    2    0    0  0.00000000000E+00  0.00000000000E+00 -0.36646627193E+03  0.36188326395E+04  0.36002294571E+04 0.  0.
        4    1    3    3  502    0  0.83395041412E+03 -0.15187274050E+04  0.30755739919E+03  0.17597157130E+04  0.12699999809E+01 0.  1.
       -4    1    3    3    0  502 -0.83395041412E+03  0.15187274050E+04 -0.67402367112E+03  0.18591169264E+04  0.12699999809E+01 0. -1.
</event>
<event>
 5   0  0.2494592E-08  0.3600705E+04  0.7818609E-02  0.8090330E-01
        2   -1    0    0  501    0  0.00000000000E+00  0.00000000000E+00  0.19158340901E+04  0.19158340901E+04  0.25500000920E-02 0.  1.
       -2   -1    0    0    0  501  0.00000000000E+00  0.00000000000E+00 -0.16918322368E+04  0.16918322368E+04  0.25500000920E-02 0. -1.
    10030    2    1    2    0    0  0.00000000000E+00  0.00000000000E+00  0.22400185334E+03  0.36076663269E+04  0.36007054165E+04 0.  0.
        1    1    3    3  502    0 -0.64670675930E+03 -0.58221462642E+03 -0.14671381062E+04  0.17057836107E+04  0.50400001928E-02 0. -1.
       -1    1    3    3    0  502  0.64670675930E+03  0.58221462642E+03  0.16911399595E+04  0.19018827163E+04  0.50400001928E-02 0.  1.
</event>
<event>
 5   0  0.8146881E-09  0.3599133E+04  0.7818609E-02  0.8090690E-01
       -1   -1    0    0    0  501  0.00000000000E+00  0.00000000000E+00  0.18604704733E+04  0.18604704733E+04  0.50400001928E-02 0.  1.
        1   -1    0    0  501    0  0.00000000000E+00  0.00000000000E+00 -0.17406559938E+04  0.17406559938E+04  0.50400001928E-02 0. -1.
    10030    2    1    2    0    0  0.00000000000E+00  0.00000000000E+00  0.11981447951E+03  0.36011264671E+04  0.35991327181E+04 0.  0.
        4    1    3    3  502    0  0.63652262998E+03  0.39650799566E+03  0.16966795081E+04  0.18550209204E+04  0.12699999809E+01 0.  1.
       -4    1    3    3    0  502 -0.63652262998E+03 -0.39650799566E+03 -0.15768650286E+04  0.17461055467E+04  0.12699999809E+01 0. -1.
</event>
<event>
 5   0  0.8247570E-09  0.3599835E+04  0.7818609E-02  0.8090530E-01
        1   -1    0    0  501    0  0.00000000000E+00  0.00000000000E+00  0.19168686148E+04  0.19168686148E+04  0.50400001928E-02 0.  1.
       -1   -1    0    0    0  501  0.00000000000E+00  0.00000000000E+00 -0.16901017069E+04  0.16901017069E+04  0.50400001928E-02 0. -1.
    10030    2    1    2    0    0  0.00000000000E+00  0.00000000000E+00  0.22676690792E+03  0.36069703217E+04  0.35998349506E+04 0.  0.
        3    1    3    3  502    0  0.11505863801E+04  0.17600340746E+03  0.14890128621E+04  0.18899697170E+04  0.10100000352E+00 0.  1.
       -3    1    3    3    0  502 -0.11505863801E+04 -0.17600340746E+03 -0.12622459542E+04  0.17170006047E+04  0.10100000352E+00 0. -1.
</event>
<event>
 5   0  0.8063410E-09  0.3597471E+04  0.7818609E-02  0.8091071E-01
        1   -1    0    0  501    0  0.00000000000E+00  0.00000000000E+00  0.21073023260E+04  0.21073023260E+04  0.50400001928E-02 0.  1.
       -1   -1    0    0    0  501  0.00000000000E+00  0.00000000000E+00 -0.15353512711E+04  0.15353512711E+04  0.50400001928E-02 0. -1.
    10030    2    1    2    0    0  0.00000000000E+00  0.00000000000E+00  0.57195105487E+03  0.36426535971E+04  0.35974709477E+04 0.  0.
        2    1    3    3  502    0 -0.46763537815E+03  0.56474069652E+03  0.19491132815E+04  0.20824642818E+04  0.25500000920E-02 0.  1.
       -2    1    3    3    0  502  0.46763537815E+03 -0.56474069652E+03 -0.13771622266E+04  0.15601893153E+04  0.25500000920E-02 0. -1.
</event>
<event>
 5   0  0.2494592E-08  0.3599721E+04  0.7818609E-02  0.8090556E-01
       -2   -1    0    0    0  501  0.00000000000E+00  0.00000000000E+00  0.27890553567E+04  0.27890553567E+04  0.25500000920E-02 0.  1.
        2   -1    0    0  501    0  0.00000000000E+00  0.00000000000E+00 -0.11615036619E+04  0.11615036619E+04  0.25500000920E-02 0. -1.
    10030    2    1    2    0    0  0.00000000000E+00  0.00000000000E+00  0.16275516948E+04  0.39505590186E+04  0.35997211059E+04 0.  0.
        1    1    3    3  502    0 -0.19243151348E+03  0.89306888735E+03 -0.88813911933E+03  0.12741244132E+04  0.50400001928E-02 0. -1.
       -1    1    3    3    0  502  0.19243151348E+03 -0.89306888735E+03  0.25156908141E+04  0.26764346054E+04  0.50400001928E-02 0.  1.
</event>
<event>
 5   0  0.2482243E-08  0.3596812E+04  0.7818609E-02  0.8091222E-01
       -2   -1    0    0    0  501  0.00000000000E+00  0.00000000000E+00  0.17095704226E+04  0.17095704226E+04  0.25500000920E-02 0. -1.
        2   -1    0    0  501    0  0.00000000000E+00  0.00000000000E+00 -0.18918580463E+04  0.18918580463E+04  0.25500000920E-02 0.  1.
    10030    2    1    2    0    0  0.00000000000E+00  0.00000000000E+00 -0.18228762374E+03  0.36014284689E+04  0.35968122329E+04 0.  0.
        5    1    3    3  502    0 -0.47191106353E+03 -0.10118131050E+04 -0.15028386281E+04  0.18721676857E+04  0.46999998093E+01 0.  1.
       -5    1    3    3    0  502  0.47191106353E+03  0.10118131050E+04  0.13205510043E+04  0.17292607832E+04  0.46999998093E+01 0. -1.
</event>
<event>
 5   0  0.8024500E-09  0.3599183E+04  0.7818609E-02  0.8090679E-01
       -1   -1    0    0    0  501  0.00000000000E+00  0.00000000000E+00  0.16571572696E+04  0.16571572696E+04  0.50400001928E-02 0.  1.
        1   -1    0    0  501    0  0.00000000000E+00  0.00000000000E+00 -0.19542685041E+04  0.19542685041E+04  0.50400001928E-02 0. -1.
    10030    2    1    2    0    0  0.00000000000E+00  0.00000000000E+00 -0.29711123447E+03  0.36114257737E+04  0.35991833843E+04 0.  0.
        5    1    3    3  502    0  0.69681199255E+03  0.16591995501E+04 -0.15282075252E+03  0.18060637786E+04  0.46999998093E+01 0.  1.
       -5    1    3    3    0  502 -0.69681199255E+03 -0.16591995501E+04 -0.14429048196E+03  0.18053619951E+04  0.46999998093E+01 0. -1.
</event>
<event>
 5   0  0.2590795E-08  0.3602531E+04  0.7818609E-02  0.8089912E-01
       -2   -1    0    0    0  501  0.00000000000E+00  0.00000000000E+00  0.23268343325E+04  0.23268343325E+04  0.25500000920E-02 0. -1.
        2   -1    0    0  501    0  0.00000000000E+00  0.00000000000E+00 -0.13944081757E+04  0.13944081757E+04  0.25500000920E-02 0.  1.
    10030    2    1    2    0    0  0.00000000000E+00  0.00000000000E+00  0.93242615684E+03  0.37212425082E+04  0.36025306754E+04 0.  0.
        4    1    3    3  502    0  0.76882279900E+03 -0.10754090227E+03  0.21451663530E+04  0.22813140592E+04  0.12699999809E+01 0. -1.
       -4    1    3    3    0  502 -0.76882279900E+03  0.10754090227E+03 -0.12127401962E+04  0.14399284490E+04  0.12699999809E+01 0.  1.
</event>
<event>
 5   0  0.8024500E-09  0.3600384E+04  0.7818609E-02  0.8090404E-01
        1   -1    0    0  501    0  0.00000000000E+00  0.00000000000E+00  0.19983730355E+04  0.19983730355E+04  0.50400001928E-02 0.  1.
       -1   -1    0    0    0  501  0.00000000000E+00  0.00000000000E+00 -0.16216652625E+04  0.16216652626E+04  0.50400001928E-02 0. -1.
    10030    2    1    2    0    0  0.00000000000E+00  0.00000000000E+00  0.37670777293E+03  0.36200382980E+04  0.36003844980E+04 0.  0.
        1    1    3    3  502    0  0.25154070563E+02 -0.73855978411E+03 -0.14621271407E+04  0.16382670898E+04  0.50400001928E-02 0. -1.
       -1    1    3    3    0  502 -0.25154070563E+02  0.73855978411E+03  0.18388349137E+04  0.19817712082E+04  0.50400001928E-02 0.  1.
</event>
<event>
 5   0  0.8024500E-09  0.3600873E+04  0.7818609E-02  0.8090292E-01
       -1   -1    0    0    0  501  0.00000000000E+00  0.00000000000E+00  0.16634571039E+04  0.16634571040E+04  0.50400001928E-02 0. -1.
        1   -1    0    0  501    0  0.00000000000E+00  0.00000000000E+00 -0.19486959905E+04  0.19486959905E+04  0.50400001928E-02 0.  1.
    10030    2    1    2    0    0  0.00000000000E+00  0.00000000000E+00 -0.28523888655E+03  0.36121530945E+04  0.36008733323E+04 0.  0.
        5    1    3    3  502    0 -0.16412007958E+04  0.92006992029E+02 -0.87945749220E+03  0.18642620281E+04  0.46999998093E+01 0.  1.
       -5    1    3    3    0  502  0.16412007958E+04 -0.92006992029E+02  0.59421860565E+03  0.17478910664E+04  0.46999998093E+01 0. -1.
</event>
<event>
 5   0  0.8063410E-09  0.3614384E+04  0.7818609E-02  0.8087205E-01
       -1   -1    0    0    0  501  0.00000000000E+00  0.00000000000E+00  0.18316342695E+04  0.18316342695E+04  0.50400001928E-02 0.  1.
        1   -1    0    0  501    0  0.00000000000E+00  0.00000000000E+00 -0.17830755742E+04  0.17830755742E+04  0.50400001928E-02 0. -1.
    10030    2    1    2    0    0  0.00000000000E+00  0.00000000000E+00  0.48558695288E+02  0.36147098436E+04  0.36143836690E+04 0.  0.
        2    1    3    3  502    0  0.18961369330E+02  0.86057931705E+03  0.16134432095E+04  0.18287031702E+04  0.25500000920E-02 0.  1.
       -2    1    3    3    0  502 -0.18961369330E+02 -0.86057931705E+03 -0.15648845142E+04  0.17860066734E+04  0.25500000920E-02 0. -1.
</event>
<event>
 5   0  0.8063410E-09  0.3600872E+04  0.7818609E-02  0.8090292E-01
        1   -1    0    0  501    0  0.00000000000E+00  0.00000000000E+00  0.16736557862E+04  0.16736557862E+04  0.50400001928E-02 0. -1.
       -1   -1    0    0    0  501  0.00000000000E+00  0.00000000000E+00 -0.19368195376E+04  0.19368195376E+04  0.50400001928E-02 0.  1.
    10030    2    1    2    0    0  0.00000000000E+00  0.00000000000E+00 -0.26316375137E+03  0.36104753238E+04  0.36008716867E+04 0.  0.
        2    1    3    3  502    0 -0.62720026478E+03  0.14505394488E+04 -0.99650895929E+03  0.18682812879E+04  0.25500000920E-02 0. -1.
       -2    1    3    3    0  502  0.62720026478E+03 -0.14505394488E+04  0.73334520792E+03  0.17421940359E+04  0.25500000920E-02 0.  1.
</event>
<event>
 5   0  0.8024500E-09  0.3601116E+04  0.7818609E-02  0.8090236E-01
        3   -1    0    0  501    0  0.00000000000E+00  0.00000000000E+00  0.14999421702E+04  0.14999421736E+04  0.10100000352E+00 0.  1.
       -3   -1    0    0    0  501  0.00000000000E+00  0.00000000000E+00 -0.21614221594E+04  0.21614221617E+04  0.10100000352E+00 0. -1.
    10030    2    1    2    0    0  0.00000000000E+00  0.00000000000E+00 -0.66147998921E+03  0.36613643353E+04  0.36011155243E+04 0.  0.
        2    1    3    3  502    0  0.14572475313E+04 -0.10531519540E+04 -0.42883658093E+03  0.18484047767E+04  0.25500000920E-02 0. -1.
       -2    1    3    3    0  502 -0.14572475313E+04  0.10531519540E+04 -0.23264340828E+03  0.18129595586E+04  0.25500000920E-02 0.  1.
</event>
<event>
 5   0  0.8024500E-09  0.3601031E+04  0.7818609E-02  0.8090256E-01
       -1   -1    0    0    0  501  0.00000000000E+00  0.00000000000E+00  0.23230665628E+04  0.23230665628E+04  0.50400001928E-02 0. -1.
        1   -1    0    0  501    0  0.00000000000E+00  0.00000000000E+00 -0.13955071229E+04  0.13955071229E+04  0.50400001928E-02 0.  1.
    10030    2    1    2    0    0  0.00000000000E+00  0.00000000000E+00  0.92755943989E+03  0.37185736857E+04  0.36010309276E+04 0.  0.
        5    1    3    3  502    0  0.15720742756E+03  0.62689675130E+03  0.21991458778E+04  0.22921558398E+04  0.46999998093E+01 0. -1.
       -5    1    3    3    0  502 -0.15720742756E+03 -0.62689675130E+03 -0.12715864379E+04  0.14264178459E+04  0.46999998093E+01 0.  1.
</event>
<event>
 5   0  0.8063410E-09  0.3601371E+04  0.7818609E-02  0.8090178E-01
       -1   -1    0    0    0  501  0.00000000000E+00  0.00000000000E+00  0.18464081105E+04  0.18464081105E+04  0.50400001928E-02 0.  1.
        1   -1    0    0  501    0  0.00000000000E+00  0.00000000000E+00 -0.17560950976E+04  0.17560950976E+04  0.50400001928E-02 0. -1.
    10030    2    1    2    0    0  0.00000000000E+00  0.00000000000E+00  0.90313012923E+02  0.36025032081E+04  0.36013709784E+04 0.  0.
        2    1    3    3  502    0  0.39292721150E+03 -0.73651287017E+03  0.16411596743E+04  0.18412626315E+04  0.25500000920E-02 0.  1.
       -2    1    3    3    0  502 -0.39292721150E+03  0.73651287017E+03 -0.15508466614E+04  0.17612405766E+04  0.25500000920E-02 0. -1.
</event>
<event>
 5   0  0.8063410E-09  0.3598831E+04  0.7818609E-02  0.8090760E-01
        1   -1    0    0  501    0  0.00000000000E+00  0.00000000000E+00  0.23766952287E+04  0.23766952288E+04  0.50400001928E-02 0. -1.
       -1   -1    0    0    0  501  0.00000000000E+00  0.00000000000E+00 -0.13623522247E+04  0.13623522247E+04  0.50400001928E-02 0.  1.
    10030    2    1    2    0    0  0.00000000000E+00  0.00000000000E+00  0.10143430041E+04  0.37390474534E+04  0.35988309392E+04 0.  0.
        2    1    3    3  502    0  0.52317939300E+03  0.16953153798E+04  0.19533564096E+03  0.17849277091E+04  0.25500000920E-02 0. -1.
       -2    1    3    3    0  502 -0.52317939300E+03 -0.16953153798E+04  0.81900736312E+03  0.19541197443E+04  0.25500000920E-02 0.  1.
</event>
<event>
 5   0  0.8063410E-09  0.3598887E+04  0.7818609E-02  0.8090747E-01
       -1   -1    0    0    0  501  0.00000000000E+00  0.00000000000E+00  0.18097677244E+04  0.18097677244E+04  0.50400001928E-02 0. -1.
        1   -1    0    0  501    0  0.00000000000E+00  0.00000000000E+00 -0.17891779470E+04  0.17891779470E+04  0.50400001928E-02 0.  1.
    10030    2    1    2    0    0  0.00000000000E+00  0.00000000000E+00  0.20589777366E+02  0.35989456715E+04  0.35988867733E+04 0.  0.
        2    1    3    3  502    0 -0.13378394543E+04  0.77330108067E+03  0.93236612400E+03  0.18047480589E+04  0.25500000920E-02 0. -1.
       -2    1    3    3    0  502  0.13378394543E+04 -0.77330108067E+03 -0.91177634663E+03  0.17941976126E+04  0.25500000920E-02 0.  1.
</event>
<event>
 5   0  0.2494592E-08  0.3599658E+04  0.7818609E-02  0.8090570E-01
       -2   -1    0    0    0  501  0.00000000000E+00  0.00000000000E+00  0.12117356764E+04  0.12117356764E+04  0.25500000920E-02 0.  1.
        2   -1    0    0  501    0  0.00000000000E+00  0.00000000000E+00 -0.26733426847E+04  0.26733426847E+04  0.25500000920E-02 0. -1.
    10030    2    1    2    0    0  0.00000000000E+00  0.00000000000E+00 -0.14616070083E+04  0.38850783611E+04  0.35996581540E+04 0.  0.
        1    1    3    3  502    0 -0.16543874468E+04  0.69363181045E+03 -0.88817949370E+03  0.20017456696E+04  0.50400001928E-02 0.  1.
       -1    1    3    3    0  502  0.16543874468E+04 -0.69363181045E+03 -0.57342751460E+03  0.18833326916E+04  0.50400001928E-02 0. -1.
</event>
<event>
 5   0  0.8024500E-09  0.3597352E+04  0.7818609E-02  0.8091098E-01
        1   -1    0    0  501    0  0.00000000000E+00  0.00000000000E+00  0.21723271076E+04  0.21723271077E+04  0.50400001928E-02 0. -1.
       -1   -1    0    0    0  501  0.00000000000E+00  0.00000000000E+00 -0.14892951456E+04  0.14892951456E+04  0.50400001928E-02 0.  1.
    10030    2    1    2    0    0  0.00000000000E+00  0.00000000000E+00  0.68303196210E+03  0.36616222532E+04  0.35973524798E+04 0.  0.
        5    1    3    3  502    0  0.11987308980E+04  0.94241148218E+02 -0.10200586991E+04  0.15768256084E+04  0.46999998093E+01 0.  1.
       -5    1    3    3    0  502 -0.11987308980E+04 -0.94241148218E+02  0.17030906612E+04  0.20847966448E+04  0.46999998093E+01 0. -1.
</event>
<event>
 5   0  0.8063410E-09  0.3600457E+04  0.7818609E-02  0.8090387E-01
       -1   -1    0    0    0  501  0.00000000000E+00  0.00000000000E+00  0.13753348717E+04  0.13753348717E+04  0.50400001928E-02 0.  1.
        1   -1    0    0  501    0  0.00000000000E+00  0.00000000000E+00 -0.23563882612E+04  0.23563882612E+04  0.50400001928E-02 0. -1.
    10030    2    1    2    0    0  0.00000000000E+00  0.00000000000E+00 -0.98105338950E+03  0.37317231329E+04  0.36004571637E+04 0.  0.
        2    1    3    3  502    0 -0.16754446005E+04  0.62412558453E+03 -0.70836936760E+03  0.19231314348E+04  0.25500000920E-02 0. -1.
       -2    1    3    3    0  502  0.16754446005E+04 -0.62412558453E+03 -0.27268402189E+03  0.18085916981E+04  0.25500000920E-02 0.  1.
</event>
<event>
 5   0  0.8024500E-09  0.3596768E+04  0.7818609E-02  0.8091232E-01
       -1   -1    0    0    0  501  0.00000000000E+00  0.00000000000E+00  0.10811329728E+04  0.10811329728E+04  0.50400001928E-02 0. -1.
        1   -1    0    0  501    0  0.00000000000E+00  0.00000000000E+00 -0.29914775630E+04  0.29914775630E+04  0.50400001928E-02 0.  1.
    10030    2    1    2    0    0  0.00000000000E+00  0.00000000000E+00 -0.19103445902E+04  0.40726105358E+04  0.35967680108E+04 0.  0.
        1    1    3    3  502    0  0.99765039883E+03  0.14036923099E+04 -0.15419236745E+04  0.23115334817E+04  0.50400001928E-02 0.  1.
       -1    1    3    3    0  502 -0.99765039883E+03 -0.14036923099E+04 -0.36842091573E+03  0.17610770541E+04  0.50400001928E-02 0. -1.
</event>
<event>
 5   0  0.2482243E-08  0.3600536E+04  0.7818609E-02  0.8090369E-01
       -2   -1    0    0    0  501  0.00000000000E+00  0.00000000000E+00  0.10527807410E+04  0.10527807410E+04  0.25500000920E-02 0.  1.
        2   -1    0    0  501    0  0.00000000000E+00  0.00000000000E+00 -0.30784809305E+04  0.30784809305E+04  0.25500000920E-02 0. -1.
    10030    2    1    2    0    0  0.00000000000E+00  0.00000000000E+00 -0.20257001895E+04  0.41312616715E+04  0.36005363129E+04 0.  0.
        5    1    3    3  502    0  0.78843792208E+03  0.15818858135E+04 -0.62046845346E+03  0.18732325738E+04  0.46999998093E+01 0. -1.
       -5    1    3    3    0  502 -0.78843792208E+03 -0.15818858135E+04 -0.14052317360E+04  0.22580290976E+04  0.46999998093E+01 0.  1.
</event>
<event>
 5   0  0.2482243E-08  0.3599555E+04  0.7818609E-02  0.8090594E-01
       -2   -1    0    0    0  501  0.00000000000E+00  0.00000000000E+00  0.12385778747E+04  0.12385778747E+04  0.25500000920E-02 0.  1.
        2   -1    0    0  501    0  0.00000000000E+00  0.00000000000E+00 -0.26152568333E+04  0.26152568333E+04  0.25500000920E-02 0. -1.
    10030    2    1    2    0    0  0.00000000000E+00  0.00000000000E+00 -0.13766789586E+04  0.38538347080E+04  0.35995551116E+04 0.  0.
        5    1    3    3  502    0 -0.11681916692E+04 -0.10154529182E+04 -0.16715600367E+04  0.22781464948E+04  0.46999998093E+01 0. -1.
       -5    1    3    3    0  502  0.11681916692E+04  0.10154529182E+04  0.29488107814E+03  0.15756882133E+04  0.46999998093E+01 0.  1.
</event>
<event>
 5   0  0.2590795E-08  0.3601872E+04  0.7818609E-02  0.8090063E-01
        2   -1    0    0  501    0  0.00000000000E+00  0.00000000000E+00  0.12062432866E+04  0.12062432866E+04  0.25500000920E-02 0.  1.
       -2   -1    0    0    0  501  0.00000000000E+00  0.00000000000E+00 -0.26888201381E+04  0.26888201381E+04  0.25500000920E-02 0. -1.
    10030    2    1    2    0    0  0.00000000000E+00  0.00000000000E+00 -0.14825768515E+04  0.38950634248E+04  0.36018724245E+04 0.  0.
        4    1    3    3  502    0 -0.99499538127E+03 -0.14379044540E+04 -0.27517558893E+03  0.17701153197E+04  0.12699999809E+01 0.  1.
       -4    1    3    3    0  502  0.99499538127E+03  0.14379044540E+04 -0.12074012626E+04  0.21249481051E+04  0.12699999809E+01 0. -1.
</event>
<event>
 5   0  0.8024500E-09  0.3586191E+04  0.7818609E-02  0.8093662E-01
        1   -1    0    0  501    0  0.00000000000E+00  0.00000000000E+00  0.21116823078E+04  0.21116823078E+04  0.50400001928E-02 0. -1.
       -1   -1    0    0    0  501  0.00000000000E+00  0.00000000000E+00 -0.15225733591E+04  0.15225733592E+04  0.50400001928E-02 0.  1.
    10030    2    1    2    0    0  0.00000000000E+00  0.00000000000E+00  0.58910894862E+03  0.36342556669E+04  0.35861908621E+04 0.  0.
        5    1    3    3  502    0  0.49221569573E+03  0.13451412740E+04 -0.79855332499E+03  0.16399362307E+04  0.46999998093E+01 0.  1.
       -5    1    3    3    0  502 -0.49221569573E+03 -0.13451412740E+04  0.13876622736E+04  0.19943194362E+04  0.46999998093E+01 0. -1.
</event>
<event>
 5   0  0.2476968E-08  0.3599631E+04  0.7818609E-02  0.8090576E-01
       -2   -1    0    0    0  501  0.00000000000E+00  0.00000000000E+00  0.99138955281E+03  0.99138955282E+03  0.25500000920E-02 0. -1.
        2   -1    0    0  501    0  0.00000000000E+00  0.00000000000E+00 -0.32674704458E+04  0.32674704458E+04  0.25500000920E-02 0.  1.
    10030    2    1    2    0    0  0.00000000000E+00  0.00000000000E+00 -0.22760808929E+04  0.42588599986E+04  0.35996311278E+04 0.  0.
        2    1    3    3  502    0 -0.14034549054E+04  0.73227723698E+03 -0.21512793818E+04  0.26709396478E+04  0.25500000920E-02 0.  1.
       -2    1    3    3    0  502  0.14034549054E+04 -0.73227723698E+03 -0.12480151109E+03  0.15879203508E+04  0.25500000920E-02 0. -1.
</event>
<event>
 5   0  0.8063410E-09  0.3602576E+04  0.7818609E-02  0.8089902E-01
        1   -1    0    0  501    0  0.00000000000E+00  0.00000000000E+00  0.23507706839E+04  0.23507706839E+04  0.50400001928E-02 0.  1.
       -1   -1    0    0    0  501  0.00000000000E+00  0.00000000000E+00 -0.13802445138E+04  0.13802445138E+04  0.50400001928E-02 0. -1.
    10030    2    1    2    0    0  0.00000000000E+00  0.00000000000E+00  0.97052617008E+03  0.37310151977E+04  0.36025759338E+04 0.  0.
        2    1    3    3  502    0  0.33232436914E+03  0.15257580106E+04  0.14151963737E+04  0.21074054592E+04  0.25500000920E-02 0.  1.
       -2    1    3    3    0  502 -0.33232436914E+03 -0.15257580106E+04 -0.44467020364E+03  0.16236097386E+04  0.25500000920E-02 0. -1.
</event>
<event>
 5   0  0.2476968E-08  0.3599780E+04  0.7818609E-02  0.8090542E-01
       -2   -1    0    0    0  501  0.00000000000E+00  0.00000000000E+00  0.12430903991E+04  0.12430903991E+04  0.25500000920E-02 0.  1.
        2   -1    0    0  501    0  0.00000000000E+00  0.00000000000E+00 -0.26060886145E+04  0.26060886145E+04  0.25500000920E-02 0. -1.
    10030    2    1    2    0    0  0.00000000000E+00  0.00000000000E+00 -0.13629982154E+04  0.38491790136E+04  0.35997798466E+04 0.  0.
        2    1    3    3  502    0 -0.76065492799E+03  0.12414230639E+04  0.45006001879E+03  0.15239032658E+04  0.25500000920E-02 0.  1.
       -2    1    3    3    0  502  0.76065492799E+03 -0.12414230639E+04 -0.18130582342E+04  0.23252757479E+04  0.25500000920E-02 0. -1.
</event>
<event>
 5   0  0.8024500E-09  0.3600242E+04  0.7818609E-02  0.8090436E-01
        1   -1    0    0  501    0  0.00000000000E+00  0.00000000000E+00  0.17666256625E+04  0.17666256625E+04  0.50400001928E-02 0. -1.
       -1   -1    0    0    0  501  0.00000000000E+00  0.00000000000E+00 -0.18342509113E+04  0.18342509113E+04  0.50400001928E-02 0.  1.
    10030    2    1    2    0    0  0.00000000000E+00  0.00000000000E+00 -0.67625248823E+02  0.36008765738E+04  0.36002415093E+04 0.  0.
        5    1    3    3  502    0  0.17441573180E+04 -0.44463951851E+03 -0.58788814606E+02  0.18009073452E+04  0.46999998093E+01 0. -1.
       -5    1    3    3    0  502 -0.17441573180E+04  0.44463951851E+03 -0.88364342173E+01  0.17999692286E+04  0.46999998093E+01 0.  1.
</event>
<event>
 5   0  0.2590795E-08  0.3599932E+04  0.7818609E-02  0.8090507E-01
        2   -1    0    0  501    0  0.00000000000E+00  0.00000000000E+00  0.20163419100E+04  0.20163419100E+04  0.25500000920E-02 0. -1.
       -2   -1    0    0    0  501  0.00000000000E+00  0.00000000000E+00 -0.16068100154E+04  0.16068100154E+04  0.25500000920E-02 0.  1.
    10030    2    1    2    0    0  0.00000000000E+00  0.00000000000E+00  0.40953189454E+03  0.36231519254E+04  0.35999324302E+04 0.  0.
        4    1    3    3  502    0 -0.10327816913E+03 -0.16513872273E+04 -0.50841633182E+03  0.17309635854E+04  0.12699999809E+01 0.  1.
       -4    1    3    3    0  502  0.10327816913E+03  0.16513872273E+04  0.91794822637E+03  0.18921883400E+04  0.12699999809E+01 0. -1.
</event>
<event>
 5   0  0.8024500E-09  0.3599046E+04  0.7818609E-02  0.8090710E-01
        1   -1    0    0  501    0  0.00000000000E+00  0.00000000000E+00  0.99288118362E+03  0.99288118363E+03  0.50400001928E-02 0.  1.
       -1   -1    0    0    0  501  0.00000000000E+00  0.00000000000E+00 -0.32615001756E+04  0.32615001756E+04  0.50400001928E-02 0. -1.
    10030    2    1    2    0    0  0.00000000000E+00  0.00000000000E+00 -0.22686189920E+04  0.42543813593E+04  0.35990455150E+04 0.  0.
        1    1    3    3  502    0 -0.10605626807E+04  0.23878533367E+03 -0.28294680371E+04  0.30311220708E+04  0.50400001928E-02 0. -1.
       -1    1    3    3    0  502  0.10605626807E+04 -0.23878533367E+03  0.56084904507E+03  0.12232592884E+04  0.50400001928E-02 0.  1.
</event>
<event>
 5   0  0.8024500E-09  0.3602797E+04  0.7818609E-02  0.8089851E-01
       -1   -1    0    0    0  501  0.00000000000E+00  0.00000000000E+00  0.12823030285E+04  0.12823030285E+04  0.50400001928E-02 0. -1.
        1   -1    0    0  501    0  0.00000000000E+00  0.00000000000E+00 -0.25306309879E+04  0.25306309879E+04  0.50400001928E-02 0.  1.
    10030    2    1    2    0    0  0.00000000000E+00  0.00000000000E+00 -0.12483279594E+04  0.38129340164E+04  0.36027965692E+04 0.  0.
        5    1    3    3  502    0 -0.62941265863E+03 -0.14966928885E+04 -0.14499051838E+04  0.21768089097E+04  0.46999998093E+01 0.  1.
       -5    1    3    3    0  502  0.62941265863E+03  0.14966928885E+04  0.20157722439E+03  0.16361251067E+04  0.46999998093E+01 0. -1.
</event>
<event>
 5   0  0.8024500E-09  0.3607874E+04  0.7818609E-02  0.8088691E-01
        1   -1    0    0  501    0  0.00000000000E+00  0.00000000000E+00  0.18457840554E+04  0.18457840554E+04  0.50400001928E-02 0. -1.
       -1   -1    0    0    0  501  0.00000000000E+00  0.00000000000E+00 -0.17630382090E+04  0.17630382090E+04  0.50400001928E-02 0.  1.
    10030    2    1    2    0    0  0.00000000000E+00  0.00000000000E+00  0.82745846375E+02  0.36088222645E+04  0.36078735096E+04 0.  0.
        1    1    3    3  502    0  0.81628392453E+03 -0.38073877924E+02 -0.15672846596E+04  0.17675265967E+04  0.50400001928E-02 0.  1.
       -1    1    3    3    0  502 -0.81628392453E+03  0.38073877924E+02  0.16500305060E+04  0.18412956678E+04  0.50400001928E-02 0. -1.
</event>
<event>
 5   0  0.2476968E-08  0.3598150E+04  0.7818609E-02  0.8090915E-01
       -2   -1    0    0    0  501  0.00000000000E+00  0.00000000000E+00  0.15703078936E+04  0.15703078936E+04  0.25500000920E-02 0. -1.
        2   -1    0    0  501    0  0.00000000000E+00  0.00000000000E+00 -0.20611700228E+04  0.20611700228E+04  0.25500000920E-02 0.  1.
    10030    2    1    2    0    0  0.00000000000E+00  0.00000000000E+00 -0.49086212914E+03  0.36314779164E+04  0.35981503898E+04 0.  0.
        2    1    3    3  502    0 -0.76065764479E+03  0.13761508632E+04 -0.11277598145E+04  0.19350021835E+04  0.25500000920E-02 0.  1.
       -2    1    3    3    0  502  0.76065764479E+03 -0.13761508632E+04  0.63689768541E+03  0.16964757329E+04  0.25500000920E-02 0. -1.
</event>
<event>
 5   0  0.2608070E-08  0.3602068E+04  0.7818609E-02  0.8090018E-01
       -2   -1    0    0    0  501  0.00000000000E+00  0.00000000000E+00  0.17684526621E+04  0.17684526621E+04  0.25500000920E-02 0. -1.
        2   -1    0    0  501    0  0.00000000000E+00  0.00000000000E+00 -0.18342155238E+04  0.18342155238E+04  0.25500000920E-02 0.  1.
    10030    2    1    2    0    0  0.00000000000E+00  0.00000000000E+00 -0.65762861662E+02  0.36026681858E+04  0.36020679204E+04 0.  0.
        3    1    3    3  502    0  0.57437658876E+03 -0.14093854269E+04 -0.99608270911E+03  0.18189163040E+04  0.10100000352E+00 0.  1.
       -3    1    3    3    0  502 -0.57437658876E+03  0.14093854269E+04  0.93031984745E+03  0.17837518819E+04  0.10100000352E+00 0. -1.
</event>
<event>
 5   0  0.8024500E-09  0.3600662E+04  0.7818609E-02  0.8090340E-01
       -1   -1    0    0    0  501  0.00000000000E+00  0.00000000000E+00  0.14670468646E+04  0.14670468646E+04  0.50400001928E-02 0. -1.
        1   -1    0    0  501    0  0.00000000000E+00  0.00000000000E+00 -0.22093304813E+04  0.22093304813E+04  0.50400001928E-02 0.  1.
    10030    2    1    2    0    0  0.00000000000E+00  0.00000000000E+00 -0.74228361670E+03  0.36763773459E+04  0.36006618033E+04 0.  0.
        5    1    3    3  502    0 -0.40386478088E+03  0.10237397678E+04 -0.18258900567E+04  0.21319114575E+04  0.46999998093E+01 0.  1.
       -5    1    3    3    0  502  0.40386478088E+03 -0.10237397678E+04  0.10836064400E+04  0.15444658884E+04  0.46999998093E+01 0. -1.
</event>
<event>
 5   0  0.2482243E-08  0.3598273E+04  0.7818609E-02  0.8090887E-01
        2   -1    0    0  501    0  0.00000000000E+00  0.00000000000E+00  0.21450029490E+04  0.21450029490E+04  0.25500000920E-02 0.  1.
       -2   -1    0    0    0  501  0.00000000000E+00  0.00000000000E+00 -0.15090386918E+04  0.15090386918E+04  0.25500000920E-02 0. -1.
    10030    2    1    2    0    0  0.00000000000E+00  0.00000000000E+00  0.63596425724E+03  0.36540416408E+04  0.35982731658E+04 0.  0.
        5    1    3    3  502    0 -0.17966848173E+04  0.56999805003E+02  0.39360128740E+03  0.18401818861E+04  0.46999998093E+01 0.  1.
       -5    1    3    3    0  502  0.17966848173E+04 -0.56999805003E+02  0.24236296984E+03  0.18138597547E+04  0.46999998093E+01 0. -1.
</event>
<event>
 5   0  0.2482243E-08  0.3601227E+04  0.7818609E-02  0.8090211E-01
        2   -1    0    0  501    0  0.00000000000E+00  0.00000000000E+00  0.23783937564E+04  0.23783937564E+04  0.25500000920E-02 0. -1.
       -2   -1    0    0    0  501  0.00000000000E+00  0.00000000000E+00 -0.13631927392E+04  0.13631927392E+04  0.25500000920E-02 0.  1.
    10030    2    1    2    0    0  0.00000000000E+00  0.00000000000E+00  0.10152010172E+04  0.37415864955E+04  0.36012270684E+04 0.  0.
        5    1    3    3  502    0  0.17832177559E+04  0.19930350887E+03  0.66379123164E+03  0.19131723244E+04  0.46999998093E+01 0. -1.
       -5    1    3    3    0  502 -0.17832177559E+04 -0.19930350887E+03  0.35140978557E+03  0.18284141711E+04  0.46999998093E+01 0.  1.
</event>
<event>
 5   0  0.2482243E-08  0.3601258E+04  0.7818609E-02  0.8090204E-01
       -2   -1    0    0    0  501  0.00000000000E+00  0.00000000000E+00  0.22973656336E+04  0.22973656336E+04  0.25500000920E-02 0.  1.
        2   -1    0    0  501    0  0.00000000000E+00  0.00000000000E+00 -0.14112969428E+04  0.14112969428E+04  0.25500000920E-02 0. -1.
    10030    2    1    2    0    0  0.00000000000E+00  0.00000000000E+00  0.88606869074E+03  0.37086625764E+04  0.36012581664E+04 0.  0.
        5    1    3    3  502    0  0.55282316909E+03  0.16907566513E+04  0.15547267611E+03  0.17856274397E+04  0.46999998093E+01 0. -1.
       -5    1    3    3    0  502 -0.55282316909E+03 -0.16907566513E+04  0.73059601463E+03  0.19230351367E+04  0.46999998093E+01 0.  1.
</event>
<event>
 5   0  0.8024500E-09  0.3599012E+04  0.7818609E-02  0.8090718E-01
       -1   -1    0    0    0  501  0.00000000000E+00  0.00000000000E+00  0.15607503965E+04  0.15607503965E+04  0.50400001928E-02 0.  1.
        1   -1    0    0  501    0  0.00000000000E+00  0.00000000000E+00 -0.20747853882E+04  0.20747853882E+04  0.50400001928E-02 0. -1.
    10030    2    1    2    0    0  0.00000000000E+00  0.00000000000E+00 -0.51403499165E+03  0.36355357847E+04  0.35990121519E+04 0.  0.
        1    1    3    3  502    0  0.28683835886E+03 -0.17676793593E+04 -0.78430955272E+02  0.17925172178E+04  0.50400001928E-02 0.  1.
       -1    1    3    3    0  502 -0.28683835886E+03  0.17676793593E+04 -0.43560403638E+03  0.18430185669E+04  0.50400001928E-02 0. -1.
</event>
<event>
 5   0  0.2590795E-08  0.3599364E+04  0.7818609E-02  0.8090637E-01
        2   -1    0    0  501    0  0.00000000000E+00  0.00000000000E+00  0.20183465992E+04  0.20183465992E+04  0.25500000920E-02 0. -1.
       -2   -1    0    0    0  501  0.00000000000E+00  0.00000000000E+00 -0.16047074223E+04  0.16047074223E+04  0.25500000920E-02 0.  1.
    10030    2    1    2    0    0  0.00000000000E+00  0.00000000000E+00  0.41363917698E+03  0.36230540215E+04  0.35993642597E+04 0.  0.
        4    1    3    3  502    0 -0.12291010216E+04 -0.11959131192E+04 -0.34262708422E+03  0.17487974273E+04  0.12699999809E+01 0.  1.
       -4    1    3    3    0  502  0.12291010216E+04  0.11959131192E+04  0.75626626120E+03  0.18742565942E+04  0.12699999809E+01 0. -1.
</event>
<event>
 5   0  0.8024500E-09  0.3577984E+04  0.7818609E-02  0.8095553E-01
        1   -1    0    0  501    0  0.00000000000E+00  0.00000000000E+00  0.11595700900E+04  0.11595700901E+04  0.50400001928E-02 0. -1.
       -1   -1    0    0    0  501  0.00000000000E+00  0.00000000000E+00 -0.27600684821E+04  0.27600684821E+04  0.50400001928E-02 0.  1.
    10030    2    1    2    0    0  0.00000000000E+00  0.00000000000E+00 -0.16004983920E+04  0.39196385721E+04  0.35779842696E+04 0.  0.
        1    1    3    3  502    0  0.12160548672E+03 -0.42909026880E+02 -0.27549704496E+04  0.27579868124E+04  0.50400001928E-02 0.  1.
       -1    1    3    3    0  502 -0.12160548672E+03  0.42909026880E+02  0.11544720576E+04  0.11616517597E+04  0.50400001928E-02 0. -1.
</event>
<event>
 5   0  0.8247570E-09  0.3600316E+04  0.7818609E-02  0.8090419E-01
        1   -1    0    0  501    0  0.00000000000E+00  0.00000000000E+00  0.19417435371E+04  0.19417435371E+04  0.50400001928E-02 0.  1.
       -1   -1    0    0    0  501  0.00000000000E+00  0.00000000000E+00 -0.16688968280E+04  0.16688968281E+04  0.50400001928E-02 0. -1.
    10030    2    1    2    0    0  0.00000000000E+00  0.00000000000E+00  0.27284670904E+03  0.36106403652E+04  0.36003164472E+04 0.  0.
        3    1    3    3  502    0 -0.17096000116E+04  0.22865938996E+03  0.65321870190E+03  0.18443730639E+04  0.10100000352E+00 0. -1.
       -3    1    3    3    0  502  0.17096000116E+04 -0.22865938996E+03 -0.38037199285E+03  0.17662673012E+04  0.10100000352E+00 0.  1.
</event>
<event>
 5   0  0.8063410E-09  0.3601788E+04  0.7818609E-02  0.8090082E-01
       -1   -1    0    0    0  501  0.00000000000E+00  0.00000000000E+00  0.18041059900E+04  0.18041059900E+04  0.50400001928E-02 0. -1.
        1   -1    0    0  501    0  0.00000000000E+00  0.00000000000E+00 -0.17976876266E+04  0.17976876266E+04  0.50400001928E-02 0.  1.
    10030    2    1    2    0    0  0.00000000000E+00  0.00000000000E+00  0.64183633512E+01  0.36017936166E+04  0.36017878978E+04 0.  0.
        2    1    3    3  502    0 -0.73323684764E+03 -0.78267622513E+03  0.14499321384E+04  0.18034748554E+04  0.25500000920E-02 0.  1.
       -2    1    3    3    0  502  0.73323684764E+03  0.78267622513E+03 -0.14435137750E+04  0.17983187612E+04  0.25500000920E-02 0. -1.
</event>
<event>
 5   0  0.2590795E-08  0.3598581E+04  0.7818609E-02  0.8090817E-01
       -2   -1    0    0    0  501  0.00000000000E+00  0.00000000000E+00  0.12974384251E+04  0.12974384251E+04  0.25500000920E-02 0.  1.
        2   -1    0    0  501    0  0.00000000000E+00  0.00000000000E+00 -0.24952595990E+04  0.24952595990E+04  0.25500000920E-02 0. -1.
    10030    2    1    2    0    0  0.00000000000E+00  0.00000000000E+00 -0.11978211739E+04  0.37926980241E+04  0.35985806559E+04 0.  0.
        4    1    3    3  502    0  0.12132338657E+04 -0.63784460944E+03 -0.18274036962E+04  0.22843353608E+04  0.12699999809E+01 0. -1.
       -4    1    3    3    0  502 -0.12132338657E+04  0.63784460944E+03  0.62958252233E+03  0.15083626633E+04  0.12699999809E+01 0.  1.
</event>
<event>
 5   0  0.8146881E-09  0.3603431E+04  0.7818609E-02  0.8089706E-01
       -1   -1    0    0    0  501  0.00000000000E+00  0.00000000000E+00  0.19245713481E+04  0.19245713481E+04  0.50400001928E-02 0.  1.
        1   -1    0    0  501    0  0.00000000000E+00  0.00000000000E+00 -0.16867021759E+04  0.16867021759E+04  0.50400001928E-02 0. -1.
    10030    2    1    2    0    0  0.00000000000E+00  0.00000000000E+00  0.23786917214E+03  0.36112735240E+04  0.36034309653E+04 0.  0.
        4    1    3    3  502    0 -0.27810591876E+03  0.17195750278E+04  0.58025794265E+03  0.18360234398E+04  0.12699999809E+01 0.  1.
       -4    1    3    3    0  502  0.27810591876E+03 -0.17195750278E+04 -0.34238877051E+03  0.17752500842E+04  0.12699999809E+01 0. -1.
</event>
<event>
 5   0  0.8247570E-09  0.3598126E+04  0.7818609E-02  0.8090921E-01
       -1   -1    0    0    0  501  0.00000000000E+00  0.00000000000E+00  0.15746444149E+04  0.15746444149E+04  0.50400001928E-02 0.  1.
        1   -1    0    0  501    0  0.00000000000E+00  0.00000000000E+00 -0.20554657442E+04  0.20554657442E+04  0.50400001928E-02 0. -1.
    10030    2    1    2    0    0  0.00000000000E+00  0.00000000000E+00 -0.48082132925E+03  0.36301101591E+04  0.35981259867E+04 0.  0.
        3    1    3    3  502    0  0.70409625805E+03 -0.46668763800E+03 -0.18429505282E+04  0.20273173288E+04  0.10100000352E+00 0. -1.
       -3    1    3    3    0  502 -0.70409625805E+03  0.46668763800E+03  0.13621291989E+04  0.16027928303E+04  0.10100000352E+00 0.  1.
</event>
<event>
 5   0  0.2494592E-08  0.3606978E+04  0.7818609E-02  0.8088895E-01
       -2   -1    0    0    0  501  0.00000000000E+00  0.00000000000E+00  0.20258396657E+04  0.20258396657E+04  0.25500000920E-02 0.  1.
        2   -1    0    0  501    0  0.00000000000E+00  0.00000000000E+00 -0.16055431551E+04  0.16055431551E+04  0.25500000920E-02 0. -1.
    10030    2    1    2    0    0  0.00000000000E+00  0.00000000000E+00  0.42029651060E+03  0.36313828208E+04  0.36069782414E+04 0.  0.
        1    1    3    3  502    0 -0.98321060284E+03  0.12917818243E+04  0.10010650328E+04  0.19072321755E+04  0.50400001928E-02 0.  1.
       -1    1    3    3    0  502  0.98321060284E+03 -0.12917818243E+04 -0.58076852221E+03  0.17241506453E+04  0.50400001928E-02 0. -1.
</event>
<event>
 5   0  0.2482243E-08  0.3599254E+04  0.7818609E-02  0.8090663E-01
       -2   -1    0    0    0  501  0.00000000000E+00  0.00000000000E+00  0.15001085719E+04  0.15001085719E+04  0.25500000920E-02 0.  1.
        2   -1    0    0  501    0  0.00000000000E+00  0.00000000000E+00 -0.21589486182E+04  0.21589486182E+04  0.25500000920E-02 0. -1.
    10030    2    1    2    0    0  0.00000000000E+00  0.00000000000E+00 -0.65884004633E+03  0.36590571900E+04  0.35992539940E+04 0.  0.
        5    1    3    3  502    0 -0.23962125694E+03 -0.17279079599E+04  0.12013897367E+03  0.17485822050E+04  0.46999998093E+01 0.  1.
       -5    1    3    3    0  502  0.23962125694E+03  0.17279079599E+04 -0.77897902000E+03  0.19104749850E+04  0.46999998093E+01 0. -1.
</event>
<event>
 5   0  0.8146881E-09  0.3598605E+04  0.7818609E-02  0.8090811E-01
       -1   -1    0    0    0  501  0.00000000000E+00  0.00000000000E+00  0.33929704208E+04  0.33929704208E+04  0.50400001928E-02 0. -1.
        1   -1    0    0  501    0  0.00000000000E+00  0.00000000000E+00 -0.95417574730E+03  0.95417574732E+03  0.50400001928E-02 0.  1.
    10030    2    1    2    0    0  0.00000000000E+00  0.00000000000E+00  0.24387946735E+04  0.43471461681E+04  0.35986053337E+04 0.  0.
        4    1    3    3  502    0 -0.10684762632E+04 -0.99623782381E+03 -0.49504658065E+02  0.14617057333E+04  0.12699999809E+01 0.  1.
       -4    1    3    3    0  502  0.10684762632E+04  0.99623782381E+03  0.24882993316E+04  0.28854404348E+04  0.12699999809E+01 0. -1.
</event>
<event>
 5   0  0.2590795E-08  0.3597660E+04  0.7818609E-02  0.8091028E-01
        2   -1    0    0  501    0  0.00000000000E+00  0.00000000000E+00  0.12350886142E+04  0.12350886142E+04  0.25500000920E-02 0. -1.
       -2   -1    0    0    0  501  0.00000000000E+00  0.00000000000E+00 -0.26198847867E+04  0.26198847867E+04  0.25500000920E-02 0.  1.
    10030    2    1    2    0    0  0.00000000000E+00  0.00000000000E+00 -0.13847961725E+04  0.38549734009E+04  0.35976602789E+04 0.  0.
        4    1    3    3  502    0  0.11738838027E+04  0.12618577593E+04 -0.12445181826E+04  0.21258210900E+04  0.12699999809E+01 0.  1.
       -4    1    3    3    0  502 -0.11738838027E+04 -0.12618577593E+04 -0.14027798993E+03  0.17291523109E+04  0.12699999809E+01 0. -1.
</event>
<event>
 5   0  0.2476968E-08  0.3600550E+04  0.7818609E-02  0.8090366E-01
        2   -1    0    0  501    0  0.00000000000E+00  0.00000000000E+00  0.28102704708E+04  0.28102704708E+04  0.25500000920E-02 0. -1.
       -2   -1    0    0    0  501  0.00000000000E+00  0.00000000000E+00 -0.11532659574E+04  0.11532659574E+04  0.25500000920E-02 0.  1.
    10030    2    1    2    0    0  0.00000000000E+00  0.00000000000E+00  0.16570045135E+04  0.39635364282E+04  0.36005495497E+04 0.  0.
        2    1    3    3  502    0 -0.51235634229E+03 -0.78567023947E+03  0.25200360598E+04  0.26889344524E+04  0.25500000920E-02 0. -1.
       -2    1    3    3    0  502  0.51235634229E+03  0.78567023947E+03 -0.86303154634E+03  0.12746019758E+04  0.25500000920E-02 0.  1.
</event>
<event>
 5   0  0.8024500E-09  0.3597491E+04  0.7818609E-02  0.8091067E-01
        1   -1    0    0  501    0  0.00000000000E+00  0.00000000000E+00  0.19328262047E+04  0.19328262047E+04  0.50400001928E-02 0.  1.
       -1   -1    0    0    0  501  0.00000000000E+00  0.00000000000E+00 -0.16739656852E+04  0.16739656852E+04  0.50400001928E-02 0. -1.
    10030    2    1    2    0    0  0.00000000000E+00  0.00000000000E+00  0.25886051951E+03  0.36067918899E+04  0.35974906488E+04 0.  0.
        1    1    3    3  502    0  0.34366034947E+03  0.12408950333E+04 -0.11298274097E+04  0.17130186500E+04  0.50400001928E-02 0. -1.
       -1    1    3    3    0  502 -0.34366034947E+03 -0.12408950333E+04  0.13886879292E+04  0.18937732399E+04  0.50400001928E-02 0.  1.
</event>
<event>
 5   0  0.2476968E-08  0.3599506E+04  0.7818609E-02  0.8090605E-01
       -2   -1    0    0    0  501  0.00000000000E+00  0.00000000000E+00  0.15795941739E+04  0.15795941739E+04  0.25500000920E-02 0.  1.
        2   -1    0    0  501    0  0.00000000000E+00  0.00000000000E+00 -0.20505964949E+04  0.20505964950E+04  0.25500000920E-02 0. -1.
    10030    2    1    2    0    0  0.00000000000E+00  0.00000000000E+00 -0.47100232107E+03  0.36301906688E+04  0.35995056752E+04 0.  0.
        2    1    3    3  502    0  0.13767106671E+04  0.15261359131E+03  0.92341936883E+03  0.16647301583E+04  0.25500000920E-02 0.  1.
       -2    1    3    3    0  502 -0.13767106671E+04 -0.15261359131E+03 -0.13944216899E+04  0.19654605105E+04  0.25500000920E-02 0. -1.
</event>
<event>
 5   0  0.8063410E-09  0.3602545E+04  0.7818609E-02  0.8089909E-01
        1   -1    0    0  501    0  0.00000000000E+00  0.00000000000E+00  0.15616879966E+04  0.15616879966E+04  0.50400001928E-02 0.  1.
       -1   -1    0    0    0  501  0.00000000000E+00  0.00000000000E+00 -0.20776124468E+04  0.20776124468E+04  0.50400001928E-02 0. -1.
    10030    2    1    2    0    0  0.00000000000E+00  0.00000000000E+00 -0.51592445022E+03  0.36393004434E+04  0.36025448892E+04 0.  0.
        2    1    3    3  502    0  0.11480465798E+04 -0.19687086361E+03 -0.16459576478E+04  0.20164190201E+04  0.25500000920E-02 0. -1.
       -2    1    3    3    0  502 -0.11480465798E+04  0.19687086361E+03  0.11300331975E+04  0.16228814233E+04  0.25500000920E-02 0.  1.
</event>
<event>
 5   0  0.8024500E-09  0.3602307E+04  0.7818609E-02  0.8089963E-01
       -1   -1    0    0    0  501  0.00000000000E+00  0.00000000000E+00  0.13885581614E+04  0.13885581614E+04  0.50400001928E-02 0. -1.
        1   -1    0    0  501    0  0.00000000000E+00  0.00000000000E+00 -0.23363477025E+04  0.23363477025E+04  0.50400001928E-02 0.  1.
    10030    2    1    2    0    0  0.00000000000E+00  0.00000000000E+00 -0.94778954104E+03  0.37249058639E+04  0.36023074107E+04 0.  0.
        1    1    3    3  502    0  0.11132859904E+03  0.17175482206E+04  0.75009152593E+02  0.17227862085E+04  0.50400001928E-02 0.  1.
       -1    1    3    3    0  502 -0.11132859904E+03 -0.17175482206E+04 -0.10227986936E+04  0.20021196555E+04  0.50400001928E-02 0. -1.
</event>
<event>
 5   0  0.2494592E-08  0.3599938E+04  0.7818609E-02  0.8090506E-01
        2   -1    0    0  501    0  0.00000000000E+00  0.00000000000E+00  0.14863816140E+04  0.14863816140E+04  0.25500000920E-02 0. -1.
       -2   -1    0    0    0  501  0.00000000000E+00  0.00000000000E+00 -0.21797148034E+04  0.21797148034E+04  0.25500000920E-02 0.  1.
    10030    2    1    2    0    0  0.00000000000E+00  0.00000000000E+00 -0.69333318942E+03  0.36660964173E+04  0.35999377814E+04 0.  0.
        1    1    3    3  502    0  0.65436146618E+03  0.52245198113E+03 -0.19692919492E+04  0.21399195738E+04  0.50400001928E-02 0.  1.
       -1    1    3    3    0  502 -0.65436146618E+03 -0.52245198113E+03  0.12759587598E+04  0.15261768435E+04  0.50400001928E-02 0. -1.
</event>
<event>
 5   0  0.2476968E-08  0.3602156E+04  0.7818609E-02  0.8089998E-01
       -2   -1    0    0    0  501  0.00000000000E+00  0.00000000000E+00  0.27842196000E+04  0.27842196000E+04  0.25500000920E-02 0. -1.
        2   -1    0    0  501    0  0.00000000000E+00  0.00000000000E+00 -0.11650959072E+04  0.11650959072E+04  0.25500000920E-02 0.  1.
    10030    2    1    2    0    0  0.00000000000E+00  0.00000000000E+00  0.16191236928E+04  0.39493155072E+04  0.36021564989E+04 0.  0.
        2    1    3    3  502    0  0.13233850272E+04  0.72956433676E+03 -0.26481370476E+03  0.15341898025E+04  0.25500000920E-02 0.  1.
       -2    1    3    3    0  502 -0.13233850272E+04 -0.72956433676E+03  0.18839373976E+04  0.24151257047E+04  0.25500000920E-02 0. -1.
</event>
<event>
 5   0  0.8024500E-09  0.3601189E+04  0.7818609E-02  0.8090219E-01
        1   -1    0    0  501    0  0.00000000000E+00  0.00000000000E+00  0.15601967169E+04  0.15601967169E+04  0.50400001928E-02 0.  1.
       -1   -1    0    0    0  501  0.00000000000E+00  0.00000000000E+00 -0.20780335092E+04  0.20780335092E+04  0.50400001928E-02 0. -1.
    10030    2    1    2    0    0  0.00000000000E+00  0.00000000000E+00 -0.51783679233E+03  0.36382302262E+04  0.36011892807E+04 0.  0.
        1    1    3    3  502    0  0.10173125536E+04  0.12577915774E+03  0.12366443701E+04  0.16062485880E+04  0.50400001928E-02 0.  1.
       -1    1    3    3    0  502 -0.10173125536E+04 -0.12577915774E+03 -0.17544811625E+04  0.20319816381E+04  0.50400001928E-02 0. -1.
</event>
<event>
 5   0  0.8063410E-09  0.3598253E+04  0.7818609E-02  0.8090892E-01
        1   -1    0    0  501    0  0.00000000000E+00  0.00000000000E+00  0.24236002737E+04  0.24236002738E+04  0.50400001928E-02 0. -1.
       -1   -1    0    0    0  501  0.00000000000E+00  0.00000000000E+00 -0.13355566610E+04  0.13355566610E+04  0.50400001928E-02 0.  1.
    10030    2    1    2    0    0  0.00000000000E+00  0.00000000000E+00  0.10880436128E+04  0.37591569347E+04  0.35982526255E+04 0.  0.
        2    1    3    3  502    0  0.17305739618E+04  0.33339667912E+03  0.92188020802E+03  0.19889451226E+04  0.25500000920E-02 0. -1.
       -2    1    3    3    0  502 -0.17305739618E+04 -0.33339667912E+03  0.16616340474E+03  0.17702118121E+04  0.25500000920E-02 0.  1.
</event>
<event>
 5   0  0.2494592E-08  0.3593855E+04  0.7818609E-02  0.8091901E-01
       -2   -1    0    0    0  501  0.00000000000E+00  0.00000000000E+00  0.11547277175E+04  0.11547277175E+04  0.25500000920E-02 0.  1.
        2   -1    0    0  501    0  0.00000000000E+00  0.00000000000E+00 -0.27962856592E+04  0.27962856592E+04  0.25500000920E-02 0. -1.
    10030    2    1    2    0    0  0.00000000000E+00  0.00000000000E+00 -0.16415579417E+04  0.39510133767E+04  0.35938550649E+04 0.  0.
        1    1    3    3  502    0  0.91185524005E+03  0.10825828376E+04  0.39625186759E+03  0.14698575175E+04  0.50400001928E-02 0.  1.
       -1    1    3    3    0  502 -0.91185524005E+03 -0.10825828376E+04 -0.20378098093E+04  0.24811558593E+04  0.50400001928E-02 0. -1.
</event>
<event>
 5   0  0.8063410E-09  0.3599287E+04  0.7818609E-02  0.8090655E-01
        1   -1    0    0  501    0  0.00000000000E+00  0.00000000000E+00  0.20930920424E+04  0.20930920424E+04  0.50400001928E-02 0. -1.
       -1   -1    0    0    0  501  0.00000000000E+00  0.00000000000E+00 -0.15473358666E+04  0.15473358666E+04  0.50400001928E-02 0.  1.
    10030    2    1    2    0    0  0.00000000000E+00  0.00000000000E+00  0.54575617580E+03  0.36404279090E+04  0.35992868123E+04 0.  0.
        2    1    3    3  502    0 -0.92584128074E+03 -0.67180191108E+03  0.16780808423E+04  0.20308754758E+04  0.25500000920E-02 0. -1.
       -2    1    3    3    0  502  0.92584128074E+03  0.67180191108E+03 -0.11323246665E+04  0.16095524332E+04  0.25500000920E-02 0.  1.
</event>
<event>
 5   0  0.8247570E-09  0.3598632E+04  0.7818609E-02  0.8090805E-01
        1   -1    0    0  501    0  0.00000000000E+00  0.00000000000E+00  0.25632950864E+04  0.25632950864E+04  0.50400001928E-02 0. -1.
       -1   -1    0    0    0  501  0.00000000000E+00  0.00000000000E+00 -0.12630376522E+04  0.12630376522E+04  0.50400001928E-02 0.  1.
    10030    2    1    2    0    0  0.00000000000E+00  0.00000000000E+00  0.13002574342E+04  0.38263327387E+04  0.35986320779E+04 0.  0.
        3    1    3    3  502    0  0.73731681739E+02  0.45366735059E+03  0.24998248913E+04  0.25417267601E+04  0.10100000352E+00 0. -1.
       -3    1    3    3    0  502 -0.73731681739E+02 -0.45366735059E+03 -0.11995674571E+04  0.12846059786E+04  0.10100000352E+00 0.  1.
</event>
<event>
 5   0  0.2590795E-08  0.3598676E+04  0.7818609E-02  0.8090795E-01
       -2   -1    0    0    0  501  0.00000000000E+00  0.00000000000E+00  0.15940200418E+04  0.15940200418E+04  0.25500000920E-02 0.  1.
        2   -1    0    0  501    0  0.00000000000E+00  0.00000000000E+00 -0.20311022349E+04  0.20311022350E+04  0.25500000920E-02 0. -1.
    10030    2    1    2    0    0  0.00000000000E+00  0.00000000000E+00 -0.43708219312E+03  0.36251222768E+04  0.35986762397E+04 0.  0.
        4    1    3    3  502    0  0.11413023706E+03 -0.66387383945E+03 -0.18992934382E+04  0.20152100047E+04  0.12699999809E+01 0. -1.
       -4    1    3    3    0  502 -0.11413023706E+03  0.66387383945E+03  0.14622112451E+04  0.16099122721E+04  0.12699999809E+01 0.  1.
</event>
<event>
 5   0  0.2590795E-08  0.3602671E+04  0.7818609E-02  0.8089880E-01
        2   -1    0    0  501    0  0.00000000000E+00  0.00000000000E+00  0.24131593064E+04  0.24131593064E+04  0.25500000920E-02 0. -1.
       -2   -1    0    0    0  501  0.00000000000E+00  0.00000000000E+00 -0.13446311862E+04  0.13446311862E+04  0.25500000920E-02 0.  1.
    10030    2    1    2    0    0  0.00000000000E+00  0.00000000000E+00  0.10685281203E+04  0.37577904926E+04  0.36026708207E+04 0.  0.
        4    1    3    3  502    0 -0.10989871389E+04 -0.14065126392E+04  0.78709964720E+03  0.19507890720E+04  0.12699999809E+01 0. -1.
       -4    1    3    3    0  502  0.10989871389E+04  0.14065126392E+04  0.28142847306E+03  0.18070014206E+04  0.12699999809E+01 0.  1.
</event>
<event>
 5   0  0.2590795E-08  0.3600177E+04  0.7818609E-02  0.8090451E-01
        2   -1    0    0  501    0  0.00000000000E+00  0.00000000000E+00  0.19354433864E+04  0.19354433864E+04  0.25500000920E-02 0. -1.
       -2   -1    0    0    0  501  0.00000000000E+00  0.00000000000E+00 -0.16741995411E+04  0.16741995411E+04  0.25500000920E-02 0.  1.
    10030    2    1    2    0    0  0.00000000000E+00  0.00000000000E+00  0.26124384532E+03  0.36096429275E+04  0.36001769009E+04 0.  0.
        4    1    3    3  502    0  0.12935318920E+04 -0.64195924805E+03 -0.94690394789E+03  0.17268367413E+04  0.12699999809E+01 0.  1.
       -4    1    3    3    0  502 -0.12935318920E+04  0.64195924805E+03  0.12081477932E+04  0.18828061862E+04  0.12699999809E+01 0. -1.
</event>
<event>
 5   0  0.2608070E-08  0.3609396E+04  0.7818609E-02  0.8088343E-01
        2   -1    0    0  501    0  0.00000000000E+00  0.00000000000E+00  0.25296747303E+04  0.25296747303E+04  0.25500000920E-02 0. -1.
       -2   -1    0    0    0  501  0.00000000000E+00  0.00000000000E+00 -0.12874915456E+04  0.12874915456E+04  0.25500000920E-02 0.  1.
    10030    2    1    2    0    0  0.00000000000E+00  0.00000000000E+00  0.12421831847E+04  0.38171662759E+04  0.36093959762E+04 0.  0.
        3    1    3    3  502    0  0.31807635942E+03 -0.13527416861E+04 -0.59664708916E+03  0.15123063178E+04  0.10100000352E+00 0.  1.
       -3    1    3    3    0  502 -0.31807635942E+03  0.13527416861E+04  0.18388302739E+04  0.23048599580E+04  0.10100000352E+00 0. -1.
</event>
<event>
 5   0  0.8024500E-09  0.3600353E+04  0.7818609E-02  0.8090411E-01
        1   -1    0    0  501    0  0.00000000000E+00  0.00000000000E+00  0.18249423533E+04  0.18249423533E+04  0.50400001928E-02 0. -1.
       -1   -1    0    0    0  501  0.00000000000E+00  0.00000000000E+00 -0.17757470386E+04  0.17757470386E+04  0.50400001928E-02 0.  1.
    10030    2    1    2    0    0  0.00000000000E+00  0.00000000000E+00  0.49195314646E+02  0.36006893919E+04  0.36003533046E+04 0.  0.
        1    1    3    3  502    0  0.72162068770E+02  0.15818290163E+04  0.88097519054E+03  0.18120451671E+04  0.50400001928E-02 0. -1.
       -1    1    3    3    0  502 -0.72162068770E+02 -0.15818290163E+04 -0.83177987589E+03  0.17886442248E+04  0.50400001928E-02 0.  1.
</event>
<event>
 5   0  0.2476968E-08  0.3600038E+04  0.7818609E-02  0.8090483E-01
       -2   -1    0    0    0  501  0.00000000000E+00  0.00000000000E+00  0.19583337712E+04  0.19583337712E+04  0.25500000920E-02 0.  1.
        2   -1    0    0  501    0  0.00000000000E+00  0.00000000000E+00 -0.16545030512E+04  0.16545030512E+04  0.25500000920E-02 0. -1.
    10030    2    1    2    0    0  0.00000000000E+00  0.00000000000E+00  0.30383071998E+03  0.36128368224E+04  0.36000384441E+04 0.  0.
        2    1    3    3  502    0 -0.50930118474E+03  0.17211793512E+04  0.16442325167E+02  0.17950254611E+04  0.25500000920E-02 0. -1.
       -2    1    3    3    0  502  0.50930118474E+03 -0.17211793512E+04  0.28738839482E+03  0.18178113613E+04  0.25500000920E-02 0.  1.
</event>
<event>
 5   0  0.2494592E-08  0.3594832E+04  0.7818609E-02  0.8091677E-01
        2   -1    0    0  501    0  0.00000000000E+00  0.00000000000E+00  0.14962163268E+04  0.14962163268E+04  0.25500000920E-02 0.  1.
       -2   -1    0    0    0  501  0.00000000000E+00  0.00000000000E+00 -0.21592491886E+04  0.21592491886E+04  0.25500000920E-02 0. -1.
    10030    2    1    2    0    0  0.00000000000E+00  0.00000000000E+00 -0.66303286180E+03  0.36554655154E+04  0.35948317844E+04 0.  0.
        1    1    3    3  502    0 -0.17572018622E+04  0.35079970049E+03 -0.18812350206E+03  0.18017239707E+04  0.50400001928E-02 0.  1.
       -1    1    3    3    0  502  0.17572018622E+04 -0.35079970049E+03 -0.47490935973E+03  0.18537415447E+04  0.50400001928E-02 0. -1.
</event>
<event>
 5   0  0.8063410E-09  0.3598934E+04  0.7818609E-02  0.8090736E-01
        1   -1    0    0  501    0  0.00000000000E+00  0.00000000000E+00  0.23118805725E+04  0.23118805725E+04  0.50400001928E-02 0. -1.
       -1   -1    0    0    0  501  0.00000000000E+00  0.00000000000E+00 -0.14006264578E+04  0.14006264578E+04  0.50400001928E-02 0.  1.
    10030    2    1    2    0    0  0.00000000000E+00  0.00000000000E+00  0.91125411469E+03  0.37125070303E+04  0.35989337850E+04 0.  0.
        2    1    3    3  502    0  0.50242508429E+03  0.14156515869E+04  0.14776400980E+04  0.21071119192E+04  0.25500000920E-02 0. -1.
       -2    1    3    3    0  502 -0.50242508429E+03 -0.14156515869E+04 -0.56638598332E+03  0.16053951111E+04  0.25500000920E-02 0.  1.
</event>
<event>
 5   0  0.8063410E-09  0.3607246E+04  0.7818609E-02  0.8088834E-01
       -1   -1    0    0    0  501  0.00000000000E+00  0.00000000000E+00  0.21846326280E+04  0.21846326280E+04  0.50400001928E-02 0.  1.
        1   -1    0    0  501    0  0.00000000000E+00  0.00000000000E+00 -0.14890631691E+04  0.14890631691E+04  0.50400001928E-02 0. -1.
    10030    2    1    2    0    0  0.00000000000E+00  0.00000000000E+00  0.69556945894E+03  0.36736957971E+04  0.36072460322E+04 0.  0.
        2    1    3    3  502    0  0.83529714363E+03 -0.15166324431E+04  0.86222424247E+03  0.19342507412E+04  0.25500000920E-02 0.  1.
       -2    1    3    3    0  502 -0.83529714363E+03  0.15166324431E+04 -0.16665478353E+03  0.17394450559E+04  0.25500000920E-02 0. -1.
</event>
<event>
 5   0  0.2494592E-08  0.3600003E+04  0.7818609E-02  0.8090491E-01
        2   -1    0    0  501    0  0.00000000000E+00  0.00000000000E+00  0.21201039812E+04  0.21201039812E+04  0.25500000920E-02 0. -1.
       -2   -1    0    0    0  501  0.00000000000E+00  0.00000000000E+00 -0.15282296839E+04  0.15282296840E+04  0.25500000920E-02 0.  1.
    10030    2    1    2    0    0  0.00000000000E+00  0.00000000000E+00  0.59187429721E+03  0.36483336651E+04  0.36000032428E+04 0.  0.
        1    1    3    3  502    0 -0.36926181085E+03  0.12208751413E+03  0.20770144551E+04  0.21131135068E+04  0.50400001928E-02 0. -1.
       -1    1    3    3    0  502  0.36926181085E+03 -0.12208751413E+03 -0.14851401578E+04  0.15352201583E+04  0.50400001928E-02 0.  1.
</event>
<event>
 5   0  0.2590795E-08  0.3601741E+04  0.7818609E-02  0.8090093E-01
        2   -1    0    0  501    0  0.00000000000E+00  0.00000000000E+00  0.25497491281E+04  0.25497491281E+04  0.25500000920E-02 0.  1.
       -2   -1    0    0    0  501  0.00000000000E+00  0.00000000000E+00 -0.12719422607E+04  0.12719422607E+04  0.25500000920E-02 0. -1.
    10030    2    1    2    0    0  0.00000000000E+00  0.00000000000E+00  0.12778068674E+04  0.38216913888E+04  0.36017405072E+04 0.  0.
        4    1    3    3  502    0 -0.11737540921E+04 -0.10694951532E+04  0.15402577028E+04  0.22122192377E+04  0.12699999809E+01 0.  1.
       -4    1    3    3    0  502  0.11737540921E+04  0.10694951532E+04 -0.26245083544E+03  0.16094721511E+04  0.12699999809E+01 0. -1.
</event>
<event>
 5   0  0.2590795E-08  0.3600620E+04  0.7818609E-02  0.8090350E-01
       -2   -1    0    0    0  501  0.00000000000E+00  0.00000000000E+00  0.23621587175E+04  0.23621587175E+04  0.25500000920E-02 0. -1.
        2   -1    0    0  501    0  0.00000000000E+00  0.00000000000E+00 -0.13720990672E+04  0.13720990672E+04  0.25500000920E-02 0.  1.
    10030    2    1    2    0    0  0.00000000000E+00  0.00000000000E+00  0.99005965031E+03  0.37342577847E+04  0.36006198205E+04 0.  0.
        4    1    3    3  502    0  0.96707141138E+03  0.21454706413E+03  0.20541064789E+04  0.22804851671E+04  0.12699999809E+01 0. -1.
       -4    1    3    3    0  502 -0.96707141138E+03 -0.21454706413E+03 -0.10640468286E+04  0.14537726177E+04  0.12699999809E+01 0.  1.
</event>
<event>
 5   0  0.8247570E-09  0.3599960E+04  0.7818609E-02  0.8090501E-01
       -1   -1    0    0    0  501  0.00000000000E+00  0.00000000000E+00  0.18825330228E+04  0.18825330229E+04  0.50400001928E-02 0.  1.
        1   -1    0    0  501    0  0.00000000000E+00  0.00000000000E+00 -0.17210469521E+04  0.17210469521E+04  0.50400001928E-02 0. -1.
    10030    2    1    2    0    0  0.00000000000E+00  0.00000000000E+00  0.16148607071E+03  0.36035799750E+04  0.35999598449E+04 0.  0.
        3    1    3    3  502    0  0.70960770241E+03 -0.12769034866E+04 -0.97193327807E+03  0.17546167423E+04  0.10100000352E+00 0. -1.
       -3    1    3    3    0  502 -0.70960770241E+03  0.12769034866E+04  0.11334193488E+04  0.18489632326E+04  0.10100000352E+00 0.  1.
</event>
<event>
 5   0  0.8024500E-09  0.3600765E+04  0.7818609E-02  0.8090316E-01
       -1   -1    0    0    0  501  0.00000000000E+00  0.00000000000E+00  0.10834611446E+04  0.10834611446E+04  0.50400001928E-02 0. -1.
        1   -1    0    0  501    0  0.00000000000E+00  0.00000000000E+00 -0.29916879062E+04  0.29916879062E+04  0.50400001928E-02 0.  1.
    10030    2    1    2    0    0  0.00000000000E+00  0.00000000000E+00 -0.19082267616E+04  0.40751490509E+04  0.36007652538E+04 0.  0.
        5    1    3    3  502    0 -0.13438163272E+04 -0.11979735795E+04 -0.97595620815E+03  0.20478026342E+04  0.46999998093E+01 0.  1.
       -5    1    3    3    0  502  0.13438163272E+04  0.11979735795E+04 -0.93227055347E+03  0.20273464167E+04  0.46999998093E+01 0. -1.
</event>
<event>
 5   0  0.2476968E-08  0.3588729E+04  0.7818609E-02  0.8093078E-01
       -2   -1    0    0    0  501  0.00000000000E+00  0.00000000000E+00  0.30501150857E+04  0.30501150857E+04  0.25500000920E-02 0.  1.
        2   -1    0    0  501    0  0.00000000000E+00  0.00000000000E+00 -0.10556141579E+04  0.10556141579E+04  0.25500000920E-02 0. -1.
    10030    2    1    2    0    0  0.00000000000E+00  0.00000000000E+00  0.19945009278E+04  0.41057292437E+04  0.35887293951E+04 0.  0.
        2    1    3    3  502    0 -0.14549238649E+03 -0.36737374716E+03  0.29997229493E+04  0.30256353510E+04  0.25500000920E-02 0.  1.
       -2    1    3    3    0  502  0.14549238649E+03  0.36737374716E+03 -0.10052220215E+04  0.10800938927E+04  0.25500000920E-02 0. -1.
</event>
<event>
 5   0  0.8063410E-09  0.3599059E+04  0.7818609E-02  0.8090707E-01
        1   -1    0    0  501    0  0.00000000000E+00  0.00000000000E+00  0.21891429080E+04  0.21891429080E+04  0.50400001928E-02 0. -1.
       -1   -1    0    0    0  501  0.00000000000E+00  0.00000000000E+00 -0.14792580204E+04  0.14792580204E+04  0.50400001928E-02 0.  1.
    10030    2    1    2    0    0  0.00000000000E+00  0.00000000000E+00  0.70988488765E+03  0.36684009284E+04  0.35990594351E+04 0.  0.
        2    1    3    3  502    0 -0.56731980686E+03  0.62610646940E+03  0.19744046969E+04  0.21475881778E+04  0.25500000920E-02 0. -1.
       -2    1    3    3    0  502  0.56731980686E+03 -0.62610646940E+03 -0.12645198093E+04  0.15208127506E+04  0.25500000920E-02 0.  1.
</event>
<event>
 5   0  0.8063410E-09  0.3604990E+04  0.7818609E-02  0.8089350E-01
        1   -1    0    0  501    0  0.00000000000E+00  0.00000000000E+00  0.16643861886E+04  0.16643861886E+04  0.50400001928E-02 0. -1.
       -1   -1    0    0    0  501  0.00000000000E+00  0.00000000000E+00 -0.19520640534E+04  0.19520640534E+04  0.50400001928E-02 0.  1.
    10030    2    1    2    0    0  0.00000000000E+00  0.00000000000E+00 -0.28767786487E+03  0.36164502420E+04  0.36049901247E+04 0.  0.
        2    1    3    3  502    0 -0.87080343168E+03 -0.78388414307E+03  0.12302656014E+04  0.16989191906E+04  0.25500000920E-02 0. -1.
       -2    1    3    3    0  502  0.87080343168E+03  0.78388414307E+03 -0.15179434662E+04  0.19175310514E+04  0.25500000920E-02 0.  1.
</event>
<event>
 5   0  0.8024500E-09  0.3600106E+04  0.7818609E-02  0.8090468E-01
       -1   -1    0    0    0  501  0.00000000000E+00  0.00000000000E+00  0.14836794495E+04  0.14836794496E+04  0.50400001928E-02 0.  1.
        1   -1    0    0  501    0  0.00000000000E+00  0.00000000000E+00 -0.21838881461E+04  0.21838881461E+04  0.50400001928E-02 0. -1.
    10030    2    1    2    0    0  0.00000000000E+00  0.00000000000E+00 -0.70020869657E+03  0.36675675957E+04  0.36001055332E+04 0.  0.
        1    1    3    3  502    0  0.80377022136E+03 -0.57931293878E+02 -0.19898586533E+04  0.21468442104E+04  0.50400001928E-02 0. -1.
       -1    1    3    3    0  502 -0.80377022136E+03  0.57931293878E+02  0.12896499567E+04  0.15207233853E+04  0.50400001928E-02 0.  1.
</event>
<event>
 5   0  0.2476968E-08  0.3599604E+04  0.7818609E-02  0.8090582E-01
       -2   -1    0    0    0  501  0.00000000000E+00  0.00000000000E+00  0.23218003922E+04  0.23218003922E+04  0.25500000920E-02 0.  1.
        2   -1    0    0  501    0  0.00000000000E+00  0.00000000000E+00 -0.13951619768E+04  0.13951619768E+04  0.25500000920E-02 0. -1.
    10030    2    1    2    0    0  0.00000000000E+00  0.00000000000E+00  0.92663841538E+03  0.37169623691E+04  0.35996042144E+04 0.  0.
        2    1    3    3  502    0 -0.43046591903E+03 -0.16488276740E+04 -0.13465874298E+03  0.17094053302E+04  0.25500000920E-02 0.  1.
       -2    1    3    3    0  502  0.43046591903E+03  0.16488276740E+04  0.10612971584E+04  0.20075570389E+04  0.25500000920E-02 0. -1.
</event>
<event>
 5   0  0.2590795E-08  0.3594790E+04  0.7818609E-02  0.8091686E-01
        2   -1    0    0  501    0  0.00000000000E+00  0.00000000000E+00  0.17329070441E+04  0.17329070441E+04  0.25500000920E-02 0. -1.
       -2   -1    0    0    0  501  0.00000000000E+00  0.00000000000E+00 -0.18642824931E+04  0.18642824931E+04  0.25500000920E-02 0.  1.
    10030    2    1    2    0    0  0.00000000000E+00  0.00000000000E+00 -0.13137544902E+03  0.35971895372E+04  0.35947897099E+04 0.  0.
        4    1    3    3  502    0  0.17290754056E+04  0.46229918343E+03 -0.23073527256E+03  0.18046225844E+04  0.12699999809E+01 0. -1.
       -4    1    3    3    0  502 -0.17290754056E+04 -0.46229918343E+03  0.99359823544E+02  0.17925669529E+04  0.12699999809E+01 0.  1.
</event>
<event>
 5   0  0.8247570E-09  0.3600893E+04  0.7818609E-02  0.8090287E-01
       -1   -1    0    0    0  501  0.00000000000E+00  0.00000000000E+00  0.14065385780E+04  0.14065385780E+04  0.50400001928E-02 0. -1.
        1   -1    0    0  501    0  0.00000000000E+00  0.00000000000E+00 -0.23046701400E+04  0.23046701400E+04  0.50400001928E-02 0.  1.
    10030    2    1    2    0    0  0.00000000000E+00  0.00000000000E+00 -0.89813156202E+03  0.37112087180E+04  0.36008929234E+04 0.  0.
        3    1    3    3  502    0 -0.39803613950E+03  0.10212935744E+04 -0.19211563547E+04  0.22118578351E+04  0.10100000352E+00 0.  1.
       -3    1    3    3    0  502  0.39803613950E+03 -0.10212935744E+04  0.10230247927E+04  0.14993508829E+04  0.10100000352E+00 0. -1.
</event>
<event>
 5   0  0.2494592E-08  0.3601454E+04  0.7818609E-02  0.8090159E-01
       -2   -1    0    0    0  501  0.00000000000E+00  0.00000000000E+00  0.13749866464E+04  0.13749866464E+04  0.25500000920E-02 0. -1.
        2   -1    0    0  501    0  0.00000000000E+00  0.00000000000E+00 -0.23582904292E+04  0.23582904292E+04  0.25500000920E-02 0.  1.
    10030    2    1    2    0    0  0.00000000000E+00  0.00000000000E+00 -0.98330378280E+03  0.37332770756E+04  0.36014540666E+04 0.  0.
        1    1    3    3  502    0  0.13026666880E+04  0.11199444653E+04  0.67923253691E+02  0.17192526498E+04  0.50400001928E-02 0. -1.
       -1    1    3    3    0  502 -0.13026666880E+04 -0.11199444653E+04 -0.10512270365E+04  0.20140244258E+04  0.50400001928E-02 0.  1.
</event>
<event>
 5   0  0.8063410E-09  0.3599220E+04  0.7818609E-02  0.8090670E-01
        1   -1    0    0  501    0  0.00000000000E+00  0.00000000000E+00  0.16917215865E+04  0.16917215866E+04  0.50400001928E-02 0.  1.
       -1   -1    0    0    0  501  0.00000000000E+00  0.00000000000E+00 -0.19143786926E+04  0.19143786926E+04  0.50400001928E-02 0. -1.
    10030    2    1    2    0    0  0.00000000000E+00  0.00000000000E+00 -0.22265710608E+03  0.36061002792E+04  0.35992197817E+04 0.  0.
        2    1    3    3  502    0  0.43404861592E+03  0.73694705898E+03  0.14750828821E+04  0.17050978499E+04  0.25500000920E-02 0.  1.
       -2    1    3    3    0  502 -0.43404861592E+03 -0.73694705898E+03 -0.16977399882E+04  0.19010024293E+04  0.25500000920E-02 0. -1.
</event>
<event>
 5   0  0.8024500E-09  0.3599313E+04  0.7818609E-02  0.8090649E-01
        1   -1    0    0  501    0  0.00000000000E+00  0.00000000000E+00  0.13663066491E+04  0.13663066491E+04  0.50400001928E-02 0.  1.
       -1   -1    0    0    0  501  0.00000000000E+00  0.00000000000E+00 -0.23704519386E+04  0.23704519386E+04  0.50400001928E-02 0. -1.
    10030    2    1    2    0    0  0.00000000000E+00  0.00000000000E+00 -0.10041452895E+04  0.37367585877E+04  0.35993134040E+04 0.  0.
        1    1    3    3  502    0  0.82689316888E+03 -0.60425507244E+03  0.10342636962E+04  0.14555335443E+04  0.50400001928E-02 0.  1.
       -1    1    3    3    0  502 -0.82689316888E+03  0.60425507244E+03 -0.20384089857E+04  0.22812250433E+04  0.50400001928E-02 0. -1.
</event>
<event>
 5   0  0.8247570E-09  0.3600110E+04  0.7818609E-02  0.8090466E-01
       -1   -1    0    0    0  501  0.00000000000E+00  0.00000000000E+00  0.20808172314E+04  0.20808172314E+04  0.50400001928E-02 0.  1.
        1   -1    0    0  501    0  0.00000000000E+00  0.00000000000E+00 -0.15571760909E+04  0.15571760909E+04  0.50400001928E-02 0. -1.
    10030    2    1    2    0    0  0.00000000000E+00  0.00000000000E+00  0.52364114044E+03  0.36379933223E+04  0.36001104663E+04 0.  0.
        3    1    3    3  502    0  0.27368700844E+03  0.17596123222E+04  0.52737610736E+03  0.18572198771E+04  0.10100000352E+00 0.  1.
       -3    1    3    3    0  502 -0.27368700844E+03 -0.17596123222E+04 -0.37349669164E+01  0.17807734452E+04  0.10100000352E+00 0. -1.
</event>
<event>
 5   0  0.8024500E-09  0.3598793E+04  0.7818609E-02  0.8090768E-01
        1   -1    0    0  501    0  0.00000000000E+00  0.00000000000E+00  0.16515471346E+04  0.16515471346E+04  0.50400001928E-02 0. -1.
       -1   -1    0    0    0  501  0.00000000000E+00  0.00000000000E+00 -0.19604818815E+04  0.19604818815E+04  0.50400001928E-02 0.  1.
    10030    2    1    2    0    0  0.00000000000E+00  0.00000000000E+00 -0.30893474685E+03  0.36120290161E+04  0.35987932610E+04 0.  0.
        1    1    3    3  502    0 -0.24239222060E+03  0.16777901931E+04 -0.76008886668E+03  0.18578129631E+04  0.50400001928E-02 0.  1.
       -1    1    3    3    0  502  0.24239222060E+03 -0.16777901931E+04  0.45115411983E+03  0.17542160530E+04  0.50400001928E-02 0. -1.
</event>
<event>
 5   0  0.8024500E-09  0.3601738E+04  0.7818609E-02  0.8090094E-01
        1   -1    0    0  501    0  0.00000000000E+00  0.00000000000E+00  0.21306929343E+04  0.21306929343E+04  0.50400001928E-02 0.  1.
       -1   -1    0    0    0  501  0.00000000000E+00  0.00000000000E+00 -0.15221008459E+04  0.15221008459E+04  0.50400001928E-02 0. -1.
    10030    2    1    2    0    0  0.00000000000E+00  0.00000000000E+00  0.60859208839E+03  0.36527937802E+04  0.36017382013E+04 0.  0.
        1    1    3    3  502    0  0.15622102259E+04  0.34263341256E+03  0.11438169908E+04  0.19662695018E+04  0.50400001928E-02 0.  1.
       -1    1    3    3    0  502 -0.15622102259E+04 -0.34263341256E+03 -0.53522490238E+03  0.16865242784E+04  0.50400001928E-02 0. -1.
</event>
<event>
 5   0  0.8063410E-09  0.3597204E+04  0.7818609E-02  0.8091132E-01
       -1   -1    0    0    0  501  0.00000000000E+00  0.00000000000E+00  0.24824093854E+04  0.24824093854E+04  0.50400001928E-02 0. -1.
        1   -1    0    0  501    0  0.00000000000E+00  0.00000000000E+00 -0.13031572268E+04  0.13031572268E+04  0.50400001928E-02 0.  1.
    10030    2    1    2    0    0  0.00000000000E+00  0.00000000000E+00  0.11792521586E+04  0.37855666122E+04  0.35972043203E+04 0.  0.
        2    1    3    3  502    0 -0.21150258572E+03 -0.20804866500E+03  0.24564822312E+04  0.24743327471E+04  0.25500000920E-02 0. -1.
       -2    1    3    3    0  502  0.21150258572E+03  0.20804866500E+03 -0.12772300726E+04  0.13112338652E+04  0.25500000920E-02 0.  1.
</event>
<event>
 5   0  0.8024500E-09  0.3600671E+04  0.7818609E-02  0.8090338E-01
        1   -1    0    0  501    0  0.00000000000E+00  0.00000000000E+00  0.24830597384E+04  0.24830597384E+04  0.50400001928E-02 0.  1.
       -1   -1    0    0    0  501  0.00000000000E+00  0.00000000000E+00 -0.13053278844E+04  0.13053278844E+04  0.50400001928E-02 0. -1.
    10030    2    1    2    0    0  0.00000000000E+00  0.00000000000E+00  0.11777318540E+04  0.37883876228E+04  0.36006705571E+04 0.  0.
        1    1    3    3  502    0 -0.12656973118E+04  0.12663087302E+04  0.78760405341E+03  0.19559774105E+04  0.50400001928E-02 0.  1.
       -1    1    3    3    0  502  0.12656973118E+04 -0.12663087302E+04  0.39012780062E+03  0.18324102123E+04  0.50400001928E-02 0. -1.
</event>
<event>
 5   0  0.2476968E-08  0.3599687E+04  0.7818609E-02  0.8090563E-01
        2   -1    0    0  501    0  0.00000000000E+00  0.00000000000E+00  0.28138648471E+04  0.28138648471E+04  0.25500000920E-02 0.  1.
       -2   -1    0    0    0  501  0.00000000000E+00  0.00000000000E+00 -0.11512411033E+04  0.11512411033E+04  0.25500000920E-02 0. -1.
    10030    2    1    2    0    0  0.00000000000E+00  0.00000000000E+00  0.16626237439E+04  0.39651059504E+04  0.35996871370E+04 0.  0.
        2    1    3    3  502    0  0.53348050737E+03  0.28111312703E+03 -0.10366594210E+04  0.11992867868E+04  0.25500000920E-02 0. -1.
       -2    1    3    3    0  502 -0.53348050737E+03 -0.28111312703E+03  0.26992831648E+04  0.27658191636E+04  0.25500000920E-02 0.  1.
</event>
<event>
 5   0  0.8063410E-09  0.3598795E+04  0.7818609E-02  0.8090768E-01
        1   -1    0    0  501    0  0.00000000000E+00  0.00000000000E+00  0.14894886053E+04  0.14894886053E+04  0.50400001928E-02 0.  1.
       -1   -1    0    0    0  501  0.00000000000E+00  0.00000000000E+00 -0.21737878365E+04  0.21737878365E+04  0.50400001928E-02 0. -1.
    10030    2    1    2    0    0  0.00000000000E+00  0.00000000000E+00 -0.68429923124E+03  0.36632764418E+04  0.35987954723E+04 0.  0.
        2    1    3    3  502    0  0.68441012666E+03 -0.81226464994E+03 -0.18206342645E+04  0.21078188272E+04  0.25500000920E-02 0. -1.
       -2    1    3    3    0  502 -0.68441012666E+03  0.81226464994E+03  0.11363350333E+04  0.15554576146E+04  0.25500000920E-02 0.  1.
</event>
<event>
 5   0  0.8024500E-09  0.3607599E+04  0.7818609E-02  0.8088753E-01
        1   -1    0    0  501    0  0.00000000000E+00  0.00000000000E+00  0.24740431351E+04  0.24740431351E+04  0.50400001928E-02 0.  1.
       -1   -1    0    0    0  501  0.00000000000E+00  0.00000000000E+00 -0.13151317029E+04  0.13151317029E+04  0.50400001928E-02 0. -1.
    10030    2    1    2    0    0  0.00000000000E+00  0.00000000000E+00  0.11589114322E+04  0.37891748381E+04  0.36075989586E+04 0.  0.
        5    1    3    3  502    0  0.10421240490E+04 -0.13380018535E+04 -0.65792409510E+02  0.16972395897E+04  0.46999998093E+01 0. -1.
       -5    1    3    3    0  502 -0.10421240490E+04  0.13380018535E+04  0.12247038417E+04  0.20919352484E+04  0.46999998093E+01 0.  1.
</event>
<event>
 5   0  0.2494592E-08  0.3599236E+04  0.7818609E-02  0.8090667E-01
       -2   -1    0    0    0  501  0.00000000000E+00  0.00000000000E+00  0.15523071678E+04  0.15523071678E+04  0.25500000920E-02 0. -1.
        2   -1    0    0  501    0  0.00000000000E+00  0.00000000000E+00 -0.20863295726E+04  0.20863295726E+04  0.25500000920E-02 0.  1.
    10030    2    1    2    0    0  0.00000000000E+00  0.00000000000E+00 -0.53402240480E+03  0.36386367404E+04  0.35992356689E+04 0.  0.
        1    1    3    3  502    0  0.10543823143E+04 -0.18868539695E+03  0.11949525201E+04  0.16047541148E+04  0.50400001928E-02 0. -1.
       -1    1    3    3    0  502 -0.10543823143E+04  0.18868539695E+03 -0.17289749249E+04  0.20338826256E+04  0.50400001928E-02 0.  1.
</event>
<event>
 5   0  0.2494592E-08  0.3600548E+04  0.7818609E-02  0.8090366E-01
        2   -1    0    0  501    0  0.00000000000E+00  0.00000000000E+00  0.23210250816E+04  0.23210250816E+04  0.25500000920E-02 0.  1.
       -2   -1    0    0    0  501  0.00000000000E+00  0.00000000000E+00 -0.13963600838E+04  0.13963600838E+04  0.25500000920E-02 0. -1.
    10030    2    1    2    0    0  0.00000000000E+00  0.00000000000E+00  0.92466499784E+03  0.37173851654E+04  0.36005481680E+04 0.  0.
        1    1    3    3  502    0  0.14060391453E+04  0.11118073305E+04  0.28980164807E+03  0.18157771377E+04  0.50400001928E-02 0. -1.
       -1    1    3    3    0  502 -0.14060391453E+04 -0.11118073305E+04  0.63486334977E+03  0.19016080278E+04  0.50400001928E-02 0.  1.
</event>
<event>
 5   0  0.2476968E-08  0.3599534E+04  0.7818609E-02  0.8090598E-01
        2   -1    0    0  501    0  0.00000000000E+00  0.00000000000E+00  0.13431750855E+04  0.13431750856E+04  0.25500000920E-02 0. -1.
       -2   -1    0    0    0  501  0.00000000000E+00  0.00000000000E+00 -0.24115706004E+04  0.24115706004E+04  0.25500000920E-02 0.  1.
    10030    2    1    2    0    0  0.00000000000E+00  0.00000000000E+00 -0.10683955148E+04  0.37547456859E+04  0.35995341629E+04 0.  0.
        2    1    3    3  502    0 -0.50354854595E+03 -0.16594394499E+04 -0.31915088473E+02  0.17344506332E+04  0.25500000920E-02 0. -1.
       -2    1    3    3    0  502  0.50354854595E+03  0.16594394499E+04 -0.10364804264E+04  0.20202950528E+04  0.25500000920E-02 0.  1.
</event>
<event>
 5   0  0.2482243E-08  0.3600149E+04  0.7818609E-02  0.8090457E-01
        2   -1    0    0  501    0  0.00000000000E+00  0.00000000000E+00  0.24166748559E+04  0.24166748559E+04  0.25500000920E-02 0.  1.
       -2   -1    0    0    0  501  0.00000000000E+00  0.00000000000E+00 -0.13407964048E+04  0.13407964048E+04  0.25500000920E-02 0. -1.
    10030    2    1    2    0    0  0.00000000000E+00  0.00000000000E+00  0.10758784511E+04  0.37574712606E+04  0.36001494182E+04 0.  0.
        5    1    3    3  502    0 -0.13224502647E+04  0.61451977185E+03 -0.56351533560E+03  0.15633556460E+04  0.46999998093E+01 0. -1.
       -5    1    3    3    0  502  0.13224502647E+04 -0.61451977185E+03  0.16393937867E+04  0.21941156146E+04  0.46999998093E+01 0.  1.
</event>
<event>
 5   0  0.8146881E-09  0.3598903E+04  0.7818609E-02  0.8090743E-01
       -1   -1    0    0    0  501  0.00000000000E+00  0.00000000000E+00  0.97139708007E+03  0.97139708009E+03  0.50400001928E-02 0. -1.
        1   -1    0    0  501    0  0.00000000000E+00  0.00000000000E+00 -0.33333697028E+04  0.33333697028E+04  0.50400001928E-02 0.  1.
    10030    2    1    2    0    0  0.00000000000E+00  0.00000000000E+00 -0.23619726227E+04  0.43047667829E+04  0.35989029418E+04 0.  0.
        4    1    3    3  502    0  0.86385715599E+03  0.13303767844E+04 -0.21972577371E+04  0.27099990315E+04  0.12699999809E+01 0.  1.
       -4    1    3    3    0  502 -0.86385715599E+03 -0.13303767844E+04 -0.16471488565E+03  0.15947677514E+04  0.12699999809E+01 0. -1.
</event>
<event>
 5   0  0.2494592E-08  0.3600228E+04  0.7818609E-02  0.8090439E-01
        2   -1    0    0  501    0  0.00000000000E+00  0.00000000000E+00  0.20168929783E+04  0.20168929783E+04  0.25500000920E-02 0. -1.
       -2   -1    0    0    0  501  0.00000000000E+00  0.00000000000E+00 -0.16066349265E+04  0.16066349265E+04  0.25500000920E-02 0.  1.
    10030    2    1    2    0    0  0.00000000000E+00  0.00000000000E+00  0.41025805181E+03  0.36235279048E+04  0.36002281606E+04 0.  0.
        1    1    3    3  502    0  0.11204805715E+04 -0.62680790479E+03  0.14750578186E+04  0.19555460692E+04  0.50400001928E-02 0. -1.
       -1    1    3    3    0  502 -0.11204805715E+04  0.62680790479E+03 -0.10647997668E+04  0.16679818356E+04  0.50400001928E-02 0.  1.
</event>
<event>
 5   0  0.8024500E-09  0.3598184E+04  0.7818609E-02  0.8090908E-01
        1   -1    0    0  501    0  0.00000000000E+00  0.00000000000E+00  0.11660543935E+04  0.11660543935E+04  0.50400001928E-02 0. -1.
       -1   -1    0    0    0  501  0.00000000000E+00  0.00000000000E+00 -0.27757988612E+04  0.27757988612E+04  0.50400001928E-02 0.  1.
    10030    2    1    2    0    0  0.00000000000E+00  0.00000000000E+00 -0.16097444676E+04  0.39418532547E+04  0.35981842408E+04 0.  0.
        1    1    3    3  502    0  0.13025129704E+04  0.12395739227E+04 -0.87104794542E+03  0.19979509681E+04  0.50400001928E-02 0. -1.
       -1    1    3    3    0  502 -0.13025129704E+04 -0.12395739227E+04 -0.73869652220E+03  0.19439022866E+04  0.50400001928E-02 0.  1.
</event>
<event>
 5   0  0.8063410E-09  0.3599228E+04  0.7818609E-02  0.8090669E-01
        1   -1    0    0  501    0  0.00000000000E+00  0.00000000000E+00  0.26551356718E+04  0.26551356718E+04  0.50400001928E-02 0.  1.
       -1   -1    0    0    0  501  0.00000000000E+00  0.00000000000E+00 -0.12197530742E+04  0.12197530742E+04  0.50400001928E-02 0. -1.
    10030    2    1    2    0    0  0.00000000000E+00  0.00000000000E+00  0.14353825976E+04  0.38748887460E+04  0.35992276383E+04 0.  0.
        2    1    3    3  502    0 -0.10125094080E+04 -0.49087919543E+03 -0.79432115922E+03  0.13773466484E+04  0.25500000920E-02 0. -1.
       -2    1    3    3    0  502  0.10125094080E+04  0.49087919543E+03  0.22297037568E+04  0.24975420975E+04  0.25500000920E-02 0.  1.
</event>
<event>
 5   0  0.8247570E-09  0.3600147E+04  0.7818609E-02  0.8090458E-01
       -1   -1    0    0    0  501  0.00000000000E+00  0.00000000000E+00  0.18970272486E+04  0.18970272486E+04  0.50400001928E-02 0.  1.
        1   -1    0    0  501    0  0.00000000000E+00  0.00000000000E+00 -0.17080751876E+04  0.17080751876E+04  0.50400001928E-02 0. -1.
    10030    2    1    2    0    0  0.00000000000E+00  0.00000000000E+00  0.18895206098E+03  0.36051024362E+04  0.36001473156E+04 0.  0.
        3    1    3    3  502    0  0.13085774151E+04 -0.18444848614E+03  0.13183976454E+04  0.18666998840E+04  0.10100000352E+00 0.  1.
       -3    1    3    3    0  502 -0.13085774151E+04  0.18444848614E+03 -0.11294455844E+04  0.17384025522E+04  0.10100000352E+00 0. -1.
</event>
<event>
 5   0  0.8024500E-09  0.3602626E+04  0.7818609E-02  0.8089890E-01
       -1   -1    0    0    0  501  0.00000000000E+00  0.00000000000E+00  0.12524391405E+04  0.12524391405E+04  0.50400001928E-02 0.  1.
        1   -1    0    0  501    0  0.00000000000E+00  0.00000000000E+00 -0.25907278598E+04  0.25907278599E+04  0.50400001928E-02 0. -1.
    10030    2    1    2    0    0  0.00000000000E+00  0.00000000000E+00 -0.13382887194E+04  0.38431670004E+04  0.36026262499E+04 0.  0.
        5    1    3    3  502    0  0.10866095757E+04 -0.13120677637E+04 -0.44866471829E+02  0.17041940256E+04  0.46999998093E+01 0.  1.
       -5    1    3    3    0  502 -0.10866095757E+04  0.13120677637E+04 -0.12934222475E+04  0.21389729748E+04  0.46999998093E+01 0. -1.
</event>
<event>
 5   0  0.8063410E-09  0.3600468E+04  0.7818609E-02  0.8090385E-01
       -1   -1    0    0    0  501  0.00000000000E+00  0.00000000000E+00  0.19108991237E+04  0.19108991237E+04  0.50400001928E-02 0. -1.
        1   -1    0    0  501    0  0.00000000000E+00  0.00000000000E+00 -0.16959774075E+04  0.16959774075E+04  0.50400001928E-02 0.  1.
    10030    2    1    2    0    0  0.00000000000E+00  0.00000000000E+00  0.21492171620E+03  0.36068765312E+04  0.36004676040E+04 0.  0.
        2    1    3    3  502    0 -0.93970568574E+03  0.99656154700E+02  0.16424623481E+04  0.18949038735E+04  0.25500000920E-02 0. -1.
       -2    1    3    3    0  502  0.93970568574E+03 -0.99656154700E+02 -0.14275406319E+04  0.17119726577E+04  0.25500000920E-02 0.  1.
</event>
<event>
 5   0  0.2494592E-08  0.3600876E+04  0.7818609E-02  0.8090291E-01
       -2   -1    0    0    0  501  0.00000000000E+00  0.00000000000E+00  0.15769388116E+04  0.15769388116E+04  0.25500000920E-02 0.  1.
        2   -1    0    0  501    0  0.00000000000E+00  0.00000000000E+00 -0.20556141450E+04  0.20556141450E+04  0.25500000920E-02 0. -1.
    10030    2    1    2    0    0  0.00000000000E+00  0.00000000000E+00 -0.47867533336E+03  0.36325529566E+04  0.36008764083E+04 0.  0.
        1    1    3    3  502    0  0.10514753515E+04  0.99004111756E+03 -0.13238745173E+04  0.19591900283E+04  0.50400001928E-02 0. -1.
       -1    1    3    3    0  502 -0.10514753515E+04 -0.99004111756E+03  0.84519918397E+03  0.16733629283E+04  0.50400001928E-02 0.  1.
</event>
<event>
 5   0  0.2608070E-08  0.3599555E+04  0.7818609E-02  0.8090594E-01
        2   -1    0    0  501    0  0.00000000000E+00  0.00000000000E+00  0.17715087675E+04  0.17715087675E+04  0.25500000920E-02 0.  1.
       -2   -1    0    0    0  501  0.00000000000E+00  0.00000000000E+00 -0.18284972593E+04  0.18284972593E+04  0.25500000920E-02 0. -1.
    10030    2    1    2    0    0  0.00000000000E+00  0.00000000000E+00 -0.56988491763E+02  0.36000060269E+04  0.35995549315E+04 0.  0.
        3    1    3    3  502    0  0.38867038054E+03 -0.16861557038E+04 -0.52354435221E+03  0.18078397111E+04  0.10100000352E+00 0. -1.
       -3    1    3    3    0  502 -0.38867038054E+03  0.16861557038E+04  0.46655586044E+03  0.17921663157E+04  0.10100000352E+00 0.  1.
</event>
<event>
 5   0  0.8024500E-09  0.3599937E+04  0.7818609E-02  0.8090506E-01
       -1   -1    0    0    0  501  0.00000000000E+00  0.00000000000E+00  0.13208418811E+04  0.13208418811E+04  0.50400001928E-02 0.  1.
        1   -1    0    0  501    0  0.00000000000E+00  0.00000000000E+00 -0.24528948443E+04  0.24528948443E+04  0.50400001928E-02 0. -1.
    10030    2    1    2    0    0  0.00000000000E+00  0.00000000000E+00 -0.11320529632E+04  0.37737367253E+04  0.35999367995E+04 0.  0.
        1    1    3    3  502    0 -0.17366872934E+04  0.21862380732E+02 -0.70638004686E+02  0.17382607533E+04  0.50400001928E-02 0.  1.
       -1    1    3    3    0  502  0.17366872934E+04 -0.21862380732E+02 -0.10614149585E+04  0.20354759721E+04  0.50400001928E-02 0. -1.
</event>
<event>
 5   0  0.8063410E-09  0.3600181E+04  0.7818609E-02  0.8090450E-01
        1   -1    0    0  501    0  0.00000000000E+00  0.00000000000E+00  0.11566159715E+04  0.11566159715E+04  0.50400001928E-02 0. -1.
       -1   -1    0    0    0  501  0.00000000000E+00  0.00000000000E+00 -0.28015578764E+04  0.28015578764E+04  0.50400001928E-02 0.  1.
    10030    2    1    2    0    0  0.00000000000E+00  0.00000000000E+00 -0.16449419049E+04  0.39581738480E+04  0.36001814316E+04 0.  0.
        2    1    3    3  502    0  0.15711112418E+04 -0.32715091832E+03  0.74031255619E+02  0.16065176265E+04  0.25500000920E-02 0. -1.
       -2    1    3    3    0  502 -0.15711112418E+04  0.32715091832E+03 -0.17189731605E+04  0.23516562215E+04  0.25500000920E-02 0.  1.
</event>
<event>
 5   0  0.8024500E-09  0.3601446E+04  0.7818609E-02  0.8090161E-01
       -1   -1    0    0    0  501  0.00000000000E+00  0.00000000000E+00  0.10930518890E+04  0.10930518890E+04  0.50400001928E-02 0. -1.
        1   -1    0    0  501    0  0.00000000000E+00  0.00000000000E+00 -0.29665585649E+04  0.29665585649E+04  0.50400001928E-02 0.  1.
    10030    2    1    2    0    0  0.00000000000E+00  0.00000000000E+00 -0.18735066759E+04  0.40596104539E+04  0.36014455116E+04 0.  0.
        1    1    3    3  502    0 -0.91244413776E+03  0.13735955810E+04 -0.17521631982E+04  0.24061161647E+04  0.50400001928E-02 0. -1.
       -1    1    3    3    0  502  0.91244413776E+03 -0.13735955810E+04 -0.12134347761E+03  0.16534942892E+04  0.50400001928E-02 0.  1.
</event>
<event>
 5   0  0.8146881E-09  0.3599583E+04  0.7818609E-02  0.8090587E-01
       -1   -1    0    0    0  501  0.00000000000E+00  0.00000000000E+00  0.11478563096E+04  0.11478563096E+04  0.50400001928E-02 0.  1.
        1   -1    0    0  501    0  0.00000000000E+00  0.00000000000E+00 -0.28219992445E+04  0.28219992445E+04  0.50400001928E-02 0. -1.
    10030    2    1    2    0    0  0.00000000000E+00  0.00000000000E+00 -0.16741429348E+04  0.39698555541E+04  0.35995831084E+04 0.  0.
        4    1    3    3  502    0  0.87492172901E+03 -0.86754131509E+03  0.60979881628E+03  0.13747625884E+04  0.12699999809E+01 0.  1.
       -4    1    3    3    0  502 -0.87492172901E+03  0.86754131509E+03 -0.22839417511E+04  0.25950929657E+04  0.12699999809E+01 0. -1.
</event>
<event>
 5   0  0.8247570E-09  0.3595946E+04  0.7818609E-02  0.8091421E-01
        1   -1    0    0  501    0  0.00000000000E+00  0.00000000000E+00  0.21775110220E+04  0.21775110221E+04  0.50400001928E-02 0. -1.
       -1   -1    0    0    0  501  0.00000000000E+00  0.00000000000E+00 -0.14845879052E+04  0.14845879052E+04  0.50400001928E-02 0.  1.
    10030    2    1    2    0    0  0.00000000000E+00  0.00000000000E+00  0.69292311687E+03  0.36620989272E+04  0.35959457875E+04 0.  0.
        3    1    3    3  502    0  0.17536239772E+04  0.36503018851E+03  0.50509108770E+03  0.18610645096E+04  0.10100000352E+00 0.  1.
       -3    1    3    3    0  502 -0.17536239772E+04 -0.36503018851E+03  0.18783202918E+03  0.18010344176E+04  0.10100000352E+00 0. -1.
</event>
<event>
 5   0  0.2494592E-08  0.3596203E+04  0.7818609E-02  0.8091362E-01
        2   -1    0    0  501    0  0.00000000000E+00  0.00000000000E+00  0.22938723390E+04  0.22938723390E+04  0.25500000920E-02 0. -1.
       -2   -1    0    0    0  501  0.00000000000E+00  0.00000000000E+00 -0.14094805391E+04  0.14094805391E+04  0.25500000920E-02 0.  1.
    10030    2    1    2    0    0  0.00000000000E+00  0.00000000000E+00  0.88439179991E+03  0.37033528781E+04  0.35962026756E+04 0.  0.
        1    1    3    3  502    0 -0.19553282298E+03 -0.67386072097E+03  0.21470740234E+04  0.22588156672E+04  0.50400001928E-02 0. -1.
       -1    1    3    3    0  502  0.19553282298E+03  0.67386072097E+03 -0.12626822235E+04  0.14445372109E+04  0.50400001928E-02 0.  1.
</event>
<event>
 5   0  0.8024500E-09  0.3598820E+04  0.7818609E-02  0.8090762E-01
       -1   -1    0    0    0  501  0.00000000000E+00  0.00000000000E+00  0.21221465521E+04  0.21221465521E+04  0.50400001928E-02 0. -1.
        1   -1    0    0  501    0  0.00000000000E+00  0.00000000000E+00 -0.15257551899E+04  0.15257551899E+04  0.50400001928E-02 0.  1.
    10030    2    1    2    0    0  0.00000000000E+00  0.00000000000E+00  0.59639136218E+03  0.36479017420E+04  0.35988198708E+04 0.  0.
        5    1    3    3  502    0  0.16839576548E+04 -0.36579256276E+03  0.82327250769E+03  0.19097950921E+04  0.46999998093E+01 0. -1.
       -5    1    3    3    0  502 -0.16839576548E+04  0.36579256276E+03 -0.22688114550E+03  0.17381066498E+04  0.46999998093E+01 0.  1.
</event>
<event>
 5   0  0.2476968E-08  0.3595998E+04  0.7818609E-02  0.8091409E-01
       -2   -1    0    0    0  501  0.00000000000E+00  0.00000000000E+00  0.15659006562E+04  0.15659006562E+04  0.25500000920E-02 0. -1.
        2   -1    0    0  501    0  0.00000000000E+00  0.00000000000E+00 -0.20644985701E+04  0.20644985701E+04  0.25500000920E-02 0.  1.
    10030    2    1    2    0    0  0.00000000000E+00  0.00000000000E+00 -0.49859791394E+03  0.36303992263E+04  0.35959975893E+04 0.  0.
        2    1    3    3  502    0  0.16010508094E+04  0.23137307343E+03 -0.10416013502E+04  0.19240141803E+04  0.25500000920E-02 0.  1.
       -2    1    3    3    0  502 -0.16010508094E+04 -0.23137307343E+03  0.54300343630E+03  0.17063850460E+04  0.25500000920E-02 0. -1.
</event>
<event>
 5   0  0.8146881E-09  0.3600594E+04  0.7818609E-02  0.8090356E-01
        1   -1    0    0  501    0  0.00000000000E+00  0.00000000000E+00  0.17200274223E+04  0.17200274223E+04  0.50400001928E-02 0.  1.
       -1   -1    0    0    0  501  0.00000000000E+00  0.00000000000E+00 -0.18843127087E+04  0.18843127087E+04  0.50400001928E-02 0. -1.
    10030    2    1    2    0    0  0.00000000000E+00  0.00000000000E+00 -0.16428528641E+03  0.36043401309E+04  0.36005941349E+04 0.  0.
        4    1    3    3  502    0 -0.11478562043E+04 -0.64305449480E+03  0.11479461777E+04  0.17461028002E+04  0.12699999809E+01 0.  1.
       -4    1    3    3    0  502  0.11478562043E+04  0.64305449480E+03 -0.13122314641E+04  0.18582373307E+04  0.12699999809E+01 0. -1.
</event>
<event>
 5   0  0.2608070E-08  0.3598062E+04  0.7818609E-02  0.8090936E-01
        2   -1    0    0  501    0  0.00000000000E+00  0.00000000000E+00  0.23477264350E+04  0.23477264350E+04  0.25500000920E-02 0. -1.
       -2   -1    0    0    0  501  0.00000000000E+00  0.00000000000E+00 -0.13785732810E+04  0.13785732810E+04  0.25500000920E-02 0.  1.
    10030    2    1    2    0    0  0.00000000000E+00  0.00000000000E+00  0.96915315403E+03  0.37262997160E+04  0.35980622197E+04 0.  0.
        3    1    3    3  502    0  0.41388225038E+03  0.20325690237E+03  0.22854902748E+04  0.23315397684E+04  0.10100000352E+00 0. -1.
       -3    1    3    3    0  502 -0.41388225038E+03 -0.20325690237E+03 -0.13163371207E+04  0.13947599475E+04  0.10100000352E+00 0.  1.
</event>
<event>
 5   0  0.8024500E-09  0.3599019E+04  0.7818609E-02  0.8090716E-01
       -1   -1    0    0    0  501  0.00000000000E+00  0.00000000000E+00  0.19132822258E+04  0.19132822258E+04  0.50400001928E-02 0.  1.
        1   -1    0    0  501    0  0.00000000000E+00  0.00000000000E+00 -0.16925022182E+04  0.16925022182E+04  0.50400001928E-02 0. -1.
    10030    2    1    2    0    0  0.00000000000E+00  0.00000000000E+00  0.22078000752E+03  0.36057844440E+04  0.35990189837E+04 0.  0.
        1    1    3    3  502    0  0.82894456315E+03  0.10595968095E+04  0.13077683805E+04  0.18762069781E+04  0.50400001928E-02 0.  1.
       -1    1    3    3    0  502 -0.82894456315E+03 -0.10595968095E+04 -0.10869883730E+04  0.17295774659E+04  0.50400001928E-02 0. -1.
</event>
<event>
 5   0  0.2608070E-08  0.3597793E+04  0.7818609E-02  0.8090997E-01
        2   -1    0    0  501    0  0.00000000000E+00  0.00000000000E+00  0.18759884974E+04  0.18759884974E+04  0.25500000920E-02 0. -1.
       -2   -1    0    0    0  501  0.00000000000E+00  0.00000000000E+00 -0.17249726429E+04  0.17249726429E+04  0.25500000920E-02 0.  1.
    10030    2    1    2    0    0  0.00000000000E+00  0.00000000000E+00  0.15101585450E+03  0.36009611404E+04  0.35977931217E+04 0.  0.
        3    1    3    3  502    0 -0.92399717836E+03  0.13916284995E+04 -0.59263374698E+03  0.17724602773E+04  0.10100000352E+00 0.  1.
       -3    1    3    3    0  502  0.92399717836E+03 -0.13916284995E+04  0.74364960148E+03  0.18285008631E+04  0.10100000352E+00 0. -1.
</event>
<event>
 5   0  0.8024500E-09  0.3599166E+04  0.7818609E-02  0.8090683E-01
       -1   -1    0    0    0  501  0.00000000000E+00  0.00000000000E+00  0.17865958148E+04  0.17865958148E+04  0.50400001928E-02 0. -1.
        1   -1    0    0  501    0  0.00000000000E+00  0.00000000000E+00 -0.18126642226E+04  0.18126642227E+04  0.50400001928E-02 0.  1.
    10030    2    1    2    0    0  0.00000000000E+00  0.00000000000E+00 -0.26068407875E+02  0.35992600374E+04  0.35991656332E+04 0.  0.
        5    1    3    3  502    0 -0.58290881328E+03 -0.16773103807E+04  0.27907519708E+03  0.17975143541E+04  0.46999998093E+01 0.  1.
       -5    1    3    3    0  502  0.58290881328E+03  0.16773103807E+04 -0.30514360495E+03  0.18017456833E+04  0.46999998093E+01 0. -1.
</event>
<event>
 5   0  0.8024500E-09  0.3599857E+04  0.7818609E-02  0.8090525E-01
       -1   -1    0    0    0  501  0.00000000000E+00  0.00000000000E+00  0.13422476061E+04  0.13422476061E+04  0.50400001928E-02 0. -1.
        1   -1    0    0  501    0  0.00000000000E+00  0.00000000000E+00 -0.24136692758E+04  0.24136692758E+04  0.50400001928E-02 0.  1.
    10030    2    1    2    0    0  0.00000000000E+00  0.00000000000E+00 -0.10714216697E+04  0.37559168819E+04  0.35998565568E+04 0.  0.
        5    1    3    3  502    0 -0.65406038606E+03  0.16675854053E+04 -0.71965954480E+03  0.19304320819E+04  0.46999998093E+01 0.  1.
       -5    1    3    3    0  502  0.65406038606E+03 -0.16675854053E+04 -0.35176212495E+03  0.18254848000E+04  0.46999998093E+01 0. -1.
</event>
<event>
 5   0  0.8247570E-09  0.3602181E+04  0.7818609E-02  0.8089992E-01
       -1   -1    0    0    0  501  0.00000000000E+00  0.00000000000E+00  0.20262642037E+04  0.20262642037E+04  0.50400001928E-02 0. -1.
        1   -1    0    0  501    0  0.00000000000E+00  0.00000000000E+00 -0.16009399366E+04  0.16009399366E+04  0.50400001928E-02 0.  1.
    10030    2    1    2    0    0  0.00000000000E+00  0.00000000000E+00  0.42532426707E+03  0.36272041403E+04  0.36021811647E+04 0.  0.
        3    1    3    3  502    0  0.93998273030E+03  0.11125624678E+04  0.12795335974E+04  0.19387029208E+04  0.10100000352E+00 0. -1.
       -3    1    3    3    0  502 -0.93998273030E+03 -0.11125624678E+04 -0.85420933037E+03  0.16885012195E+04  0.10100000352E+00 0.  1.
</event>
<event>
 5   0  0.2482243E-08  0.3597157E+04  0.7818609E-02  0.8091143E-01
       -2   -1    0    0    0  501  0.00000000000E+00  0.00000000000E+00  0.13920253056E+04  0.13920253056E+04  0.25500000920E-02 0. -1.
        2   -1    0    0  501    0  0.00000000000E+00  0.00000000000E+00 -0.23238686154E+04  0.23238686154E+04  0.25500000920E-02 0.  1.
    10030    2    1    2    0    0  0.00000000000E+00  0.00000000000E+00 -0.93184330985E+03  0.37158939210E+04  0.35971566102E+04 0.  0.
        5    1    3    3  502    0  0.51421283892E+03  0.15170609261E+04  0.37898416029E+03  0.16460679758E+04  0.46999998093E+01 0. -1.
       -5    1    3    3    0  502 -0.51421283892E+03 -0.15170609261E+04 -0.13108274701E+04  0.20698259453E+04  0.46999998093E+01 0.  1.
</event>
<event>
 5   0  0.2494592E-08  0.3599256E+04  0.7818609E-02  0.8090662E-01
       -2   -1    0    0    0  501  0.00000000000E+00  0.00000000000E+00  0.14280611475E+04  0.14280611475E+04  0.25500000920E-02 0. -1.
        2   -1    0    0  501    0  0.00000000000E+00  0.00000000000E+00 -0.22678722959E+04  0.22678722959E+04  0.25500000920E-02 0.  1.
    10030    2    1    2    0    0  0.00000000000E+00  0.00000000000E+00 -0.83981114838E+03  0.36959334434E+04  0.35992556526E+04 0.  0.
        1    1    3    3  502    0  0.14382854166E+04 -0.82266646725E+03 -0.11410623656E+04  0.20118320949E+04  0.50400001928E-02 0.  1.
       -1    1    3    3    0  502 -0.14382854166E+04  0.82266646725E+03  0.30125121724E+03  0.16841013485E+04  0.50400001928E-02 0. -1.
</event>
<event>
 5   0  0.2494592E-08  0.3598125E+04  0.7818609E-02  0.8090921E-01
        2   -1    0    0  501    0  0.00000000000E+00  0.00000000000E+00  0.22045997733E+04  0.22045997733E+04  0.25500000920E-02 0.  1.
       -2   -1    0    0    0  501  0.00000000000E+00  0.00000000000E+00 -0.14681236317E+04  0.14681236317E+04  0.25500000920E-02 0. -1.
    10030    2    1    2    0    0  0.00000000000E+00  0.00000000000E+00  0.73647614157E+03  0.36727234050E+04  0.35981245257E+04 0.  0.
        1    1    3    3  502    0 -0.25451605546E+03  0.54988004892E+03  0.20973118432E+04  0.21830857653E+04  0.50400001928E-02 0.  1.
       -1    1    3    3    0  502  0.25451605546E+03 -0.54988004892E+03 -0.13608357017E+04  0.14896376397E+04  0.50400001928E-02 0. -1.
</event>
<event>
 5   0  0.8063410E-09  0.3598293E+04  0.7818609E-02  0.8090883E-01
        1   -1    0    0  501    0  0.00000000000E+00  0.00000000000E+00  0.24264705565E+04  0.24264705565E+04  0.50400001928E-02 0.  1.
       -1   -1    0    0    0  501  0.00000000000E+00  0.00000000000E+00 -0.13340067438E+04  0.13340067438E+04  0.50400001928E-02 0. -1.
    10030    2    1    2    0    0  0.00000000000E+00  0.00000000000E+00  0.10924638128E+04  0.37604773003E+04  0.35982929764E+04 0.  0.
        2    1    3    3  502    0 -0.12367031621E+01  0.57257114389E+03  0.23287130432E+04  0.23980708250E+04  0.25500000920E-02 0.  1.
       -2    1    3    3    0  502  0.12367031621E+01 -0.57257114389E+03 -0.12362492304E+04  0.13624064753E+04  0.25500000920E-02 0. -1.
</event>
<event>
 5   0  0.8063410E-09  0.3600506E+04  0.7818609E-02  0.8090376E-01
        1   -1    0    0  501    0  0.00000000000E+00  0.00000000000E+00  0.15979376218E+04  0.15979376218E+04  0.50400001928E-02 0. -1.
       -1   -1    0    0    0  501  0.00000000000E+00  0.00000000000E+00 -0.20281830795E+04  0.20281830795E+04  0.50400001928E-02 0.  1.
    10030    2    1    2    0    0  0.00000000000E+00  0.00000000000E+00 -0.43024545763E+03  0.36261207013E+04  0.36005055460E+04 0.  0.
        2    1    3    3  502    0 -0.11385780690E+04 -0.95531722458E+03 -0.12381838537E+04  0.19344483126E+04  0.25500000920E-02 0.  1.
       -2    1    3    3    0  502  0.11385780690E+04  0.95531722458E+03  0.80793839606E+03  0.16916723887E+04  0.25500000920E-02 0. -1.
</event>
<event>
 5   0  0.2476968E-08  0.3600576E+04  0.7818609E-02  0.8090360E-01
       -2   -1    0    0    0  501  0.00000000000E+00  0.00000000000E+00  0.15090067722E+04  0.15090067722E+04  0.25500000920E-02 0. -1.
        2   -1    0    0  501    0  0.00000000000E+00  0.00000000000E+00 -0.21477947644E+04  0.21477947644E+04  0.25500000920E-02 0.  1.
    10030    2    1    2    0    0  0.00000000000E+00  0.00000000000E+00 -0.63878799215E+03  0.36568015366E+04  0.36005759788E+04 0.  0.
        2    1    3    3  502    0 -0.68450898179E+03 -0.16105674840E+04  0.10976424811E+03  0.17534333055E+04  0.25500000920E-02 0. -1.
       -2    1    3    3    0  502  0.68450898179E+03  0.16105674840E+04 -0.74855224025E+03  0.19033682311E+04  0.25500000920E-02 0.  1.
</event>
<event>
 5   0  0.8024500E-09  0.3597082E+04  0.7818609E-02  0.8091160E-01
       -1   -1    0    0    0  501  0.00000000000E+00  0.00000000000E+00  0.14357242899E+04  0.14357242899E+04  0.50400001928E-02 0.  1.
        1   -1    0    0  501    0  0.00000000000E+00  0.00000000000E+00 -0.22530439323E+04  0.22530439323E+04  0.50400001928E-02 0. -1.
    10030    2    1    2    0    0  0.00000000000E+00  0.00000000000E+00 -0.81731964242E+03  0.36887682223E+04  0.35970820952E+04 0.  0.
        5    1    3    3  502    0 -0.58212504193E+03 -0.87801655512E+03  0.10862151924E+04  0.15131649512E+04  0.46999998093E+01 0.  1.
       -5    1    3    3    0  502  0.58212504193E+03  0.87801655512E+03 -0.19035348348E+04  0.21756032710E+04  0.46999998093E+01 0. -1.
</event>
<event>
 5   0  0.8146881E-09  0.3602840E+04  0.7818609E-02  0.8089841E-01
       -1   -1    0    0    0  501  0.00000000000E+00  0.00000000000E+00  0.16519839180E+04  0.16519839180E+04  0.50400001928E-02 0.  1.
        1   -1    0    0  501    0  0.00000000000E+00  0.00000000000E+00 -0.19643740989E+04  0.19643740989E+04  0.50400001928E-02 0. -1.
    10030    2    1    2    0    0  0.00000000000E+00  0.00000000000E+00 -0.31239018086E+03  0.36163580169E+04  0.36028402242E+04 0.  0.
        4    1    3    3  502    0 -0.10186576217E+04 -0.91795374920E+03 -0.13288293357E+04  0.19094741297E+04  0.12699999809E+01 0.  1.
       -4    1    3    3    0  502  0.10186576217E+04  0.91795374920E+03  0.10164391548E+04  0.17068838872E+04  0.12699999809E+01 0. -1.
</event>
<event>
 5   0  0.8247570E-09  0.3600440E+04  0.7818609E-02  0.8090391E-01
        1   -1    0    0  501    0  0.00000000000E+00  0.00000000000E+00  0.19262466009E+04  0.19262466009E+04  0.50400001928E-02 0. -1.
       -1   -1    0    0    0  501  0.00000000000E+00  0.00000000000E+00 -0.16824387169E+04  0.16824387169E+04  0.50400001928E-02 0.  1.
    10030    2    1    2    0    0  0.00000000000E+00  0.00000000000E+00  0.24380788399E+03  0.36086853178E+04  0.36004398952E+04 0.  0.
        3    1    3    3  502    0  0.17471635546E+03  0.15204863616E+04 -0.82809963769E+03  0.17401590734E+04  0.10100000352E+00 0.  1.
       -3    1    3    3    0  502 -0.17471635546E+03 -0.15204863616E+04  0.10719075217E+04  0.18685262444E+04  0.10100000352E+00 0. -1.
</event>
<event>
 5   0  0.8024500E-09  0.3602316E+04  0.7818609E-02  0.8089961E-01
       -1   -1    0    0    0  501  0.00000000000E+00  0.00000000000E+00  0.10472057411E+04  0.10472057411E+04  0.50400001928E-02 0. -1.
        1   -1    0    0  501    0  0.00000000000E+00  0.00000000000E+00 -0.30979303932E+04  0.30979303932E+04  0.50400001928E-02 0.  1.
    10030    2    1    2    0    0  0.00000000000E+00  0.00000000000E+00 -0.20507246522E+04  0.41451361343E+04  0.36023161956E+04 0.  0.
        5    1    3    3  502    0  0.12180237824E+04 -0.13263434384E+04 -0.98262316086E+03  0.20514237050E+04  0.46999998093E+01 0. -1.
       -5    1    3    3    0  502 -0.12180237824E+04  0.13263434384E+04 -0.10681014913E+04  0.20937124293E+04  0.46999998093E+01 0.  1.
</event>
<event>
 5   0  0.2476968E-08  0.3601029E+04  0.7818609E-02  0.8090256E-01
       -2   -1    0    0    0  501  0.00000000000E+00  0.00000000000E+00  0.11940692820E+04  0.11940692820E+04  0.25500000920E-02 0. -1.
        2   -1    0    0  501    0  0.00000000000E+00  0.00000000000E+00 -0.27149619917E+04  0.27149619917E+04  0.25500000920E-02 0.  1.
    10030    2    1    2    0    0  0.00000000000E+00  0.00000000000E+00 -0.15208927097E+04  0.39090312737E+04  0.36010291396E+04 0.  0.
        2    1    3    3  502    0 -0.17418639418E+04  0.44355002725E+03 -0.87443285714E+03  0.19988645377E+04  0.25500000920E-02 0.  1.
       -2    1    3    3    0  502  0.17418639418E+04 -0.44355002725E+03 -0.64645985259E+03  0.19101667360E+04  0.25500000920E-02 0. -1.
</event>
<event>
 5   0  0.2476968E-08  0.3574172E+04  0.7818609E-02  0.8096434E-01
        2   -1    0    0  501    0  0.00000000000E+00  0.00000000000E+00  0.23108925444E+04  0.23108925444E+04  0.25500000920E-02 0.  1.
       -2   -1    0    0    0  501  0.00000000000E+00  0.00000000000E+00 -0.13820098966E+04  0.13820098966E+04  0.25500000920E-02 0. -1.
    10030    2    1    2    0    0  0.00000000000E+00  0.00000000000E+00  0.92888264780E+03  0.36929024409E+04  0.35741719971E+04 0.  0.
        2    1    3    3  502    0  0.31326730715E+03  0.11068080828E+04 -0.94865927511E+03  0.14910113877E+04  0.25500000920E-02 0. -1.
       -2    1    3    3    0  502 -0.31326730715E+03 -0.11068080828E+04  0.18775419229E+04  0.22018910532E+04  0.25500000920E-02 0.  1.
</event>
<event>
 5   0  0.8146881E-09  0.3598957E+04  0.7818609E-02  0.8090731E-01
        1   -1    0    0  501    0  0.00000000000E+00  0.00000000000E+00  0.18447228842E+04  0.18447228842E+04  0.50400001928E-02 0. -1.
       -1   -1    0    0    0  501  0.00000000000E+00  0.00000000000E+00 -0.17553441889E+04  0.17553441889E+04  0.50400001928E-02 0.  1.
    10030    2    1    2    0    0  0.00000000000E+00  0.00000000000E+00  0.89378695232E+02  0.36000670731E+04  0.35989574018E+04 0.  0.
        4    1    3    3  502    0  0.32960885932E+03  0.52199590174E+03  0.17354768380E+04  0.18420106377E+04  0.12699999809E+01 0. -1.
       -4    1    3    3    0  502 -0.32960885932E+03 -0.52199590174E+03 -0.16460981427E+04  0.17580564354E+04  0.12699999809E+01 0.  1.
</event>
<event>
 5   0  0.8024500E-09  0.3600552E+04  0.7818609E-02  0.8090365E-01
        1   -1    0    0  501    0  0.00000000000E+00  0.00000000000E+00  0.27049486324E+04  0.27049486324E+04  0.50400001928E-02 0.  1.
       -1   -1    0    0    0  501  0.00000000000E+00  0.00000000000E+00 -0.11981721170E+04  0.11981721170E+04  0.50400001928E-02 0. -1.
    10030    2    1    2    0    0  0.00000000000E+00  0.00000000000E+00  0.15067765154E+04  0.39031207495E+04  0.36005521962E+04 0.  0.
        1    1    3    3  502    0 -0.17724980572E+03 -0.16708073568E+03 -0.11802258161E+04  0.12051001796E+04  0.50400001928E-02 0. -1.
       -1    1    3    3    0  502  0.17724980572E+03  0.16708073568E+03  0.26870023315E+04  0.26980205699E+04  0.50400001928E-02 0.  1.
</event>
<event>
 5   0  0.8024500E-09  0.3600573E+04  0.7818609E-02  0.8090361E-01
       -1   -1    0    0    0  501  0.00000000000E+00  0.00000000000E+00  0.18952698107E+04  0.18952698107E+04  0.50400001928E-02 0. -1.
        1   -1    0    0  501    0  0.00000000000E+00  0.00000000000E+00 -0.17100631674E+04  0.17100631674E+04  0.50400001928E-02 0.  1.
    10030    2    1    2    0    0  0.00000000000E+00  0.00000000000E+00  0.18520664321E+03  0.36053329781E+04  0.36005727853E+04 0.  0.
        1    1    3    3  502    0 -0.11671943435E+04  0.11700288311E+04 -0.62228803687E+03  0.17659423835E+04  0.50400001928E-02 0.  1.
       -1    1    3    3    0  502  0.11671943435E+04 -0.11700288311E+04  0.80749468009E+03  0.18393905946E+04  0.50400001928E-02 0. -1.
</event>
<event>
 5   0  0.8024500E-09  0.3599617E+04  0.7818609E-02  0.8090579E-01
        1   -1    0    0  501    0  0.00000000000E+00  0.00000000000E+00  0.16416772332E+04  0.16416772332E+04  0.50400001928E-02 0. -1.
       -1   -1    0    0    0  501  0.00000000000E+00  0.00000000000E+00 -0.19731713672E+04  0.19731713672E+04  0.50400001928E-02 0.  1.
    10030    2    1    2    0    0  0.00000000000E+00  0.00000000000E+00 -0.33149413397E+03  0.36148486004E+04  0.35996169301E+04 0.  0.
        5    1    3    3  502    0 -0.44639819829E+03 -0.16163298244E+04 -0.82234472669E+03  0.18676365792E+04  0.46999998093E+01 0.  1.
       -5    1    3    3    0  502  0.44639819829E+03  0.16163298244E+04  0.49085059272E+03  0.17472120212E+04  0.46999998093E+01 0. -1.
</event>
<event>
 5   0  0.2494592E-08  0.3600929E+04  0.7818609E-02  0.8090279E-01
       -2   -1    0    0    0  501  0.00000000000E+00  0.00000000000E+00  0.20599230906E+04  0.20599230906E+04  0.25500000920E-02 0. -1.
        2   -1    0    0  501    0  0.00000000000E+00  0.00000000000E+00 -0.15736857578E+04  0.15736857578E+04  0.25500000920E-02 0.  1.
    10030    2    1    2    0    0  0.00000000000E+00  0.00000000000E+00  0.48623733273E+03  0.36336088484E+04  0.36009285635E+04 0.  0.
        1    1    3    3  502    0 -0.85595846628E+03  0.12109827177E+04  0.12734275572E+04  0.19546768997E+04  0.50400001928E-02 0. -1.
       -1    1    3    3    0  502  0.85595846628E+03 -0.12109827177E+04 -0.78719022451E+03  0.16789319487E+04  0.50400001928E-02 0.  1.
</event>
<event>
 5   0  0.2608070E-08  0.3602175E+04  0.7818609E-02  0.8089994E-01
       -2   -1    0    0    0  501  0.00000000000E+00  0.00000000000E+00  0.28436067464E+04  0.28436067464E+04  0.25500000920E-02 0. -1.
        2   -1    0    0  501    0  0.00000000000E+00  0.00000000000E+00 -0.11407751699E+04  0.11407751699E+04  0.25500000920E-02 0.  1.
    10030    2    1    2    0    0  0.00000000000E+00  0.00000000000E+00  0.17028315765E+04  0.39843819164E+04  0.36021748816E+04 0.  0.
        3    1    3    3  502    0  0.20994611131E+03 -0.15823926808E+04 -0.71284902424E+02  0.15978502788E+04  0.10100000352E+00 0.  1.
       -3    1    3    3    0  502 -0.20994611131E+03  0.15823926808E+04  0.17741164789E+04  0.23865316376E+04  0.10100000352E+00 0. -1.
</event>
<event>
 5   0  0.2494592E-08  0.3601116E+04  0.7818609E-02  0.8090236E-01
       -2   -1    0    0    0  501  0.00000000000E+00  0.00000000000E+00  0.19096786112E+04  0.19096786112E+04  0.25500000920E-02 0. -1.
        2   -1    0    0  501    0  0.00000000000E+00  0.00000000000E+00 -0.16976723489E+04  0.16976723489E+04  0.25500000920E-02 0.  1.
    10030    2    1    2    0    0  0.00000000000E+00  0.00000000000E+00  0.21200626229E+03  0.36073509601E+04  0.36011157013E+04 0.  0.
        1    1    3    3  502    0  0.20992832495E+03  0.14732347073E+04  0.11214239815E+04  0.18633523957E+04  0.50400001928E-02 0. -1.
       -1    1    3    3    0  502 -0.20992832495E+03 -0.14732347073E+04 -0.90941771917E+03  0.17439985643E+04  0.50400001928E-02 0.  1.
</event>
<event>
 5   0  0.2608070E-08  0.3599920E+04  0.7818609E-02  0.8090510E-01
        2   -1    0    0  501    0  0.00000000000E+00  0.00000000000E+00  0.10185874583E+04  0.10185874584E+04  0.25500000920E-02 0. -1.
       -2   -1    0    0    0  501  0.00000000000E+00  0.00000000000E+00 -0.31807347945E+04  0.31807347945E+04  0.25500000920E-02 0.  1.
    10030    2    1    2    0    0  0.00000000000E+00  0.00000000000E+00 -0.21621473361E+04  0.41993222528E+04  0.35999203158E+04 0.  0.
        3    1    3    3  502    0 -0.12509788826E+04 -0.95937887704E+03 -0.67824862813E+02  0.15779595105E+04  0.10100000352E+00 0. -1.
       -3    1    3    3    0  502  0.12509788826E+04  0.95937887704E+03 -0.20943224733E+04  0.26213627423E+04  0.10100000352E+00 0.  1.
</event>
<event>
 5   0  0.2482243E-08  0.3600855E+04  0.7818609E-02  0.8090296E-01
       -2   -1    0    0    0  501  0.00000000000E+00  0.00000000000E+00  0.21592069692E+04  0.21592069692E+04  0.25500000920E-02 0. -1.
        2   -1    0    0  501    0  0.00000000000E+00  0.00000000000E+00 -0.15012633769E+04  0.15012633769E+04  0.25500000920E-02 0.  1.
    10030    2    1    2    0    0  0.00000000000E+00  0.00000000000E+00  0.65794359231E+03  0.36604703461E+04  0.36008545352E+04 0.  0.
        5    1    3    3  502    0  0.52021820977E+03  0.14843944322E+04 -0.56158142846E+03  0.16701645449E+04  0.46999998093E+01 0.  1.
       -5    1    3    3    0  502 -0.52021820977E+03 -0.14843944322E+04  0.12195250208E+04  0.19903058012E+04  0.46999998093E+01 0. -1.
</event>
<event>
 5   0  0.8063410E-09  0.3600519E+04  0.7818609E-02  0.8090373E-01
       -1   -1    0    0    0  501  0.00000000000E+00  0.00000000000E+00  0.11767389354E+04  0.11767389355E+04  0.50400001928E-02 0. -1.
        1   -1    0    0  501    0  0.00000000000E+00  0.00000000000E+00 -0.27541653895E+04  0.27541653895E+04  0.50400001928E-02 0.  1.
    10030    2    1    2    0    0  0.00000000000E+00  0.00000000000E+00 -0.15774264541E+04  0.39309043250E+04  0.36005186563E+04 0.  0.
        2    1    3    3  502    0 -0.17206934493E+04 -0.23654193326E+03 -0.13056542119E+04  0.21728946025E+04  0.25500000920E-02 0.  1.
       -2    1    3    3    0  502  0.17206934493E+04  0.23654193326E+03 -0.27177224218E+03  0.17580097225E+04  0.25500000920E-02 0. -1.
</event>
<event>
 5   0  0.8247570E-09  0.3602146E+04  0.7818609E-02  0.8090000E-01
       -1   -1    0    0    0  501  0.00000000000E+00  0.00000000000E+00  0.11588691771E+04  0.11588691771E+04  0.50400001928E-02 0. -1.
        1   -1    0    0  501    0  0.00000000000E+00  0.00000000000E+00 -0.27991628304E+04  0.27991628304E+04  0.50400001928E-02 0.  1.
    10030    2    1    2    0    0  0.00000000000E+00  0.00000000000E+00 -0.16402936533E+04  0.39580320076E+04  0.36021457638E+04 0.  0.
        3    1    3    3  502    0  0.81136536126E+03  0.15283286718E+04 -0.13692836127E+04  0.22065901071E+04  0.10100000352E+00 0.  1.
       -3    1    3    3    0  502 -0.81136536126E+03 -0.15283286718E+04 -0.27101004054E+03  0.17514419005E+04  0.10100000352E+00 0. -1.
</event>
<event>
 5   0  0.2494592E-08  0.3599446E+04  0.7818609E-02  0.8090619E-01
       -2   -1    0    0    0  501  0.00000000000E+00  0.00000000000E+00  0.13179707134E+04  0.13179707134E+04  0.25500000920E-02 0.  1.
        2   -1    0    0  501    0  0.00000000000E+00  0.00000000000E+00 -0.24575685691E+04  0.24575685691E+04  0.25500000920E-02 0. -1.
    10030    2    1    2    0    0  0.00000000000E+00  0.00000000000E+00 -0.11395978557E+04  0.37755392825E+04  0.35994462909E+04 0.  0.
        1    1    3    3  502    0  0.14956396536E+03  0.41356907747E+03  0.12607415862E+04  0.13352445876E+04  0.50400001928E-02 0.  1.
       -1    1    3    3    0  502 -0.14956396536E+03 -0.41356907747E+03 -0.24003394419E+04  0.24402946949E+04  0.50400001928E-02 0. -1.
</event>
<event>
 5   0  0.8247570E-09  0.3599908E+04  0.7818609E-02  0.8090513E-01
        1   -1    0    0  501    0  0.00000000000E+00  0.00000000000E+00  0.18935536018E+04  0.18935536018E+04  0.50400001928E-02 0. -1.
       -1   -1    0    0    0  501  0.00000000000E+00  0.00000000000E+00 -0.17109814027E+04  0.17109814027E+04  0.50400001928E-02 0.  1.
    10030    2    1    2    0    0  0.00000000000E+00  0.00000000000E+00  0.18257219913E+03  0.36045350045E+04  0.35999083309E+04 0.  0.
        3    1    3    3  502    0 -0.94636266439E+03 -0.10571193577E+04 -0.10177164360E+04  0.17460957543E+04  0.10100000352E+00 0.  1.
       -3    1    3    3    0  502  0.94636266439E+03  0.10571193577E+04  0.12002886351E+04  0.18584392502E+04  0.10100000352E+00 0. -1.
</event>
<event>
 5   0  0.8063410E-09  0.3600149E+04  0.7818609E-02  0.8090457E-01
       -1   -1    0    0    0  501  0.00000000000E+00  0.00000000000E+00  0.23113018918E+04  0.23113018918E+04  0.50400001928E-02 0.  1.
        1   -1    0    0  501    0  0.00000000000E+00  0.00000000000E+00 -0.14019236694E+04  0.14019236694E+04  0.50400001928E-02 0. -1.
    10030    2    1    2    0    0  0.00000000000E+00  0.00000000000E+00  0.90937822239E+03  0.37132255612E+04  0.36001493465E+04 0.  0.
        2    1    3    3  502    0  0.15664012595E+03  0.70828297799E+03 -0.12444978639E+04  0.14404776427E+04  0.25500000920E-02 0. -1.
       -2    1    3    3    0  502 -0.15664012595E+03 -0.70828297799E+03  0.21538760863E+04  0.22727479185E+04  0.25500000920E-02 0.  1.
</event>
<event>
 5   0  0.8146881E-09  0.3602730E+04  0.7818609E-02  0.8089867E-01
       -1   -1    0    0    0  501  0.00000000000E+00  0.00000000000E+00  0.13631967626E+04  0.13631967626E+04  0.50400001928E-02 0.  1.
        1   -1    0    0  501    0  0.00000000000E+00  0.00000000000E+00 -0.23803718637E+04  0.23803718637E+04  0.50400001928E-02 0. -1.
    10030    2    1    2    0    0  0.00000000000E+00  0.00000000000E+00 -0.10171751011E+04  0.37435686263E+04  0.36027296420E+04 0.  0.
        4    1    3    3  502    0 -0.10658442615E+04  0.13974861272E+03  0.99338071946E+03  0.14636804744E+04  0.12699999809E+01 0.  1.
       -4    1    3    3    0  502  0.10658442615E+04 -0.13974861272E+03 -0.20105558206E+04  0.22798881519E+04  0.12699999809E+01 0. -1.
</event>
<event>
 5   0  0.2590795E-08  0.3603862E+04  0.7818609E-02  0.8089608E-01
        2   -1    0    0  501    0  0.00000000000E+00  0.00000000000E+00  0.20615940902E+04  0.20615940902E+04  0.25500000920E-02 0.  1.
       -2   -1    0    0    0  501  0.00000000000E+00  0.00000000000E+00 -0.15749728204E+04  0.15749728204E+04  0.25500000920E-02 0. -1.
    10030    2    1    2    0    0  0.00000000000E+00  0.00000000000E+00  0.48662126986E+03  0.36365669106E+04  0.36038616281E+04 0.  0.
        4    1    3    3  502    0  0.26778081929E+03  0.17071037415E+04 -0.27224999534E+03  0.17492945504E+04  0.12699999809E+01 0. -1.
       -4    1    3    3    0  502 -0.26778081929E+03 -0.17071037415E+04  0.75887126520E+03  0.18872723601E+04  0.12699999809E+01 0.  1.
</event>
<event>
 5   0  0.8024500E-09  0.3598531E+04  0.7818609E-02  0.8090828E-01
       -3   -1    0    0    0  501  0.00000000000E+00  0.00000000000E+00  0.16081302668E+04  0.16081302700E+04  0.10100000352E+00 0. -1.
        3   -1    0    0  501    0  0.00000000000E+00  0.00000000000E+00 -0.20131177761E+04  0.20131177787E+04  0.10100000352E+00 0.  1.
    10030    2    1    2    0    0  0.00000000000E+00  0.00000000000E+00 -0.40498750933E+03  0.36212480487E+04  0.35985306095E+04 0.  0.
        2    1    3    3  502    0 -0.11050715044E+04 -0.23749033549E+03 -0.16112495985E+04  0.19681742702E+04  0.25500000920E-02 0.  1.
       -2    1    3    3    0  502  0.11050715044E+04  0.23749033549E+03  0.12062620891E+04  0.16530737785E+04  0.25500000920E-02 0. -1.
</event>
<event>
 5   0  0.8024500E-09  0.3600185E+04  0.7818609E-02  0.8090449E-01
       -1   -1    0    0    0  501  0.00000000000E+00  0.00000000000E+00  0.14110061964E+04  0.14110061964E+04  0.50400001928E-02 0.  1.
        1   -1    0    0  501    0  0.00000000000E+00  0.00000000000E+00 -0.22964698622E+04  0.22964698622E+04  0.50400001928E-02 0. -1.
    10030    2    1    2    0    0  0.00000000000E+00  0.00000000000E+00 -0.88546366585E+03  0.37074760586E+04  0.36001851093E+04 0.  0.
        5    1    3    3  502    0  0.23127143912E+03 -0.17741191049E+04 -0.23851401880E+03  0.18049642944E+04  0.46999998093E+01 0.  1.
       -5    1    3    3    0  502 -0.23127143912E+03  0.17741191049E+04 -0.64694964706E+03  0.19025117642E+04  0.46999998093E+01 0. -1.
</event>
<event>
 5   0  0.8024500E-09  0.3596891E+04  0.7818609E-02  0.8091204E-01
       -1   -1    0    0    0  501  0.00000000000E+00  0.00000000000E+00  0.17076711336E+04  0.17076711336E+04  0.50400001928E-02 0.  1.
        1   -1    0    0  501    0  0.00000000000E+00  0.00000000000E+00 -0.18940447005E+04  0.18940447005E+04  0.50400001928E-02 0. -1.
    10030    2    1    2    0    0  0.00000000000E+00  0.00000000000E+00 -0.18637356685E+03  0.36017158341E+04  0.35968905798E+04 0.  0.
        5    1    3    3  502    0 -0.21363033786E+03  0.79095611054E+02  0.16931596906E+04  0.17084220395E+04  0.46999998093E+01 0.  1.
       -5    1    3    3    0  502  0.21363033786E+03 -0.79095611054E+02 -0.18795332575E+04  0.18932937947E+04  0.46999998093E+01 0. -1.
</event>
<event>
 5   0  0.2482243E-08  0.3599879E+04  0.7818609E-02  0.8090520E-01
        2   -1    0    0  501    0  0.00000000000E+00  0.00000000000E+00  0.11829451826E+04  0.11829451826E+04  0.25500000920E-02 0.  1.
       -2   -1    0    0    0  501  0.00000000000E+00  0.00000000000E+00 -0.27387417224E+04  0.27387417224E+04  0.25500000920E-02 0. -1.
    10030    2    1    2    0    0  0.00000000000E+00  0.00000000000E+00 -0.15557965398E+04  0.39216869051E+04  0.35998785130E+04 0.  0.
        5    1    3    3  502    0 -0.15782709095E+04  0.56770109113E+03 -0.14893783386E+04  0.22430990879E+04  0.46999998093E+01 0. -1.
       -5    1    3    3    0  502  0.15782709095E+04 -0.56770109113E+03 -0.66418201242E+02  0.16785878172E+04  0.46999998093E+01 0.  1.
</event>
<event>
 5   0  0.2494592E-08  0.3599589E+04  0.7818609E-02  0.8090586E-01
       -2   -1    0    0    0  501  0.00000000000E+00  0.00000000000E+00  0.12237325509E+04  0.12237325509E+04  0.25500000920E-02 0. -1.
        2   -1    0    0  501    0  0.00000000000E+00  0.00000000000E+00 -0.26470333241E+04  0.26470333241E+04  0.25500000920E-02 0.  1.
    10030    2    1    2    0    0  0.00000000000E+00  0.00000000000E+00 -0.14233007732E+04  0.38707658750E+04  0.35995893332E+04 0.  0.
        1    1    3    3  502    0  0.10950996716E+04  0.10843506218E+04 -0.17113082812E+04  0.23029623521E+04  0.50400001928E-02 0.  1.
       -1    1    3    3    0  502 -0.10950996716E+04 -0.10843506218E+04  0.28800750797E+03  0.15678035229E+04  0.50400001928E-02 0. -1.
</event>
<event>
 5   0  0.8063410E-09  0.3599216E+04  0.7818609E-02  0.8090671E-01
        1   -1    0    0  501    0  0.00000000000E+00  0.00000000000E+00  0.21183650100E+04  0.21183650100E+04  0.50400001928E-02 0. -1.
       -1   -1    0    0    0  501  0.00000000000E+00  0.00000000000E+00 -0.15288152104E+04  0.15288152104E+04  0.50400001928E-02 0.  1.
    10030    2    1    2    0    0  0.00000000000E+00  0.00000000000E+00  0.58954979966E+03  0.36471802204E+04  0.35992158304E+04 0.  0.
        2    1    3    3  502    0  0.10287781310E+04 -0.85181543535E+03 -0.92737173175E+03  0.16260357646E+04  0.25500000920E-02 0.  1.
       -2    1    3    3    0  502 -0.10287781310E+04  0.85181543535E+03  0.15169215314E+04  0.20211444558E+04  0.25500000920E-02 0. -1.
</event>
<event>
 5   0  0.8024500E-09  0.3600269E+04  0.7818609E-02  0.8090430E-01
        4   -1    0    0  501    0  0.00000000000E+00  0.00000000000E+00  0.18911360050E+04  0.18911364314E+04  0.12699999809E+01 0.  1.
       -4   -1    0    0    0  501  0.00000000000E+00  0.00000000000E+00 -0.17135111299E+04  0.17135116006E+04  0.12699999809E+01 0. -1.
    10030    2    1    2    0    0  0.00000000000E+00  0.00000000000E+00  0.17762487506E+03  0.36046480320E+04  0.36002689953E+04 0.  0.
        1    1    3    3  502    0 -0.13297359561E+04 -0.48883586400E+03 -0.10230904486E+04  0.17475331988E+04  0.50400001928E-02 0. -1.
       -1    1    3    3    0  502  0.13297359561E+04  0.48883586400E+03  0.12007153237E+04  0.18571148331E+04  0.50400001928E-02 0.  1.
</event>
<event>
 5   0  0.2494592E-08  0.3601071E+04  0.7818609E-02  0.8090246E-01
        2   -1    0    0  501    0  0.00000000000E+00  0.00000000000E+00  0.27345194184E+04  0.27345194184E+04  0.25500000920E-02 0. -1.
       -2   -1    0    0    0  501  0.00000000000E+00  0.00000000000E+00 -0.11855567595E+04  0.11855567595E+04  0.25500000920E-02 0.  1.
    10030    2    1    2    0    0  0.00000000000E+00  0.00000000000E+00  0.15489626589E+04  0.39200761779E+04  0.36010709410E+04 0.  0.
        1    1    3    3  502    0 -0.11513931664E+04 -0.13665787347E+04  0.53428997189E+03  0.18651298711E+04  0.50400001928E-02 0. -1.
       -1    1    3    3    0  502  0.11513931664E+04  0.13665787347E+04  0.10146726870E+04  0.20549463068E+04  0.50400001928E-02 0.  1.
</event>
<event>
 5   0  0.2494592E-08  0.3600550E+04  0.7818609E-02  0.8090366E-01
        2   -1    0    0  501    0  0.00000000000E+00  0.00000000000E+00  0.13559176517E+04  0.13559176517E+04  0.25500000920E-02 0. -1.
       -2   -1    0    0    0  501  0.00000000000E+00  0.00000000000E+00 -0.23902551951E+04  0.23902551951E+04  0.25500000920E-02 0.  1.
    10030    2    1    2    0    0  0.00000000000E+00  0.00000000000E+00 -0.10343375434E+04  0.37461728468E+04  0.36005495198E+04 0.  0.
        1    1    3    3  502    0 -0.14333854595E+04  0.54299031806E+02 -0.16490306186E+04  0.21855992866E+04  0.50400001928E-02 0.  1.
       -1    1    3    3    0  502  0.14333854595E+04 -0.54299031806E+02  0.61469307521E+03  0.15605735603E+04  0.50400001928E-02 0. -1.
</event>
<event>
 5   0  0.2608070E-08  0.3599972E+04  0.7818609E-02  0.8090498E-01
        2   -1    0    0  501    0  0.00000000000E+00  0.00000000000E+00  0.23488454597E+04  0.23488454597E+04  0.25500000920E-02 0.  1.
       -2   -1    0    0    0  501  0.00000000000E+00  0.00000000000E+00 -0.13793795338E+04  0.13793795338E+04  0.25500000920E-02 0. -1.
    10030    2    1    2    0    0  0.00000000000E+00  0.00000000000E+00  0.96946592589E+03  0.37282249936E+04  0.35999718640E+04 0.  0.
        3    1    3    3  502    0  0.26255782738E+03 -0.90344930824E+02  0.23265324219E+04  0.23430433073E+04  0.10100000352E+00 0.  1.
       -3    1    3    3    0  502 -0.26255782738E+03  0.90344930824E+02 -0.13570664960E+04  0.13851816863E+04  0.10100000352E+00 0. -1.
</event>
<event>
 5   0  0.8146881E-09  0.3599866E+04  0.7818609E-02  0.8090522E-01
        1   -1    0    0  501    0  0.00000000000E+00  0.00000000000E+00  0.17481020102E+04  0.17481020102E+04  0.50400001928E-02 0. -1.
       -1   -1    0    0    0  501  0.00000000000E+00  0.00000000000E+00 -0.18533003311E+04  0.18533003311E+04  0.50400001928E-02 0.  1.
    10030    2    1    2    0    0  0.00000000000E+00  0.00000000000E+00 -0.10519832093E+03  0.36014023413E+04  0.35998655721E+04 0.  0.
        4    1    3    3  502    0 -0.58976622965E+03 -0.16627331301E+04 -0.40947368022E+03  0.18111256100E+04  0.12699999809E+01 0.  1.
       -4    1    3    3    0  502  0.58976622965E+03  0.16627331301E+04  0.30427535929E+03  0.17902767313E+04  0.12699999809E+01 0. -1.
</event>
<event>
 5   0  0.8146881E-09  0.3600237E+04  0.7818609E-02  0.8090437E-01
        1   -1    0    0  501    0  0.00000000000E+00  0.00000000000E+00  0.90538365794E+03  0.90538365796E+03  0.50400001928E-02 0. -1.
       -1   -1    0    0    0  501  0.00000000000E+00  0.00000000000E+00 -0.35790649520E+04  0.35790649520E+04  0.50400001928E-02 0.  1.
    10030    2    1    2    0    0  0.00000000000E+00  0.00000000000E+00 -0.26736812940E+04  0.44844486099E+04  0.36002371690E+04 0.  0.
        4    1    3    3  502    0 -0.59684954646E+03  0.16438540221E+04 -0.80553810951E+03  0.19254554490E+04  0.12699999809E+01 0. -1.
       -4    1    3    3    0  502  0.59684954646E+03 -0.16438540221E+04 -0.18681431845E+04  0.25589931610E+04  0.12699999809E+01 0.  1.
</event>
<event>
 5   0  0.8024500E-09  0.3599696E+04  0.7818609E-02  0.8090561E-01
        1   -1    0    0  501    0  0.00000000000E+00  0.00000000000E+00  0.18941357276E+04  0.18941357276E+04  0.50400001928E-02 0. -1.
       -1   -1    0    0    0  501  0.00000000000E+00  0.00000000000E+00 -0.17102537409E+04  0.17102537409E+04  0.50400001928E-02 0.  1.
    10030    2    1    2    0    0  0.00000000000E+00  0.00000000000E+00  0.18388198661E+03  0.36043894685E+04  0.35996959393E+04 0.  0.
        1    1    3    3  502    0 -0.23081828497E+03  0.52117797673E+03  0.18013720334E+04  0.18894032833E+04  0.50400001928E-02 0. -1.
       -1    1    3    3    0  502  0.23081828497E+03 -0.52117797673E+03 -0.16174900468E+04  0.17149861852E+04  0.50400001928E-02 0.  1.
</event>
<event>
 5   0  0.2482243E-08  0.3599472E+04  0.7818609E-02  0.8090613E-01
        2   -1    0    0  501    0  0.00000000000E+00  0.00000000000E+00  0.15315171441E+04  0.15315171441E+04  0.25500000920E-02 0.  1.
       -2   -1    0    0    0  501  0.00000000000E+00  0.00000000000E+00 -0.21149288414E+04  0.21149288414E+04  0.25500000920E-02 0. -1.
    10030    2    1    2    0    0  0.00000000000E+00  0.00000000000E+00 -0.58341169726E+03  0.36464459855E+04  0.35994720608E+04 0.  0.
        5    1    3    3  502    0 -0.16780148851E+04 -0.21621812312E+02  0.36703097186E+03  0.17178286532E+04  0.46999998093E+01 0. -1.
       -5    1    3    3    0  502  0.16780148851E+04  0.21621812312E+02 -0.95044266912E+03  0.19286173323E+04  0.46999998093E+01 0.  1.
</event>
<event>
 5   0  0.8247570E-09  0.3599999E+04  0.7818609E-02  0.8090492E-01
       -1   -1    0    0    0  501  0.00000000000E+00  0.00000000000E+00  0.28988601715E+04  0.28988601715E+04  0.50400001928E-02 0. -1.
        1   -1    0    0  501    0  0.00000000000E+00  0.00000000000E+00 -0.11176803304E+04  0.11176803304E+04  0.50400001928E-02 0.  1.
    10030    2    1    2    0    0  0.00000000000E+00  0.00000000000E+00  0.17811798411E+04  0.40165405019E+04  0.35999994412E+04 0.  0.
        3    1    3    3  502    0  0.78541175857E+03 -0.19999188560E+03  0.26837658450E+04  0.28034741849E+04  0.10100000352E+00 0. -1.
       -3    1    3    3    0  502 -0.78541175857E+03  0.19999188560E+03 -0.90258600381E+03  0.12130663169E+04  0.10100000352E+00 0.  1.
</event>
<event>
 5   0  0.2482243E-08  0.3597791E+04  0.7818609E-02  0.8090998E-01
        2   -1    0    0  501    0  0.00000000000E+00  0.00000000000E+00  0.32842745906E+04  0.32842745906E+04  0.25500000920E-02 0.  1.
       -2   -1    0    0    0  501  0.00000000000E+00  0.00000000000E+00 -0.98530886636E+03  0.98530886636E+03  0.25500000920E-02 0. -1.
    10030    2    1    2    0    0  0.00000000000E+00  0.00000000000E+00  0.22989657242E+04  0.42695834569E+04  0.35977909187E+04 0.  0.
        5    1    3    3  502    0 -0.99380211166E+03  0.18766650806E+02 -0.62981439029E+03  0.11767255757E+04  0.46999998093E+01 0. -1.
       -5    1    3    3    0  502  0.99380211166E+03 -0.18766650806E+02  0.29287801145E+04  0.30928578812E+04  0.46999998093E+01 0.  1.
</event>
<event>
 5   0  0.2494592E-08  0.3598659E+04  0.7818609E-02  0.8090799E-01
       -2   -1    0    0    0  501  0.00000000000E+00  0.00000000000E+00  0.11263556648E+04  0.11263556648E+04  0.25500000920E-02 0. -1.
        2   -1    0    0  501    0  0.00000000000E+00  0.00000000000E+00 -0.28743905909E+04  0.28743905909E+04  0.25500000920E-02 0.  1.
    10030    2    1    2    0    0  0.00000000000E+00  0.00000000000E+00 -0.17480349261E+04  0.40007462557E+04  0.35986587084E+04 0.  0.
        1    1    3    3  502    0  0.14194565687E+04 -0.96168126376E+03 -0.26723310809E+03  0.17352525285E+04  0.50400001928E-02 0. -1.
       -1    1    3    3    0  502 -0.14194565687E+04  0.96168126376E+03 -0.14808018180E+04  0.22654937271E+04  0.50400001928E-02 0.  1.
</event>
<event>
 5   0  0.2590795E-08  0.3598636E+04  0.7818609E-02  0.8090804E-01
        2   -1    0    0  501    0  0.00000000000E+00  0.00000000000E+00  0.19689131385E+04  0.19689131385E+04  0.25500000920E-02 0.  1.
       -2   -1    0    0    0  501  0.00000000000E+00  0.00000000000E+00 -0.16443313326E+04  0.16443313326E+04  0.25500000920E-02 0. -1.
    10030    2    1    2    0    0  0.00000000000E+00  0.00000000000E+00  0.32458180587E+03  0.36132444711E+04  0.35986361665E+04 0.  0.
        4    1    3    3  502    0 -0.14938151495E+04  0.39952426644E+03  0.10860477120E+04  0.18896043464E+04  0.12699999809E+01 0.  1.
       -4    1    3    3    0  502  0.14938151495E+04 -0.39952426644E+03 -0.76146590612E+03  0.17236401247E+04  0.12699999809E+01 0. -1.
</event>
<event>
 5   0  0.2482243E-08  0.3597552E+04  0.7818609E-02  0.8091053E-01
        2   -1    0    0  501    0  0.00000000000E+00  0.00000000000E+00  0.20052759126E+04  0.20052759126E+04  0.25500000920E-02 0. -1.
       -2   -1    0    0    0  501  0.00000000000E+00  0.00000000000E+00 -0.16135413997E+04  0.16135413997E+04  0.25500000920E-02 0.  1.
    10030    2    1    2    0    0  0.00000000000E+00  0.00000000000E+00  0.39173451290E+03  0.36188173124E+04  0.35975523362E+04 0.  0.
        5    1    3    3  502    0 -0.66449581287E+03 -0.16677567446E+04  0.82925500725E+02  0.17971827880E+04  0.46999998093E+01 0. -1.
       -5    1    3    3    0  502  0.66449581287E+03  0.16677567446E+04  0.30880901217E+03  0.18216345244E+04  0.46999998093E+01 0.  1.
</event>
<event>
 5   0  0.8146881E-09  0.3598501E+04  0.7818609E-02  0.8090835E-01
        1   -1    0    0  501    0  0.00000000000E+00  0.00000000000E+00  0.15286781198E+04  0.15286781198E+04  0.50400001928E-02 0.  1.
       -1   -1    0    0    0  501  0.00000000000E+00  0.00000000000E+00 -0.21177136796E+04  0.21177136796E+04  0.50400001928E-02 0. -1.
    10030    2    1    2    0    0  0.00000000000E+00  0.00000000000E+00 -0.58903555980E+03  0.36463917994E+04  0.35985011135E+04 0.  0.
        4    1    3    3  502    0 -0.26137826405E+03  0.66490472599E+03  0.13787869030E+04  0.15528914413E+04  0.12699999809E+01 0.  1.
       -4    1    3    3    0  502  0.26137826405E+03 -0.66490472599E+03 -0.19678224628E+04  0.20935003582E+04  0.12699999809E+01 0. -1.
</event>
<event>
 5   0  0.2494592E-08  0.3596759E+04  0.7818609E-02  0.8091235E-01
       -2   -1    0    0    0  501  0.00000000000E+00  0.00000000000E+00  0.13129312467E+04  0.13129312467E+04  0.25500000920E-02 0.  1.
        2   -1    0    0  501    0  0.00000000000E+00  0.00000000000E+00 -0.24633191023E+04  0.24633191023E+04  0.25500000920E-02 0. -1.
    10030    2    1    2    0    0  0.00000000000E+00  0.00000000000E+00 -0.11503878557E+04  0.37762503490E+04  0.35967588854E+04 0.  0.
        1    1    3    3  502    0 -0.15101403465E+03 -0.77072963146E+03 -0.22737483231E+04  0.24055687145E+04  0.50400001928E-02 0. -1.
       -1    1    3    3    0  502  0.15101403465E+03  0.77072963146E+03  0.11233604674E+04  0.13706816345E+04  0.50400001928E-02 0.  1.
</event>
<event>
 5   0  0.8024500E-09  0.3599487E+04  0.7818609E-02  0.8090609E-01
       -1   -1    0    0    0  501  0.00000000000E+00  0.00000000000E+00  0.14669303047E+04  0.14669303047E+04  0.50400001928E-02 0. -1.
        1   -1    0    0  501    0  0.00000000000E+00  0.00000000000E+00 -0.22080646172E+04  0.22080646172E+04  0.50400001928E-02 0.  1.
    10030    2    1    2    0    0  0.00000000000E+00  0.00000000000E+00 -0.74113431251E+03  0.36749949218E+04  0.35994871310E+04 0.  0.
        1    1    3    3  502    0 -0.10753349251E+04 -0.11530403566E+04  0.51552688854E+03  0.16587993362E+04  0.50400001928E-02 0. -1.
       -1    1    3    3    0  502  0.10753349251E+04  0.11530403566E+04 -0.12566612010E+04  0.20161955856E+04  0.50400001928E-02 0.  1.
</event>
<event>
 5   0  0.8063410E-09  0.3602829E+04  0.7818609E-02  0.8089844E-01
        1   -1    0    0  501    0  0.00000000000E+00  0.00000000000E+00  0.14779290227E+04  0.14779290227E+04  0.50400001928E-02 0.  1.
       -1   -1    0    0    0  501  0.00000000000E+00  0.00000000000E+00 -0.21957042553E+04  0.21957042553E+04  0.50400001928E-02 0. -1.
    10030    2    1    2    0    0  0.00000000000E+00  0.00000000000E+00 -0.71777523260E+03  0.36736332780E+04  0.36028294681E+04 0.  0.
        2    1    3    3  502    0  0.11614707083E+04  0.13298919392E+04  0.51557623290E+01  0.17656877861E+04  0.25500000920E-02 0.  1.
       -2    1    3    3    0  502 -0.11614707083E+04 -0.13298919392E+04 -0.72293099493E+03  0.19079454918E+04  0.25500000920E-02 0. -1.
</event>
<event>
 5   0  0.8063410E-09  0.3597930E+04  0.7818609E-02  0.8090966E-01
        1   -1    0    0  501    0  0.00000000000E+00  0.00000000000E+00  0.25571749167E+04  0.25571749167E+04  0.50400001928E-02 0.  1.
       -1   -1    0    0    0  501  0.00000000000E+00  0.00000000000E+00 -0.12655663570E+04  0.12655663570E+04  0.50400001928E-02 0. -1.
    10030    2    1    2    0    0  0.00000000000E+00  0.00000000000E+00  0.12916085598E+04  0.38227412737E+04  0.35979297067E+04 0.  0.
        2    1    3    3  502    0 -0.37639336128E+03 -0.15520133781E+04 -0.23410730702E+03  0.16140705435E+04  0.25500000920E-02 0. -1.
       -2    1    3    3    0  502  0.37639336128E+03  0.15520133781E+04  0.15257158668E+04  0.22086707302E+04  0.25500000920E-02 0.  1.
</event>
<event>
 5   0  0.8024500E-09  0.3599512E+04  0.7818609E-02  0.8090604E-01
       -1   -1    0    0    0  501  0.00000000000E+00  0.00000000000E+00  0.19433657506E+04  0.19433657506E+04  0.50400001928E-02 0.  1.
        1   -1    0    0  501    0  0.00000000000E+00  0.00000000000E+00 -0.16667584822E+04  0.16667584822E+04  0.50400001928E-02 0. -1.
    10030    2    1    2    0    0  0.00000000000E+00  0.00000000000E+00  0.27660726839E+03  0.36101242328E+04  0.35995118273E+04 0.  0.
        1    1    3    3  502    0 -0.17135276574E+04  0.46582906469E+03 -0.15572891940E+03  0.17825333788E+04  0.50400001928E-02 0.  1.
       -1    1    3    3    0  502  0.17135276574E+04 -0.46582906469E+03  0.43233618779E+03  0.18275908540E+04  0.50400001928E-02 0. -1.
</event>
<event>
 5   0  0.8146881E-09  0.3599186E+04  0.7818609E-02  0.8090678E-01
        1   -1    0    0  501    0  0.00000000000E+00  0.00000000000E+00  0.12122393354E+04  0.12122393354E+04  0.50400001928E-02 0. -1.
       -1   -1    0    0    0  501  0.00000000000E+00  0.00000000000E+00 -0.26715307460E+04  0.26715307460E+04  0.50400001928E-02 0.  1.
    10030    2    1    2    0    0  0.00000000000E+00  0.00000000000E+00 -0.14592914107E+04  0.38837700814E+04  0.35991858280E+04 0.  0.
        4    1    3    3  502    0 -0.15762556868E+04  0.59366021280E+03 -0.45888243967E+02  0.16849693713E+04  0.12699999809E+01 0. -1.
       -4    1    3    3    0  502  0.15762556868E+04 -0.59366021280E+03 -0.14134031667E+04  0.21988007101E+04  0.12699999809E+01 0.  1.
</event>
<event>
 5   0  0.2590795E-08  0.3599951E+04  0.7818609E-02  0.8090503E-01
       -2   -1    0    0    0  501  0.00000000000E+00  0.00000000000E+00  0.28644464034E+04  0.28644464034E+04  0.25500000920E-02 0.  1.
        2   -1    0    0  501    0  0.00000000000E+00  0.00000000000E+00 -0.11310775196E+04  0.11310775196E+04  0.25500000920E-02 0. -1.
    10030    2    1    2    0    0  0.00000000000E+00  0.00000000000E+00  0.17333688838E+04  0.39955239230E+04  0.35999505180E+04 0.  0.
        4    1    3    3  502    0 -0.62368359786E+03 -0.14481458866E+04  0.18303042659E+04  0.24158069165E+04  0.12699999809E+01 0.  1.
       -4    1    3    3    0  502  0.62368359786E+03  0.14481458866E+04 -0.96935382095E+02  0.15797170064E+04  0.12699999809E+01 0. -1.
</event>
<event>
 5   0  0.2476968E-08  0.3600278E+04  0.7818609E-02  0.8090428E-01
       -2   -1    0    0    0  501  0.00000000000E+00  0.00000000000E+00  0.15167260004E+04  0.15167260004E+04  0.25500000920E-02 0.  1.
        2   -1    0    0  501    0  0.00000000000E+00  0.00000000000E+00 -0.21365104630E+04  0.21365104630E+04  0.25500000920E-02 0. -1.
    10030    2    1    2    0    0  0.00000000000E+00  0.00000000000E+00 -0.61978446258E+03  0.36532364635E+04  0.36002783056E+04 0.  0.
        2    1    3    3  502    0 -0.89369711745E+03 -0.51146720752E+03  0.11883797139E+04  0.15724311071E+04  0.25500000920E-02 0.  1.
       -2    1    3    3    0  502  0.89369711745E+03  0.51146720752E+03 -0.18081641765E+04  0.20808053564E+04  0.25500000920E-02 0. -1.
</event>
<event>
 5   0  0.8024500E-09  0.3598953E+04  0.7818609E-02  0.8090732E-01
       -1   -1    0    0    0  501  0.00000000000E+00  0.00000000000E+00  0.27394654201E+04  0.27394654201E+04  0.50400001928E-02 0.  1.
        1   -1    0    0  501    0  0.00000000000E+00  0.00000000000E+00 -0.11820245798E+04  0.11820245798E+04  0.50400001928E-02 0. -1.
    10030    2    1    2    0    0  0.00000000000E+00  0.00000000000E+00  0.15574408403E+04  0.39214899999E+04  0.35989528822E+04 0.  0.
        5    1    3    3  502    0  0.17816636462E+04  0.22093900329E+03  0.64547467140E+03  0.19078257343E+04  0.46999998093E+01 0. -1.
       -5    1    3    3    0  502 -0.17816636462E+04 -0.22093900329E+03  0.91196616892E+03  0.20136642656E+04  0.46999998093E+01 0.  1.
</event>
<event>
 5   0  0.2476968E-08  0.3596529E+04  0.7818609E-02  0.8091287E-01
       -2   -1    0    0    0  501  0.00000000000E+00  0.00000000000E+00  0.14636274130E+04  0.14636274130E+04  0.25500000920E-02 0. -1.
        2   -1    0    0  501    0  0.00000000000E+00  0.00000000000E+00 -0.22094111881E+04  0.22094111881E+04  0.25500000920E-02 0.  1.
    10030    2    1    2    0    0  0.00000000000E+00  0.00000000000E+00 -0.74578377515E+03  0.36730386011E+04  0.35965287606E+04 0.  0.
        2    1    3    3  502    0 -0.96316605765E+03 -0.58778056205E+03 -0.18028859429E+04  0.21268691936E+04  0.25500000920E-02 0.  1.
       -2    1    3    3    0  502  0.96316605765E+03  0.58778056205E+03  0.10571021677E+04  0.15461694075E+04  0.25500000920E-02 0. -1.
</event>
<event>
 5   0  0.8024500E-09  0.3600095E+04  0.7818609E-02  0.8090470E-01
        1   -1    0    0  501    0  0.00000000000E+00  0.00000000000E+00  0.20995569161E+04  0.20995569161E+04  0.50400001928E-02 0.  1.
       -1   -1    0    0    0  501  0.00000000000E+00  0.00000000000E+00 -0.15432638144E+04  0.15432638144E+04  0.50400001928E-02 0. -1.
    10030    2    1    2    0    0  0.00000000000E+00  0.00000000000E+00  0.55629310172E+03  0.36428207305E+04  0.36000945625E+04 0.  0.
        5    1    3    3  502    0 -0.45320217019E+03  0.17226037044E+04  0.54082795987E+03  0.18615242952E+04  0.46999998093E+01 0. -1.
       -5    1    3    3    0  502  0.45320217019E+03 -0.17226037044E+04  0.15465141841E+02  0.17812964352E+04  0.46999998093E+01 0.  1.
</event>
<event>
 5   0  0.2494592E-08  0.3601057E+04  0.7818609E-02  0.8090250E-01
       -2   -1    0    0    0  501  0.00000000000E+00  0.00000000000E+00  0.14672070617E+04  0.14672070617E+04  0.25500000920E-02 0.  1.
        2   -1    0    0  501    0  0.00000000000E+00  0.00000000000E+00 -0.22095740699E+04  0.22095740699E+04  0.25500000920E-02 0. -1.
    10030    2    1    2    0    0  0.00000000000E+00  0.00000000000E+00 -0.74236700819E+03  0.36767811317E+04  0.36010568887E+04 0.  0.
        1    1    3    3  502    0 -0.88470389225E+03  0.42412854217E+03  0.11703044330E+04  0.15271537130E+04  0.50400001928E-02 0.  1.
       -1    1    3    3    0  502  0.88470389225E+03 -0.42412854217E+03 -0.19126714412E+04  0.21496274187E+04  0.50400001928E-02 0. -1.
</event>
<event>
 5   0  0.2590795E-08  0.3599173E+04  0.7818609E-02  0.8090681E-01
        2   -1    0    0  501    0  0.00000000000E+00  0.00000000000E+00  0.16901254968E+04  0.16901254968E+04  0.25500000920E-02 0. -1.
       -2   -1    0    0    0  501  0.00000000000E+00  0.00000000000E+00 -0.19161364575E+04  0.19161364575E+04  0.25500000920E-02 0.  1.
    10030    2    1    2    0    0  0.00000000000E+00  0.00000000000E+00 -0.22601096068E+03  0.36062619543E+04  0.35991727283E+04 0.  0.
        4    1    3    3  502    0 -0.11852755640E+04 -0.82673065275E+03 -0.11875672735E+04  0.18704757087E+04  0.12699999809E+01 0.  1.
       -4    1    3    3    0  502  0.11852755640E+04  0.82673065275E+03  0.96155631280E+03  0.17357862456E+04  0.12699999809E+01 0. -1.
</event>
<event>
 5   0  0.8024500E-09  0.3605384E+04  0.7818609E-02  0.8089259E-01
        1   -1    0    0  501    0  0.00000000000E+00  0.00000000000E+00  0.14882682999E+04  0.14882682999E+04  0.50400001928E-02 0.  1.
       -1   -1    0    0    0  501  0.00000000000E+00  0.00000000000E+00 -0.21835437693E+04  0.21835437693E+04  0.50400001928E-02 0. -1.
    10030    2    1    2    0    0  0.00000000000E+00  0.00000000000E+00 -0.69527546947E+03  0.36718120692E+04  0.36053842920E+04 0.  0.
        5    1    3    3  502    0  0.12659707469E+04  0.11057777544E+04  0.31570819543E+03  0.17102982572E+04  0.46999998093E+01 0.  1.
       -5    1    3    3    0  502 -0.12659707469E+04 -0.11057777544E+04 -0.10109836649E+04  0.19615138120E+04  0.46999998093E+01 0. -1.
</event>
<event>
 5   0  0.2590795E-08  0.3597605E+04  0.7818609E-02  0.8091040E-01
        2   -1    0    0  501    0  0.00000000000E+00  0.00000000000E+00  0.19467087489E+04  0.19467087489E+04  0.25500000920E-02 0.  1.
       -2   -1    0    0    0  501  0.00000000000E+00  0.00000000000E+00 -0.16621341492E+04  0.16621341492E+04  0.25500000920E-02 0. -1.
    10030    2    1    2    0    0  0.00000000000E+00  0.00000000000E+00  0.28457459969E+03  0.36088428981E+04  0.35976053648E+04 0.  0.
        4    1    3    3  502    0  0.76743751130E+03 -0.14464683696E+04  0.88923283863E+03  0.18633216932E+04  0.12699999809E+01 0.  1.
       -4    1    3    3    0  502 -0.76743751130E+03  0.14464683696E+04 -0.60465823894E+03  0.17455212049E+04  0.12699999809E+01 0. -1.
</event>
<event>
 5   0  0.2482243E-08  0.3601085E+04  0.7818609E-02  0.8090243E-01
       -2   -1    0    0    0  501  0.00000000000E+00  0.00000000000E+00  0.29512356089E+04  0.29512356089E+04  0.25500000920E-02 0.  1.
        2   -1    0    0  501    0  0.00000000000E+00  0.00000000000E+00 -0.10985071354E+04  0.10985071354E+04  0.25500000920E-02 0. -1.
    10030    2    1    2    0    0  0.00000000000E+00  0.00000000000E+00  0.18527284735E+04  0.40497427443E+04  0.36010850446E+04 0.  0.
        5    1    3    3  502    0 -0.15662482206E+04  0.56032308821E+03  0.15142830136E+03  0.16703436988E+04  0.46999998093E+01 0. -1.
       -5    1    3    3    0  502  0.15662482206E+04 -0.56032308821E+03  0.17013001722E+04  0.23793990455E+04  0.46999998093E+01 0.  1.
</event>
<event>
 5   0  0.2494592E-08  0.3600776E+04  0.7818609E-02  0.8090314E-01
        2   -1    0    0  501    0  0.00000000000E+00  0.00000000000E+00  0.26726036522E+04  0.26726036522E+04  0.25500000920E-02 0. -1.
       -2   -1    0    0    0  501  0.00000000000E+00  0.00000000000E+00 -0.12128239982E+04  0.12128239982E+04  0.25500000920E-02 0.  1.
    10030    2    1    2    0    0  0.00000000000E+00  0.00000000000E+00  0.14597796540E+04  0.38854276504E+04  0.36007764980E+04 0.  0.
        1    1    3    3  502    0  0.10226787171E+04 -0.93844360400E+03  0.19672060735E+04  0.24075813365E+04  0.50400001928E-02 0. -1.
       -1    1    3    3    0  502 -0.10226787171E+04  0.93844360400E+03 -0.50742641953E+03  0.14778463139E+04  0.50400001928E-02 0.  1.
</event>
<event>
 5   0  0.8146881E-09  0.3600905E+04  0.7818609E-02  0.8090284E-01
        1   -1    0    0  501    0  0.00000000000E+00  0.00000000000E+00  0.25525771054E+04  0.25525771054E+04  0.50400001928E-02 0. -1.
       -1   -1    0    0    0  501  0.00000000000E+00  0.00000000000E+00 -0.12699434902E+04  0.12699434902E+04  0.50400001928E-02 0.  1.
    10030    2    1    2    0    0  0.00000000000E+00  0.00000000000E+00  0.12826336153E+04  0.38225205956E+04  0.36009047076E+04 0.  0.
        4    1    3    3  502    0  0.10182185151E+04 -0.62789660990E+03  0.20697171295E+04  0.23905551042E+04  0.12699999809E+01 0. -1.
       -4    1    3    3    0  502 -0.10182185151E+04  0.62789660990E+03 -0.78708351422E+03  0.14319654914E+04  0.12699999809E+01 0.  1.
</event>
<event>
 5   0  0.2494592E-08  0.3599601E+04  0.7818609E-02  0.8090583E-01
        2   -1    0    0  501    0  0.00000000000E+00  0.00000000000E+00  0.23105246444E+04  0.23105246444E+04  0.25500000920E-02 0. -1.
       -2   -1    0    0    0  501  0.00000000000E+00  0.00000000000E+00 -0.14019680943E+04  0.14019680943E+04  0.25500000920E-02 0.  1.
    10030    2    1    2    0    0  0.00000000000E+00  0.00000000000E+00  0.90855655007E+03  0.37124927387E+04  0.35996009960E+04 0.  0.
        1    1    3    3  502    0 -0.91498997827E+03  0.31037800861E+03 -0.11118108687E+04  0.14729781316E+04  0.50400001928E-02 0.  1.
       -1    1    3    3    0  502  0.91498997827E+03 -0.31037800861E+03  0.20203674187E+04  0.22395146071E+04  0.50400001928E-02 0. -1.
</event>
<event>
 5   0  0.8063410E-09  0.3600484E+04  0.7818609E-02  0.8090381E-01
       -1   -1    0    0    0  501  0.00000000000E+00  0.00000000000E+00  0.15264765311E+04  0.15264765311E+04  0.50400001928E-02 0.  1.
        1   -1    0    0  501    0  0.00000000000E+00  0.00000000000E+00 -0.21231057857E+04  0.21231057857E+04  0.50400001928E-02 0. -1.
    10030    2    1    2    0    0  0.00000000000E+00  0.00000000000E+00 -0.59662925459E+03  0.36495823168E+04  0.36004839425E+04 0.  0.
        2    1    3    3  502    0  0.60834595050E+03 -0.20947312531E+03  0.14059540974E+04  0.15461793912E+04  0.25500000920E-02 0.  1.
       -2    1    3    3    0  502 -0.60834595050E+03  0.20947312531E+03 -0.20025833520E+04  0.21034029256E+04  0.25500000920E-02 0. -1.
</event>
<event>
 5   0  0.2608070E-08  0.3597180E+04  0.7818609E-02  0.8091138E-01
       -2   -1    0    0    0  501  0.00000000000E+00  0.00000000000E+00  0.18633151493E+04  0.18633151493E+04  0.25500000920E-02 0.  1.
        2   -1    0    0  501    0  0.00000000000E+00  0.00000000000E+00 -0.17361134317E+04  0.17361134317E+04  0.25500000920E-02 0. -1.
    10030    2    1    2    0    0  0.00000000000E+00  0.00000000000E+00  0.12720171760E+03  0.35994285810E+04  0.35971802614E+04 0.  0.
        3    1    3    3  502    0  0.56960210432E+03 -0.67901556606E+03 -0.15024389212E+04  0.17443713533E+04  0.10100000352E+00 0. -1.
       -3    1    3    3    0  502 -0.56960210432E+03  0.67901556606E+03  0.16296406388E+04  0.18550572277E+04  0.10100000352E+00 0.  1.
</event>
<event>
 5   0  0.8146881E-09  0.3600255E+04  0.7818609E-02  0.8090433E-01
        1   -1    0    0  501    0  0.00000000000E+00  0.00000000000E+00  0.12624486759E+04  0.12624486759E+04  0.50400001928E-02 0.  1.
       -1   -1    0    0    0  501  0.00000000000E+00  0.00000000000E+00 -0.25668045999E+04  0.25668045999E+04  0.50400001928E-02 0. -1.
    10030    2    1    2    0    0  0.00000000000E+00  0.00000000000E+00 -0.13043559240E+04  0.38292532758E+04  0.36002550290E+04 0.  0.
        4    1    3    3  502    0  0.87929299173E+03 -0.13625462815E+04  0.17904836837E+03  0.16314865815E+04  0.12699999809E+01 0. -1.
       -4    1    3    3    0  502 -0.87929299173E+03  0.13625462815E+04 -0.14834042924E+04  0.21977666942E+04  0.12699999809E+01 0.  1.
</event>
<event>
 5   0  0.8024500E-09  0.3600311E+04  0.7818609E-02  0.8090420E-01
        1   -1    0    0  501    0  0.00000000000E+00  0.00000000000E+00  0.20064481233E+04  0.20064481233E+04  0.50400001928E-02 0. -1.
       -1   -1    0    0    0  501  0.00000000000E+00  0.00000000000E+00 -0.16150731035E+04  0.16150731035E+04  0.50400001928E-02 0.  1.
    10030    2    1    2    0    0  0.00000000000E+00  0.00000000000E+00  0.39137501979E+03  0.36215212268E+04  0.36003113185E+04 0.  0.
        1    1    3    3  502    0 -0.19196357337E+03 -0.17718778391E+04  0.45047659095E+03  0.18382954739E+04  0.50400001928E-02 0.  1.
       -1    1    3    3    0  502  0.19196357337E+03  0.17718778391E+04 -0.59101571162E+02  0.17832257530E+04  0.50400001928E-02 0. -1.
</event>
<event>
 5   0  0.2494592E-08  0.3599422E+04  0.7818609E-02  0.8090624E-01
        2   -1    0    0  501    0  0.00000000000E+00  0.00000000000E+00  0.19779002677E+04  0.19779002677E+04  0.25500000920E-02 0.  1.
       -2   -1    0    0    0  501  0.00000000000E+00  0.00000000000E+00 -0.16375747588E+04  0.16375747588E+04  0.25500000920E-02 0. -1.
    10030    2    1    2    0    0  0.00000000000E+00  0.00000000000E+00  0.34032550886E+03  0.36154750265E+04  0.35994219279E+04 0.  0.
        1    1    3    3  502    0 -0.12839020105E+04  0.76507776946E+03  0.11772364784E+04  0.19025335981E+04  0.50400001928E-02 0.  1.
       -1    1    3    3    0  502  0.12839020105E+04 -0.76507776946E+03 -0.83691096950E+03  0.17129414283E+04  0.50400001928E-02 0. -1.
</event>
<event>
 5   0  0.2590795E-08  0.3600558E+04  0.7818609E-02  0.8090364E-01
        2   -1    0    0  501    0  0.00000000000E+00  0.00000000000E+00  0.21999639983E+04  0.21999639983E+04  0.25500000920E-02 0.  1.
       -2   -1    0    0    0  501  0.00000000000E+00  0.00000000000E+00 -0.14732078066E+04  0.14732078066E+04  0.25500000920E-02 0. -1.
    10030    2    1    2    0    0  0.00000000000E+00  0.00000000000E+00  0.72675619168E+03  0.36731718049E+04  0.36005578105E+04 0.  0.
        4    1    3    3  502    0  0.64288875185E+03  0.71581259980E+03  0.19156790490E+04  0.21437167390E+04  0.12699999809E+01 0.  1.
       -4    1    3    3    0  502 -0.64288875185E+03 -0.71581259980E+03 -0.11889228573E+04  0.15294550660E+04  0.12699999809E+01 0. -1.
</event>
<event>
 5   0  0.8024500E-09  0.3598892E+04  0.7818609E-02  0.8090746E-01
       -3   -1    0    0    0  501  0.00000000000E+00  0.00000000000E+00  0.19573448825E+04  0.19573448851E+04  0.10100000352E+00 0.  1.
        3   -1    0    0  501    0  0.00000000000E+00  0.00000000000E+00 -0.16542844708E+04  0.16542844739E+04  0.10100000352E+00 0. -1.
    10030    2    1    2    0    0  0.00000000000E+00  0.00000000000E+00  0.30306041169E+03  0.36116293591E+04  0.35988916369E+04 0.  0.
        2    1    3    3  502    0  0.70247932860E+03  0.84822597155E+03  0.15796060982E+04  0.19256479251E+04  0.25500000920E-02 0.  1.
       -2    1    3    3    0  502 -0.70247932860E+03 -0.84822597155E+03 -0.12765456865E+04  0.16859814340E+04  0.25500000920E-02 0. -1.
</event>
<event>
 5   0  0.2494592E-08  0.3599824E+04  0.7818609E-02  0.8090532E-01
       -2   -1    0    0    0  501  0.00000000000E+00  0.00000000000E+00  0.13690317273E+04  0.13690317273E+04  0.25500000920E-02 0.  1.
        2   -1    0    0  501    0  0.00000000000E+00  0.00000000000E+00 -0.23664051883E+04  0.23664051883E+04  0.25500000920E-02 0. -1.
    10030    2    1    2    0    0  0.00000000000E+00  0.00000000000E+00 -0.99737346103E+03  0.37354369156E+04  0.35998243192E+04 0.  0.
        1    1    3    3  502    0 -0.55121210714E+03 -0.79335839535E+02 -0.22747601488E+04  0.23419356731E+04  0.50400001928E-02 0. -1.
       -1    1    3    3    0  502  0.55121210714E+03  0.79335839535E+02  0.12773866878E+04  0.13935012424E+04  0.50400001928E-02 0.  1.
</event>
<event>
 5   0  0.2608070E-08  0.3600200E+04  0.7818609E-02  0.8090446E-01
       -2   -1    0    0    0  501  0.00000000000E+00  0.00000000000E+00  0.31523240928E+04  0.31523240928E+04  0.25500000920E-02 0.  1.
        2   -1    0    0  501    0  0.00000000000E+00  0.00000000000E+00 -0.10279272306E+04  0.10279272306E+04  0.25500000920E-02 0. -1.
    10030    2    1    2    0    0  0.00000000000E+00  0.00000000000E+00  0.21243968622E+04  0.41802513234E+04  0.36001998692E+04 0.  0.
        3    1    3    3  502    0 -0.14262945654E+04  0.77695725000E+03  0.19633781659E+04  0.25481037240E+04  0.10100000352E+00 0.  1.
       -3    1    3    3    0  502  0.14262945654E+04 -0.77695725000E+03  0.16101869626E+03  0.16321475994E+04  0.10100000352E+00 0. -1.
</event>
<event>
 5   0  0.8024500E-09  0.3600090E+04  0.7818609E-02  0.8090471E-01
       -1   -1    0    0    0  501  0.00000000000E+00  0.00000000000E+00  0.15629427999E+04  0.15629427999E+04  0.50400001928E-02 0.  1.
        1   -1    0    0  501    0  0.00000000000E+00  0.00000000000E+00 -0.20731158689E+04  0.20731158689E+04  0.50400001928E-02 0. -1.
    10030    2    1    2    0    0  0.00000000000E+00  0.00000000000E+00 -0.51017306893E+03  0.36360586688E+04  0.36000897326E+04 0.  0.
        1    1    3    3  502    0  0.88027007301E+03 -0.14175184148E+04 -0.93705693900E+03  0.19137161662E+04  0.50400001928E-02 0. -1.
       -1    1    3    3    0  502 -0.88027007301E+03  0.14175184148E+04  0.42688387007E+03  0.17223425026E+04  0.50400001928E-02 0.  1.
</event>
<event>
 5   0  0.8024500E-09  0.3599980E+04  0.7818609E-02  0.8090496E-01
       -1   -1    0    0    0  501  0.00000000000E+00  0.00000000000E+00  0.19127890150E+04  0.19127890150E+04  0.50400001928E-02 0.  1.
        1   -1    0    0  501    0  0.00000000000E+00  0.00000000000E+00 -0.16938423972E+04  0.16938423972E+04  0.50400001928E-02 0. -1.
    10030    2    1    2    0    0  0.00000000000E+00  0.00000000000E+00  0.21894661774E+03  0.36066314122E+04  0.35999795169E+04 0.  0.
        1    1    3    3  502    0  0.85027414448E+03 -0.13288132566E+04  0.97782299101E+03  0.18560303321E+04  0.50400001928E-02 0.  1.
       -1    1    3    3    0  502 -0.85027414448E+03  0.13288132566E+04 -0.75887637326E+03  0.17506010801E+04  0.50400001928E-02 0. -1.
</event>
<event>
 5   0  0.8247570E-09  0.3600225E+04  0.7818609E-02  0.8090440E-01
        1   -1    0    0  501    0  0.00000000000E+00  0.00000000000E+00  0.18625010191E+04  0.18625010191E+04  0.50400001928E-02 0. -1.
       -1   -1    0    0    0  501  0.00000000000E+00  0.00000000000E+00 -0.17398140718E+04  0.17398140718E+04  0.50400001928E-02 0.  1.
    10030    2    1    2    0    0  0.00000000000E+00  0.00000000000E+00  0.12268694724E+03  0.36023150909E+04  0.36002252606E+04 0.  0.
        3    1    3    3  502    0 -0.11354225632E+04 -0.85297464984E+03  0.11681751361E+04  0.18388538031E+04  0.10100000352E+00 0. -1.
       -3    1    3    3    0  502  0.11354225632E+04  0.85297464984E+03 -0.10454881888E+04  0.17634612878E+04  0.10100000352E+00 0.  1.
</event>
<event>
 5   0  0.8024500E-09  0.3596540E+04  0.7818609E-02  0.8091285E-01
        1   -1    0    0  501    0  0.00000000000E+00  0.00000000000E+00  0.23017643000E+04  0.23017643000E+04  0.50400001928E-02 0.  1.
       -1   -1    0    0    0  501  0.00000000000E+00  0.00000000000E+00 -0.14049116378E+04  0.14049116378E+04  0.50400001928E-02 0. -1.
    10030    2    1    2    0    0  0.00000000000E+00  0.00000000000E+00  0.89685266220E+03  0.37066759379E+04  0.35965402557E+04 0.  0.
        5    1    3    3  502    0 -0.14070900953E+04 -0.10787467285E+03  0.15971032171E+04  0.21312672890E+04  0.46999998093E+01 0.  1.
       -5    1    3    3    0  502  0.14070900953E+04  0.10787467285E+03 -0.70025055490E+03  0.15754086489E+04  0.46999998093E+01 0. -1.
</event>
<event>
 5   0  0.8024500E-09  0.3597844E+04  0.7818609E-02  0.8090986E-01
       -1   -1    0    0    0  501  0.00000000000E+00  0.00000000000E+00  0.11387349612E+04  0.11387349612E+04  0.50400001928E-02 0.  1.
        1   -1    0    0  501    0  0.00000000000E+00  0.00000000000E+00 -0.28418564191E+04  0.28418564191E+04  0.50400001928E-02 0. -1.
    10030    2    1    2    0    0  0.00000000000E+00  0.00000000000E+00 -0.17031214579E+04  0.39805913803E+04  0.35978444986E+04 0.  0.
        5    1    3    3  502    0 -0.32418712559E+03 -0.24662631313E+03 -0.27901550680E+04  0.28197356657E+04  0.46999998093E+01 0. -1.
       -5    1    3    3    0  502  0.32418712559E+03  0.24662631313E+03  0.10870336101E+04  0.11608557146E+04  0.46999998093E+01 0.  1.
</event>
<event>
 5   0  0.2590795E-08  0.3598711E+04  0.7818609E-02  0.8090787E-01
        2   -1    0    0  501    0  0.00000000000E+00  0.00000000000E+00  0.26775081857E+04  0.26775081857E+04  0.25500000920E-02 0. -1.
       -2   -1    0    0    0  501  0.00000000000E+00  0.00000000000E+00 -0.12092139036E+04  0.12092139036E+04  0.25500000920E-02 0.  1.
    10030    2    1    2    0    0  0.00000000000E+00  0.00000000000E+00  0.14682942821E+04  0.38867220892E+04  0.35987109498E+04 0.  0.
        4    1    3    3  502    0 -0.38175321599E+03 -0.17480963229E+04  0.93935954098E+03  0.20208845172E+04  0.12699999809E+01 0.  1.
       -4    1    3    3    0  502  0.38175321599E+03  0.17480963229E+04  0.52893474108E+03  0.18658375720E+04  0.12699999809E+01 0. -1.
</event>
<event>
 5   0  0.2494592E-08  0.3601694E+04  0.7818609E-02  0.8090104E-01
        2   -1    0    0  501    0  0.00000000000E+00  0.00000000000E+00  0.17772559247E+04  0.17772559247E+04  0.25500000920E-02 0.  1.
       -2   -1    0    0    0  501  0.00000000000E+00  0.00000000000E+00 -0.18247508062E+04  0.18247508062E+04  0.25500000920E-02 0. -1.
    10030    2    1    2    0    0  0.00000000000E+00  0.00000000000E+00 -0.47494881498E+02  0.36020067309E+04  0.36016935913E+04 0.  0.
        1    1    3    3  502    0 -0.12288170126E+03 -0.14655412956E+04  0.10156397861E+04  0.17872983457E+04  0.50400001928E-02 0.  1.
       -1    1    3    3    0  502  0.12288170126E+03  0.14655412956E+04 -0.10631346676E+04  0.18147083851E+04  0.50400001928E-02 0. -1.
</event>
<event>
 5   0  0.8063410E-09  0.3599776E+04  0.7818609E-02  0.8090543E-01
       -1   -1    0    0    0  501  0.00000000000E+00  0.00000000000E+00  0.16772973432E+04  0.16772973432E+04  0.50400001928E-02 0. -1.
        1   -1    0    0  501    0  0.00000000000E+00  0.00000000000E+00 -0.19314390816E+04  0.19314390816E+04  0.50400001928E-02 0.  1.
    10030    2    1    2    0    0  0.00000000000E+00  0.00000000000E+00 -0.25414173833E+03  0.36087364248E+04  0.35997764598E+04 0.  0.
        2    1    3    3  502    0 -0.79318315908E+03  0.14544929793E+04 -0.83231908248E+03  0.18540346291E+04  0.25500000920E-02 0.  1.
       -2    1    3    3    0  502  0.79318315908E+03 -0.14544929793E+04  0.57817734414E+03  0.17547017958E+04  0.25500000920E-02 0. -1.
</event>
<event>
 5   0  0.2482243E-08  0.3604096E+04  0.7818609E-02  0.8089554E-01
       -2   -1    0    0    0  501  0.00000000000E+00  0.00000000000E+00  0.14598995714E+04  0.14598995714E+04  0.25500000920E-02 0. -1.
        2   -1    0    0  501    0  0.00000000000E+00  0.00000000000E+00 -0.22243839620E+04  0.22243839620E+04  0.25500000920E-02 0.  1.
    10030    2    1    2    0    0  0.00000000000E+00  0.00000000000E+00 -0.76448439053E+03  0.36842835334E+04  0.36040961102E+04 0.  0.
        5    1    3    3  502    0  0.16403912310E+04  0.51480580697E+03  0.16962712004E+03  0.17276295493E+04  0.46999998093E+01 0. -1.
       -5    1    3    3    0  502 -0.16403912310E+04 -0.51480580697E+03 -0.93411151057E+03  0.19566539842E+04  0.46999998093E+01 0.  1.
</event>
<event>
 5   0  0.8063410E-09  0.3608143E+04  0.7818609E-02  0.8088629E-01
       -1   -1    0    0    0  501  0.00000000000E+00  0.00000000000E+00  0.33901718992E+04  0.33901718993E+04  0.50400001928E-02 0.  1.
        1   -1    0    0  501    0  0.00000000000E+00  0.00000000000E+00 -0.96003224101E+03  0.96003224102E+03  0.50400001928E-02 0. -1.
    10030    2    1    2    0    0  0.00000000000E+00  0.00000000000E+00  0.24301396582E+04  0.43502041403E+04  0.36081431933E+04 0.  0.
        2    1    3    3  502    0 -0.31756868343E+02  0.17725223920E+04  0.81188385303E+03  0.19498716675E+04  0.25500000920E-02 0. -1.
       -2    1    3    3    0  502  0.31756868343E+02 -0.17725223920E+04  0.16182558052E+04  0.24003324728E+04  0.25500000920E-02 0.  1.
</event>
<event>
 5   0  0.2476968E-08  0.3600250E+04  0.7818609E-02  0.8090434E-01
       -2   -1    0    0    0  501  0.00000000000E+00  0.00000000000E+00  0.14083563015E+04  0.14083563015E+04  0.25500000920E-02 0. -1.
        2   -1    0    0  501    0  0.00000000000E+00  0.00000000000E+00 -0.23008739751E+04  0.23008739751E+04  0.25500000920E-02 0.  1.
    10030    2    1    2    0    0  0.00000000000E+00  0.00000000000E+00 -0.89251767357E+03  0.37092302766E+04  0.36002501923E+04 0.  0.
        2    1    3    3  502    0  0.36138016908E+03 -0.15775252333E+04  0.36580638514E+03  0.16592154169E+04  0.25500000920E-02 0. -1.
       -2    1    3    3    0  502 -0.36138016908E+03  0.15775252333E+04 -0.12583240587E+04  0.20500148597E+04  0.25500000920E-02 0.  1.
</event>
<event>
 5   0  0.2608070E-08  0.3600770E+04  0.7818609E-02  0.8090315E-01
        2   -1    0    0  501    0  0.00000000000E+00  0.00000000000E+00  0.24555059500E+04  0.24555059500E+04  0.25500000920E-02 0.  1.
       -2   -1    0    0    0  501  0.00000000000E+00  0.00000000000E+00 -0.13200485361E+04  0.13200485361E+04  0.25500000920E-02 0. -1.
    10030    2    1    2    0    0  0.00000000000E+00  0.00000000000E+00  0.11354574139E+04  0.37755544861E+04  0.36007704923E+04 0.  0.
        3    1    3    3  502    0  0.65346176513E+03  0.14639971409E+04 -0.29123487671E+03  0.16294531815E+04  0.10100000352E+00 0. -1.
       -3    1    3    3    0  502 -0.65346176513E+03 -0.14639971409E+04  0.14266922906E+04  0.21461013046E+04  0.10100000352E+00 0.  1.
</event>
<event>
 5   0  0.2494592E-08  0.3599229E+04  0.7818609E-02  0.8090668E-01
       -2   -1    0    0    0  501  0.00000000000E+00  0.00000000000E+00  0.18894305141E+04  0.18894305141E+04  0.25500000920E-02 0.  1.
        2   -1    0    0  501    0  0.00000000000E+00  0.00000000000E+00 -0.17140679049E+04  0.17140679049E+04  0.25500000920E-02 0. -1.
    10030    2    1    2    0    0  0.00000000000E+00  0.00000000000E+00  0.17536260920E+03  0.36034984191E+04  0.35992289190E+04 0.  0.
        1    1    3    3  502    0 -0.47340105267E+03  0.40629825030E+02  0.18254974496E+04  0.18863192407E+04  0.50400001928E-02 0.  1.
       -1    1    3    3    0  502  0.47340105267E+03 -0.40629825030E+02 -0.16501348404E+04  0.17171791784E+04  0.50400001928E-02 0. -1.
</event>
<event>
 5   0  0.2590795E-08  0.3599850E+04  0.7818609E-02  0.8090526E-01
        2   -1    0    0  501    0  0.00000000000E+00  0.00000000000E+00  0.24997526420E+04  0.24997526420E+04  0.25500000920E-02 0.  1.
       -2   -1    0    0    0  501  0.00000000000E+00  0.00000000000E+00 -0.12960204904E+04  0.12960204904E+04  0.25500000920E-02 0. -1.
    10030    2    1    2    0    0  0.00000000000E+00  0.00000000000E+00  0.12037321517E+04  0.37957731324E+04  0.35998503552E+04 0.  0.
        4    1    3    3  502    0  0.16524154095E+04  0.28155446700E+02  0.13537382855E+04  0.21363235647E+04  0.12699999809E+01 0.  1.
       -4    1    3    3    0  502 -0.16524154095E+04 -0.28155446700E+02 -0.15000613383E+03  0.16594495677E+04  0.12699999809E+01 0. -1.
</event>
<event>
 5   0  0.8024500E-09  0.3602388E+04  0.7818609E-02  0.8089945E-01
       -1   -1    0    0    0  501  0.00000000000E+00  0.00000000000E+00  0.26812480159E+04  0.26812480159E+04  0.50400001928E-02 0.  1.
        1   -1    0    0  501    0  0.00000000000E+00  0.00000000000E+00 -0.12099958804E+04  0.12099958804E+04  0.50400001928E-02 0. -1.
    10030    2    1    2    0    0  0.00000000000E+00  0.00000000000E+00  0.14712521356E+04  0.38912438963E+04  0.36023875713E+04 0.  0.
        5    1    3    3  502    0  0.90830330234E+03  0.86116521126E+03  0.21347286100E+04  0.24746128462E+04  0.46999998093E+01 0.  1.
       -5    1    3    3    0  502 -0.90830330234E+03 -0.86116521126E+03 -0.66347647440E+03  0.14166310501E+04  0.46999998093E+01 0. -1.
</event>
<event>
 5   0  0.8146881E-09  0.3600685E+04  0.7818609E-02  0.8090335E-01
       -1   -1    0    0    0  501  0.00000000000E+00  0.00000000000E+00  0.15116316934E+04  0.15116316934E+04  0.50400001928E-02 0.  1.
        1   -1    0    0  501    0  0.00000000000E+00  0.00000000000E+00 -0.21441948217E+04  0.21441948217E+04  0.50400001928E-02 0. -1.
    10030    2    1    2    0    0  0.00000000000E+00  0.00000000000E+00 -0.63256312828E+03  0.36558265152E+04  0.36006848512E+04 0.  0.
        4    1    3    3  502    0  0.30608831459E+03 -0.12751168907E+04 -0.15687110943E+04  0.20446195860E+04  0.12699999809E+01 0. -1.
       -4    1    3    3    0  502 -0.30608831459E+03  0.12751168907E+04  0.93614796601E+03  0.16112069291E+04  0.12699999809E+01 0.  1.
</event>
<event>
 5   0  0.8024500E-09  0.3600566E+04  0.7818609E-02  0.8090362E-01
        3   -1    0    0  501    0  0.00000000000E+00  0.00000000000E+00  0.11022734220E+04  0.11022734266E+04  0.10100000352E+00 0.  1.
       -3   -1    0    0    0  501  0.00000000000E+00  0.00000000000E+00 -0.29403035995E+04  0.29403036013E+04  0.10100000352E+00 0. -1.
    10030    2    1    2    0    0  0.00000000000E+00  0.00000000000E+00 -0.18380301776E+04  0.40425770279E+04  0.36005658017E+04 0.  0.
        4    1    3    3  502    0  0.33440119411E+03 -0.41280850732E+03 -0.28502896825E+04  0.28993771588E+04  0.12699999809E+01 0. -1.
       -4    1    3    3    0  502 -0.33440119411E+03  0.41280850732E+03  0.10122595049E+04  0.11431998690E+04  0.12699999809E+01 0.  1.
</event>
<event>
 5   0  0.2608070E-08  0.3596142E+04  0.7818609E-02  0.8091376E-01
       -2   -1    0    0    0  501  0.00000000000E+00  0.00000000000E+00  0.12283359653E+04  0.12283359653E+04  0.25500000920E-02 0. -1.
        2   -1    0    0  501    0  0.00000000000E+00  0.00000000000E+00 -0.26320638280E+04  0.26320638280E+04  0.25500000920E-02 0.  1.
    10030    2    1    2    0    0  0.00000000000E+00  0.00000000000E+00 -0.14037278628E+04  0.38603997933E+04  0.35961416339E+04 0.  0.
        3    1    3    3  502    0 -0.27041644613E+03  0.16955752324E+04 -0.12749054611E+04  0.21385706367E+04  0.10100000352E+00 0.  1.
       -3    1    3    3    0  502  0.27041644613E+03 -0.16955752324E+04 -0.12882240166E+03  0.17218291566E+04  0.10100000352E+00 0. -1.
</event>
<event>
 5   0  0.2476968E-08  0.3599127E+04  0.7818609E-02  0.8090692E-01
        2   -1    0    0  501    0  0.00000000000E+00  0.00000000000E+00  0.19529475658E+04  0.19529475658E+04  0.25500000920E-02 0.  1.
       -2   -1    0    0    0  501  0.00000000000E+00  0.00000000000E+00 -0.16582262104E+04  0.16582262104E+04  0.25500000920E-02 0. -1.
    10030    2    1    2    0    0  0.00000000000E+00  0.00000000000E+00  0.29472135543E+03  0.36111737762E+04  0.35991270281E+04 0.  0.
        2    1    3    3  502    0 -0.17689696981E+04 -0.30878177400E+03  0.26535047911E+03  0.18152164757E+04  0.25500000920E-02 0. -1.
       -2    1    3    3    0  502  0.17689696981E+04  0.30878177400E+03  0.29370876316E+02  0.17959573005E+04  0.25500000920E-02 0.  1.
</event>
<event>
 5   0  0.2482243E-08  0.3599827E+04  0.7818609E-02  0.8090531E-01
       -2   -1    0    0    0  501  0.00000000000E+00  0.00000000000E+00  0.12750022324E+04  0.12750022324E+04  0.25500000920E-02 0.  1.
        2   -1    0    0  501    0  0.00000000000E+00  0.00000000000E+00 -0.25409282940E+04  0.25409282940E+04  0.25500000920E-02 0. -1.
    10030    2    1    2    0    0  0.00000000000E+00  0.00000000000E+00 -0.12659260615E+04  0.38159305264E+04  0.35998273554E+04 0.  0.
        5    1    3    3  502    0  0.10350121002E+04 -0.55252334291E+03  0.81394509679E+03  0.14279568630E+04  0.46999998093E+01 0.  1.
       -5    1    3    3    0  502 -0.10350121002E+04  0.55252334291E+03 -0.20798711583E+04  0.23879736634E+04  0.46999998093E+01 0. -1.
</event>
<event>
 5   0  0.8146881E-09  0.3601087E+04  0.7818609E-02  0.8090243E-01
        1   -1    0    0  501    0  0.00000000000E+00  0.00000000000E+00  0.25869978136E+04  0.25869978136E+04  0.50400001928E-02 0. -1.
       -1   -1    0    0    0  501  0.00000000000E+00  0.00000000000E+00 -0.12531735322E+04  0.12531735322E+04  0.50400001928E-02 0.  1.
    10030    2    1    2    0    0  0.00000000000E+00  0.00000000000E+00  0.13338242814E+04  0.38401713458E+04  0.36010871625E+04 0.  0.
        4    1    3    3  502    0  0.10033607787E+04  0.14227296462E+04  0.17699447299E+03  0.17499203281E+04  0.12699999809E+01 0.  1.
       -4    1    3    3    0  502 -0.10033607787E+04 -0.14227296462E+04  0.11568298084E+04  0.20902510177E+04  0.12699999809E+01 0. -1.
</event>
<event>
 5   0  0.8024500E-09  0.3596841E+04  0.7818609E-02  0.8091216E-01
       -1   -1    0    0    0  501  0.00000000000E+00  0.00000000000E+00  0.14460616481E+04  0.14460616481E+04  0.50400001928E-02 0. -1.
        1   -1    0    0  501    0  0.00000000000E+00  0.00000000000E+00 -0.22366373639E+04  0.22366373639E+04  0.50400001928E-02 0.  1.
    10030    2    1    2    0    0  0.00000000000E+00  0.00000000000E+00 -0.79057571584E+03  0.36826990120E+04  0.35968405651E+04 0.  0.
        1    1    3    3  502    0  0.11020470636E+04  0.47148218911E+02 -0.18496110820E+04  0.21535533055E+04  0.50400001928E-02 0.  1.
       -1    1    3    3    0  502 -0.11020470636E+04 -0.47148218911E+02  0.10590353662E+04  0.15291457065E+04  0.50400001928E-02 0. -1.
</event>
<event>
 5   0  0.2476968E-08  0.3601625E+04  0.7818609E-02  0.8090120E-01
        2   -1    0    0  501    0  0.00000000000E+00  0.00000000000E+00  0.24356107710E+04  0.24356107710E+04  0.25500000920E-02 0. -1.
       -2   -1    0    0    0  501  0.00000000000E+00  0.00000000000E+00 -0.13314630566E+04  0.13314630566E+04  0.25500000920E-02 0.  1.
    10030    2    1    2    0    0  0.00000000000E+00  0.00000000000E+00  0.11041477144E+04  0.37670738276E+04  0.36016250565E+04 0.  0.
        2    1    3    3  502    0 -0.39527389749E+03  0.12748616066E+04  0.18164957176E+04  0.22541451288E+04  0.25500000920E-02 0. -1.
       -2    1    3    3    0  502  0.39527389749E+03 -0.12748616066E+04 -0.71234800315E+03  0.15129286988E+04  0.25500000920E-02 0.  1.
</event>
<event>
 5   0  0.8146881E-09  0.3606732E+04  0.7818609E-02  0.8088951E-01
       -1   -1    0    0    0  501  0.00000000000E+00  0.00000000000E+00  0.13193690576E+04  0.13193690576E+04  0.50400001928E-02 0. -1.
        1   -1    0    0  501    0  0.00000000000E+00  0.00000000000E+00 -0.24649119965E+04  0.24649119965E+04  0.50400001928E-02 0.  1.
    10030    2    1    2    0    0  0.00000000000E+00  0.00000000000E+00 -0.11455429389E+04  0.37842810541E+04  0.36067318269E+04 0.  0.
        4    1    3    3  502    0  0.17451614996E+04  0.43092218580E+03 -0.72425464032E+03  0.19379961266E+04  0.12699999809E+01 0. -1.
       -4    1    3    3    0  502 -0.17451614996E+04 -0.43092218580E+03 -0.42128829860E+03  0.18462849274E+04  0.12699999809E+01 0.  1.
</event>
<event>
 5   0  0.2590795E-08  0.3599861E+04  0.7818609E-02  0.8090524E-01
       -2   -1    0    0    0  501  0.00000000000E+00  0.00000000000E+00  0.29943241660E+04  0.29943241660E+04  0.25500000920E-02 0. -1.
        2   -1    0    0  501    0  0.00000000000E+00  0.00000000000E+00 -0.10819633844E+04  0.10819633844E+04  0.25500000920E-02 0.  1.
    10030    2    1    2    0    0  0.00000000000E+00  0.00000000000E+00  0.19123607816E+04  0.40762875504E+04  0.35998606132E+04 0.  0.
        4    1    3    3  502    0  0.12245609146E+04 -0.17488201475E+02  0.24498010123E+04  0.27388650721E+04  0.12699999809E+01 0. -1.
       -4    1    3    3    0  502 -0.12245609146E+04  0.17488201475E+02 -0.53744023071E+03  0.13374224782E+04  0.12699999809E+01 0.  1.
</event>
<event>
 5   0  0.8024500E-09  0.3600374E+04  0.7818609E-02  0.8090406E-01
       -1   -1    0    0    0  501  0.00000000000E+00  0.00000000000E+00  0.14468648966E+04  0.14468648966E+04  0.50400001928E-02 0.  1.
        1   -1    0    0  501    0  0.00000000000E+00  0.00000000000E+00 -0.22397900694E+04  0.22397900694E+04  0.50400001928E-02 0. -1.
    10030    2    1    2    0    0  0.00000000000E+00  0.00000000000E+00 -0.79292517283E+03  0.36866549660E+04  0.36003742178E+04 0.  0.
        5    1    3    3  502    0 -0.32778650165E+03 -0.49390985566E+02 -0.22082627697E+04  0.22330091827E+04  0.46999998093E+01 0. -1.
       -5    1    3    3    0  502  0.32778650165E+03  0.49390985566E+02  0.14153375969E+04  0.14536457833E+04  0.46999998093E+01 0.  1.
</event>
<event>
 5   0  0.2482243E-08  0.3600343E+04  0.7818609E-02  0.8090413E-01
        2   -1    0    0  501    0  0.00000000000E+00  0.00000000000E+00  0.23997638484E+04  0.23997638484E+04  0.25500000920E-02 0. -1.
       -2   -1    0    0    0  501  0.00000000000E+00  0.00000000000E+00 -0.13503901562E+04  0.13503901562E+04  0.25500000920E-02 0.  1.
    10030    2    1    2    0    0  0.00000000000E+00  0.00000000000E+00  0.10493736923E+04  0.37501540046E+04  0.36003430270E+04 0.  0.
        5    1    3    3  502    0 -0.26534834973E+02  0.27932625638E+02  0.23993279778E+04  0.23996418824E+04  0.46999998093E+01 0. -1.
       -5    1    3    3    0  502  0.26534834973E+02 -0.27932625638E+02 -0.13499542855E+04  0.13505121221E+04  0.46999998093E+01 0.  1.
</event>
<event>
 5   0  0.2494592E-08  0.3599709E+04  0.7818609E-02  0.8090558E-01
       -2   -1    0    0    0  501  0.00000000000E+00  0.00000000000E+00  0.14604425331E+04  0.14604425331E+04  0.25500000920E-02 0.  1.
        2   -1    0    0  501    0  0.00000000000E+00  0.00000000000E+00 -0.22181466055E+04  0.22181466055E+04  0.25500000920E-02 0. -1.
    10030    2    1    2    0    0  0.00000000000E+00  0.00000000000E+00 -0.75770407240E+03  0.36785891385E+04  0.35997086811E+04 0.  0.
        1    1    3    3  502    0  0.13832984581E+04  0.83693174852E+03 -0.11870723521E+04  0.20057692153E+04  0.50400001928E-02 0. -1.
       -1    1    3    3    0  502 -0.13832984581E+04 -0.83693174852E+03  0.42936827969E+03  0.16728199232E+04  0.50400001928E-02 0.  1.
</event>
<event>
 5   0  0.8247570E-09  0.3599886E+04  0.7818609E-02  0.8090518E-01
        1   -1    0    0  501    0  0.00000000000E+00  0.00000000000E+00  0.17279541704E+04  0.17279541704E+04  0.50400001928E-02 0.  1.
       -1   -1    0    0    0  501  0.00000000000E+00  0.00000000000E+00 -0.18749308883E+04  0.18749308883E+04  0.50400001928E-02 0. -1.
    10030    2    1    2    0    0  0.00000000000E+00  0.00000000000E+00 -0.14697671782E+03  0.36028850587E+04  0.35998859136E+04 0.  0.
        3    1    3    3  502    0  0.39166467203E+03  0.10563059780E+04  0.13314657296E+04  0.17441285886E+04  0.10100000352E+00 0.  1.
       -3    1    3    3    0  502 -0.39166467203E+03 -0.10563059780E+04 -0.14784424474E+04  0.18587564701E+04  0.10100000352E+00 0. -1.
</event>
<event>
 5   0  0.8146881E-09  0.3599825E+04  0.7818609E-02  0.8090532E-01
        1   -1    0    0  501    0  0.00000000000E+00  0.00000000000E+00  0.20718987527E+04  0.20718987527E+04  0.50400001928E-02 0.  1.
       -1   -1    0    0    0  501  0.00000000000E+00  0.00000000000E+00 -0.15636311496E+04  0.15636311496E+04  0.50400001928E-02 0. -1.
    10030    2    1    2    0    0  0.00000000000E+00  0.00000000000E+00  0.50826760317E+03  0.36355299023E+04  0.35998252339E+04 0.  0.
        4    1    3    3  502    0  0.14505620076E+04  0.58103133189E+03 -0.64801016659E+03  0.16916401317E+04  0.12699999809E+01 0. -1.
       -4    1    3    3    0  502 -0.14505620076E+04 -0.58103133189E+03  0.11562777698E+04  0.19438897706E+04  0.12699999809E+01 0.  1.
</event>
<event>
 5   0  0.8146881E-09  0.3591568E+04  0.7818609E-02  0.8092426E-01
        1   -1    0    0  501    0  0.00000000000E+00  0.00000000000E+00  0.27380406302E+04  0.27380406302E+04  0.50400001928E-02 0. -1.
       -1   -1    0    0    0  501  0.00000000000E+00  0.00000000000E+00 -0.11777915062E+04  0.11777915062E+04  0.50400001928E-02 0.  1.
    10030    2    1    2    0    0  0.00000000000E+00  0.00000000000E+00  0.15602491240E+04  0.39158321364E+04  0.35915684584E+04 0.  0.
        4    1    3    3  502    0  0.25273858843E+03  0.85643532368E+03  0.24788291056E+04  0.26347587376E+04  0.12699999809E+01 0. -1.
       -4    1    3    3    0  502 -0.25273858843E+03 -0.85643532368E+03 -0.91857998156E+03  0.12810733988E+04  0.12699999809E+01 0.  1.
</event>
<event>
 5   0  0.8146881E-09  0.3599215E+04  0.7818609E-02  0.8090671E-01
        1   -1    0    0  501    0  0.00000000000E+00  0.00000000000E+00  0.20837052409E+04  0.20837052410E+04  0.50400001928E-02 0. -1.
       -1   -1    0    0    0  501  0.00000000000E+00  0.00000000000E+00 -0.15542445066E+04  0.15542445066E+04  0.50400001928E-02 0.  1.
    10030    2    1    2    0    0  0.00000000000E+00  0.00000000000E+00  0.52946073435E+03  0.36379497476E+04  0.35992151501E+04 0.  0.
        4    1    3    3  502    0  0.11811563801E+02  0.14496296499E+04 -0.81305671270E+03  0.16621156596E+04  0.12699999809E+01 0.  1.
       -4    1    3    3    0  502 -0.11811563801E+02 -0.14496296499E+04  0.13425174470E+04  0.19758340880E+04  0.12699999809E+01 0. -1.
</event>
<event>
 5   0  0.8247570E-09  0.3600123E+04  0.7818609E-02  0.8090463E-01
        1   -1    0    0  501    0  0.00000000000E+00  0.00000000000E+00  0.29754944349E+04  0.29754944350E+04  0.50400001928E-02 0. -1.
       -1   -1    0    0    0  501  0.00000000000E+00  0.00000000000E+00 -0.10889692847E+04  0.10889692847E+04  0.50400001928E-02 0.  1.
    10030    2    1    2    0    0  0.00000000000E+00  0.00000000000E+00  0.18865251503E+04  0.40644637196E+04  0.36001233570E+04 0.  0.
        3    1    3    3  502    0  0.12899223350E+04  0.44408128437E+03 -0.38256176378E+03  0.14168490854E+04  0.10100000352E+00 0.  1.
       -3    1    3    3    0  502 -0.12899223350E+04 -0.44408128437E+03  0.22690869141E+04  0.26476146342E+04  0.10100000352E+00 0. -1.
</event>
<event>
 5   0  0.2482243E-08  0.3605379E+04  0.7818609E-02  0.8089261E-01
       -2   -1    0    0    0  501  0.00000000000E+00  0.00000000000E+00  0.17445360929E+04  0.17445360929E+04  0.25500000920E-02 0.  1.
        2   -1    0    0  501    0  0.00000000000E+00  0.00000000000E+00 -0.18627813210E+04  0.18627813210E+04  0.25500000920E-02 0. -1.
    10030    2    1    2    0    0  0.00000000000E+00  0.00000000000E+00 -0.11824522811E+03  0.36073174139E+04  0.36053788970E+04 0.  0.
        5    1    3    3  502    0 -0.60260118236E+03 -0.11324333048E+04  0.12081024044E+04  0.17621199971E+04  0.46999998093E+01 0.  1.
       -5    1    3    3    0  502  0.60260118236E+03  0.11324333048E+04 -0.13263476325E+04  0.18451974168E+04  0.46999998093E+01 0. -1.
</event>
<event>
 5   0  0.2476968E-08  0.3607319E+04  0.7818609E-02  0.8088817E-01
       -2   -1    0    0    0  501  0.00000000000E+00  0.00000000000E+00  0.15366135862E+04  0.15366135862E+04  0.25500000920E-02 0. -1.
        2   -1    0    0  501    0  0.00000000000E+00  0.00000000000E+00 -0.21171153823E+04  0.21171153823E+04  0.25500000920E-02 0.  1.
    10030    2    1    2    0    0  0.00000000000E+00  0.00000000000E+00 -0.58050179607E+03  0.36537289685E+04  0.36073193704E+04 0.  0.
        2    1    3    3  502    0 -0.81738944731E+03 -0.14376799323E+04 -0.10193304945E+04  0.19427001192E+04  0.25500000920E-02 0.  1.
       -2    1    3    3    0  502  0.81738944731E+03  0.14376799323E+04  0.43882869843E+03  0.17110288492E+04  0.25500000920E-02 0. -1.
</event>
<event>
 5   0  0.8063410E-09  0.3600774E+04  0.7818609E-02  0.8090314E-01
        1   -1    0    0  501    0  0.00000000000E+00  0.00000000000E+00  0.19711161913E+04  0.19711161913E+04  0.50400001928E-02 0. -1.
       -1   -1    0    0    0  501  0.00000000000E+00  0.00000000000E+00 -0.16444455862E+04  0.16444455863E+04  0.50400001928E-02 0.  1.
    10030    2    1    2    0    0  0.00000000000E+00  0.00000000000E+00  0.32667060507E+03  0.36155617776E+04  0.36007739839E+04 0.  0.
        2    1    3    3  502    0  0.84614623854E+03 -0.63691871908E+03  0.16252556893E+04  0.19398672551E+04  0.25500000920E-02 0. -1.
       -2    1    3    3    0  502 -0.84614623854E+03  0.63691871908E+03 -0.12985850842E+04  0.16756945225E+04  0.25500000920E-02 0.  1.
</event>
<event>
 5   0  0.8024500E-09  0.3598805E+04  0.7818609E-02  0.8090766E-01
       -1   -1    0    0    0  501  0.00000000000E+00  0.00000000000E+00  0.18406546488E+04  0.18406546488E+04  0.50400001928E-02 0. -1.
        1   -1    0    0  501    0  0.00000000000E+00  0.00000000000E+00 -0.17590743948E+04  0.17590743948E+04  0.50400001928E-02 0.  1.
    10030    2    1    2    0    0  0.00000000000E+00  0.00000000000E+00  0.81580253977E+02  0.35997290435E+04  0.35988045028E+04 0.  0.
        1    1    3    3  502    0 -0.10647952087E+04  0.12534484897E+04  0.77099582712E+03  0.18164130913E+04  0.50400001928E-02 0. -1.
       -1    1    3    3    0  502  0.10647952087E+04 -0.12534484897E+04 -0.68941557314E+03  0.17833159522E+04  0.50400001928E-02 0.  1.
</event>
<event>
 5   0  0.8247570E-09  0.3604147E+04  0.7818609E-02  0.8089543E-01
       -1   -1    0    0    0  501  0.00000000000E+00  0.00000000000E+00  0.19304487559E+04  0.19304487559E+04  0.50400001928E-02 0.  1.
        1   -1    0    0  501    0  0.00000000000E+00  0.00000000000E+00 -0.16822348880E+04  0.16822348880E+04  0.50400001928E-02 0. -1.
    10030    2    1    2    0    0  0.00000000000E+00  0.00000000000E+00  0.24821386786E+03  0.36126836439E+04  0.36041466378E+04 0.  0.
        3    1    3    3  502    0  0.16019804595E+04 -0.73809711666E+03 -0.24600945273E+03  0.17809125209E+04  0.10100000352E+00 0. -1.
       -3    1    3    3    0  502 -0.16019804595E+04  0.73809711666E+03  0.49422332059E+03  0.18317711230E+04  0.10100000352E+00 0.  1.
</event>
<event>
 5   0  0.8024500E-09  0.3601039E+04  0.7818609E-02  0.8090254E-01
       -1   -1    0    0    0  501  0.00000000000E+00  0.00000000000E+00  0.18160405763E+04  0.18160405763E+04  0.50400001928E-02 0.  1.
        1   -1    0    0  501    0  0.00000000000E+00  0.00000000000E+00 -0.17851307026E+04  0.17851307026E+04  0.50400001928E-02 0. -1.
    10030    2    1    2    0    0  0.00000000000E+00  0.00000000000E+00  0.30909873677E+02  0.36011712790E+04  0.36010386224E+04 0.  0.
        1    1    3    3  502    0 -0.16667770226E+04 -0.12489579536E+03 -0.65399125545E+03  0.17948395931E+04  0.50400001928E-02 0. -1.
       -1    1    3    3    0  502  0.16667770226E+04  0.12489579536E+03  0.68490112912E+03  0.18063316859E+04  0.50400001928E-02 0.  1.
</event>
<event>
 5   0  0.8146881E-09  0.3600466E+04  0.7818609E-02  0.8090385E-01
       -1   -1    0    0    0  501  0.00000000000E+00  0.00000000000E+00  0.16211269060E+04  0.16211269060E+04  0.50400001928E-02 0. -1.
        1   -1    0    0  501    0  0.00000000000E+00  0.00000000000E+00 -0.19991276192E+04  0.19991276192E+04  0.50400001928E-02 0.  1.
    10030    2    1    2    0    0  0.00000000000E+00  0.00000000000E+00 -0.37800071321E+03  0.36202545253E+04  0.36004663987E+04 0.  0.
        4    1    3    3  502    0  0.85648173209E+03  0.11915721734E+03 -0.17766268031E+04  0.19758956982E+04  0.12699999809E+01 0.  1.
       -4    1    3    3    0  502 -0.85648173209E+03 -0.11915721734E+03  0.13986260899E+04  0.16443588270E+04  0.12699999809E+01 0. -1.
</event>
<event>
 5   0  0.8146881E-09  0.3600914E+04  0.7818609E-02  0.8090282E-01
       -1   -1    0    0    0  501  0.00000000000E+00  0.00000000000E+00  0.16077341171E+04  0.16077341171E+04  0.50400001928E-02 0.  1.
        1   -1    0    0  501    0  0.00000000000E+00  0.00000000000E+00 -0.20162818223E+04  0.20162818223E+04  0.50400001928E-02 0. -1.
    10030    2    1    2    0    0  0.00000000000E+00  0.00000000000E+00 -0.40854770526E+03  0.36240159394E+04  0.36009138148E+04 0.  0.
        4    1    3    3  502    0  0.15703304086E+04  0.80942563980E+03  0.14513649873E+03  0.17726177464E+04  0.12699999809E+01 0. -1.
       -4    1    3    3    0  502 -0.15703304086E+04 -0.80942563980E+03 -0.55368420398E+03  0.18513981931E+04  0.12699999809E+01 0.  1.
</event>
<event>
 5   0  0.8247570E-09  0.3598916E+04  0.7818609E-02  0.8090740E-01
        1   -1    0    0  501    0  0.00000000000E+00  0.00000000000E+00  0.26007160422E+04  0.26007160422E+04  0.50400001928E-02 0.  1.
       -1   -1    0    0    0  501  0.00000000000E+00  0.00000000000E+00 -0.12450607472E+04  0.12450607472E+04  0.50400001928E-02 0. -1.
    10030    2    1    2    0    0  0.00000000000E+00  0.00000000000E+00  0.13556552950E+04  0.38457767894E+04  0.35989162028E+04 0.  0.
        3    1    3    3  502    0 -0.17828735326E+04 -0.96321862944E+02  0.91709112599E+03  0.20072299515E+04  0.10100000352E+00 0.  1.
       -3    1    3    3    0  502  0.17828735326E+04  0.96321862944E+02  0.43856416899E+03  0.18385468379E+04  0.10100000352E+00 0. -1.
</event>
<event>
 5   0  0.2476968E-08  0.3598923E+04  0.7818609E-02  0.8090738E-01
       -2   -1    0    0    0  501  0.00000000000E+00  0.00000000000E+00  0.13626395055E+04  0.13626395055E+04  0.25500000920E-02 0. -1.
        2   -1    0    0  501    0  0.00000000000E+00  0.00000000000E+00 -0.23763162297E+04  0.23763162297E+04  0.25500000920E-02 0.  1.
    10030    2    1    2    0    0  0.00000000000E+00  0.00000000000E+00 -0.10136767242E+04  0.37389557351E+04  0.35989233790E+04 0.  0.
        2    1    3    3  502    0  0.70544218105E+03 -0.14573381126E+04 -0.13226167634E+04  0.20906453903E+04  0.25500000920E-02 0.  1.
       -2    1    3    3    0  502 -0.70544218105E+03  0.14573381126E+04  0.30894003918E+03  0.16483103449E+04  0.25500000920E-02 0. -1.
</event>
<event>
 5   0  0.8024500E-09  0.3599128E+04  0.7818609E-02  0.8090691E-01
        3   -1    0    0  501    0  0.00000000000E+00  0.00000000000E+00  0.15884346723E+04  0.15884346755E+04  0.10100000352E+00 0. -1.
       -3   -1    0    0    0  501  0.00000000000E+00  0.00000000000E+00 -0.20387559100E+04  0.20387559125E+04  0.10100000352E+00 0.  1.
    10030    2    1    2    0    0  0.00000000000E+00  0.00000000000E+00 -0.45032123767E+03  0.36271905880E+04  0.35991279978E+04 0.  0.
        4    1    3    3  502    0 -0.45465293796E+03 -0.15829988336E+04  0.50563775027E+03  0.17228655631E+04  0.12699999809E+01 0. -1.
       -4    1    3    3    0  502  0.45465293796E+03  0.15829988336E+04 -0.95595898794E+03  0.19043250249E+04  0.12699999809E+01 0.  1.
</event>
<event>
 5   0  0.2494592E-08  0.3596936E+04  0.7818609E-02  0.8091194E-01
        2   -1    0    0  501    0  0.00000000000E+00  0.00000000000E+00  0.10360808777E+04  0.10360808777E+04  0.25500000920E-02 0. -1.
       -2   -1    0    0    0  501  0.00000000000E+00  0.00000000000E+00 -0.31218488735E+04  0.31218488735E+04  0.25500000920E-02 0.  1.
    10030    2    1    2    0    0  0.00000000000E+00  0.00000000000E+00 -0.20857679957E+04  0.41579297512E+04  0.35969364303E+04 0.  0.
        1    1    3    3  502    0 -0.92170327172E+03  0.27419435331E+03  0.71394142781E+03  0.11976776807E+04  0.50400001928E-02 0. -1.
       -1    1    3    3    0  502  0.92170327172E+03 -0.27419435331E+03 -0.27997094235E+04  0.29602520705E+04  0.50400001928E-02 0.  1.
</event>
<event>
 5   0  0.8247570E-09  0.3598611E+04  0.7818609E-02  0.8090810E-01
       -1   -1    0    0    0  501  0.00000000000E+00  0.00000000000E+00  0.19394468049E+04  0.19394468049E+04  0.50400001928E-02 0. -1.
        1   -1    0    0  501    0  0.00000000000E+00  0.00000000000E+00 -0.16692909952E+04  0.16692909952E+04  0.50400001928E-02 0.  1.
    10030    2    1    2    0    0  0.00000000000E+00  0.00000000000E+00  0.27015580974E+03  0.36087378001E+04  0.35986114473E+04 0.  0.
        3    1    3    3  502    0  0.91879105656E+03 -0.10671707199E+04  0.12582612038E+04  0.18884521753E+04  0.10100000352E+00 0. -1.
       -3    1    3    3    0  502 -0.91879105656E+03  0.10671707199E+04 -0.98810539406E+03  0.17202856248E+04  0.10100000352E+00 0.  1.
</event>
<event>
 5   0  0.2494592E-08  0.3600094E+04  0.7818609E-02  0.8090470E-01
       -2   -1    0    0    0  501  0.00000000000E+00  0.00000000000E+00  0.10354808283E+04  0.10354808283E+04  0.25500000920E-02 0. -1.
        2   -1    0    0  501    0  0.00000000000E+00  0.00000000000E+00 -0.31291439228E+04  0.31291439229E+04  0.25500000920E-02 0.  1.
    10030    2    1    2    0    0  0.00000000000E+00  0.00000000000E+00 -0.20936630945E+04  0.41646247512E+04  0.36000936328E+04 0.  0.
        1    1    3    3  502    0 -0.16309082213E+04  0.31184035962E+03 -0.24281730057E+03  0.16781139048E+04  0.50400001928E-02 0. -1.
       -1    1    3    3    0  502  0.16309082213E+04 -0.31184035962E+03 -0.18508457940E+04  0.24865108464E+04  0.50400001928E-02 0.  1.
</event>
<event>
 5   0  0.8024500E-09  0.3599409E+04  0.7818609E-02  0.8090627E-01
       -1   -1    0    0    0  501  0.00000000000E+00  0.00000000000E+00  0.13323887787E+04  0.13323887787E+04  0.50400001928E-02 0. -1.
        1   -1    0    0  501    0  0.00000000000E+00  0.00000000000E+00 -0.24309238210E+04  0.24309238210E+04  0.50400001928E-02 0.  1.
    10030    2    1    2    0    0  0.00000000000E+00  0.00000000000E+00 -0.10985350423E+04  0.37633125997E+04  0.35994086297E+04 0.  0.
        1    1    3    3  502    0 -0.41641815966E+03  0.12585311739E+03 -0.23751262368E+04  0.24146361489E+04  0.50400001928E-02 0.  1.
       -1    1    3    3    0  502  0.41641815966E+03 -0.12585311739E+03  0.12765911945E+04  0.13486764507E+04  0.50400001928E-02 0. -1.
</event>
<event>
 5   0  0.2482243E-08  0.3594186E+04  0.7818609E-02  0.8091825E-01
       -2   -1    0    0    0  501  0.00000000000E+00  0.00000000000E+00  0.26804611115E+04  0.26804611115E+04  0.25500000920E-02 0. -1.
        2   -1    0    0  501    0  0.00000000000E+00  0.00000000000E+00 -0.12048460284E+04  0.12048460284E+04  0.25500000920E-02 0.  1.
    10030    2    1    2    0    0  0.00000000000E+00  0.00000000000E+00  0.14756150832E+04  0.38853071399E+04  0.35941858184E+04 0.  0.
        5    1    3    3  502    0  0.12869372712E+04 -0.90393120337E+03  0.16778541571E+04  0.22996773302E+04  0.46999998093E+01 0. -1.
       -5    1    3    3    0  502 -0.12869372712E+04  0.90393120337E+03 -0.20223907398E+03  0.15856298097E+04  0.46999998093E+01 0.  1.
</event>
<event>
 5   0  0.8063410E-09  0.3599829E+04  0.7818609E-02  0.8090531E-01
       -1   -1    0    0    0  501  0.00000000000E+00  0.00000000000E+00  0.19679256597E+04  0.19679256597E+04  0.50400001928E-02 0.  1.
        1   -1    0    0  501    0  0.00000000000E+00  0.00000000000E+00 -0.16462476501E+04  0.16462476501E+04  0.50400001928E-02 0. -1.
    10030    2    1    2    0    0  0.00000000000E+00  0.00000000000E+00  0.32167800962E+03  0.36141733099E+04  0.35998294365E+04 0.  0.
        2    1    3    3  502    0  0.65565980950E+03 -0.35323872080E+03 -0.14842949530E+04  0.16606621833E+04  0.25500000920E-02 0. -1.
       -2    1    3    3    0  502 -0.65565980950E+03  0.35323872080E+03  0.18059729626E+04  0.19535111265E+04  0.25500000920E-02 0.  1.
</event>
<event>
 5   0  0.2608070E-08  0.3605075E+04  0.7818609E-02  0.8089330E-01
       -2   -1    0    0    0  501  0.00000000000E+00  0.00000000000E+00  0.11868558343E+04  0.11868558343E+04  0.25500000920E-02 0.  1.
        2   -1    0    0  501    0  0.00000000000E+00  0.00000000000E+00 -0.27376047073E+04  0.27376047073E+04  0.25500000920E-02 0. -1.
    10030    2    1    2    0    0  0.00000000000E+00  0.00000000000E+00 -0.15507488730E+04  0.39244605416E+04  0.36050753772E+04 0.  0.
        3    1    3    3  502    0 -0.60401890137E+03  0.96402290907E+03  0.74669652381E+03  0.13607845940E+04  0.10100000352E+00 0.  1.
       -3    1    3    3    0  502  0.60401890137E+03 -0.96402290907E+03 -0.22974453968E+04  0.25636759476E+04  0.10100000352E+00 0. -1.
</event>
<event>
 5   0  0.2476968E-08  0.3595358E+04  0.7818609E-02  0.8091556E-01
        2   -1    0    0  501    0  0.00000000000E+00  0.00000000000E+00  0.11912183926E+04  0.11912183926E+04  0.25500000920E-02 0.  1.
       -2   -1    0    0    0  501  0.00000000000E+00  0.00000000000E+00 -0.27128950256E+04  0.27128950256E+04  0.25500000920E-02 0. -1.
    10030    2    1    2    0    0  0.00000000000E+00  0.00000000000E+00 -0.15216766330E+04  0.39041134182E+04  0.35953583697E+04 0.  0.
        2    1    3    3  502    0 -0.53177624941E+03 -0.25649423931E+03  0.10829379649E+04  0.12334220324E+04  0.25500000920E-02 0.  1.
       -2    1    3    3    0  502  0.53177624941E+03  0.25649423931E+03 -0.26046145979E+04  0.26706913857E+04  0.25500000920E-02 0. -1.
</event>
<event>
 5   0  0.8063410E-09  0.3599762E+04  0.7818609E-02  0.8090546E-01
       -1   -1    0    0    0  501  0.00000000000E+00  0.00000000000E+00  0.19528123077E+04  0.19528123077E+04  0.50400001928E-02 0. -1.
        1   -1    0    0  501    0  0.00000000000E+00  0.00000000000E+00 -0.16589259257E+04  0.16589259258E+04  0.50400001928E-02 0.  1.
    10030    2    1    2    0    0  0.00000000000E+00  0.00000000000E+00  0.29388638194E+03  0.36117382334E+04  0.35997616395E+04 0.  0.
        2    1    3    3  502    0 -0.18434039206E+03 -0.78141166812E+03 -0.14693121778E+04  0.16743547566E+04  0.25500000920E-02 0.  1.
       -2    1    3    3    0  502  0.18434039206E+03  0.78141166812E+03  0.17631985597E+04  0.19373834768E+04  0.25500000920E-02 0. -1.
</event>
<event>
 5   0  0.2482243E-08  0.3599374E+04  0.7818609E-02  0.8090635E-01
       -2   -1    0    0    0  501  0.00000000000E+00  0.00000000000E+00  0.20121924046E+04  0.20121924046E+04  0.25500000920E-02 0. -1.
        2   -1    0    0  501    0  0.00000000000E+00  0.00000000000E+00 -0.16096244122E+04  0.16096244122E+04  0.25500000920E-02 0.  1.
    10030    2    1    2    0    0  0.00000000000E+00  0.00000000000E+00  0.40256799238E+03  0.36218168168E+04  0.35993743993E+04 0.  0.
        5    1    3    3  502    0  0.13328724054E+04  0.90740131606E+03  0.10055963033E+04  0.19003083994E+04  0.46999998093E+01 0. -1.
       -5    1    3    3    0  502 -0.13328724054E+04 -0.90740131606E+03 -0.60302831096E+03  0.17215084175E+04  0.46999998093E+01 0.  1.
</event>
<event>
 5   0  0.2482243E-08  0.3600007E+04  0.7818609E-02  0.8090490E-01
        2   -1    0    0  501    0  0.00000000000E+00  0.00000000000E+00  0.18195706235E+04  0.18195706235E+04  0.25500000920E-02 0.  1.
       -2   -1    0    0    0  501  0.00000000000E+00  0.00000000000E+00 -0.17806471704E+04  0.17806471704E+04  0.25500000920E-02 0. -1.
    10030    2    1    2    0    0  0.00000000000E+00  0.00000000000E+00  0.38923453107E+02  0.36002177939E+04  0.36000073789E+04 0.  0.
        5    1    3    3  502    0 -0.10836796634E+04  0.55251928481E+03  0.13463218567E+04  0.18144541341E+04  0.46999998093E+01 0.  1.
       -5    1    3    3    0  502  0.10836796634E+04 -0.55251928481E+03 -0.13073984036E+04  0.17857636598E+04  0.46999998093E+01 0. -1.
</event>
<event>
 5   0  0.2608070E-08  0.3598119E+04  0.7818609E-02  0.8090923E-01
        2   -1    0    0  501    0  0.00000000000E+00  0.00000000000E+00  0.27025366351E+04  0.27025366351E+04  0.25500000920E-02 0. -1.
       -2   -1    0    0    0  501  0.00000000000E+00  0.00000000000E+00 -0.11976212941E+04  0.11976212941E+04  0.25500000920E-02 0.  1.
    10030    2    1    2    0    0  0.00000000000E+00  0.00000000000E+00  0.15049153410E+04  0.39001579292E+04  0.35981191877E+04 0.  0.
        3    1    3    3  502    0 -0.46313754939E+03  0.14315575951E+04 -0.31662162413E+03  0.15375639177E+04  0.10100000352E+00 0.  1.
       -3    1    3    3    0  502  0.46313754939E+03 -0.14315575951E+04  0.18215369651E+04  0.23625940115E+04  0.10100000352E+00 0. -1.
</event>
<event>
 5   0  0.2494592E-08  0.3598750E+04  0.7818609E-02  0.8090778E-01
       -2   -1    0    0    0  501  0.00000000000E+00  0.00000000000E+00  0.15336495042E+04  0.15336495042E+04  0.25500000920E-02 0.  1.
        2   -1    0    0  501    0  0.00000000000E+00  0.00000000000E+00 -0.21111412152E+04  0.21111412152E+04  0.25500000920E-02 0. -1.
    10030    2    1    2    0    0  0.00000000000E+00  0.00000000000E+00 -0.57749171097E+03  0.36447907194E+04  0.35987501597E+04 0.  0.
        1    1    3    3  502    0 -0.11676923703E+03 -0.17923525897E+04 -0.39776975677E+03  0.18396694377E+04  0.50400001928E-02 0.  1.
       -1    1    3    3    0  502  0.11676923703E+03  0.17923525897E+04 -0.17972195420E+03  0.18051212817E+04  0.50400001928E-02 0. -1.
</event>
<event>
 5   0  0.8024500E-09  0.3599708E+04  0.7818609E-02  0.8090559E-01
        1   -1    0    0  501    0  0.00000000000E+00  0.00000000000E+00  0.23314609190E+04  0.23314609191E+04  0.50400001928E-02 0. -1.
       -1   -1    0    0    0  501  0.00000000000E+00  0.00000000000E+00 -0.13894611857E+04  0.13894611857E+04  0.50400001928E-02 0.  1.
    10030    2    1    2    0    0  0.00000000000E+00  0.00000000000E+00  0.94199973338E+03  0.37209221047E+04  0.35997080176E+04 0.  0.
        5    1    3    3  502    0 -0.11564119988E+04  0.12865949174E+04 -0.42557049970E+02  0.17304474522E+04  0.46999998093E+01 0. -1.
       -5    1    3    3    0  502  0.11564119988E+04 -0.12865949174E+04  0.98455678335E+03  0.19904746525E+04  0.46999998093E+01 0.  1.
</event>
<event>
 5   0  0.8024500E-09  0.3599068E+04  0.7818609E-02  0.8090705E-01
       -1   -1    0    0    0  501  0.00000000000E+00  0.00000000000E+00  0.12662097513E+04  0.12662097513E+04  0.50400001928E-02 0.  1.
        1   -1    0    0  501    0  0.00000000000E+00  0.00000000000E+00 -0.25574933094E+04  0.25574933094E+04  0.50400001928E-02 0. -1.
    10030    2    1    2    0    0  0.00000000000E+00  0.00000000000E+00 -0.12912835580E+04  0.38237030607E+04  0.35990681945E+04 0.  0.
        1    1    3    3  502    0 -0.17006887604E+04 -0.21631099413E+03 -0.12267644379E+04  0.21080995451E+04  0.50400001928E-02 0.  1.
       -1    1    3    3    0  502  0.17006887604E+04  0.21631099413E+03 -0.64519120103E+02  0.17156035156E+04  0.50400001928E-02 0. -1.
</event>
<event>
 5   0  0.2476968E-08  0.3600328E+04  0.7818609E-02  0.8090417E-01
       -2   -1    0    0    0  501  0.00000000000E+00  0.00000000000E+00  0.23485885270E+04  0.23485885270E+04  0.25500000920E-02 0. -1.
        2   -1    0    0  501    0  0.00000000000E+00  0.00000000000E+00 -0.13798030820E+04  0.13798030820E+04  0.25500000920E-02 0.  1.
    10030    2    1    2    0    0  0.00000000000E+00  0.00000000000E+00  0.96878544502E+03  0.37283916090E+04  0.36003275895E+04 0.  0.
        2    1    3    3  502    0 -0.81885544434E+03  0.60202026750E+02 -0.11746025930E+04  0.14331223864E+04  0.25500000920E-02 0.  1.
       -2    1    3    3    0  502  0.81885544434E+03 -0.60202026750E+02  0.21433880380E+04  0.22952692226E+04  0.25500000920E-02 0. -1.
</event>
<event>
 5   0  0.8063410E-09  0.3601688E+04  0.7818609E-02  0.8090105E-01
       -1   -1    0    0    0  501  0.00000000000E+00  0.00000000000E+00  0.14192492804E+04  0.14192492804E+04  0.50400001928E-02 0. -1.
        1   -1    0    0  501    0  0.00000000000E+00  0.00000000000E+00 -0.22850386243E+04  0.22850386244E+04  0.50400001928E-02 0.  1.
    10030    2    1    2    0    0  0.00000000000E+00  0.00000000000E+00 -0.86578934399E+03  0.37042879047E+04  0.36016881726E+04 0.  0.
        2    1    3    3  502    0  0.13118657192E+04  0.90156580214E+03  0.43325154330E+03  0.16497028401E+04  0.25500000920E-02 0. -1.
       -2    1    3    3    0  502 -0.13118657192E+04 -0.90156580214E+03 -0.12990408873E+04  0.20545850646E+04  0.25500000920E-02 0.  1.
</event>
<event>
 5   0  0.2494592E-08  0.3611946E+04  0.7818609E-02  0.8087761E-01
       -2   -1    0    0    0  501  0.00000000000E+00  0.00000000000E+00  0.14650622256E+04  0.14650622256E+04  0.25500000920E-02 0. -1.
        2   -1    0    0  501    0  0.00000000000E+00  0.00000000000E+00 -0.22262111494E+04  0.22262111494E+04  0.25500000920E-02 0.  1.
    10030    2    1    2    0    0  0.00000000000E+00  0.00000000000E+00 -0.76114892387E+03  0.36912733750E+04  0.36119456591E+04 0.  0.
        1    1    3    3  502    0 -0.14557055515E+04  0.14505746456E+03  0.70165331044E+03  0.16224788716E+04  0.50400001928E-02 0. -1.
       -1    1    3    3    0  502  0.14557055515E+04 -0.14505746456E+03 -0.14628022343E+04  0.20687945034E+04  0.50400001928E-02 0.  1.
</event>
<event>
 5   0  0.2482243E-08  0.3596070E+04  0.7818609E-02  0.8091393E-01
        2   -1    0    0  501    0  0.00000000000E+00  0.00000000000E+00  0.16913250477E+04  0.16913250477E+04  0.25500000920E-02 0.  1.
       -2   -1    0    0    0  501  0.00000000000E+00  0.00000000000E+00 -0.19114775135E+04  0.19114775136E+04  0.25500000920E-02 0. -1.
    10030    2    1    2    0    0  0.00000000000E+00  0.00000000000E+00 -0.22015246583E+03  0.36028025613E+04  0.35960699642E+04 0.  0.
        5    1    3    3  502    0  0.23418048828E+03  0.14800683701E+04 -0.11056493187E+04  0.18622366625E+04  0.46999998093E+01 0. -1.
       -5    1    3    3    0  502 -0.23418048828E+03 -0.14800683701E+04  0.88549685286E+03  0.17405658987E+04  0.46999998093E+01 0.  1.
</event>
<event>
 5   0  0.8024500E-09  0.3600219E+04  0.7818609E-02  0.8090442E-01
        1   -1    0    0  501    0  0.00000000000E+00  0.00000000000E+00  0.24520391340E+04  0.24520391340E+04  0.50400001928E-02 0. -1.
       -1   -1    0    0    0  501  0.00000000000E+00  0.00000000000E+00 -0.13215099724E+04  0.13215099724E+04  0.50400001928E-02 0.  1.
    10030    2    1    2    0    0  0.00000000000E+00  0.00000000000E+00  0.11305291617E+04  0.37735491064E+04  0.36002189757E+04 0.  0.
        5    1    3    3  502    0 -0.58708100644E+02 -0.42286257291E+03 -0.12676736565E+04  0.13376389595E+04  0.46999998093E+01 0.  1.
       -5    1    3    3    0  502  0.58708100644E+02  0.42286257291E+03  0.23982028182E+04  0.24359101469E+04  0.46999998093E+01 0. -1.
</event>
<event>
 5   0  0.8024500E-09  0.3600981E+04  0.7818609E-02  0.8090267E-01
        1   -1    0    0  501    0  0.00000000000E+00  0.00000000000E+00  0.29346520604E+04  0.29346520604E+04  0.50400001928E-02 0. -1.
       -1   -1    0    0    0  501  0.00000000000E+00  0.00000000000E+00 -0.11046511870E+04  0.11046511870E+04  0.50400001928E-02 0.  1.
    10030    2    1    2    0    0  0.00000000000E+00  0.00000000000E+00  0.18300008733E+04  0.40393032474E+04  0.36009814674E+04 0.  0.
        5    1    3    3  502    0  0.11747657146E+03 -0.87699132216E+03 -0.84393479418E+03  0.12227683962E+04  0.46999998093E+01 0.  1.
       -5    1    3    3    0  502 -0.11747657146E+03  0.87699132216E+03  0.26739356675E+04  0.28165348512E+04  0.46999998093E+01 0. -1.
</event>
<event>
 5   0  0.2494592E-08  0.3599707E+04  0.7818609E-02  0.8090559E-01
        2   -1    0    0  501    0  0.00000000000E+00  0.00000000000E+00  0.25661125299E+04  0.25661125299E+04  0.25500000920E-02 0.  1.
       -2   -1    0    0    0  501  0.00000000000E+00  0.00000000000E+00 -0.12624044366E+04  0.12624044366E+04  0.25500000920E-02 0. -1.
    10030    2    1    2    0    0  0.00000000000E+00  0.00000000000E+00  0.13037080933E+04  0.38285169665E+04  0.35997065672E+04 0.  0.
        1    1    3    3  502    0 -0.92968555685E+03  0.12944652597E+04 -0.23767963061E+03  0.16113494810E+04  0.50400001928E-02 0. -1.
       -1    1    3    3    0  502  0.92968555685E+03 -0.12944652597E+04  0.15413877239E+04  0.22171674855E+04  0.50400001928E-02 0.  1.
</event>
<event>
 5   0  0.2590795E-08  0.3599471E+04  0.7818609E-02  0.8090613E-01
       -2   -1    0    0    0  501  0.00000000000E+00  0.00000000000E+00  0.29681997502E+04  0.29681997502E+04  0.25500000920E-02 0.  1.
        2   -1    0    0  501    0  0.00000000000E+00  0.00000000000E+00 -0.10912497698E+04  0.10912497698E+04  0.25500000920E-02 0. -1.
    10030    2    1    2    0    0  0.00000000000E+00  0.00000000000E+00  0.18769499804E+04  0.40594495200E+04  0.35994706801E+04 0.  0.
        4    1    3    3  502    0  0.50986851873E+03  0.53031527666E+02 -0.10071739462E+04  0.11301235419E+04  0.12699999809E+01 0. -1.
       -4    1    3    3    0  502 -0.50986851873E+03 -0.53031527666E+02  0.28841239266E+04  0.29293259781E+04  0.12699999809E+01 0.  1.
</event>
<event>
 5   0  0.8063410E-09  0.3601910E+04  0.7818609E-02  0.8090054E-01
       -1   -1    0    0    0  501  0.00000000000E+00  0.00000000000E+00  0.11528675729E+04  0.11528675729E+04  0.50400001928E-02 0.  1.
        1   -1    0    0  501    0  0.00000000000E+00  0.00000000000E+00 -0.28133660115E+04  0.28133660115E+04  0.50400001928E-02 0. -1.
    10030    2    1    2    0    0  0.00000000000E+00  0.00000000000E+00 -0.16604984386E+04  0.39662335844E+04  0.36019097409E+04 0.  0.
        2    1    3    3  502    0  0.11533855516E+03 -0.13735463032E+04 -0.21065859558E+04  0.25174663490E+04  0.25500000920E-02 0. -1.
       -2    1    3    3    0  502 -0.11533855516E+03  0.13735463032E+04  0.44608751711E+03  0.14487672354E+04  0.25500000920E-02 0.  1.
</event>
<event>
 5   0  0.8146881E-09  0.3601048E+04  0.7818609E-02  0.8090252E-01
        1   -1    0    0  501    0  0.00000000000E+00  0.00000000000E+00  0.17822286828E+04  0.17822286828E+04  0.50400001928E-02 0. -1.
       -1   -1    0    0    0  501  0.00000000000E+00  0.00000000000E+00 -0.18190070575E+04  0.18190070575E+04  0.50400001928E-02 0.  1.
    10030    2    1    2    0    0  0.00000000000E+00  0.00000000000E+00 -0.36778374703E+02  0.36012357404E+04  0.36010479321E+04 0.  0.
        4    1    3    3  502    0 -0.52796015816E+03 -0.92411770348E+03  0.14339776695E+04  0.17857852693E+04  0.12699999809E+01 0. -1.
       -4    1    3    3    0  502  0.52796015816E+03  0.92411770348E+03 -0.14707560442E+04  0.18154504711E+04  0.12699999809E+01 0.  1.
</event>
<event>
 5   0  0.2608070E-08  0.3602419E+04  0.7818609E-02  0.8089938E-01
        2   -1    0    0  501    0  0.00000000000E+00  0.00000000000E+00  0.13408025617E+04  0.13408025617E+04  0.25500000920E-02 0. -1.
       -2   -1    0    0    0  501  0.00000000000E+00  0.00000000000E+00 -0.24197123790E+04  0.24197123790E+04  0.25500000920E-02 0.  1.
    10030    2    1    2    0    0  0.00000000000E+00  0.00000000000E+00 -0.10789098173E+04  0.37605149407E+04  0.36024194960E+04 0.  0.
        3    1    3    3  502    0 -0.35666362814E+03 -0.13078489142E+04 -0.17775400410E+04  0.22354700476E+04  0.10100000352E+00 0.  1.
       -3    1    3    3    0  502  0.35666362814E+03  0.13078489142E+04  0.69863022371E+03  0.15250448930E+04  0.10100000352E+00 0. -1.
</event>
<event>
 5   0  0.8024500E-09  0.3600057E+04  0.7818609E-02  0.8090479E-01
       -1   -1    0    0    0  501  0.00000000000E+00  0.00000000000E+00  0.12424824000E+04  0.12424824001E+04  0.50400001928E-02 0.  1.
        1   -1    0    0  501    0  0.00000000000E+00  0.00000000000E+00 -0.26077660182E+04  0.26077660182E+04  0.50400001928E-02 0. -1.
    10030    2    1    2    0    0  0.00000000000E+00  0.00000000000E+00 -0.13652836181E+04  0.38502484182E+04  0.36000574335E+04 0.  0.
        1    1    3    3  502    0  0.12502016188E+04 -0.10871260605E+04 -0.14352939337E+04  0.21920118237E+04  0.50400001928E-02 0. -1.
       -1    1    3    3    0  502 -0.12502016188E+04  0.10871260605E+04  0.70010315623E+02  0.16582365945E+04  0.50400001928E-02 0.  1.
</event>
<event>
 5   0  0.2482243E-08  0.3599841E+04  0.7818609E-02  0.8090528E-01
        2   -1    0    0  501    0  0.00000000000E+00  0.00000000000E+00  0.23231266618E+04  0.23231266618E+04  0.25500000920E-02 0.  1.
       -2   -1    0    0    0  501  0.00000000000E+00  0.00000000000E+00 -0.13945491238E+04  0.13945491238E+04  0.25500000920E-02 0. -1.
    10030    2    1    2    0    0  0.00000000000E+00  0.00000000000E+00  0.92857753800E+03  0.37176757856E+04  0.35998412468E+04 0.  0.
        5    1    3    3  502    0  0.58164354130E+03  0.16305507386E+04 -0.44469681057E+02  0.17317634258E+04  0.46999998093E+01 0. -1.
       -5    1    3    3    0  502 -0.58164354130E+03 -0.16305507386E+04  0.97304721906E+03  0.19859123598E+04  0.46999998093E+01 0.  1.
</event>
<event>
 5   0  0.8063410E-09  0.3600243E+04  0.7818609E-02  0.8090436E-01
       -1   -1    0    0    0  501  0.00000000000E+00  0.00000000000E+00  0.11660306594E+04  0.11660306594E+04  0.50400001928E-02 0.  1.
        1   -1    0    0  501    0  0.00000000000E+00  0.00000000000E+00 -0.27790321782E+04  0.27790321782E+04  0.50400001928E-02 0. -1.
    10030    2    1    2    0    0  0.00000000000E+00  0.00000000000E+00 -0.16130015188E+04  0.39450628376E+04  0.36002426159E+04 0.  0.
        2    1    3    3  502    0  0.62214669797E+03 -0.46319723858E+03  0.97352759015E+03  0.12447385928E+04  0.25500000920E-02 0.  1.
       -2    1    3    3    0  502 -0.62214669797E+03  0.46319723858E+03 -0.25865291090E+04  0.27003242448E+04  0.25500000920E-02 0. -1.
</event>
<event>
 5   0  0.2494592E-08  0.3599610E+04  0.7818609E-02  0.8090581E-01
       -2   -1    0    0    0  501  0.00000000000E+00  0.00000000000E+00  0.17725169962E+04  0.17725169962E+04  0.25500000920E-02 0.  1.
        2   -1    0    0  501    0  0.00000000000E+00  0.00000000000E+00 -0.18275126688E+04  0.18275126688E+04  0.25500000920E-02 0. -1.
    10030    2    1    2    0    0  0.00000000000E+00  0.00000000000E+00 -0.54995672548E+02  0.36000296650E+04  0.35996095711E+04 0.  0.
        1    1    3    3  502    0 -0.53403478866E+03  0.15934811107E+04 -0.67171745216E+03  0.18098562211E+04  0.50400001928E-02 0. -1.
       -1    1    3    3    0  502  0.53403478866E+03 -0.15934811107E+04  0.61672177961E+03  0.17901734438E+04  0.50400001928E-02 0.  1.
</event>
<event>
 5   0  0.2476968E-08  0.3599987E+04  0.7818609E-02  0.8090495E-01
       -2   -1    0    0    0  501  0.00000000000E+00  0.00000000000E+00  0.18680474766E+04  0.18680474766E+04  0.25500000920E-02 0.  1.
        2   -1    0    0  501    0  0.00000000000E+00  0.00000000000E+00 -0.17344185804E+04  0.17344185804E+04  0.25500000920E-02 0. -1.
    10030    2    1    2    0    0  0.00000000000E+00  0.00000000000E+00  0.13362889614E+03  0.36024660570E+04  0.35999868069E+04 0.  0.
        2    1    3    3  502    0 -0.10291432038E+04  0.13071630075E+04  0.75443059032E+03  0.18267392747E+04  0.25500000920E-02 0.  1.
       -2    1    3    3    0  502  0.10291432038E+04 -0.13071630075E+04 -0.62080169419E+03  0.17757267823E+04  0.25500000920E-02 0. -1.
</event>
<event>
 5   0  0.8146881E-09  0.3600567E+04  0.7818609E-02  0.8090362E-01
        1   -1    0    0  501    0  0.00000000000E+00  0.00000000000E+00  0.10795039050E+04  0.10795039051E+04  0.50400001928E-02 0.  1.
       -1   -1    0    0    0  501  0.00000000000E+00  0.00000000000E+00 -0.30023234400E+04  0.30023234400E+04  0.50400001928E-02 0. -1.
    10030    2    1    2    0    0  0.00000000000E+00  0.00000000000E+00 -0.19228195349E+04  0.40818273450E+04  0.36005665541E+04 0.  0.
        4    1    3    3  502    0  0.17716145481E+04  0.29622769134E+03 -0.10986218673E+04  0.21055499454E+04  0.12699999809E+01 0.  1.
       -4    1    3    3    0  502 -0.17716145481E+04 -0.29622769134E+03 -0.82419766760E+03  0.19762773997E+04  0.12699999809E+01 0. -1.
</event>
<event>
 5   0  0.2590795E-08  0.3601369E+04  0.7818609E-02  0.8090178E-01
       -2   -1    0    0    0  501  0.00000000000E+00  0.00000000000E+00  0.27413825177E+04  0.27413825177E+04  0.25500000920E-02 0. -1.
        2   -1    0    0  501    0  0.00000000000E+00  0.00000000000E+00 -0.11827842380E+04  0.11827842380E+04  0.25500000920E-02 0.  1.
    10030    2    1    2    0    0  0.00000000000E+00  0.00000000000E+00  0.15585982797E+04  0.39241667557E+04  0.36013686466E+04 0.  0.
        4    1    3    3  502    0 -0.50337973639E+03  0.86500140129E+03 -0.85181995100E+03  0.13142364418E+04  0.12699999809E+01 0.  1.
       -4    1    3    3    0  502  0.50337973639E+03 -0.86500140129E+03  0.24104182307E+04  0.26099303139E+04  0.12699999809E+01 0. -1.
</event>
<event>
 5   0  0.2482243E-08  0.3599353E+04  0.7818609E-02  0.8090640E-01
       -2   -1    0    0    0  501  0.00000000000E+00  0.00000000000E+00  0.15816763960E+04  0.15816763960E+04  0.25500000920E-02 0. -1.
        2   -1    0    0  501    0  0.00000000000E+00  0.00000000000E+00 -0.20477231253E+04  0.20477231253E+04  0.25500000920E-02 0.  1.
    10030    2    1    2    0    0  0.00000000000E+00  0.00000000000E+00 -0.46604672923E+03  0.36293995213E+04  0.35993529045E+04 0.  0.
        5    1    3    3  502    0  0.13888441409E+04 -0.96446485622E+02 -0.13829922975E+04  0.19623658571E+04  0.46999998093E+01 0.  1.
       -5    1    3    3    0  502 -0.13888441409E+04  0.96446485622E+02  0.91694556829E+03  0.16670336642E+04  0.46999998093E+01 0. -1.
</event>
<event>
 5   0  0.8024500E-09  0.3599613E+04  0.7818609E-02  0.8090580E-01
        1   -1    0    0  501    0  0.00000000000E+00  0.00000000000E+00  0.11158188611E+04  0.11158188612E+04  0.50400001928E-02 0. -1.
       -1   -1    0    0    0  501  0.00000000000E+00  0.00000000000E+00 -0.29030724991E+04  0.29030724991E+04  0.50400001928E-02 0.  1.
    10030    2    1    2    0    0  0.00000000000E+00  0.00000000000E+00 -0.17872536379E+04  0.40188913602E+04  0.35996127846E+04 0.  0.
        1    1    3    3  502    0 -0.17780020809E+04  0.26349293118E+03 -0.79019046429E+03  0.19634461781E+04  0.50400001928E-02 0.  1.
       -1    1    3    3    0  502  0.17780020809E+04 -0.26349293118E+03 -0.99706317365E+03  0.20554451821E+04  0.50400001928E-02 0. -1.
</event>
<event>
 5   0  0.2590795E-08  0.3606755E+04  0.7818609E-02  0.8088946E-01
        2   -1    0    0  501    0  0.00000000000E+00  0.00000000000E+00  0.30668012178E+04  0.30668012178E+04  0.25500000920E-02 0.  1.
       -2   -1    0    0    0  501  0.00000000000E+00  0.00000000000E+00 -0.10604438126E+04  0.10604438126E+04  0.25500000920E-02 0. -1.
    10030    2    1    2    0    0  0.00000000000E+00  0.00000000000E+00  0.20063574052E+04  0.41272450304E+04  0.36067549825E+04 0.  0.
        4    1    3    3  502    0 -0.16091386716E+04  0.30837974401E+03  0.14095556629E+03  0.16444742064E+04  0.12699999809E+01 0. -1.
       -4    1    3    3    0  502  0.16091386716E+04 -0.30837974401E+03  0.18654018389E+04  0.24827708240E+04  0.12699999809E+01 0.  1.
</event>
<event>
 5   0  0.8247570E-09  0.3599580E+04  0.7818609E-02  0.8090588E-01
       -1   -1    0    0    0  501  0.00000000000E+00  0.00000000000E+00  0.11679448886E+04  0.11679448886E+04  0.50400001928E-02 0.  1.
        1   -1    0    0  501    0  0.00000000000E+00  0.00000000000E+00 -0.27734556245E+04  0.27734556245E+04  0.50400001928E-02 0. -1.
    10030    2    1    2    0    0  0.00000000000E+00  0.00000000000E+00 -0.16055107359E+04  0.39414005132E+04  0.35995795980E+04 0.  0.
        3    1    3    3  502    0  0.51234598327E+02  0.13240750373E+04 -0.21363821547E+04  0.25139467794E+04  0.10100000352E+00 0. -1.
       -3    1    3    3    0  502 -0.51234598327E+02 -0.13240750373E+04  0.53087141883E+03  0.14274537338E+04  0.10100000352E+00 0.  1.
</event>
<event>
 5   0  0.8063410E-09  0.3622913E+04  0.7818609E-02  0.8085263E-01
        1   -1    0    0  501    0  0.00000000000E+00  0.00000000000E+00  0.12563262354E+04  0.12563262354E+04  0.50400001928E-02 0. -1.
       -1   -1    0    0    0  501  0.00000000000E+00  0.00000000000E+00 -0.26118808454E+04  0.26118808454E+04  0.50400001928E-02 0.  1.
    10030    2    1    2    0    0  0.00000000000E+00  0.00000000000E+00 -0.13555546100E+04  0.38682070808E+04  0.36229128777E+04 0.  0.
        2    1    3    3  502    0  0.10485341436E+04 -0.82145979335E+03  0.63300538108E+03  0.14747595922E+04  0.25500000920E-02 0. -1.
       -2    1    3    3    0  502 -0.10485341436E+04  0.82145979335E+03 -0.19885599911E+04  0.23934474886E+04  0.25500000920E-02 0.  1.
</event>
<event>
 5   0  0.8063410E-09  0.3596796E+04  0.7818609E-02  0.8091226E-01
       -1   -1    0    0    0  501  0.00000000000E+00  0.00000000000E+00  0.14748424834E+04  0.14748424834E+04  0.50400001928E-02 0. -1.
        1   -1    0    0  501    0  0.00000000000E+00  0.00000000000E+00 -0.21929357603E+04  0.21929357603E+04  0.50400001928E-02 0.  1.
    10030    2    1    2    0    0  0.00000000000E+00  0.00000000000E+00 -0.71809327687E+03  0.36677782437E+04  0.35967956977E+04 0.  0.
        2    1    3    3  502    0  0.16914108677E+04  0.13390404895E+03 -0.96699496214E+03  0.19529158391E+04  0.25500000920E-02 0.  1.
       -2    1    3    3    0  502 -0.16914108677E+04 -0.13390404895E+03  0.24890168527E+03  0.17148624046E+04  0.25500000920E-02 0. -1.
</event>
<event>
 5   0  0.8024500E-09  0.3598922E+04  0.7818609E-02  0.8090739E-01
        1   -1    0    0  501    0  0.00000000000E+00  0.00000000000E+00  0.25658738084E+04  0.25658738084E+04  0.50400001928E-02 0. -1.
       -1   -1    0    0    0  501  0.00000000000E+00  0.00000000000E+00 -0.12619718730E+04  0.12619718730E+04  0.50400001928E-02 0.  1.
    10030    2    1    2    0    0  0.00000000000E+00  0.00000000000E+00  0.13039019354E+04  0.38278456813E+04  0.35989223808E+04 0.  0.
        1    1    3    3  502    0 -0.49244169232E+03  0.14238790147E+04  0.16984741393E+04  0.22704062787E+04  0.50400001928E-02 0. -1.
       -1    1    3    3    0  502  0.49244169232E+03 -0.14238790147E+04 -0.39457220385E+03  0.15574394026E+04  0.50400001928E-02 0.  1.
</event>
<event>
 5   0  0.8024500E-09  0.3601358E+04  0.7818609E-02  0.8090181E-01
       -1   -1    0    0    0  501  0.00000000000E+00  0.00000000000E+00  0.11974952583E+04  0.11974952583E+04  0.50400001928E-02 0.  1.
        1   -1    0    0  501    0  0.00000000000E+00  0.00000000000E+00 -0.27076885100E+04  0.27076885100E+04  0.50400001928E-02 0. -1.
    10030    2    1    2    0    0  0.00000000000E+00  0.00000000000E+00 -0.15101932517E+04  0.39051837682E+04  0.36013576060E+04 0.  0.
        5    1    3    3  502    0  0.71550141277E+03 -0.44125043759E+03  0.97165879811E+03  0.12848296114E+04  0.46999998093E+01 0.  1.
       -5    1    3    3    0  502 -0.71550141277E+03  0.44125043759E+03 -0.24818520498E+04  0.26203541569E+04  0.46999998093E+01 0. -1.
</event>
<event>
 5   0  0.8063410E-09  0.3600752E+04  0.7818609E-02  0.8090320E-01
       -1   -1    0    0    0  501  0.00000000000E+00  0.00000000000E+00  0.11230968344E+04  0.11230968344E+04  0.50400001928E-02 0.  1.
        1   -1    0    0  501    0  0.00000000000E+00  0.00000000000E+00 -0.28860854260E+04  0.28860854260E+04  0.50400001928E-02 0. -1.
    10030    2    1    2    0    0  0.00000000000E+00  0.00000000000E+00 -0.17629885917E+04  0.40091822604E+04  0.36007518136E+04 0.  0.
        2    1    3    3  502    0  0.15903126560E+04  0.51905770402E+03 -0.14055072906E+03  0.16787703093E+04  0.25500000920E-02 0.  1.
       -2    1    3    3    0  502 -0.15903126560E+04 -0.51905770402E+03 -0.16224378626E+04  0.23304119511E+04  0.25500000920E-02 0. -1.
</event>
<event>
 5   0  0.2590795E-08  0.3599940E+04  0.7818609E-02  0.8090505E-01
       -2   -1    0    0    0  501  0.00000000000E+00  0.00000000000E+00  0.16366451223E+04  0.16366451223E+04  0.25500000920E-02 0. -1.
        2   -1    0    0  501    0  0.00000000000E+00  0.00000000000E+00 -0.19795939291E+04  0.19795939291E+04  0.25500000920E-02 0.  1.
    10030    2    1    2    0    0  0.00000000000E+00  0.00000000000E+00 -0.34294880682E+03  0.36162390514E+04  0.35999404151E+04 0.  0.
        4    1    3    3  502    0 -0.38980285008E+03  0.11568382944E+04  0.11572652511E+04  0.16821074804E+04  0.12699999809E+01 0. -1.
       -4    1    3    3    0  502  0.38980285008E+03 -0.11568382944E+04 -0.15002140579E+04  0.19341315710E+04  0.12699999809E+01 0.  1.
</event>
<event>
 5   0  0.2590795E-08  0.3601553E+04  0.7818609E-02  0.8090136E-01
       -2   -1    0    0    0  501  0.00000000000E+00  0.00000000000E+00  0.12264807804E+04  0.12264807804E+04  0.25500000920E-02 0.  1.
        2   -1    0    0  501    0  0.00000000000E+00  0.00000000000E+00 -0.26439841083E+04  0.26439841083E+04  0.25500000920E-02 0. -1.
    10030    2    1    2    0    0  0.00000000000E+00  0.00000000000E+00 -0.14175033279E+04  0.38704648888E+04  0.36015528277E+04 0.  0.
        4    1    3    3  502    0  0.10414496265E+04  0.72279789904E+03 -0.20832064988E+04  0.24386071961E+04  0.12699999809E+01 0. -1.
       -4    1    3    3    0  502 -0.10414496265E+04 -0.72279789904E+03  0.66570317091E+03  0.14318576927E+04  0.12699999809E+01 0.  1.
</event>
<event>
 5   0  0.2494592E-08  0.3600984E+04  0.7818609E-02  0.8090266E-01
        2   -1    0    0  501    0  0.00000000000E+00  0.00000000000E+00  0.23587744969E+04  0.23587744969E+04  0.25500000920E-02 0.  1.
       -2   -1    0    0    0  501  0.00000000000E+00  0.00000000000E+00 -0.13743458614E+04  0.13743458614E+04  0.25500000920E-02 0. -1.
    10030    2    1    2    0    0  0.00000000000E+00  0.00000000000E+00  0.98442863547E+03  0.37331203583E+04  0.36009842920E+04 0.  0.
        1    1    3    3  502    0  0.10902452716E+04  0.10488731466E+04  0.15042544815E+04  0.21334364708E+04  0.50400001928E-02 0.  1.
       -1    1    3    3    0  502 -0.10902452716E+04 -0.10488731466E+04 -0.51982584603E+03  0.15996838875E+04  0.50400001928E-02 0. -1.
</event>
<event>
 5   0  0.8146881E-09  0.3596096E+04  0.7818609E-02  0.8091386E-01
        1   -1    0    0  501    0  0.00000000000E+00  0.00000000000E+00  0.16463531554E+04  0.16463531555E+04  0.50400001928E-02 0. -1.
       -1   -1    0    0    0  501  0.00000000000E+00  0.00000000000E+00 -0.19637203651E+04  0.19637203651E+04  0.50400001928E-02 0.  1.
    10030    2    1    2    0    0  0.00000000000E+00  0.00000000000E+00 -0.31736720967E+03  0.36100735206E+04  0.35960963388E+04 0.  0.
        4    1    3    3  502    0  0.17067684727E+04 -0.50390555785E+03  0.99212103113E+02  0.17823647452E+04  0.12699999809E+01 0. -1.
       -4    1    3    3    0  502 -0.17067684727E+04  0.50390555785E+03 -0.41657931278E+03  0.18277087753E+04  0.12699999809E+01 0.  1.
</event>
<event>
 5   0  0.8146881E-09  0.3599568E+04  0.7818609E-02  0.8090591E-01
       -1   -1    0    0    0  501  0.00000000000E+00  0.00000000000E+00  0.17612511940E+04  0.17612511940E+04  0.50400001928E-02 0.  1.
        1   -1    0    0  501    0  0.00000000000E+00  0.00000000000E+00 -0.18391596005E+04  0.18391596005E+04  0.50400001928E-02 0. -1.
    10030    2    1    2    0    0  0.00000000000E+00  0.00000000000E+00 -0.77908406453E+02  0.36004107945E+04  0.35995677753E+04 0.  0.
        4    1    3    3  502    0  0.77815710255E+03 -0.42719617141E+03  0.15270418565E+04  0.17663191924E+04  0.12699999809E+01 0.  1.
       -4    1    3    3    0  502 -0.77815710255E+03  0.42719617141E+03 -0.16049502630E+04  0.18340916020E+04  0.12699999809E+01 0. -1.
</event>
<event>
 5   0  0.2482243E-08  0.3603219E+04  0.7818609E-02  0.8089755E-01
        2   -1    0    0  501    0  0.00000000000E+00  0.00000000000E+00  0.97287489668E+03  0.97287489669E+03  0.25500000920E-02 0. -1.
       -2   -1    0    0    0  501  0.00000000000E+00  0.00000000000E+00 -0.33362940697E+04  0.33362940697E+04  0.25500000920E-02 0.  1.
    10030    2    1    2    0    0  0.00000000000E+00  0.00000000000E+00 -0.23634191730E+04  0.43091689664E+04  0.36032189766E+04 0.  0.
        5    1    3    3  502    0 -0.11587844425E+04 -0.60734790441E+03  0.29955550366E+03  0.13421655825E+04  0.46999998093E+01 0. -1.
       -5    1    3    3    0  502  0.11587844425E+04  0.60734790441E+03 -0.26629746766E+04  0.29670033838E+04  0.46999998093E+01 0.  1.
</event>
<event>
 5   0  0.8024500E-09  0.3599915E+04  0.7818609E-02  0.8090511E-01
       -1   -1    0    0    0  501  0.00000000000E+00  0.00000000000E+00  0.14426186282E+04  0.14426186282E+04  0.50400001928E-02 0. -1.
        1   -1    0    0  501    0  0.00000000000E+00  0.00000000000E+00 -0.22458096568E+04  0.22458096568E+04  0.50400001928E-02 0.  1.
    10030    2    1    2    0    0  0.00000000000E+00  0.00000000000E+00 -0.80319102866E+03  0.36884282850E+04  0.35999149136E+04 0.  0.
        5    1    3    3  502    0 -0.81501931304E+03 -0.85407202414E+03  0.99053566295E+03  0.15410640780E+04  0.46999998093E+01 0. -1.
       -5    1    3    3    0  502  0.81501931304E+03  0.85407202414E+03 -0.17937266916E+04  0.21473642069E+04  0.46999998093E+01 0.  1.
</event>
<event>
 5   0  0.8024500E-09  0.3600348E+04  0.7818609E-02  0.8090412E-01
       -3   -1    0    0    0  501  0.00000000000E+00  0.00000000000E+00  0.19427642480E+04  0.19427642506E+04  0.10100000352E+00 0.  1.
        3   -1    0    0  501    0  0.00000000000E+00  0.00000000000E+00 -0.16680491294E+04  0.16680491325E+04  0.10100000352E+00 0. -1.
    10030    2    1    2    0    0  0.00000000000E+00  0.00000000000E+00  0.27471511853E+03  0.36108133831E+04  0.36003478847E+04 0.  0.
        4    1    3    3  502    0 -0.16082955734E+04  0.71241944404E+03  0.52118205233E+03  0.18346085306E+04  0.12699999809E+01 0.  1.
       -4    1    3    3    0  502  0.16082955734E+04 -0.71241944404E+03 -0.24646693381E+03  0.17762048525E+04  0.12699999809E+01 0. -1.
</event>
<event>
 5   0  0.2476968E-08  0.3600138E+04  0.7818609E-02  0.8090460E-01
       -2   -1    0    0    0  501  0.00000000000E+00  0.00000000000E+00  0.13725059000E+04  0.13725059000E+04  0.25500000920E-02 0.  1.
        2   -1    0    0  501    0  0.00000000000E+00  0.00000000000E+00 -0.23608270794E+04  0.23608270794E+04  0.25500000920E-02 0. -1.
    10030    2    1    2    0    0  0.00000000000E+00  0.00000000000E+00 -0.98832117944E+03  0.37333329794E+04  0.36001383836E+04 0.  0.
        2    1    3    3  502    0 -0.11703163080E+04  0.71832835537E+03 -0.17010992121E+04  0.21861780386E+04  0.25500000920E-02 0. -1.
       -2    1    3    3    0  502  0.11703163080E+04 -0.71832835537E+03  0.71277803271E+03  0.15471549408E+04  0.25500000920E-02 0.  1.
</event>
<event>
 5   0  0.8247570E-09  0.3600005E+04  0.7818609E-02  0.8090490E-01
        1   -1    0    0  501    0  0.00000000000E+00  0.00000000000E+00  0.29221981143E+04  0.29221981143E+04  0.50400001928E-02 0.  1.
       -1   -1    0    0    0  501  0.00000000000E+00  0.00000000000E+00 -0.11087577173E+04  0.11087577173E+04  0.50400001928E-02 0. -1.
    10030    2    1    2    0    0  0.00000000000E+00  0.00000000000E+00  0.18134403970E+04  0.40309558316E+04  0.36000053948E+04 0.  0.
        3    1    3    3  502    0  0.55742085348E+02  0.17663695993E+04  0.12894589577E+04  0.21876638579E+04  0.10100000352E+00 0.  1.
       -3    1    3    3    0  502 -0.55742085348E+02 -0.17663695993E+04  0.52398143934E+03  0.18432919737E+04  0.10100000352E+00 0. -1.
</event>
<event>
 5   0  0.2608070E-08  0.3599765E+04  0.7818609E-02  0.8090546E-01
        2   -1    0    0  501    0  0.00000000000E+00  0.00000000000E+00  0.15258631290E+04  0.15258631290E+04  0.25500000920E-02 0.  1.
       -2   -1    0    0    0  501  0.00000000000E+00  0.00000000000E+00 -0.21231110487E+04  0.21231110487E+04  0.25500000920E-02 0. -1.
    10030    2    1    2    0    0  0.00000000000E+00  0.00000000000E+00 -0.59724791975E+03  0.36489741777E+04  0.35997649190E+04 0.  0.
        3    1    3    3  502    0  0.16014995220E+04 -0.70143317399E+03  0.13473352645E+03  0.17535570563E+04  0.10100000352E+00 0.  1.
       -3    1    3    3    0  502 -0.16014995220E+04  0.70143317399E+03 -0.73198144620E+03  0.18954171214E+04  0.10100000352E+00 0. -1.
</event>
<event>
 5   0  0.2590795E-08  0.3600259E+04  0.7818609E-02  0.8090432E-01
       -2   -1    0    0    0  501  0.00000000000E+00  0.00000000000E+00  0.18127178893E+04  0.18127178893E+04  0.25500000920E-02 0. -1.
        2   -1    0    0  501    0  0.00000000000E+00  0.00000000000E+00 -0.17876283989E+04  0.17876283989E+04  0.25500000920E-02 0.  1.
    10030    2    1    2    0    0  0.00000000000E+00  0.00000000000E+00  0.25089490391E+02  0.36003462881E+04  0.36002588673E+04 0.  0.
        4    1    3    3  502    0  0.62752771107E+02 -0.11500612138E+04 -0.13709214111E+04  0.17905322767E+04  0.12699999809E+01 0.  1.
       -4    1    3    3    0  502 -0.62752771107E+02  0.11500612138E+04  0.13960109015E+04  0.18098140114E+04  0.12699999809E+01 0. -1.
</event>
<event>
 5   0  0.2590795E-08  0.3603599E+04  0.7818609E-02  0.8089668E-01
        2   -1    0    0  501    0  0.00000000000E+00  0.00000000000E+00  0.22046051494E+04  0.22046051494E+04  0.25500000920E-02 0.  1.
       -2   -1    0    0    0  501  0.00000000000E+00  0.00000000000E+00 -0.14725907354E+04  0.14725907354E+04  0.25500000920E-02 0. -1.
    10030    2    1    2    0    0  0.00000000000E+00  0.00000000000E+00  0.73201441396E+03  0.36771958848E+04  0.36035988224E+04 0.  0.
        4    1    3    3  502    0  0.77767565775E+03  0.16439590733E+03  0.20160268273E+04  0.21670651177E+04  0.12699999809E+01 0.  1.
       -4    1    3    3    0  502 -0.77767565775E+03 -0.16439590733E+03 -0.12840124134E+04  0.15101307671E+04  0.12699999809E+01 0. -1.
</event>
<event>
 5   0  0.8063410E-09  0.3595415E+04  0.7818609E-02  0.8091543E-01
        1   -1    0    0  501    0  0.00000000000E+00  0.00000000000E+00  0.14898491195E+04  0.14898491196E+04  0.50400001928E-02 0. -1.
       -1   -1    0    0    0  501  0.00000000000E+00  0.00000000000E+00 -0.21691810049E+04  0.21691810049E+04  0.50400001928E-02 0.  1.
    10030    2    1    2    0    0  0.00000000000E+00  0.00000000000E+00 -0.67933188531E+03  0.36590301244E+04  0.35954150860E+04 0.  0.
        2    1    3    3  502    0 -0.45411281091E+03  0.16544447066E+04 -0.88614613441E+03  0.19309740298E+04  0.25500000920E-02 0.  1.
       -2    1    3    3    0  502  0.45411281091E+03 -0.16544447066E+04  0.20681424909E+03  0.17280560946E+04  0.25500000920E-02 0. -1.
</event>
<event>
 5   0  0.2494592E-08  0.3599792E+04  0.7818609E-02  0.8090539E-01
       -2   -1    0    0    0  501  0.00000000000E+00  0.00000000000E+00  0.11154587072E+04  0.11154587072E+04  0.25500000920E-02 0.  1.
        2   -1    0    0  501    0  0.00000000000E+00  0.00000000000E+00 -0.29042993026E+04  0.29042993026E+04  0.25500000920E-02 0. -1.
    10030    2    1    2    0    0  0.00000000000E+00  0.00000000000E+00 -0.17888405954E+04  0.40197580097E+04  0.35997921858E+04 0.  0.
        1    1    3    3  502    0  0.80030183490E+03 -0.69246737307E+03  0.73132571777E+03  0.12864025012E+04  0.50400001928E-02 0.  1.
       -1    1    3    3    0  502 -0.80030183490E+03  0.69246737307E+03 -0.25201663132E+04  0.27333555085E+04  0.50400001928E-02 0. -1.
</event>
<event>
 5   0  0.8024500E-09  0.3608816E+04  0.7818609E-02  0.8088475E-01
       -1   -1    0    0    0  501  0.00000000000E+00  0.00000000000E+00  0.21300381252E+04  0.21300381252E+04  0.50400001928E-02 0. -1.
        1   -1    0    0  501    0  0.00000000000E+00  0.00000000000E+00 -0.15285587338E+04  0.15285587338E+04  0.50400001928E-02 0.  1.
    10030    2    1    2    0    0  0.00000000000E+00  0.00000000000E+00  0.60147939143E+03  0.36585968590E+04  0.36088160827E+04 0.  0.
        1    1    3    3  502    0 -0.11404792228E+04  0.69247750229E+03  0.15322682764E+04  0.20317637707E+04  0.50400001928E-02 0. -1.
       -1    1    3    3    0  502  0.11404792228E+04 -0.69247750229E+03 -0.93078888500E+03  0.16268330883E+04  0.50400001928E-02 0.  1.
</event>
<event>
 5   0  0.8024500E-09  0.3601383E+04  0.7818609E-02  0.8090175E-01
        1   -1    0    0  501    0  0.00000000000E+00  0.00000000000E+00  0.18743702479E+04  0.18743702479E+04  0.50400001928E-02 0.  1.
       -1   -1    0    0    0  501  0.00000000000E+00  0.00000000000E+00 -0.17299088889E+04  0.17299088889E+04  0.50400001928E-02 0. -1.
    10030    2    1    2    0    0  0.00000000000E+00  0.00000000000E+00  0.14446135900E+03  0.36042791369E+04  0.36013829305E+04 0.  0.
        5    1    3    3  502    0 -0.17759499595E+04  0.41966788882E+02  0.36693003360E+03  0.18139512699E+04  0.46999998093E+01 0.  1.
       -5    1    3    3    0  502  0.17759499595E+04 -0.41966788882E+02 -0.22246867459E+03  0.17903278670E+04  0.46999998093E+01 0. -1.
</event>
<event>
 5   0  0.2494592E-08  0.3600318E+04  0.7818609E-02  0.8090419E-01
       -2   -1    0    0    0  501  0.00000000000E+00  0.00000000000E+00  0.13901073729E+04  0.13901073729E+04  0.25500000920E-02 0.  1.
        2   -1    0    0  501    0  0.00000000000E+00  0.00000000000E+00 -0.23311672700E+04  0.23311672700E+04  0.25500000920E-02 0. -1.
    10030    2    1    2    0    0  0.00000000000E+00  0.00000000000E+00 -0.94105989715E+03  0.37212746429E+04  0.36003182134E+04 0.  0.
        1    1    3    3  502    0  0.13885782407E+04 -0.98144741050E+03  0.14024070973E+03  0.17061817039E+04  0.50400001928E-02 0.  1.
       -1    1    3    3    0  502 -0.13885782407E+04  0.98144741050E+03 -0.10813006069E+04  0.20150929389E+04  0.50400001928E-02 0. -1.
</event>
<event>
 5   0  0.8024500E-09  0.3609431E+04  0.7818609E-02  0.8088335E-01
        1   -1    0    0  501    0  0.00000000000E+00  0.00000000000E+00  0.14847255955E+04  0.14847255956E+04  0.50400001928E-02 0. -1.
       -1   -1    0    0    0  501  0.00000000000E+00  0.00000000000E+00 -0.21936706180E+04  0.21936706180E+04  0.50400001928E-02 0.  1.
    10030    2    1    2    0    0  0.00000000000E+00  0.00000000000E+00 -0.70894502245E+03  0.36783962135E+04  0.36094314870E+04 0.  0.
        5    1    3    3  502    0  0.10598184845E+04 -0.78544765169E+03 -0.16096024043E+04  0.20811019253E+04  0.46999998093E+01 0.  1.
       -5    1    3    3    0  502 -0.10598184845E+04  0.78544765169E+03  0.90065738186E+03  0.15972942882E+04  0.46999998093E+01 0. -1.
</event>
<event>
 5   0  0.8024500E-09  0.3600782E+04  0.7818609E-02  0.8090313E-01
        1   -1    0    0  501    0  0.00000000000E+00  0.00000000000E+00  0.17154440562E+04  0.17154440562E+04  0.50400001928E-02 0. -1.
       -1   -1    0    0    0  501  0.00000000000E+00  0.00000000000E+00 -0.18895442435E+04  0.18895442436E+04  0.50400001928E-02 0.  1.
    10030    2    1    2    0    0  0.00000000000E+00  0.00000000000E+00 -0.17410018732E+03  0.36049882998E+04  0.36007818271E+04 0.  0.
        5    1    3    3  502    0  0.45330777447E+03  0.16496500983E+04  0.47445442248E+03  0.17753767134E+04  0.46999998093E+01 0. -1.
       -5    1    3    3    0  502 -0.45330777447E+03 -0.16496500983E+04 -0.64855460980E+03  0.18296115864E+04  0.46999998093E+01 0.  1.
</event>
<event>
 5   0  0.8146881E-09  0.3600723E+04  0.7818609E-02  0.8090326E-01
       -1   -1    0    0    0  501  0.00000000000E+00  0.00000000000E+00  0.13311882062E+04  0.13311882062E+04  0.50400001928E-02 0.  1.
        1   -1    0    0  501    0  0.00000000000E+00  0.00000000000E+00 -0.24348933588E+04  0.24348933588E+04  0.50400001928E-02 0. -1.
    10030    2    1    2    0    0  0.00000000000E+00  0.00000000000E+00 -0.11037051526E+04  0.37660815650E+04  0.36007228845E+04 0.  0.
        4    1    3    3  502    0  0.13590597455E+03 -0.16654628693E+04 -0.12527484732E+04  0.20884485517E+04  0.12699999809E+01 0. -1.
       -4    1    3    3    0  502 -0.13590597455E+03  0.16654628693E+04  0.14904332067E+03  0.16776330133E+04  0.12699999809E+01 0.  1.
</event>
<event>
 5   0  0.2482243E-08  0.3601457E+04  0.7818609E-02  0.8090158E-01
        2   -1    0    0  501    0  0.00000000000E+00  0.00000000000E+00  0.19638382617E+04  0.19638382617E+04  0.25500000920E-02 0.  1.
       -2   -1    0    0    0  501  0.00000000000E+00  0.00000000000E+00 -0.16511661787E+04  0.16511661787E+04  0.25500000920E-02 0. -1.
    10030    2    1    2    0    0  0.00000000000E+00  0.00000000000E+00  0.31267208295E+03  0.36150044404E+04  0.36014571041E+04 0.  0.
        5    1    3    3  502    0 -0.10602520433E+04  0.79697793709E+03 -0.10661504318E+04  0.17017658654E+04  0.46999998093E+01 0. -1.
       -5    1    3    3    0  502  0.10602520433E+04 -0.79697793709E+03  0.13788225148E+04  0.19132385750E+04  0.46999998093E+01 0.  1.
</event>
<event>
 5   0  0.2494592E-08  0.3599185E+04  0.7818609E-02  0.8090678E-01
       -2   -1    0    0    0  501  0.00000000000E+00  0.00000000000E+00  0.13806472520E+04  0.13806472520E+04  0.25500000920E-02 0.  1.
        2   -1    0    0  501    0  0.00000000000E+00  0.00000000000E+00 -0.23456630084E+04  0.23456630084E+04  0.25500000920E-02 0. -1.
    10030    2    1    2    0    0  0.00000000000E+00  0.00000000000E+00 -0.96501575643E+03  0.37263102604E+04  0.35991850115E+04 0.  0.
        1    1    3    3  502    0 -0.32583754336E+03 -0.45165496987E+03  0.12891827171E+04  0.14043341463E+04  0.50400001928E-02 0.  1.
       -1    1    3    3    0  502  0.32583754336E+03  0.45165496987E+03 -0.22541984735E+04  0.23219761141E+04  0.50400001928E-02 0. -1.
</event>
<event>
 5   0  0.8063410E-09  0.3600729E+04  0.7818609E-02  0.8090325E-01
       -1   -1    0    0    0  501  0.00000000000E+00  0.00000000000E+00  0.14815574089E+04  0.14815574089E+04  0.50400001928E-02 0. -1.
        1   -1    0    0  501    0  0.00000000000E+00  0.00000000000E+00 -0.21877731296E+04  0.21877731296E+04  0.50400001928E-02 0.  1.
    10030    2    1    2    0    0  0.00000000000E+00  0.00000000000E+00 -0.70621572072E+03  0.36693305385E+04  0.36007285313E+04 0.  0.
        2    1    3    3  502    0  0.48454152438E+02  0.25642062273E+03  0.14621821159E+04  0.14852864642E+04  0.25500000920E-02 0. -1.
       -2    1    3    3    0  502 -0.48454152438E+02 -0.25642062273E+03 -0.21683978366E+04  0.21840440743E+04  0.25500000920E-02 0.  1.
</event>
<event>
 5   0  0.8024500E-09  0.3576804E+04  0.7818609E-02  0.8095826E-01
       -1   -1    0    0    0  501  0.00000000000E+00  0.00000000000E+00  0.14658084692E+04  0.14658084692E+04  0.50400001928E-02 0. -1.
        1   -1    0    0  501    0  0.00000000000E+00  0.00000000000E+00 -0.21819910573E+04  0.21819910573E+04  0.50400001928E-02 0.  1.
    10030    2    1    2    0    0  0.00000000000E+00  0.00000000000E+00 -0.71618258815E+03  0.36477995265E+04  0.35768035851E+04 0.  0.
        5    1    3    3  502    0 -0.13663964766E+04  0.23081310082E+03  0.79485458130E+03  0.15975387050E+04  0.46999998093E+01 0. -1.
       -5    1    3    3    0  502  0.13663964766E+04 -0.23081310082E+03 -0.15110371695E+04  0.20502608215E+04  0.46999998093E+01 0.  1.
</event>
<event>
 5   0  0.2608070E-08  0.3600042E+04  0.7818609E-02  0.8090482E-01
        2   -1    0    0  501    0  0.00000000000E+00  0.00000000000E+00  0.24661929538E+04  0.24661929538E+04  0.25500000920E-02 0. -1.
       -2   -1    0    0    0  501  0.00000000000E+00  0.00000000000E+00 -0.13137962450E+04  0.13137962450E+04  0.25500000920E-02 0.  1.
    10030    2    1    2    0    0  0.00000000000E+00  0.00000000000E+00  0.11523967088E+04  0.37799891989E+04  0.36000416899E+04 0.  0.
        3    1    3    3  502    0 -0.77184514233E+03 -0.28728133730E+03 -0.11043677524E+04  0.13776442332E+04  0.10100000352E+00 0.  1.
       -3    1    3    3    0  502  0.77184514233E+03  0.28728133730E+03  0.22567644612E+04  0.24023449657E+04  0.10100000352E+00 0. -1.
</event>
<event>
 5   0  0.2494592E-08  0.3600784E+04  0.7818609E-02  0.8090312E-01
       -2   -1    0    0    0  501  0.00000000000E+00  0.00000000000E+00  0.12139847112E+04  0.12139847112E+04  0.25500000920E-02 0. -1.
        2   -1    0    0  501    0  0.00000000000E+00  0.00000000000E+00 -0.26700598549E+04  0.26700598549E+04  0.25500000920E-02 0.  1.
    10030    2    1    2    0    0  0.00000000000E+00  0.00000000000E+00 -0.14560751437E+04  0.38840445661E+04  0.36007842711E+04 0.  0.
        1    1    3    3  502    0  0.51008752033E+03 -0.85229411480E+03  0.89169300666E+03  0.13348074598E+04  0.50400001928E-02 0. -1.
       -1    1    3    3    0  502 -0.51008752033E+03  0.85229411480E+03 -0.23477681503E+04  0.25492371063E+04  0.50400001928E-02 0.  1.
</event>
<event>
 5   0  0.8024500E-09  0.3608055E+04  0.7818609E-02  0.8088649E-01
        3   -1    0    0  501    0  0.00000000000E+00  0.00000000000E+00  0.25416425278E+04  0.25416425298E+04  0.10100000352E+00 0. -1.
       -3   -1    0    0    0  501  0.00000000000E+00  0.00000000000E+00 -0.12804773467E+04  0.12804773507E+04  0.10100000352E+00 0.  1.
    10030    2    1    2    0    0  0.00000000000E+00  0.00000000000E+00  0.12611651811E+04  0.38221198806E+04  0.36080552611E+04 0.  0.
        5    1    3    3  502    0  0.12995800141E+03  0.63542475310E+03 -0.11526942917E+04  0.13226412662E+04  0.46999998093E+01 0.  1.
       -5    1    3    3    0  502 -0.12995800141E+03 -0.63542475310E+03  0.24138594728E+04  0.24994786143E+04  0.46999998093E+01 0. -1.
</event>
<event>
 5   0  0.8063410E-09  0.3599662E+04  0.7818609E-02  0.8090569E-01
        1   -1    0    0  501    0  0.00000000000E+00  0.00000000000E+00  0.11770211763E+04  0.11770211763E+04  0.50400001928E-02 0.  1.
       -1   -1    0    0    0  501  0.00000000000E+00  0.00000000000E+00 -0.27521950794E+04  0.27521950795E+04  0.50400001928E-02 0. -1.
    10030    2    1    2    0    0  0.00000000000E+00  0.00000000000E+00 -0.15751739032E+04  0.39292162557E+04  0.35996621452E+04 0.  0.
        2    1    3    3  502    0  0.69080393708E+03 -0.95727857354E+03 -0.22705709270E+04  0.25591179499E+04  0.25500000920E-02 0. -1.
       -2    1    3    3    0  502 -0.69080393708E+03  0.95727857354E+03  0.69539702387E+03  0.13700983058E+04  0.25500000920E-02 0.  1.
</event>
<event>
 5   0  0.8024500E-09  0.3599643E+04  0.7818609E-02  0.8090573E-01
        1   -1    0    0  501    0  0.00000000000E+00  0.00000000000E+00  0.19161859438E+04  0.19161859439E+04  0.50400001928E-02 0. -1.
       -1   -1    0    0    0  501  0.00000000000E+00  0.00000000000E+00 -0.16905237937E+04  0.16905237937E+04  0.50400001928E-02 0.  1.
    10030    2    1    2    0    0  0.00000000000E+00  0.00000000000E+00  0.22566215011E+03  0.36067097376E+04  0.35996432775E+04 0.  0.
        5    1    3    3  502    0  0.69033921625E+03 -0.13815865339E+04 -0.81309682128E+03  0.17454220449E+04  0.46999998093E+01 0.  1.
       -5    1    3    3    0  502 -0.69033921625E+03  0.13815865339E+04  0.10387589714E+04  0.18612876927E+04  0.46999998093E+01 0. -1.
</event>
<event>
 5   0  0.8063410E-09  0.3597271E+04  0.7818609E-02  0.8091117E-01
       -1   -1    0    0    0  501  0.00000000000E+00  0.00000000000E+00  0.18237707974E+04  0.18237707974E+04  0.50400001928E-02 0.  1.
        1   -1    0    0  501    0  0.00000000000E+00  0.00000000000E+00 -0.17738467988E+04  0.17738467988E+04  0.50400001928E-02 0. -1.
    10030    2    1    2    0    0  0.00000000000E+00  0.00000000000E+00  0.49923998590E+02  0.35976175962E+04  0.35972711829E+04 0.  0.
        2    1    3    3  502    0 -0.15917311388E+04 -0.26059841928E+03 -0.77108603100E+03  0.17877620708E+04  0.25500000920E-02 0. -1.
       -2    1    3    3    0  502  0.15917311388E+04  0.26059841928E+03  0.82101002959E+03  0.18098555255E+04  0.25500000920E-02 0.  1.
</event>
<event>
 5   0  0.8024500E-09  0.3599603E+04  0.7818609E-02  0.8090583E-01
        1   -1    0    0  501    0  0.00000000000E+00  0.00000000000E+00  0.12389165465E+04  0.12389165465E+04  0.50400001928E-02 0.  1.
       -1   -1    0    0    0  501  0.00000000000E+00  0.00000000000E+00 -0.26146119367E+04  0.26146119367E+04  0.50400001928E-02 0. -1.
    10030    2    1    2    0    0  0.00000000000E+00  0.00000000000E+00 -0.13756953902E+04  0.38535284832E+04  0.35996033065E+04 0.  0.
        5    1    3    3  502    0  0.83524582872E+02 -0.48520897925E+03  0.11654156827E+04  0.12651560825E+04  0.46999998093E+01 0.  1.
       -5    1    3    3    0  502 -0.83524582872E+02  0.48520897925E+03 -0.25411110730E+04  0.25883724007E+04  0.46999998093E+01 0. -1.
</event>
<event>
 5   0  0.8063410E-09  0.3603969E+04  0.7818609E-02  0.8089583E-01
        1   -1    0    0  501    0  0.00000000000E+00  0.00000000000E+00  0.22001922223E+04  0.22001922223E+04  0.50400001928E-02 0. -1.
       -1   -1    0    0    0  501  0.00000000000E+00  0.00000000000E+00 -0.14758476486E+04  0.14758476486E+04  0.50400001928E-02 0.  1.
    10030    2    1    2    0    0  0.00000000000E+00  0.00000000000E+00  0.72434457373E+03  0.36760398710E+04  0.36039692107E+04 0.  0.
        2    1    3    3  502    0 -0.14311683587E+04 -0.87035966955E+03  0.10398220877E+04  0.19715473109E+04  0.25500000920E-02 0.  1.
       -2    1    3    3    0  502  0.14311683587E+04  0.87035966955E+03 -0.31547751392E+03  0.17044925600E+04  0.25500000920E-02 0. -1.
</event>
<event>
 5   0  0.2608070E-08  0.3594751E+04  0.7818609E-02  0.8091695E-01
        2   -1    0    0  501    0  0.00000000000E+00  0.00000000000E+00  0.22147145829E+04  0.22147145829E+04  0.25500000920E-02 0. -1.
       -2   -1    0    0    0  501  0.00000000000E+00  0.00000000000E+00 -0.14586792169E+04  0.14586792169E+04  0.25500000920E-02 0.  1.
    10030    2    1    2    0    0  0.00000000000E+00  0.00000000000E+00  0.75603536600E+03  0.36733937997E+04  0.35947506914E+04 0.  0.
        3    1    3    3  502    0 -0.53703524711E+03  0.78942642971E+03 -0.11781094572E+04  0.15164243628E+04  0.10100000352E+00 0.  1.
       -3    1    3    3    0  502  0.53703524711E+03 -0.78942642971E+03  0.19341448232E+04  0.21569694370E+04  0.10100000352E+00 0. -1.
</event>
<event>
 5   0  0.2476968E-08  0.3602719E+04  0.7818609E-02  0.8089869E-01
       -2   -1    0    0    0  501  0.00000000000E+00  0.00000000000E+00  0.17389532285E+04  0.17389532285E+04  0.25500000920E-02 0.  1.
        2   -1    0    0  501    0  0.00000000000E+00  0.00000000000E+00 -0.18660057266E+04  0.18660057266E+04  0.25500000920E-02 0. -1.
    10030    2    1    2    0    0  0.00000000000E+00  0.00000000000E+00 -0.12705249814E+03  0.36049589551E+04  0.36027193522E+04 0.  0.
        2    1    3    3  502    0 -0.57101029732E+03  0.11665856067E+04 -0.13124695976E+04  0.18464970030E+04  0.25500000920E-02 0. -1.
       -2    1    3    3    0  502  0.57101029732E+03 -0.11665856067E+04  0.11854170995E+04  0.17584619521E+04  0.25500000920E-02 0.  1.
</event>
<event>
 5   0  0.2494592E-08  0.3597075E+04  0.7818609E-02  0.8091162E-01
        2   -1    0    0  501    0  0.00000000000E+00  0.00000000000E+00  0.15681849747E+04  0.15681849747E+04  0.25500000920E-02 0.  1.
       -2   -1    0    0    0  501  0.00000000000E+00  0.00000000000E+00 -0.20627266597E+04  0.20627266597E+04  0.25500000920E-02 0. -1.
    10030    2    1    2    0    0  0.00000000000E+00  0.00000000000E+00 -0.49454168501E+03  0.36309116345E+04  0.35970748976E+04 0.  0.
        1    1    3    3  502    0 -0.12718697848E+04  0.45040081888E+03 -0.14476686517E+04  0.19789538076E+04  0.50400001928E-02 0. -1.
       -1    1    3    3    0  502  0.12718697848E+04 -0.45040081888E+03  0.95312696671E+03  0.16519578269E+04  0.50400001928E-02 0.  1.
</event>
<event>
 5   0  0.8063410E-09  0.3600633E+04  0.7818609E-02  0.8090347E-01
        1   -1    0    0  501    0  0.00000000000E+00  0.00000000000E+00  0.20038211886E+04  0.20038211886E+04  0.50400001928E-02 0. -1.
       -1   -1    0    0    0  501  0.00000000000E+00  0.00000000000E+00 -0.16174797475E+04  0.16174797475E+04  0.50400001928E-02 0.  1.
    10030    2    1    2    0    0  0.00000000000E+00  0.00000000000E+00  0.38634144113E+03  0.36213009361E+04  0.36006333832E+04 0.  0.
        2    1    3    3  502    0 -0.48371322607E+03 -0.65409633527E+03  0.18084153282E+04  0.19829741552E+04  0.25500000920E-02 0. -1.
       -2    1    3    3    0  502  0.48371322607E+03  0.65409633527E+03 -0.14220738870E+04  0.16383267809E+04  0.25500000920E-02 0.  1.
</event>
<event>
 5   0  0.2590795E-08  0.3600808E+04  0.7818609E-02  0.8090307E-01
       -2   -1    0    0    0  501  0.00000000000E+00  0.00000000000E+00  0.20502681253E+04  0.20502681253E+04  0.25500000920E-02 0.  1.
        2   -1    0    0  501    0  0.00000000000E+00  0.00000000000E+00 -0.15809907485E+04  0.15809907485E+04  0.25500000920E-02 0. -1.
    10030    2    1    2    0    0  0.00000000000E+00  0.00000000000E+00  0.46927737677E+03  0.36312588738E+04  0.36008082082E+04 0.  0.
        4    1    3    3  502    0  0.48182714634E+03 -0.68809825812E+03  0.18405300097E+04  0.20231631030E+04  0.12699999809E+01 0.  1.
       -4    1    3    3    0  502 -0.48182714634E+03  0.68809825812E+03 -0.13712526330E+04  0.16080957708E+04  0.12699999809E+01 0. -1.
</event>
<event>
 5   0  0.8024500E-09  0.3596051E+04  0.7818609E-02  0.8091397E-01
        1   -1    0    0  501    0  0.00000000000E+00  0.00000000000E+00  0.17438320953E+04  0.17438320953E+04  0.50400001928E-02 0.  1.
       -1   -1    0    0    0  501  0.00000000000E+00  0.00000000000E+00 -0.18539029460E+04  0.18539029460E+04  0.50400001928E-02 0. -1.
    10030    2    1    2    0    0  0.00000000000E+00  0.00000000000E+00 -0.11007085066E+03  0.35977350413E+04  0.35960508666E+04 0.  0.
        1    1    3    3  502    0 -0.15406932385E+04  0.78802794267E+03  0.43322158496E+03  0.17839295489E+04  0.50400001928E-02 0.  1.
       -1    1    3    3    0  502  0.15406932385E+04 -0.78802794267E+03 -0.54329243562E+03  0.18138054924E+04  0.50400001928E-02 0. -1.
</event>
<event>
 5   0  0.8146881E-09  0.3608728E+04  0.7818609E-02  0.8088495E-01
        1   -1    0    0  501    0  0.00000000000E+00  0.00000000000E+00  0.18927554831E+04  0.18927554832E+04  0.50400001928E-02 0. -1.
       -1   -1    0    0    0  501  0.00000000000E+00  0.00000000000E+00 -0.17200999293E+04  0.17200999293E+04  0.50400001928E-02 0.  1.
    10030    2    1    2    0    0  0.00000000000E+00  0.00000000000E+00  0.17265555383E+03  0.36128554125E+04  0.36087275169E+04 0.  0.
        4    1    3    3  502    0 -0.12337297504E+04 -0.90571398701E+03  0.10430987319E+04  0.18521510470E+04  0.12699999809E+01 0. -1.
       -4    1    3    3    0  502  0.12337297504E+04  0.90571398701E+03 -0.87044317810E+03  0.17607043655E+04  0.12699999809E+01 0.  1.
</event>
<event>
 5   0  0.2608070E-08  0.3598878E+04  0.7818609E-02  0.8090749E-01
       -2   -1    0    0    0  501  0.00000000000E+00  0.00000000000E+00  0.18596653302E+04  0.18596653302E+04  0.25500000920E-02 0. -1.
        2   -1    0    0  501    0  0.00000000000E+00  0.00000000000E+00 -0.17411627640E+04  0.17411627640E+04  0.25500000920E-02 0.  1.
    10030    2    1    2    0    0  0.00000000000E+00  0.00000000000E+00  0.11850256620E+03  0.36008280943E+04  0.35988776176E+04 0.  0.
        3    1    3    3  502    0  0.64598727833E+03  0.10781162953E+04  0.13477169343E+04  0.18428172061E+04  0.10100000352E+00 0. -1.
       -3    1    3    3    0  502 -0.64598727833E+03 -0.10781162953E+04 -0.12292143681E+04  0.17580108882E+04  0.10100000352E+00 0.  1.
</event>
<event>
 5   0  0.8024500E-09  0.3596799E+04  0.7818609E-02  0.8091225E-01
       -1   -1    0    0    0  501  0.00000000000E+00  0.00000000000E+00  0.13234012886E+04  0.13234012886E+04  0.50400001928E-02 0.  1.
        1   -1    0    0  501    0  0.00000000000E+00  0.00000000000E+00 -0.24438854954E+04  0.24438854955E+04  0.50400001928E-02 0. -1.
    10030    2    1    2    0    0  0.00000000000E+00  0.00000000000E+00 -0.11204842069E+04  0.37672867840E+04  0.35967992514E+04 0.  0.
        5    1    3    3  502    0  0.10161625061E+04 -0.28099733292E+03  0.96575626772E+03  0.14297737578E+04  0.46999998093E+01 0.  1.
       -5    1    3    3    0  502 -0.10161625061E+04  0.28099733292E+03 -0.20862404746E+04  0.23375130262E+04  0.46999998093E+01 0. -1.
</event>
<event>
 5   0  0.2608070E-08  0.3601546E+04  0.7818609E-02  0.8090138E-01
       -2   -1    0    0    0  501  0.00000000000E+00  0.00000000000E+00  0.16917820299E+04  0.16917820299E+04  0.25500000920E-02 0. -1.
        2   -1    0    0  501    0  0.00000000000E+00  0.00000000000E+00 -0.19167851843E+04  0.19167851843E+04  0.25500000920E-02 0.  1.
    10030    2    1    2    0    0  0.00000000000E+00  0.00000000000E+00 -0.22500315435E+03  0.36085672142E+04  0.36015456293E+04 0.  0.
        3    1    3    3  502    0 -0.71830406835E+03 -0.92525486893E+03  0.12579096267E+04  0.17188350550E+04  0.10100000352E+00 0. -1.
       -3    1    3    3    0  502  0.71830406835E+03  0.92525486893E+03 -0.14829127811E+04  0.18897321592E+04  0.10100000352E+00 0.  1.
</event>
<event>
 5   0  0.8146881E-09  0.3597800E+04  0.7818609E-02  0.8090996E-01
        1   -1    0    0  501    0  0.00000000000E+00  0.00000000000E+00  0.23397548447E+04  0.23397548447E+04  0.50400001928E-02 0.  1.
       -1   -1    0    0    0  501  0.00000000000E+00  0.00000000000E+00 -0.13830685691E+04  0.13830685691E+04  0.50400001928E-02 0. -1.
    10030    2    1    2    0    0  0.00000000000E+00  0.00000000000E+00  0.95668627552E+03  0.37228234138E+04  0.35978000974E+04 0.  0.
        4    1    3    3  502    0 -0.10042418375E+04 -0.14541765909E+04  0.82603843460E+03  0.19507619880E+04  0.12699999809E+01 0.  1.
       -4    1    3    3    0  502  0.10042418375E+04  0.14541765909E+04  0.13064784092E+03  0.17720614258E+04  0.12699999809E+01 0. -1.
</event>
<event>
 5   0  0.8024500E-09  0.3600974E+04  0.7818609E-02  0.8090269E-01
       -1   -1    0    0    0  501  0.00000000000E+00  0.00000000000E+00  0.14930878569E+04  0.14930878569E+04  0.50400001928E-02 0. -1.
        1   -1    0    0  501    0  0.00000000000E+00  0.00000000000E+00 -0.21711742999E+04  0.21711742999E+04  0.50400001928E-02 0.  1.
    10030    2    1    2    0    0  0.00000000000E+00  0.00000000000E+00 -0.67808644300E+03  0.36642621568E+04  0.36009743028E+04 0.  0.
        5    1    3    3  502    0 -0.15541423226E+04  0.88402890008E+03 -0.55458293782E+03  0.18720175694E+04  0.46999998093E+01 0.  1.
       -5    1    3    3    0  502  0.15541423226E+04 -0.88402890008E+03 -0.12350350517E+03  0.17922445874E+04  0.46999998093E+01 0. -1.
</event>
<event>
 5   0  0.2482243E-08  0.3601446E+04  0.7818609E-02  0.8090160E-01
       -2   -1    0    0    0  501  0.00000000000E+00  0.00000000000E+00  0.11723566567E+04  0.11723566567E+04  0.25500000920E-02 0.  1.
        2   -1    0    0  501    0  0.00000000000E+00  0.00000000000E+00 -0.27658850391E+04  0.27658850391E+04  0.25500000920E-02 0. -1.
    10030    2    1    2    0    0  0.00000000000E+00  0.00000000000E+00 -0.15935283824E+04  0.39382416958E+04  0.36014462302E+04 0.  0.
        5    1    3    3  502    0 -0.11467302319E+04  0.18515492520E+03 -0.23014166155E+04  0.25779474586E+04  0.46999998093E+01 0. -1.
       -5    1    3    3    0  502  0.11467302319E+04 -0.18515492520E+03  0.70788823308E+03  0.13602942372E+04  0.46999998093E+01 0.  1.
</event>
<event>
 5   0  0.8024500E-09  0.3600281E+04  0.7818609E-02  0.8090427E-01
        1   -1    0    0  501    0  0.00000000000E+00  0.00000000000E+00  0.21833716963E+04  0.21833716963E+04  0.50400001928E-02 0.  1.
       -1   -1    0    0    0  501  0.00000000000E+00  0.00000000000E+00 -0.14841749944E+04  0.14841749944E+04  0.50400001928E-02 0. -1.
    10030    2    1    2    0    0  0.00000000000E+00  0.00000000000E+00  0.69919670184E+03  0.36675466907E+04  0.36002809197E+04 0.  0.
        1    1    3    3  502    0 -0.39813086833E+03  0.14218849165E+04 -0.69931958818E+03  0.16338031677E+04  0.50400001928E-02 0. -1.
       -1    1    3    3    0  502  0.39813086833E+03 -0.14218849165E+04  0.13985162900E+04  0.20337435231E+04  0.50400001928E-02 0.  1.
</event>
<event>
 5   0  0.2482243E-08  0.3599479E+04  0.7818609E-02  0.8090611E-01
       -2   -1    0    0    0  501  0.00000000000E+00  0.00000000000E+00  0.16728484937E+04  0.16728484937E+04  0.25500000920E-02 0.  1.
        2   -1    0    0  501    0  0.00000000000E+00  0.00000000000E+00 -0.19362555994E+04  0.19362555994E+04  0.25500000920E-02 0. -1.
    10030    2    1    2    0    0  0.00000000000E+00  0.00000000000E+00 -0.26340710570E+03  0.36091040931E+04  0.35994789973E+04 0.  0.
        5    1    3    3  502    0 -0.12714655194E+04 -0.24020502839E+03 -0.13859350002E+04  0.18960909623E+04  0.46999998093E+01 0. -1.
       -5    1    3    3    0  502  0.12714655194E+04  0.24020502839E+03  0.11225278945E+04  0.17130131308E+04  0.46999998093E+01 0.  1.
</event>
<event>
 5   0  0.8063410E-09  0.3599425E+04  0.7818609E-02  0.8090623E-01
       -1   -1    0    0    0  501  0.00000000000E+00  0.00000000000E+00  0.19024961021E+04  0.19024961021E+04  0.50400001928E-02 0.  1.
        1   -1    0    0  501    0  0.00000000000E+00  0.00000000000E+00 -0.17024818260E+04  0.17024818260E+04  0.50400001928E-02 0. -1.
    10030    2    1    2    0    0  0.00000000000E+00  0.00000000000E+00  0.20001427607E+03  0.36049779281E+04  0.35994249751E+04 0.  0.
        2    1    3    3  502    0 -0.10149359528E+04  0.14853808407E+04  0.15022237356E+03  0.18052750460E+04  0.25500000920E-02 0. -1.
       -2    1    3    3    0  502  0.10149359528E+04 -0.14853808407E+04  0.49791902518E+02  0.17997028821E+04  0.25500000920E-02 0.  1.
</event>
<event>
 5   0  0.8247570E-09  0.3593822E+04  0.7818609E-02  0.8091908E-01
       -1   -1    0    0    0  501  0.00000000000E+00  0.00000000000E+00  0.20269117576E+04  0.20269117576E+04  0.50400001928E-02 0. -1.
        1   -1    0    0  501    0  0.00000000000E+00  0.00000000000E+00 -0.15930093088E+04  0.15930093088E+04  0.50400001928E-02 0.  1.
    10030    2    1    2    0    0  0.00000000000E+00  0.00000000000E+00  0.43390244882E+03  0.36199210664E+04  0.35938220869E+04 0.  0.
        3    1    3    3  502    0 -0.10936055094E+04 -0.13626215837E+04  0.63973588732E+03  0.18606376881E+04  0.10100000352E+00 0. -1.
       -3    1    3    3    0  502  0.10936055094E+04  0.13626215837E+04 -0.20583343850E+03  0.17592833783E+04  0.10100000352E+00 0.  1.
</event>
<event>
 5   0  0.8024500E-09  0.3599701E+04  0.7818609E-02  0.8090560E-01
       -1   -1    0    0    0  501  0.00000000000E+00  0.00000000000E+00  0.29805110490E+04  0.29805110490E+04  0.50400001928E-02 0.  1.
        1   -1    0    0  501    0  0.00000000000E+00  0.00000000000E+00 -0.10868815887E+04  0.10868815888E+04  0.50400001928E-02 0. -1.
    10030    2    1    2    0    0  0.00000000000E+00  0.00000000000E+00  0.18936294603E+04  0.40673926378E+04  0.35997014233E+04 0.  0.
        5    1    3    3  502    0 -0.18822237409E+02 -0.95802998552E+03  0.26683342760E+04  0.28351729450E+04  0.46999998093E+01 0.  1.
       -5    1    3    3    0  502  0.18822237409E+02  0.95802998552E+03 -0.77470481570E+03  0.12322196928E+04  0.46999998093E+01 0. -1.
</event>
<event>
 5   0  0.2476968E-08  0.3599304E+04  0.7818609E-02  0.8090651E-01
        2   -1    0    0  501    0  0.00000000000E+00  0.00000000000E+00  0.14345339688E+04  0.14345339688E+04  0.25500000920E-02 0.  1.
       -2   -1    0    0    0  501  0.00000000000E+00  0.00000000000E+00 -0.22577004144E+04  0.22577004144E+04  0.25500000920E-02 0. -1.
    10030    2    1    2    0    0  0.00000000000E+00  0.00000000000E+00 -0.82316644561E+03  0.36922343833E+04  0.35993043417E+04 0.  0.
        2    1    3    3  502    0  0.35026234044E+03  0.11464999452E+04 -0.17884760333E+04  0.21530890258E+04  0.25500000920E-02 0. -1.
       -2    1    3    3    0  502 -0.35026234044E+03 -0.11464999452E+04  0.96530958764E+03  0.15391453575E+04  0.25500000920E-02 0.  1.
</event>
<event>
 5   0  0.2494592E-08  0.3599930E+04  0.7818609E-02  0.8090508E-01
        2   -1    0    0  501    0  0.00000000000E+00  0.00000000000E+00  0.25235076458E+04  0.25235076458E+04  0.25500000920E-02 0. -1.
       -2   -1    0    0    0  501  0.00000000000E+00  0.00000000000E+00 -0.12838773286E+04  0.12838773286E+04  0.25500000920E-02 0.  1.
    10030    2    1    2    0    0  0.00000000000E+00  0.00000000000E+00  0.12396303172E+04  0.38073849744E+04  0.35999301410E+04 0.  0.
        1    1    3    3  502    0  0.17816204631E+04  0.73860325548E+02  0.36021677064E+03  0.18191709497E+04  0.50400001928E-02 0.  1.
       -1    1    3    3    0  502 -0.17816204631E+04 -0.73860325548E+02  0.87941354652E+03  0.19882140247E+04  0.50400001928E-02 0. -1.
</event>
<event>
 5   0  0.8024500E-09  0.3600292E+04  0.7818609E-02  0.8090425E-01
        1   -1    0    0  501    0  0.00000000000E+00  0.00000000000E+00  0.15481817655E+04  0.15481817655E+04  0.50400001928E-02 0.  1.
       -1   -1    0    0    0  501  0.00000000000E+00  0.00000000000E+00 -0.20931171061E+04  0.20931171061E+04  0.50400001928E-02 0. -1.
    10030    2    1    2    0    0  0.00000000000E+00  0.00000000000E+00 -0.54493534059E+03  0.36412988716E+04  0.36002920641E+04 0.  0.
        1    1    3    3  502    0  0.33163245071E+03 -0.16541128622E+04  0.36274337058E+03  0.17255874930E+04  0.50400001928E-02 0.  1.
       -1    1    3    3    0  502 -0.33163245071E+03  0.16541128622E+04 -0.90767871117E+03  0.19157113785E+04  0.50400001928E-02 0. -1.
</event>
<event>
 5   0  0.8247570E-09  0.3598097E+04  0.7818609E-02  0.8090928E-01
       -1   -1    0    0    0  501  0.00000000000E+00  0.00000000000E+00  0.17219684067E+04  0.17219684067E+04  0.50400001928E-02 0.  1.
        1   -1    0    0  501    0  0.00000000000E+00  0.00000000000E+00 -0.18795784247E+04  0.18795784247E+04  0.50400001928E-02 0. -1.
    10030    2    1    2    0    0  0.00000000000E+00  0.00000000000E+00 -0.15761001801E+03  0.36015468314E+04  0.35980965330E+04 0.  0.
        3    1    3    3  502    0  0.63426483184E+03 -0.11970359322E+04 -0.12637424294E+04  0.18526283594E+04  0.10100000352E+00 0. -1.
       -3    1    3    3    0  502 -0.63426483184E+03  0.11970359322E+04  0.11061324114E+04  0.17489184720E+04  0.10100000352E+00 0.  1.
</event>
<event>
 5   0  0.8247570E-09  0.3599566E+04  0.7818609E-02  0.8090591E-01
        1   -1    0    0  501    0  0.00000000000E+00  0.00000000000E+00  0.22174677396E+04  0.22174677397E+04  0.50400001928E-02 0. -1.
       -1   -1    0    0    0  501  0.00000000000E+00  0.00000000000E+00 -0.14607737659E+04  0.14607737659E+04  0.50400001928E-02 0.  1.
    10030    2    1    2    0    0  0.00000000000E+00  0.00000000000E+00  0.75669397372E+03  0.36782415056E+04  0.35995659188E+04 0.  0.
        3    1    3    3  502    0  0.17692676331E+04  0.32727825707E+03  0.33499717385E+03  0.18302027570E+04  0.10100000352E+00 0. -1.
       -3    1    3    3    0  502 -0.17692676331E+04 -0.32727825707E+03  0.42169679987E+03  0.18480387486E+04  0.10100000352E+00 0.  1.
</event>
<event>
 5   0  0.8146881E-09  0.3598549E+04  0.7818609E-02  0.8090824E-01
       -1   -1    0    0    0  501  0.00000000000E+00  0.00000000000E+00  0.19124414548E+04  0.19124414548E+04  0.50400001928E-02 0. -1.
        1   -1    0    0  501    0  0.00000000000E+00  0.00000000000E+00 -0.16928041340E+04  0.16928041340E+04  0.50400001928E-02 0.  1.
    10030    2    1    2    0    0  0.00000000000E+00  0.00000000000E+00  0.21963732086E+03  0.36052455888E+04  0.35985490413E+04 0.  0.
        4    1    3    3  502    0 -0.92262582203E+03 -0.62780706836E+03 -0.13041925926E+04  0.17164789699E+04  0.12699999809E+01 0.  1.
       -4    1    3    3    0  502  0.92262582203E+03  0.62780706836E+03  0.15238299135E+04  0.18887666189E+04  0.12699999809E+01 0. -1.
</event>
<event>
 5   0  0.2494592E-08  0.3598746E+04  0.7818609E-02  0.8090779E-01
       -2   -1    0    0    0  501  0.00000000000E+00  0.00000000000E+00  0.13377052802E+04  0.13377052802E+04  0.25500000920E-02 0. -1.
        2   -1    0    0  501    0  0.00000000000E+00  0.00000000000E+00 -0.24203707336E+04  0.24203707336E+04  0.25500000920E-02 0.  1.
    10030    2    1    2    0    0  0.00000000000E+00  0.00000000000E+00 -0.10826654534E+04  0.37580760139E+04  0.35987457318E+04 0.  0.
        1    1    3    3  502    0  0.66072518734E+03  0.10702627433E+03 -0.22855296186E+04  0.23815243089E+04  0.50400001928E-02 0.  1.
       -1    1    3    3    0  502 -0.66072518734E+03 -0.10702627433E+03  0.12028641651E+04  0.13765517049E+04  0.50400001928E-02 0. -1.
</event>
<event>
 5   0  0.2608070E-08  0.3600115E+04  0.7818609E-02  0.8090465E-01
       -2   -1    0    0    0  501  0.00000000000E+00  0.00000000000E+00  0.16947373603E+04  0.16947373603E+04  0.25500000920E-02 0.  1.
        2   -1    0    0  501    0  0.00000000000E+00  0.00000000000E+00 -0.19119230611E+04  0.19119230611E+04  0.25500000920E-02 0. -1.
    10030    2    1    2    0    0  0.00000000000E+00  0.00000000000E+00 -0.21718570072E+03  0.36066604214E+04  0.36001152435E+04 0.  0.
        3    1    3    3  502    0  0.11989162875E+04  0.12988108312E+04  0.23246343468E+03  0.17827925000E+04  0.10100000352E+00 0.  1.
       -3    1    3    3    0  502 -0.11989162875E+04 -0.12988108312E+04 -0.44964913540E+03  0.18238679214E+04  0.10100000352E+00 0. -1.
</event>
<event>
 5   0  0.8247570E-09  0.3598952E+04  0.7818609E-02  0.8090732E-01
       -1   -1    0    0    0  501  0.00000000000E+00  0.00000000000E+00  0.26263778515E+04  0.26263778515E+04  0.50400001928E-02 0. -1.
        1   -1    0    0  501    0  0.00000000000E+00  0.00000000000E+00 -0.12329199254E+04  0.12329199254E+04  0.50400001928E-02 0.  1.
    10030    2    1    2    0    0  0.00000000000E+00  0.00000000000E+00  0.13934579261E+04  0.38592977769E+04  0.35989518390E+04 0.  0.
        3    1    3    3  502    0  0.16484941501E+03 -0.13731461116E+04 -0.53781638780E+03  0.14838975877E+04  0.10100000352E+00 0.  1.
       -3    1    3    3    0  502 -0.16484941501E+03  0.13731461116E+04  0.19312743139E+04  0.23754001893E+04  0.10100000352E+00 0. -1.
</event>
<event>
 5   0  0.2590795E-08  0.3598535E+04  0.7818609E-02  0.8090827E-01
       -2   -1    0    0    0  501  0.00000000000E+00  0.00000000000E+00  0.15463405672E+04  0.15463405672E+04  0.25500000920E-02 0. -1.
        2   -1    0    0  501    0  0.00000000000E+00  0.00000000000E+00 -0.20935649354E+04  0.20935649354E+04  0.25500000920E-02 0.  1.
    10030    2    1    2    0    0  0.00000000000E+00  0.00000000000E+00 -0.54722436816E+03  0.36399055026E+04  0.35985354741E+04 0.  0.
        4    1    3    3  502    0  0.49201533895E+03  0.53587372787E+03  0.13909442196E+04  0.15697028957E+04  0.12699999809E+01 0. -1.
       -4    1    3    3    0  502 -0.49201533895E+03 -0.53587372787E+03 -0.19381685877E+04  0.20702026068E+04  0.12699999809E+01 0.  1.
</event>
<event>
 5   0  0.8247570E-09  0.3599400E+04  0.7818609E-02  0.8090629E-01
        1   -1    0    0  501    0  0.00000000000E+00  0.00000000000E+00  0.15974226042E+04  0.15974226042E+04  0.50400001928E-02 0.  1.
       -1   -1    0    0    0  501  0.00000000000E+00  0.00000000000E+00 -0.20275915571E+04  0.20275915571E+04  0.50400001928E-02 0. -1.
    10030    2    1    2    0    0  0.00000000000E+00  0.00000000000E+00 -0.43016895291E+03  0.36250141613E+04  0.35994002753E+04 0.  0.
        3    1    3    3  502    0 -0.11363248954E+04 -0.13797911557E+04 -0.42600901797E+03  0.18375368282E+04  0.10100000352E+00 0. -1.
       -3    1    3    3    0  502  0.11363248954E+04  0.13797911557E+04 -0.41599349310E+01  0.17874773332E+04  0.10100000352E+00 0.  1.
</event>
<event>
 5   0  0.8247570E-09  0.3598814E+04  0.7818609E-02  0.8090763E-01
       -1   -1    0    0    0  501  0.00000000000E+00  0.00000000000E+00  0.19035313889E+04  0.19035313890E+04  0.50400001928E-02 0.  1.
        1   -1    0    0  501    0  0.00000000000E+00  0.00000000000E+00 -0.17009783527E+04  0.17009783527E+04  0.50400001928E-02 0. -1.
    10030    2    1    2    0    0  0.00000000000E+00  0.00000000000E+00  0.20255303625E+03  0.36045097417E+04  0.35988140748E+04 0.  0.
        3    1    3    3  502    0 -0.12552274099E+04  0.63224885182E+03  0.12266789661E+04  0.18654961156E+04  0.10100000352E+00 0.  1.
       -3    1    3    3    0  502  0.12552274099E+04 -0.63224885182E+03 -0.10241259298E+04  0.17390136261E+04  0.10100000352E+00 0. -1.
</event>
<event>
 5   0  0.2482243E-08  0.3594460E+04  0.7818609E-02  0.8091762E-01
        2   -1    0    0  501    0  0.00000000000E+00  0.00000000000E+00  0.21416041388E+04  0.21416041388E+04  0.25500000920E-02 0. -1.
       -2   -1    0    0    0  501  0.00000000000E+00  0.00000000000E+00 -0.15082321913E+04  0.15082321913E+04  0.25500000920E-02 0.  1.
    10030    2    1    2    0    0  0.00000000000E+00  0.00000000000E+00  0.63337194753E+03  0.36498363301E+04  0.35944603507E+04 0.  0.
        5    1    3    3  502    0  0.76462348450E+02 -0.23098873289E+03  0.21247963312E+04  0.21386874070E+04  0.46999998093E+01 0. -1.
       -5    1    3    3    0  502 -0.76462348450E+02  0.23098873289E+03 -0.14914243837E+04  0.15111489231E+04  0.46999998093E+01 0.  1.
</event>
<event>
 5   0  0.8146881E-09  0.3602938E+04  0.7818609E-02  0.8089819E-01
        1   -1    0    0  501    0  0.00000000000E+00  0.00000000000E+00  0.14873480068E+04  0.14873480068E+04  0.50400001928E-02 0. -1.
       -1   -1    0    0    0  501  0.00000000000E+00  0.00000000000E+00 -0.21819314864E+04  0.21819314864E+04  0.50400001928E-02 0.  1.
    10030    2    1    2    0    0  0.00000000000E+00  0.00000000000E+00 -0.69458347960E+03  0.36692794931E+04  0.36029384936E+04 0.  0.
        4    1    3    3  502    0  0.31503252049E+03 -0.44519956371E+03 -0.20958335606E+04  0.21656334102E+04  0.12699999809E+01 0.  1.
       -4    1    3    3    0  502 -0.31503252049E+03  0.44519956371E+03  0.14012500810E+04  0.15036460830E+04  0.12699999809E+01 0. -1.
</event>
<event>
 5   0  0.8247570E-09  0.3601772E+04  0.7818609E-02  0.8090086E-01
        1   -1    0    0  501    0  0.00000000000E+00  0.00000000000E+00  0.23690121132E+04  0.23690121132E+04  0.50400001928E-02 0. -1.
       -1   -1    0    0    0  501  0.00000000000E+00  0.00000000000E+00 -0.13690052332E+04  0.13690052332E+04  0.50400001928E-02 0.  1.
    10030    2    1    2    0    0  0.00000000000E+00  0.00000000000E+00  0.10000068799E+04  0.37380173464E+04  0.36017717754E+04 0.  0.
        3    1    3    3  502    0 -0.17337710769E+04 -0.16170117207E+03  0.97681769947E+03  0.19965676158E+04  0.10100000352E+00 0. -1.
       -3    1    3    3    0  502  0.17337710769E+04  0.16170117207E+03  0.23189180469E+02  0.17414497307E+04  0.10100000352E+00 0.  1.
</event>
<event>
 5   0  0.2476968E-08  0.3601005E+04  0.7818609E-02  0.8090262E-01
        2   -1    0    0  501    0  0.00000000000E+00  0.00000000000E+00  0.21934694736E+04  0.21934694736E+04  0.25500000920E-02 0.  1.
       -2   -1    0    0    0  501  0.00000000000E+00  0.00000000000E+00 -0.14779364007E+04  0.14779364007E+04  0.25500000920E-02 0. -1.
    10030    2    1    2    0    0  0.00000000000E+00  0.00000000000E+00  0.71553307281E+03  0.36714058743E+04  0.36010045148E+04 0.  0.
        2    1    3    3  502    0 -0.14539261156E+04 -0.68146183277E+03  0.11882572100E+04  0.19975601559E+04  0.25500000920E-02 0.  1.
       -2    1    3    3    0  502  0.14539261156E+04  0.68146183277E+03 -0.47272413723E+03  0.16738457184E+04  0.25500000920E-02 0. -1.
</event>
<event>
 5   0  0.8024500E-09  0.3600693E+04  0.7818609E-02  0.8090333E-01
       -1   -1    0    0    0  501  0.00000000000E+00  0.00000000000E+00  0.18327726416E+04  0.18327726416E+04  0.50400001928E-02 0. -1.
        1   -1    0    0  501    0  0.00000000000E+00  0.00000000000E+00 -0.17684943265E+04  0.17684943265E+04  0.50400001928E-02 0.  1.
    10030    2    1    2    0    0  0.00000000000E+00  0.00000000000E+00  0.64278315049E+02  0.36012669681E+04  0.36006932769E+04 0.  0.
        1    1    3    3  502    0 -0.65890624221E+03  0.23446546513E+03 -0.16270755894E+04  0.17710184821E+04  0.50400001928E-02 0.  1.
       -1    1    3    3    0  502  0.65890624221E+03 -0.23446546513E+03  0.16913539045E+04  0.18302484860E+04  0.50400001928E-02 0. -1.
</event>
<event>
 5   0  0.2494592E-08  0.3600939E+04  0.7818609E-02  0.8090277E-01
        2   -1    0    0  501    0  0.00000000000E+00  0.00000000000E+00  0.21674452727E+04  0.21674452727E+04  0.25500000920E-02 0.  1.
       -2   -1    0    0    0  501  0.00000000000E+00  0.00000000000E+00 -0.14956273799E+04  0.14956273800E+04  0.25500000920E-02 0. -1.
    10030    2    1    2    0    0  0.00000000000E+00  0.00000000000E+00  0.67181789278E+03  0.36630726527E+04  0.36009390411E+04 0.  0.
        1    1    3    3  502    0  0.14539632930E+04 -0.10347019868E+04  0.57893075485E+03  0.18761072139E+04  0.50400001928E-02 0.  1.
       -1    1    3    3    0  502 -0.14539632930E+04  0.10347019868E+04  0.92887137935E+02  0.17869654388E+04  0.50400001928E-02 0. -1.
</event>
<event>
 5   0  0.8063410E-09  0.3600601E+04  0.7818609E-02  0.8090354E-01
       -1   -1    0    0    0  501  0.00000000000E+00  0.00000000000E+00  0.20035565267E+04  0.20035565267E+04  0.50400001928E-02 0.  1.
        1   -1    0    0  501    0  0.00000000000E+00  0.00000000000E+00 -0.16176642439E+04  0.16176642439E+04  0.50400001928E-02 0. -1.
    10030    2    1    2    0    0  0.00000000000E+00  0.00000000000E+00  0.38589228279E+03  0.36212207706E+04  0.36006009242E+04 0.  0.
        2    1    3    3  502    0  0.97518318737E+03 -0.13532552619E+04  0.87417270938E+03  0.18832047097E+04  0.25500000920E-02 0.  1.
       -2    1    3    3    0  502 -0.97518318737E+03  0.13532552619E+04 -0.48828042659E+03  0.17380160609E+04  0.25500000920E-02 0. -1.
</event>
<event>
 5   0  0.8146881E-09  0.3600587E+04  0.7818609E-02  0.8090357E-01
        1   -1    0    0  501    0  0.00000000000E+00  0.00000000000E+00  0.21328211937E+04  0.21328211937E+04  0.50400001928E-02 0.  1.
       -1   -1    0    0    0  501  0.00000000000E+00  0.00000000000E+00 -0.15196098923E+04  0.15196098923E+04  0.50400001928E-02 0. -1.
    10030    2    1    2    0    0  0.00000000000E+00  0.00000000000E+00  0.61321130138E+03  0.36524310860E+04  0.36005867213E+04 0.  0.
        4    1    3    3  502    0 -0.14445209544E+04 -0.76352060685E+03 -0.46022223720E+03  0.16974718334E+04  0.12699999809E+01 0.  1.
       -4    1    3    3    0  502  0.14445209544E+04  0.76352060685E+03  0.10734335386E+04  0.19549592526E+04  0.12699999809E+01 0. -1.
</event>
<event>
 5   0  0.2608070E-08  0.3594133E+04  0.7818609E-02  0.8091837E-01
        2   -1    0    0  501    0  0.00000000000E+00  0.00000000000E+00  0.17120648981E+04  0.17120648981E+04  0.25500000920E-02 0.  1.
       -2   -1    0    0    0  501  0.00000000000E+00  0.00000000000E+00 -0.18862880791E+04  0.18862880792E+04  0.25500000920E-02 0. -1.
    10030    2    1    2    0    0  0.00000000000E+00  0.00000000000E+00 -0.17422318101E+03  0.35983529773E+04  0.35941327789E+04 0.  0.
        3    1    3    3  502    0 -0.80063383552E+03 -0.12294043962E+04  0.95189205590E+03  0.17488705510E+04  0.10100000352E+00 0.  1.
       -3    1    3    3    0  502  0.80063383552E+03  0.12294043962E+04 -0.11261152369E+04  0.18494824263E+04  0.10100000352E+00 0. -1.
</event>
<event>
 5   0  0.8247570E-09  0.3602730E+04  0.7818609E-02  0.8089867E-01
        1   -1    0    0  501    0  0.00000000000E+00  0.00000000000E+00  0.18437698317E+04  0.18437698318E+04  0.50400001928E-02 0. -1.
       -1   -1    0    0    0  501  0.00000000000E+00  0.00000000000E+00 -0.17599358027E+04  0.17599358027E+04  0.50400001928E-02 0.  1.
    10030    2    1    2    0    0  0.00000000000E+00  0.00000000000E+00  0.83834029092E+02  0.36037056344E+04  0.36027303750E+04 0.  0.
        3    1    3    3  502    0 -0.12395070094E+04 -0.11378549148E+04  0.68538354069E+03  0.18168219620E+04  0.10100000352E+00 0. -1.
       -3    1    3    3    0  502  0.12395070094E+04  0.11378549148E+04 -0.60154951160E+03  0.17868836724E+04  0.10100000352E+00 0.  1.
</event>
<event>
 5   0  0.2476968E-08  0.3598354E+04  0.7818609E-02  0.8090869E-01
       -2   -1    0    0    0  501  0.00000000000E+00  0.00000000000E+00  0.19392466811E+04  0.19392466811E+04  0.25500000920E-02 0. -1.
        2   -1    0    0  501    0  0.00000000000E+00  0.00000000000E+00 -0.16692242254E+04  0.16692242254E+04  0.25500000920E-02 0.  1.
    10030    2    1    2    0    0  0.00000000000E+00  0.00000000000E+00  0.27002245570E+03  0.36084709065E+04  0.35983538120E+04 0.  0.
        2    1    3    3  502    0  0.13721795371E+04 -0.10011522979E+04 -0.45983014451E+03  0.17597233781E+04  0.25500000920E-02 0.  1.
       -2    1    3    3    0  502 -0.13721795371E+04  0.10011522979E+04  0.72985260020E+03  0.18487475284E+04  0.25500000920E-02 0. -1.
</event>
<event>
 5   0  0.2608070E-08  0.3598806E+04  0.7818609E-02  0.8090765E-01
        2   -1    0    0  501    0  0.00000000000E+00  0.00000000000E+00  0.24470151258E+04  0.24470151258E+04  0.25500000920E-02 0.  1.
       -2   -1    0    0    0  501  0.00000000000E+00  0.00000000000E+00 -0.13231843127E+04  0.13231843127E+04  0.25500000920E-02 0. -1.
    10030    2    1    2    0    0  0.00000000000E+00  0.00000000000E+00  0.11238308131E+04  0.37701994384E+04  0.35988064840E+04 0.  0.
        3    1    3    3  502    0  0.86045304772E+03  0.43847167694E+03  0.21525175504E+04  0.23592305258E+04  0.10100000352E+00 0.  1.
       -3    1    3    3    0  502 -0.86045304772E+03 -0.43847167694E+03 -0.10286867373E+04  0.14109689127E+04  0.10100000352E+00 0. -1.
</event>
<event>
 5   0  0.2476968E-08  0.3599423E+04  0.7818609E-02  0.8090624E-01
       -2   -1    0    0    0  501  0.00000000000E+00  0.00000000000E+00  0.17001521171E+04  0.17001521171E+04  0.25500000920E-02 0.  1.
        2   -1    0    0  501    0  0.00000000000E+00  0.00000000000E+00 -0.19051007189E+04  0.19051007189E+04  0.25500000920E-02 0. -1.
    10030    2    1    2    0    0  0.00000000000E+00  0.00000000000E+00 -0.20494860180E+03  0.36052528360E+04  0.35994227429E+04 0.  0.
        2    1    3    3  502    0 -0.26114200970E+03 -0.10539465699E+04 -0.15400559750E+04  0.18843489400E+04  0.25500000920E-02 0. -1.
       -2    1    3    3    0  502  0.26114200970E+03  0.10539465699E+04  0.13351073732E+04  0.17209038961E+04  0.25500000920E-02 0.  1.
</event>
<event>
 5   0  0.2476968E-08  0.3599907E+04  0.7818609E-02  0.8090513E-01
       -2   -1    0    0    0  501  0.00000000000E+00  0.00000000000E+00  0.14833008351E+04  0.14833008351E+04  0.25500000920E-02 0.  1.
        2   -1    0    0  501    0  0.00000000000E+00  0.00000000000E+00 -0.21842050789E+04  0.21842050789E+04  0.25500000920E-02 0. -1.
    10030    2    1    2    0    0  0.00000000000E+00  0.00000000000E+00 -0.70090424374E+03  0.36675059140E+04  0.35999073419E+04 0.  0.
        2    1    3    3  502    0 -0.17692692591E+04 -0.17869823456E+03 -0.66678232069E+02  0.17795203727E+04  0.25500000920E-02 0.  1.
       -2    1    3    3    0  502  0.17692692591E+04  0.17869823456E+03 -0.63422601167E+03  0.18879855413E+04  0.25500000920E-02 0. -1.
</event>
<event>
 5   0  0.8024500E-09  0.3591843E+04  0.7818609E-02  0.8092363E-01
        1   -1    0    0  501    0  0.00000000000E+00  0.00000000000E+00  0.18110996758E+04  0.18110996758E+04  0.50400001928E-02 0.  1.
       -1   -1    0    0    0  501  0.00000000000E+00  0.00000000000E+00 -0.17808700753E+04  0.17808700753E+04  0.50400001928E-02 0. -1.
    10030    2    1    2    0    0  0.00000000000E+00  0.00000000000E+00  0.30229600456E+02  0.35919697511E+04  0.35918425445E+04 0.  0.
        5    1    3    3  502    0 -0.58966325968E+02  0.18107008199E+02  0.18100338571E+04  0.18110907060E+04  0.46999998093E+01 0.  1.
       -5    1    3    3    0  502  0.58966325968E+02 -0.18107008199E+02 -0.17798042567E+04  0.17808790452E+04  0.46999998093E+01 0. -1.
</event>
<event>
 5   0  0.8024500E-09  0.3600711E+04  0.7818609E-02  0.8090329E-01
       -1   -1    0    0    0  501  0.00000000000E+00  0.00000000000E+00  0.17455664407E+04  0.17455664407E+04  0.50400001928E-02 0.  1.
        1   -1    0    0  501    0  0.00000000000E+00  0.00000000000E+00 -0.18568646288E+04  0.18568646288E+04  0.50400001928E-02 0. -1.
    10030    2    1    2    0    0  0.00000000000E+00  0.00000000000E+00 -0.11129818810E+03  0.36024310695E+04  0.36007113636E+04 0.  0.
        1    1    3    3  502    0  0.20950206320E+03  0.10272035811E+04  0.14086900180E+04  0.17559743388E+04  0.50400001928E-02 0.  1.
       -1    1    3    3    0  502 -0.20950206320E+03 -0.10272035811E+04 -0.15199882061E+04  0.18464567307E+04  0.50400001928E-02 0. -1.
</event>
<event>
 5   0  0.2476968E-08  0.3609778E+04  0.7818609E-02  0.8088256E-01
       -2   -1    0    0    0  501  0.00000000000E+00  0.00000000000E+00  0.14854567395E+04  0.14854567396E+04  0.25500000920E-02 0. -1.
        2   -1    0    0  501    0  0.00000000000E+00  0.00000000000E+00 -0.21930116658E+04  0.21930116658E+04  0.25500000920E-02 0.  1.
    10030    2    1    2    0    0  0.00000000000E+00  0.00000000000E+00 -0.70755492628E+03  0.36784684054E+04  0.36097778097E+04 0.  0.
        2    1    3    3  502    0  0.88087553386E+01  0.14742246965E+04  0.70728962719E+03  0.16351375070E+04  0.25500000920E-02 0. -1.
       -2    1    3    3    0  502 -0.88087553386E+01 -0.14742246965E+04 -0.14148445535E+04  0.20433308984E+04  0.25500000920E-02 0.  1.
</event>
<event>
 5   0  0.2476968E-08  0.3598212E+04  0.7818609E-02  0.8090901E-01
       -2   -1    0    0    0  501  0.00000000000E+00  0.00000000000E+00  0.16655695565E+04  0.16655695565E+04  0.25500000920E-02 0.  1.
        2   -1    0    0  501    0  0.00000000000E+00  0.00000000000E+00 -0.19433482167E+04  0.19433482167E+04  0.25500000920E-02 0. -1.
    10030    2    1    2    0    0  0.00000000000E+00  0.00000000000E+00 -0.27777866023E+03  0.36089177733E+04  0.35982115711E+04 0.  0.
        2    1    3    3  502    0 -0.37886433066E+03 -0.12252894828E+04 -0.14043522611E+04  0.19018616593E+04  0.25500000920E-02 0. -1.
       -2    1    3    3    0  502  0.37886433066E+03  0.12252894828E+04  0.11265736009E+04  0.17070561139E+04  0.25500000920E-02 0.  1.
</event>
<event>
 5   0  0.2608070E-08  0.3599799E+04  0.7818609E-02  0.8090538E-01
        2   -1    0    0  501    0  0.00000000000E+00  0.00000000000E+00  0.17918681207E+04  0.17918681207E+04  0.25500000920E-02 0.  1.
       -2   -1    0    0    0  501  0.00000000000E+00  0.00000000000E+00 -0.18079672255E+04  0.18079672255E+04  0.25500000920E-02 0. -1.
    10030    2    1    2    0    0  0.00000000000E+00  0.00000000000E+00 -0.16099104751E+02  0.35998353462E+04  0.35997993470E+04 0.  0.
        3    1    3    3  502    0 -0.93761876352E+03  0.15306275092E+04 -0.14105203605E+03  0.18005124839E+04  0.10100000352E+00 0. -1.
       -3    1    3    3    0  502  0.93761876352E+03 -0.15306275092E+04  0.12495293130E+03  0.17993228623E+04  0.10100000352E+00 0.  1.
</event>
<event>
 5   0  0.8063410E-09  0.3598703E+04  0.7818609E-02  0.8090789E-01
       -1   -1    0    0    0  501  0.00000000000E+00  0.00000000000E+00  0.18974704695E+04  0.18974704695E+04  0.50400001928E-02 0.  1.
        1   -1    0    0  501    0  0.00000000000E+00  0.00000000000E+00 -0.17063061967E+04  0.17063061967E+04  0.50400001928E-02 0. -1.
    10030    2    1    2    0    0  0.00000000000E+00  0.00000000000E+00  0.19116427277E+03  0.36037766662E+04  0.35987028886E+04 0.  0.
        2    1    3    3  502    0  0.11547166828E+04  0.11772783279E+03  0.14724516042E+04  0.18749251150E+04  0.25500000920E-02 0.  1.
       -2    1    3    3    0  502 -0.11547166828E+04 -0.11772783279E+03 -0.12812873314E+04  0.17288515511E+04  0.25500000920E-02 0. -1.
</event>
<event>
 5   0  0.8024500E-09  0.3597216E+04  0.7818609E-02  0.8091130E-01
       -1   -1    0    0    0  501  0.00000000000E+00  0.00000000000E+00  0.19099238455E+04  0.19099238455E+04  0.50400001928E-02 0. -1.
        1   -1    0    0  501    0  0.00000000000E+00  0.00000000000E+00 -0.16937796059E+04  0.16937796059E+04  0.50400001928E-02 0.  1.
    10030    2    1    2    0    0  0.00000000000E+00  0.00000000000E+00  0.21614423956E+03  0.36037034514E+04  0.35972156223E+04 0.  0.
        1    1    3    3  502    0  0.39172588777E+03  0.16002763941E+04  0.83093872110E+03  0.18452080823E+04  0.50400001928E-02 0. -1.
       -1    1    3    3    0  502 -0.39172588777E+03 -0.16002763941E+04 -0.61479448154E+03  0.17584953691E+04  0.50400001928E-02 0.  1.
</event>
<event>
 5   0  0.2476968E-08  0.3606866E+04  0.7818609E-02  0.8088921E-01
        2   -1    0    0  501    0  0.00000000000E+00  0.00000000000E+00  0.21883226191E+04  0.21883226191E+04  0.25500000920E-02 0.  1.
       -2   -1    0    0    0  501  0.00000000000E+00  0.00000000000E+00 -0.14862394285E+04  0.14862394285E+04  0.25500000920E-02 0. -1.
    10030    2    1    2    0    0  0.00000000000E+00  0.00000000000E+00  0.70208319057E+03  0.36745620476E+04  0.36068664288E+04 0.  0.
        2    1    3    3  502    0  0.12275082046E+04  0.73325016024E+03 -0.76864907000E+03  0.16233464149E+04  0.25500000920E-02 0. -1.
       -2    1    3    3    0  502 -0.12275082046E+04 -0.73325016024E+03  0.14707322606E+04  0.20512156328E+04  0.25500000920E-02 0.  1.
</event>
<event>
 5   0  0.2482243E-08  0.3595940E+04  0.7818609E-02  0.8091422E-01
        2   -1    0    0  501    0  0.00000000000E+00  0.00000000000E+00  0.21309125460E+04  0.21309125460E+04  0.25500000920E-02 0.  1.
       -2   -1    0    0    0  501  0.00000000000E+00  0.00000000000E+00 -0.15170475578E+04  0.15170475578E+04  0.25500000920E-02 0. -1.
    10030    2    1    2    0    0  0.00000000000E+00  0.00000000000E+00  0.61386498816E+03  0.36479601038E+04  0.35959397513E+04 0.  0.
        5    1    3    3  502    0 -0.48243689219E+03 -0.14159653850E+04 -0.70497945102E+03  0.16536993206E+04  0.46999998093E+01 0. -1.
       -5    1    3    3    0  502  0.48243689219E+03  0.14159653850E+04  0.13188444392E+04  0.19942607832E+04  0.46999998093E+01 0.  1.
</event>
<event>
 5   0  0.8063410E-09  0.3601026E+04  0.7818609E-02  0.8090257E-01
       -1   -1    0    0    0  501  0.00000000000E+00  0.00000000000E+00  0.21298882409E+04  0.21298882409E+04  0.50400001928E-02 0.  1.
        1   -1    0    0  501    0  0.00000000000E+00  0.00000000000E+00 -0.15220735721E+04  0.15220735721E+04  0.50400001928E-02 0. -1.
    10030    2    1    2    0    0  0.00000000000E+00  0.00000000000E+00  0.60781466888E+03  0.36519618130E+04  0.36010257444E+04 0.  0.
        2    1    3    3  502    0  0.10610594345E+04  0.11369387536E+04  0.12241395967E+04  0.19791398650E+04  0.25500000920E-02 0.  1.
       -2    1    3    3    0  502 -0.10610594345E+04 -0.11369387536E+04 -0.61632492781E+03  0.16728219480E+04  0.25500000920E-02 0. -1.
</event>
<event>
 5   0  0.8024500E-09  0.3598444E+04  0.7818609E-02  0.8090848E-01
        1   -1    0    0  501    0  0.00000000000E+00  0.00000000000E+00  0.11544406945E+04  0.11544406945E+04  0.50400001928E-02 0. -1.
       -1   -1    0    0    0  501  0.00000000000E+00  0.00000000000E+00 -0.28041283149E+04  0.28041283149E+04  0.50400001928E-02 0.  1.
    10030    2    1    2    0    0  0.00000000000E+00  0.00000000000E+00 -0.16496876204E+04  0.39585690094E+04  0.35984440189E+04 0.  0.
        5    1    3    3  502    0  0.34536040118E+03 -0.14858447508E+04  0.22466131930E+03  0.15419154414E+04  0.46999998093E+01 0. -1.
       -5    1    3    3    0  502 -0.34536040118E+03  0.14858447508E+04 -0.18743489397E+04  0.24166535680E+04  0.46999998093E+01 0.  1.
</event>
<event>
 5   0  0.2590795E-08  0.3602178E+04  0.7818609E-02  0.8089993E-01
        2   -1    0    0  501    0  0.00000000000E+00  0.00000000000E+00  0.19390740849E+04  0.19390740849E+04  0.25500000920E-02 0.  1.
       -2   -1    0    0    0  501  0.00000000000E+00  0.00000000000E+00 -0.16729233921E+04  0.16729233921E+04  0.25500000920E-02 0. -1.
    10030    2    1    2    0    0  0.00000000000E+00  0.00000000000E+00  0.26615069283E+03  0.36119974769E+04  0.36021784495E+04 0.  0.
        4    1    3    3  502    0 -0.50093862285E+03  0.49922337804E+03  0.17940196173E+04  0.19283857200E+04  0.12699999809E+01 0.  1.
       -4    1    3    3    0  502  0.50093862285E+03 -0.49922337804E+03 -0.15278689244E+04  0.16836117570E+04  0.12699999809E+01 0. -1.
</event>
<event>
 5   0  0.8247570E-09  0.3600518E+04  0.7818609E-02  0.8090373E-01
        1   -1    0    0  501    0  0.00000000000E+00  0.00000000000E+00  0.22222873244E+04  0.22222873244E+04  0.50400001928E-02 0.  1.
       -1   -1    0    0    0  501  0.00000000000E+00  0.00000000000E+00 -0.14583771809E+04  0.14583771809E+04  0.50400001928E-02 0. -1.
    10030    2    1    2    0    0  0.00000000000E+00  0.00000000000E+00  0.76391014348E+03  0.36806645053E+04  0.36005183645E+04 0.  0.
        3    1    3    3  502    0 -0.49915086507E+03 -0.15361996926E+04  0.11945531088E+04  0.20089843757E+04  0.10100000352E+00 0.  1.
       -3    1    3    3    0  502  0.49915086507E+03  0.15361996926E+04 -0.43064296536E+03  0.16716801296E+04  0.10100000352E+00 0. -1.
</event>
<event>
 5   0  0.8063410E-09  0.3598436E+04  0.7818609E-02  0.8090850E-01
       -1   -1    0    0    0  501  0.00000000000E+00  0.00000000000E+00  0.10406551980E+04  0.10406551980E+04  0.50400001928E-02 0.  1.
        1   -1    0    0  501    0  0.00000000000E+00  0.00000000000E+00 -0.31107185110E+04  0.31107185110E+04  0.50400001928E-02 0. -1.
    10030    2    1    2    0    0  0.00000000000E+00  0.00000000000E+00 -0.20700633130E+04  0.41513737089E+04  0.35984359869E+04 0.  0.
        2    1    3    3  502    0 -0.12618663135E+04 -0.10215472994E+04 -0.14042764551E+03  0.16295966991E+04  0.25500000920E-02 0.  1.
       -2    1    3    3    0  502  0.12618663135E+04  0.10215472994E+04 -0.19296356675E+04  0.25217770098E+04  0.25500000920E-02 0. -1.
</event>
<event>
 5   0  0.2476968E-08  0.3599786E+04  0.7818609E-02  0.8090541E-01
        2   -1    0    0  501    0  0.00000000000E+00  0.00000000000E+00  0.22476659474E+04  0.22476659474E+04  0.25500000920E-02 0. -1.
       -2   -1    0    0    0  501  0.00000000000E+00  0.00000000000E+00 -0.14413239171E+04  0.14413239171E+04  0.25500000920E-02 0.  1.
    10030    2    1    2    0    0  0.00000000000E+00  0.00000000000E+00  0.80634203031E+03  0.36889898645E+04  0.35997859312E+04 0.  0.
        2    1    3    3  502    0  0.76112231748E+03 -0.15393820980E+04 -0.14927043874E+03  0.17237418860E+04  0.25500000920E-02 0.  1.
       -2    1    3    3    0  502 -0.76112231748E+03  0.15393820980E+04  0.95561246905E+03  0.19652479784E+04  0.25500000920E-02 0. -1.
</event>
<event>
 5   0  0.2482243E-08  0.3606329E+04  0.7818609E-02  0.8089043E-01
        2   -1    0    0  501    0  0.00000000000E+00  0.00000000000E+00  0.11331498795E+04  0.11331498795E+04  0.25500000920E-02 0.  1.
       -2   -1    0    0    0  501  0.00000000000E+00  0.00000000000E+00 -0.28693493554E+04  0.28693493554E+04  0.25500000920E-02 0. -1.
    10030    2    1    2    0    0  0.00000000000E+00  0.00000000000E+00 -0.17361994759E+04  0.40024992349E+04  0.36063293672E+04 0.  0.
        5    1    3    3  502    0  0.59749719338E+03  0.15059727035E+03  0.10126684858E+04  0.11854121587E+04  0.46999998093E+01 0.  1.
       -5    1    3    3    0  502 -0.59749719338E+03 -0.15059727035E+03 -0.27488679617E+04  0.28170870761E+04  0.46999998093E+01 0. -1.
</event>
<event>
 5   0  0.8146881E-09  0.3598355E+04  0.7818609E-02  0.8090869E-01
        1   -1    0    0  501    0  0.00000000000E+00  0.00000000000E+00  0.16927525878E+04  0.16927525878E+04  0.50400001928E-02 0.  1.
       -1   -1    0    0    0  501  0.00000000000E+00  0.00000000000E+00 -0.19122931690E+04  0.19122931690E+04  0.50400001928E-02 0. -1.
    10030    2    1    2    0    0  0.00000000000E+00  0.00000000000E+00 -0.21954058114E+03  0.36050457568E+04  0.35983547410E+04 0.  0.
        4    1    3    3  502    0  0.59233771777E+03 -0.16024544965E+04 -0.67501191829E+03  0.18369450422E+04  0.12699999809E+01 0. -1.
       -4    1    3    3    0  502 -0.59233771777E+03  0.16024544965E+04  0.45547133715E+03  0.17681007146E+04  0.12699999809E+01 0.  1.
</event>
<event>
 5   0  0.2482243E-08  0.3599466E+04  0.7818609E-02  0.8090614E-01
       -2   -1    0    0    0  501  0.00000000000E+00  0.00000000000E+00  0.13340315962E+04  0.13340315962E+04  0.25500000920E-02 0.  1.
        2   -1    0    0  501    0  0.00000000000E+00  0.00000000000E+00 -0.24280082616E+04  0.24280082616E+04  0.25500000920E-02 0. -1.
    10030    2    1    2    0    0  0.00000000000E+00  0.00000000000E+00 -0.10939766654E+04  0.37620398579E+04  0.35994664810E+04 0.  0.
        5    1    3    3  502    0 -0.33168233180E+03  0.29695423248E+03  0.12755673484E+04  0.13510326183E+04  0.46999998093E+01 0.  1.
       -5    1    3    3    0  502  0.33168233180E+03 -0.29695423248E+03 -0.23695440139E+04  0.24110072395E+04  0.46999998093E+01 0. -1.
</event>
<event>
 5   0  0.8247570E-09  0.3604384E+04  0.7818609E-02  0.8089488E-01
        1   -1    0    0  501    0  0.00000000000E+00  0.00000000000E+00  0.18563531325E+04  0.18563531325E+04  0.50400001928E-02 0. -1.
       -1   -1    0    0    0  501  0.00000000000E+00  0.00000000000E+00 -0.17496109668E+04  0.17496109668E+04  0.50400001928E-02 0.  1.
    10030    2    1    2    0    0  0.00000000000E+00  0.00000000000E+00  0.10674216571E+03  0.36059640993E+04  0.36043838857E+04 0.  0.
        3    1    3    3  502    0  0.49291415249E+03 -0.21045445028E+03  0.17747765826E+04  0.18539383393E+04  0.10100000352E+00 0. -1.
       -3    1    3    3    0  502 -0.49291415249E+03  0.21045445028E+03 -0.16680344169E+04  0.17520257600E+04  0.10100000352E+00 0.  1.
</event>
<event>
 5   0  0.2476968E-08  0.3600128E+04  0.7818609E-02  0.8090462E-01
        2   -1    0    0  501    0  0.00000000000E+00  0.00000000000E+00  0.17410849838E+04  0.17410849838E+04  0.25500000920E-02 0. -1.
       -2   -1    0    0    0  501  0.00000000000E+00  0.00000000000E+00 -0.18610409286E+04  0.18610409286E+04  0.25500000920E-02 0.  1.
    10030    2    1    2    0    0  0.00000000000E+00  0.00000000000E+00 -0.11995594481E+03  0.36021259124E+04  0.36001280061E+04 0.  0.
        2    1    3    3  502    0 -0.90356454675E+03 -0.25047328528E+03  0.14774503840E+04  0.17498643930E+04  0.25500000920E-02 0. -1.
       -2    1    3    3    0  502  0.90356454675E+03  0.25047328528E+03 -0.15974063288E+04  0.18522615194E+04  0.25500000920E-02 0.  1.
</event>
<event>
 5   0  0.2608070E-08  0.3600575E+04  0.7818609E-02  0.8090360E-01
        2   -1    0    0  501    0  0.00000000000E+00  0.00000000000E+00  0.24466433020E+04  0.24466433020E+04  0.25500000920E-02 0. -1.
       -2   -1    0    0    0  501  0.00000000000E+00  0.00000000000E+00 -0.13246867110E+04  0.13246867111E+04  0.25500000920E-02 0.  1.
    10030    2    1    2    0    0  0.00000000000E+00  0.00000000000E+00  0.11219565909E+04  0.37713300130E+04  0.36005754367E+04 0.  0.
        3    1    3    3  502    0  0.17875866974E+04  0.15735958332E+03  0.40988895661E+03  0.18407164926E+04  0.10100000352E+00 0.  1.
       -3    1    3    3    0  502 -0.17875866974E+04 -0.15735958332E+03  0.71206763430E+03  0.19306135204E+04  0.10100000352E+00 0. -1.
</event>
<event>
 5   0  0.2494592E-08  0.3600123E+04  0.7818609E-02  0.8090464E-01
        2   -1    0    0  501    0  0.00000000000E+00  0.00000000000E+00  0.26081896733E+04  0.26081896733E+04  0.25500000920E-02 0.  1.
       -2   -1    0    0    0  501  0.00000000000E+00  0.00000000000E+00 -0.12423258771E+04  0.12423258771E+04  0.25500000920E-02 0. -1.
    10030    2    1    2    0    0  0.00000000000E+00  0.00000000000E+00  0.13658637962E+04  0.38505155505E+04  0.36001230666E+04 0.  0.
        1    1    3    3  502    0  0.43386634560E+02 -0.10882712741E+04 -0.84992727550E+03  0.13815184182E+04  0.50400001928E-02 0. -1.
       -1    1    3    3    0  502 -0.43386634560E+02  0.10882712741E+04  0.22157910717E+04  0.24689971323E+04  0.50400001928E-02 0.  1.
</event>
<event>
 5   0  0.8024500E-09  0.3600698E+04  0.7818609E-02  0.8090332E-01
       -1   -1    0    0    0  501  0.00000000000E+00  0.00000000000E+00  0.14249418711E+04  0.14249418712E+04  0.50400001928E-02 0.  1.
        1   -1    0    0  501    0  0.00000000000E+00  0.00000000000E+00 -0.22746586072E+04  0.22746586072E+04  0.50400001928E-02 0. -1.
    10030    2    1    2    0    0  0.00000000000E+00  0.00000000000E+00 -0.84971673607E+03  0.36996004784E+04  0.36006978724E+04 0.  0.
        1    1    3    3  502    0 -0.77823123108E+03 -0.15884438895E+04 -0.80298892902E+02  0.17706625176E+04  0.50400001928E-02 0. -1.
       -1    1    3    3    0  502  0.77823123108E+03  0.15884438895E+04 -0.76941784317E+03  0.19289379608E+04  0.50400001928E-02 0.  1.
</event>
<event>
 5   0  0.2608070E-08  0.3601138E+04  0.7818609E-02  0.8090231E-01
       -2   -1    0    0    0  501  0.00000000000E+00  0.00000000000E+00  0.17431089999E+04  0.17431089999E+04  0.25500000920E-02 0.  1.
        2   -1    0    0  501    0  0.00000000000E+00  0.00000000000E+00 -0.18599227869E+04  0.18599227869E+04  0.25500000920E-02 0. -1.
    10030    2    1    2    0    0  0.00000000000E+00  0.00000000000E+00 -0.11681378701E+03  0.36030317868E+04  0.36011376807E+04 0.  0.
        3    1    3    3  502    0 -0.55262825724E+03 -0.17106262331E+04  0.43666562009E+02  0.17982065729E+04  0.10100000352E+00 0. -1.
       -3    1    3    3    0  502  0.55262825724E+03  0.17106262331E+04 -0.16048034901E+03  0.18048252139E+04  0.10100000352E+00 0.  1.
</event>
<event>
 5   0  0.8146881E-09  0.3607615E+04  0.7818609E-02  0.8088750E-01
       -1   -1    0    0    0  501  0.00000000000E+00  0.00000000000E+00  0.18175393299E+04  0.18175393299E+04  0.50400001928E-02 0. -1.
        1   -1    0    0  501    0  0.00000000000E+00  0.00000000000E+00 -0.17901793596E+04  0.17901793596E+04  0.50400001928E-02 0.  1.
    10030    2    1    2    0    0  0.00000000000E+00  0.00000000000E+00  0.27359970331E+02  0.36077186895E+04  0.36076149427E+04 0.  0.
        4    1    3    3  502    0 -0.64353062919E+02  0.13124978419E+04 -0.12220447828E+04  0.17944879398E+04  0.12699999809E+01 0.  1.
       -4    1    3    3    0  502  0.64353062919E+02 -0.13124978419E+04  0.12494047532E+04  0.18132307498E+04  0.12699999809E+01 0. -1.
</event>
<event>
 5   0  0.2482243E-08  0.3599130E+04  0.7818609E-02  0.8090691E-01
        2   -1    0    0  501    0  0.00000000000E+00  0.00000000000E+00  0.16196581546E+04  0.16196581546E+04  0.25500000920E-02 0. -1.
       -2   -1    0    0    0  501  0.00000000000E+00  0.00000000000E+00 -0.19994550006E+04  0.19994550007E+04  0.25500000920E-02 0.  1.
    10030    2    1    2    0    0  0.00000000000E+00  0.00000000000E+00 -0.37979684607E+03  0.36191131552E+04  0.35991296706E+04 0.  0.
        5    1    3    3  502    0 -0.16023329033E+04 -0.64366064107E+03  0.31951258368E+03  0.17560979856E+04  0.46999998093E+01 0.  1.
       -5    1    3    3    0  502  0.16023329033E+04  0.64366064107E+03 -0.69930942975E+03  0.18630151697E+04  0.46999998093E+01 0. -1.
</event>
<event>
 5   0  0.8146881E-09  0.3601289E+04  0.7818609E-02  0.8090197E-01
       -1   -1    0    0    0  501  0.00000000000E+00  0.00000000000E+00  0.23974093561E+04  0.23974093561E+04  0.50400001928E-02 0.  1.
        1   -1    0    0  501    0  0.00000000000E+00  0.00000000000E+00 -0.13524265206E+04  0.13524265206E+04  0.50400001928E-02 0. -1.
    10030    2    1    2    0    0  0.00000000000E+00  0.00000000000E+00  0.10449828355E+04  0.37498358767E+04  0.36012886549E+04 0.  0.
        4    1    3    3  502    0 -0.44392261559E+03  0.10653895785E+03  0.23361477513E+04  0.23803373221E+04  0.12699999809E+01 0.  1.
       -4    1    3    3    0  502  0.44392261559E+03 -0.10653895785E+03 -0.12911649159E+04  0.13694985546E+04  0.12699999809E+01 0. -1.
</event>
<event>
 5   0  0.8024500E-09  0.3600200E+04  0.7818609E-02  0.8090446E-01
       -1   -1    0    0    0  501  0.00000000000E+00  0.00000000000E+00  0.12716206395E+04  0.12716206395E+04  0.50400001928E-02 0.  1.
        1   -1    0    0  501    0  0.00000000000E+00  0.00000000000E+00 -0.25482126314E+04  0.25482126314E+04  0.50400001928E-02 0. -1.
    10030    2    1    2    0    0  0.00000000000E+00  0.00000000000E+00 -0.12765919919E+04  0.38198332709E+04  0.36001998699E+04 0.  0.
        5    1    3    3  502    0 -0.20259926599E+03  0.17305136123E+04 -0.15835779364E+03  0.17495208217E+04  0.46999998093E+01 0.  1.
       -5    1    3    3    0  502  0.20259926599E+03 -0.17305136123E+04 -0.11182341983E+04  0.20703124491E+04  0.46999998093E+01 0. -1.
</event>
<event>
 5   0  0.2494592E-08  0.3599966E+04  0.7818609E-02  0.8090499E-01
       -2   -1    0    0    0  501  0.00000000000E+00  0.00000000000E+00  0.17475660094E+04  0.17475660094E+04  0.25500000920E-02 0.  1.
        2   -1    0    0  501    0  0.00000000000E+00  0.00000000000E+00 -0.18539724326E+04  0.18539724326E+04  0.25500000920E-02 0. -1.
    10030    2    1    2    0    0  0.00000000000E+00  0.00000000000E+00 -0.10640642321E+03  0.36015384419E+04  0.35999662251E+04 0.  0.
        1    1    3    3  502    0  0.79908779945E+02 -0.54602437292E+03 -0.17672556339E+04  0.18514104096E+04  0.50400001928E-02 0. -1.
       -1    1    3    3    0  502 -0.79908779945E+02  0.54602437292E+03  0.16608492107E+04  0.17501280324E+04  0.50400001928E-02 0.  1.
</event>
<event>
 5   0  0.2590795E-08  0.3599834E+04  0.7818609E-02  0.8090530E-01
        2   -1    0    0  501    0  0.00000000000E+00  0.00000000000E+00  0.22002285905E+04  0.22002285905E+04  0.25500000920E-02 0. -1.
       -2   -1    0    0    0  501  0.00000000000E+00  0.00000000000E+00 -0.14724382853E+04  0.14724382853E+04  0.25500000920E-02 0.  1.
    10030    2    1    2    0    0  0.00000000000E+00  0.00000000000E+00  0.72779030522E+03  0.36726668757E+04  0.35998337811E+04 0.  0.
        4    1    3    3  502    0  0.37937662316E+03  0.16265028319E+04 -0.32069604632E+03  0.17006721175E+04  0.12699999809E+01 0.  1.
       -4    1    3    3    0  502 -0.37937662316E+03 -0.16265028319E+04  0.10484863515E+04  0.19719947582E+04  0.12699999809E+01 0. -1.
</event>
<event>
 5   0  0.2608070E-08  0.3597995E+04  0.7818609E-02  0.8090951E-01
        2   -1    0    0  501    0  0.00000000000E+00  0.00000000000E+00  0.95154074367E+03  0.95154074368E+03  0.25500000920E-02 0.  1.
       -2   -1    0    0    0  501  0.00000000000E+00  0.00000000000E+00 -0.34012119830E+04  0.34012119830E+04  0.25500000920E-02 0. -1.
    10030    2    1    2    0    0  0.00000000000E+00  0.00000000000E+00 -0.24496712394E+04  0.43527527267E+04  0.35979948748E+04 0.  0.
        3    1    3    3  502    0 -0.99563483442E+03  0.66615650479E+03 -0.28485181889E+04  0.30901632797E+04  0.10100000352E+00 0. -1.
       -3    1    3    3    0  502  0.99563483442E+03 -0.66615650479E+03  0.39884694954E+03  0.12625894470E+04  0.10100000352E+00 0.  1.
</event>
<event>
 5   0  0.8146881E-09  0.3600730E+04  0.7818609E-02  0.8090324E-01
        1   -1    0    0  501    0  0.00000000000E+00  0.00000000000E+00  0.24945679283E+04  0.24945679283E+04  0.50400001928E-02 0.  1.
       -1   -1    0    0    0  501  0.00000000000E+00  0.00000000000E+00 -0.12993492221E+04  0.12993492221E+04  0.50400001928E-02 0. -1.
    10030    2    1    2    0    0  0.00000000000E+00  0.00000000000E+00  0.11952187062E+04  0.37939171503E+04  0.36007304242E+04 0.  0.
        4    1    3    3  502    0 -0.54582304229E+03 -0.15061002165E+04  0.14633066288E+04  0.21696839766E+04  0.12699999809E+01 0.  1.
       -4    1    3    3    0  502  0.54582304229E+03  0.15061002165E+04 -0.26808792257E+03  0.16242331737E+04  0.12699999809E+01 0. -1.
</event>
<event>
 5   0  0.8063410E-09  0.3601220E+04  0.7818609E-02  0.8090212E-01
       -1   -1    0    0    0  501  0.00000000000E+00  0.00000000000E+00  0.14885591720E+04  0.14885591720E+04  0.50400001928E-02 0.  1.
        1   -1    0    0  501    0  0.00000000000E+00  0.00000000000E+00 -0.21780772747E+04  0.21780772747E+04  0.50400001928E-02 0. -1.
    10030    2    1    2    0    0  0.00000000000E+00  0.00000000000E+00 -0.68951810266E+03  0.36666364467E+04  0.36012202957E+04 0.  0.
        2    1    3    3  502    0 -0.10327196622E+03  0.15603510807E+03 -0.21681515252E+04  0.21762107182E+04  0.25500000920E-02 0. -1.
       -2    1    3    3    0  502  0.10327196622E+03 -0.15603510807E+03  0.14786334225E+04  0.14904257285E+04  0.25500000920E-02 0.  1.
</event>
<event>
 5   0  0.2482243E-08  0.3599724E+04  0.7818609E-02  0.8090555E-01
       -2   -1    0    0    0  501  0.00000000000E+00  0.00000000000E+00  0.10566168579E+04  0.10566168579E+04  0.25500000920E-02 0.  1.
        2   -1    0    0  501    0  0.00000000000E+00  0.00000000000E+00 -0.30659207270E+04  0.30659207270E+04  0.25500000920E-02 0. -1.
    10030    2    1    2    0    0  0.00000000000E+00  0.00000000000E+00 -0.20093038691E+04  0.41225375849E+04  0.35997241700E+04 0.  0.
        5    1    3    3  502    0 -0.20083162469E+03 -0.17403592596E+04 -0.53204526806E+03  0.18309227049E+04  0.46999998093E+01 0.  1.
       -5    1    3    3    0  502  0.20083162469E+03  0.17403592596E+04 -0.14772586010E+04  0.22916148800E+04  0.46999998093E+01 0. -1.
</event>
<event>
 5   0  0.8024500E-09  0.3580700E+04  0.7818609E-02  0.8094927E-01
       -1   -1    0    0    0  501  0.00000000000E+00  0.00000000000E+00  0.17131714409E+04  0.17131714409E+04  0.50400001928E-02 0.  1.
        1   -1    0    0  501    0  0.00000000000E+00  0.00000000000E+00 -0.18710057567E+04  0.18710057567E+04  0.50400001928E-02 0. -1.
    10030    2    1    2    0    0  0.00000000000E+00  0.00000000000E+00 -0.15783431587E+03  0.35841771976E+04  0.35807002824E+04 0.  0.
        1    1    3    3  502    0 -0.16375671768E+04  0.16406200691E+03 -0.78444980654E+03  0.18231577276E+04  0.50400001928E-02 0. -1.
       -1    1    3    3    0  502  0.16375671768E+04 -0.16406200691E+03  0.62661549066E+03  0.17610194700E+04  0.50400001928E-02 0.  1.
</event>
<event>
 5   0  0.2608070E-08  0.3602593E+04  0.7818609E-02  0.8089898E-01
       -2   -1    0    0    0  501  0.00000000000E+00  0.00000000000E+00  0.15251013751E+04  0.15251013751E+04  0.25500000920E-02 0.  1.
        2   -1    0    0  501    0  0.00000000000E+00  0.00000000000E+00 -0.21275100226E+04  0.21275100226E+04  0.25500000920E-02 0. -1.
    10030    2    1    2    0    0  0.00000000000E+00  0.00000000000E+00 -0.60240864744E+03  0.36526113977E+04  0.36025926559E+04 0.  0.
        3    1    3    3  502    0 -0.88512265355E+02 -0.54228636113E+03  0.14380604386E+04  0.15394566424E+04  0.10100000352E+00 0.  1.
       -3    1    3    3    0  502  0.88512265355E+02  0.54228636113E+03 -0.20404690860E+04  0.21131547553E+04  0.10100000352E+00 0. -1.
</event>
<event>
 5   0  0.8063410E-09  0.3599101E+04  0.7818609E-02  0.8090698E-01
        1   -1    0    0  501    0  0.00000000000E+00  0.00000000000E+00  0.20260612242E+04  0.20260612242E+04  0.50400001928E-02 0.  1.
       -1   -1    0    0    0  501  0.00000000000E+00  0.00000000000E+00 -0.15983633058E+04  0.15983633058E+04  0.50400001928E-02 0. -1.
    10030    2    1    2    0    0  0.00000000000E+00  0.00000000000E+00  0.42769791840E+03  0.36244245301E+04  0.35991009523E+04 0.  0.
        2    1    3    3  502    0  0.14220332898E+04  0.22788417877E+03  0.13004553790E+04  0.19404365666E+04  0.25500000920E-02 0.  1.
       -2    1    3    3    0  502 -0.14220332898E+04 -0.22788417877E+03 -0.87275746062E+03  0.16839879635E+04  0.25500000920E-02 0. -1.
</event>
<event>
 5   0  0.8146881E-09  0.3601588E+04  0.7818609E-02  0.8090128E-01
        1   -1    0    0  501    0  0.00000000000E+00  0.00000000000E+00  0.20465308497E+04  0.20465308497E+04  0.50400001928E-02 0.  1.
       -1   -1    0    0    0  501  0.00000000000E+00  0.00000000000E+00 -0.15845641853E+04  0.15845641853E+04  0.50400001928E-02 0. -1.
    10030    2    1    2    0    0  0.00000000000E+00  0.00000000000E+00  0.46196666439E+03  0.36310950349E+04  0.36015882543E+04 0.  0.
        4    1    3    3  502    0 -0.39223470768E+03  0.94438190077E+03 -0.12634400995E+04  0.16254192500E+04  0.12699999809E+01 0. -1.
       -4    1    3    3    0  502  0.39223470768E+03 -0.94438190077E+03  0.17254067639E+04  0.20056757849E+04  0.12699999809E+01 0.  1.
</event>
<event>
 5   0  0.8024500E-09  0.3599275E+04  0.7818609E-02  0.8090658E-01
        3   -1    0    0  501    0  0.00000000000E+00  0.00000000000E+00  0.19291614310E+04  0.19291614336E+04  0.10100000352E+00 0.  1.
       -3   -1    0    0    0  501  0.00000000000E+00  0.00000000000E+00 -0.16788102392E+04  0.16788102422E+04  0.10100000352E+00 0. -1.
    10030    2    1    2    0    0  0.00000000000E+00  0.00000000000E+00  0.25035119182E+03  0.36079716759E+04  0.35992754680E+04 0.  0.
        5    1    3    3  502    0  0.21303852047E+03  0.45292883378E+03  0.18579769965E+04  0.19242220634E+04  0.46999998093E+01 0.  1.
       -5    1    3    3    0  502 -0.21303852047E+03 -0.45292883378E+03 -0.16076258047E+04  0.16837496125E+04  0.46999998093E+01 0. -1.
</event>
<event>
 5   0  0.2590795E-08  0.3600211E+04  0.7818609E-02  0.8090443E-01
        2   -1    0    0  501    0  0.00000000000E+00  0.00000000000E+00  0.20418891734E+04  0.20418891734E+04  0.25500000920E-02 0. -1.
       -2   -1    0    0    0  501  0.00000000000E+00  0.00000000000E+00 -0.15869522882E+04  0.15869522882E+04  0.25500000920E-02 0.  1.
    10030    2    1    2    0    0  0.00000000000E+00  0.00000000000E+00  0.45493688513E+03  0.36288414616E+04  0.36002114916E+04 0.  0.
        4    1    3    3  502    0 -0.77681957244E+03 -0.81169921697E+03 -0.11901564745E+04  0.16366973800E+04  0.12699999809E+01 0.  1.
       -4    1    3    3    0  502  0.77681957244E+03  0.81169921697E+03  0.16450933597E+04  0.19921440816E+04  0.12699999809E+01 0. -1.
</event>
<event>
 5   0  0.8024500E-09  0.3600203E+04  0.7818609E-02  0.8090445E-01
        1   -1    0    0  501    0  0.00000000000E+00  0.00000000000E+00  0.21189653481E+04  0.21189653481E+04  0.50400001928E-02 0. -1.
       -1   -1    0    0    0  501  0.00000000000E+00  0.00000000000E+00 -0.15292208097E+04  0.15292208097E+04  0.50400001928E-02 0.  1.
    10030    2    1    2    0    0  0.00000000000E+00  0.00000000000E+00  0.58974453840E+03  0.36481861578E+04  0.36002032750E+04 0.  0.
        5    1    3    3  502    0 -0.76472786508E+03  0.68399708997E+03 -0.12039225159E+04  0.15818066383E+04  0.46999998093E+01 0.  1.
       -5    1    3    3    0  502  0.76472786508E+03 -0.68399708997E+03  0.17936670543E+04  0.20663795195E+04  0.46999998093E+01 0. -1.
</event>
<event>
 5   0  0.2476968E-08  0.3598011E+04  0.7818609E-02  0.8090947E-01
       -2   -1    0    0    0  501  0.00000000000E+00  0.00000000000E+00  0.10155097561E+04  0.10155097561E+04  0.25500000920E-02 0. -1.
        2   -1    0    0  501    0  0.00000000000E+00  0.00000000000E+00 -0.31869912055E+04  0.31869912055E+04  0.25500000920E-02 0.  1.
    10030    2    1    2    0    0  0.00000000000E+00  0.00000000000E+00 -0.21714814494E+04  0.42025009616E+04  0.35980109292E+04 0.  0.
        2    1    3    3  502    0 -0.24943303954E+03  0.88230999368E+03 -0.28935996653E+04  0.30353923617E+04  0.25500000920E-02 0.  1.
       -2    1    3    3    0  502  0.24943303954E+03 -0.88230999368E+03  0.72211821591E+03  0.11671085999E+04  0.25500000920E-02 0. -1.
</event>
<event>
 5   0  0.8146881E-09  0.3597197E+04  0.7818609E-02  0.8091134E-01
        1   -1    0    0  501    0  0.00000000000E+00  0.00000000000E+00  0.22407363477E+04  0.22407363477E+04  0.50400001928E-02 0. -1.
       -1   -1    0    0    0  501  0.00000000000E+00  0.00000000000E+00 -0.14437024621E+04  0.14437024621E+04  0.50400001928E-02 0.  1.
    10030    2    1    2    0    0  0.00000000000E+00  0.00000000000E+00  0.79703388560E+03  0.36844388099E+04  0.35971970100E+04 0.  0.
        4    1    3    3  502    0 -0.13291245859E+04  0.10057400840E+04 -0.29379734874E+03  0.16924549555E+04  0.12699999809E+01 0.  1.
       -4    1    3    3    0  502  0.13291245859E+04 -0.10057400840E+04  0.10908312343E+04  0.19919838544E+04  0.12699999809E+01 0. -1.
</event>
<event>
 5   0  0.8024500E-09  0.3599267E+04  0.7818609E-02  0.8090660E-01
        1   -1    0    0  501    0  0.00000000000E+00  0.00000000000E+00  0.24636364854E+04  0.24636364854E+04  0.50400001928E-02 0. -1.
       -1   -1    0    0    0  501  0.00000000000E+00  0.00000000000E+00 -0.13145934870E+04  0.13145934870E+04  0.50400001928E-02 0.  1.
    10030    2    1    2    0    0  0.00000000000E+00  0.00000000000E+00  0.11490429983E+04  0.37782299724E+04  0.35992668576E+04 0.  0.
        1    1    3    3  502    0 -0.15713384577E+04  0.85037333581E+03  0.34830426910E+03  0.18203173412E+04  0.50400001928E-02 0.  1.
       -1    1    3    3    0  502  0.15713384577E+04 -0.85037333581E+03  0.80073872923E+03  0.19579126312E+04  0.50400001928E-02 0. -1.
</event>
<event>
 5   0  0.2476968E-08  0.3599840E+04  0.7818609E-02  0.8090528E-01
        2   -1    0    0  501    0  0.00000000000E+00  0.00000000000E+00  0.26390566851E+04  0.26390566851E+04  0.25500000920E-02 0.  1.
       -2   -1    0    0    0  501  0.00000000000E+00  0.00000000000E+00 -0.12276021625E+04  0.12276021625E+04  0.25500000920E-02 0. -1.
    10030    2    1    2    0    0  0.00000000000E+00  0.00000000000E+00  0.14114545226E+04  0.38666588475E+04  0.35998398261E+04 0.  0.
        2    1    3    3  502    0  0.16990533992E+04  0.11400632925E+03  0.79476057033E+02  0.17047276439E+04  0.25500000920E-02 0.  1.
       -2    1    3    3    0  502 -0.16990533992E+04 -0.11400632925E+03  0.13319784656E+04  0.21619312036E+04  0.25500000920E-02 0. -1.
</event>
<event>
 5   0  0.2494592E-08  0.3597693E+04  0.7818609E-02  0.8091020E-01
        2   -1    0    0  501    0  0.00000000000E+00  0.00000000000E+00  0.18775595291E+04  0.18775595291E+04  0.25500000920E-02 0. -1.
       -2   -1    0    0    0  501  0.00000000000E+00  0.00000000000E+00 -0.17234336788E+04  0.17234336788E+04  0.25500000920E-02 0.  1.
    10030    2    1    2    0    0  0.00000000000E+00  0.00000000000E+00  0.15412585026E+03  0.36009932078E+04  0.35976933312E+04 0.  0.
        1    1    3    3  502    0  0.56565246045E+03 -0.16908029114E+04  0.31617979702E+03  0.18107310279E+04  0.50400001928E-02 0. -1.
       -1    1    3    3    0  502 -0.56565246045E+03  0.16908029114E+04 -0.16205394676E+03  0.17902621800E+04  0.50400001928E-02 0.  1.
</event>
<event>
 5   0  0.8063410E-09  0.3598333E+04  0.7818609E-02  0.8090874E-01
       -1   -1    0    0    0  501  0.00000000000E+00  0.00000000000E+00  0.21360041825E+04  0.21360041825E+04  0.50400001928E-02 0. -1.
        1   -1    0    0  501    0  0.00000000000E+00  0.00000000000E+00 -0.15154469197E+04  0.15154469197E+04  0.50400001928E-02 0.  1.
    10030    2    1    2    0    0  0.00000000000E+00  0.00000000000E+00  0.62055726283E+03  0.36514511022E+04  0.35983334803E+04 0.  0.
        2    1    3    3  502    0  0.97902903822E+03  0.90963515705E+03 -0.91210579905E+03  0.16179836109E+04  0.25500000920E-02 0.  1.
       -2    1    3    3    0  502 -0.97902903822E+03 -0.90963515705E+03  0.15326630619E+04  0.20334674912E+04  0.25500000920E-02 0. -1.
</event>
<event>
 5   0  0.8024500E-09  0.3600230E+04  0.7818609E-02  0.8090439E-01
       -1   -1    0    0    0  501  0.00000000000E+00  0.00000000000E+00  0.11709976577E+04  0.11709976577E+04  0.50400001928E-02 0. -1.
        1   -1    0    0  501    0  0.00000000000E+00  0.00000000000E+00 -0.27672252565E+04  0.27672252565E+04  0.50400001928E-02 0.  1.
    10030    2    1    2    0    0  0.00000000000E+00  0.00000000000E+00 -0.15962275988E+04  0.39382229141E+04  0.36002301557E+04 0.  0.
        1    1    3    3  502    0  0.49516318110E+03  0.16292694683E+04 -0.15961269585E+03  0.17103162833E+04  0.50400001928E-02 0.  1.
       -1    1    3    3    0  502 -0.49516318110E+03 -0.16292694683E+04 -0.14366149030E+04  0.22279066308E+04  0.50400001928E-02 0. -1.
</event>
<event>
 5   0  0.8024500E-09  0.3578982E+04  0.7818609E-02  0.8095323E-01
       -1   -1    0    0    0  501  0.00000000000E+00  0.00000000000E+00  0.14911980835E+04  0.14911980835E+04  0.50400001928E-02 0.  1.
        1   -1    0    0  501    0  0.00000000000E+00  0.00000000000E+00 -0.21474530604E+04  0.21474530604E+04  0.50400001928E-02 0. -1.
    10030    2    1    2    0    0  0.00000000000E+00  0.00000000000E+00 -0.65625497687E+03  0.36386511439E+04  0.35789819156E+04 0.  0.
        1    1    3    3  502    0 -0.80032172495E+03  0.12457360826E+03 -0.19504267202E+04  0.21119180472E+04  0.50400001928E-02 0. -1.
       -1    1    3    3    0  502  0.80032172495E+03 -0.12457360826E+03  0.12941717433E+04  0.15267330967E+04  0.50400001928E-02 0.  1.
</event>
<event>
 5   0  0.2590795E-08  0.3601288E+04  0.7818609E-02  0.8090197E-01
        2   -1    0    0  501    0  0.00000000000E+00  0.00000000000E+00  0.19962043662E+04  0.19962043662E+04  0.25500000920E-02 0.  1.
       -2   -1    0    0    0  501  0.00000000000E+00  0.00000000000E+00 -0.16242423405E+04  0.16242423405E+04  0.25500000920E-02 0. -1.
    10030    2    1    2    0    0  0.00000000000E+00  0.00000000000E+00  0.37196202576E+03  0.36204467067E+04  0.36012884649E+04 0.  0.
        4    1    3    3  502    0 -0.88053248698E+03  0.79686577238E+03 -0.11747280184E+04  0.16704251106E+04  0.12699999809E+01 0. -1.
       -4    1    3    3    0  502  0.88053248698E+03 -0.79686577238E+03  0.15466900442E+04  0.19500215962E+04  0.12699999809E+01 0.  1.
</event>
<event>
 5   0  0.8247570E-09  0.3600392E+04  0.7818609E-02  0.8090402E-01
       -1   -1    0    0    0  501  0.00000000000E+00  0.00000000000E+00  0.19036268683E+04  0.19036268683E+04  0.50400001928E-02 0. -1.
        1   -1    0    0  501    0  0.00000000000E+00  0.00000000000E+00 -0.17023847581E+04  0.17023847581E+04  0.50400001928E-02 0.  1.
    10030    2    1    2    0    0  0.00000000000E+00  0.00000000000E+00  0.20124211018E+03  0.36060116264E+04  0.36003918485E+04 0.  0.
        3    1    3    3  502    0  0.61080733555E+03  0.13692580900E+04  0.10985456958E+04  0.18586973864E+04  0.10100000352E+00 0. -1.
       -3    1    3    3    0  502 -0.61080733555E+03 -0.13692580900E+04 -0.89730358560E+03  0.17473142400E+04  0.10100000352E+00 0.  1.
</event>
<event>
 5   0  0.8024500E-09  0.3598818E+04  0.7818609E-02  0.8090762E-01
       -1   -1    0    0    0  501  0.00000000000E+00  0.00000000000E+00  0.12572029529E+04  0.12572029530E+04  0.50400001928E-02 0. -1.
        1   -1    0    0  501    0  0.00000000000E+00  0.00000000000E+00 -0.25754575570E+04  0.25754575570E+04  0.50400001928E-02 0.  1.
    10030    2    1    2    0    0  0.00000000000E+00  0.00000000000E+00 -0.13182546041E+04  0.38326605100E+04  0.35988180537E+04 0.  0.
        1    1    3    3  502    0  0.69508887230E+03  0.11869356934E+04 -0.18946426455E+04  0.23412893104E+04  0.50400001928E-02 0.  1.
       -1    1    3    3    0  502 -0.69508887230E+03 -0.11869356934E+04  0.57638804146E+03  0.14913711996E+04  0.50400001928E-02 0. -1.
</event>
<event>
 5   0  0.8024500E-09  0.3615684E+04  0.7818609E-02  0.8086909E-01
        1   -1    0    0  501    0  0.00000000000E+00  0.00000000000E+00  0.99428849914E+03  0.99428849915E+03  0.50400001928E-02 0.  1.
       -1   -1    0    0    0  501  0.00000000000E+00  0.00000000000E+00 -0.32870664524E+04  0.32870664524E+04  0.50400001928E-02 0. -1.
    10030    2    1    2    0    0  0.00000000000E+00  0.00000000000E+00 -0.22927779533E+04  0.42813549516E+04  0.36156838189E+04 0.  0.
        1    1    3    3  502    0  0.75199745881E+03 -0.12589130331E+04  0.10559314497E+03  0.14702081877E+04  0.50400001928E-02 0.  1.
       -1    1    3    3    0  502 -0.75199745881E+03  0.12589130331E+04 -0.23983710983E+04  0.28111467639E+04  0.50400001928E-02 0. -1.
</event>
<event>
 5   0  0.2590795E-08  0.3597080E+04  0.7818609E-02  0.8091161E-01
       -2   -1    0    0    0  501  0.00000000000E+00  0.00000000000E+00  0.14679457458E+04  0.14679457458E+04  0.25500000920E-02 0. -1.
        2   -1    0    0  501    0  0.00000000000E+00  0.00000000000E+00 -0.22035869452E+04  0.22035869452E+04  0.25500000920E-02 0.  1.
    10030    2    1    2    0    0  0.00000000000E+00  0.00000000000E+00 -0.73564119940E+03  0.36715326909E+04  0.35970799722E+04 0.  0.
        4    1    3    3  502    0 -0.26083566597E+03  0.17762601440E+04 -0.25784482069E+03  0.18137312117E+04  0.12699999809E+01 0. -1.
       -4    1    3    3    0  502  0.26083566597E+03 -0.17762601440E+04 -0.47779637871E+03  0.18578014792E+04  0.12699999809E+01 0.  1.
</event>
<event>
 5   0  0.2608070E-08  0.3599527E+04  0.7818609E-02  0.8090600E-01
        2   -1    0    0  501    0  0.00000000000E+00  0.00000000000E+00  0.14327335088E+04  0.14327335088E+04  0.25500000920E-02 0. -1.
       -2   -1    0    0    0  501  0.00000000000E+00  0.00000000000E+00 -0.22608177589E+04  0.22608177589E+04  0.25500000920E-02 0.  1.
    10030    2    1    2    0    0  0.00000000000E+00  0.00000000000E+00 -0.82808425016E+03  0.36935512677E+04  0.35995273914E+04 0.  0.
        3    1    3    3  502    0  0.87609414780E+03  0.24380347510E+03 -0.20077269895E+04  0.22040754898E+04  0.10100000352E+00 0.  1.
       -3    1    3    3    0  502 -0.87609414780E+03 -0.24380347510E+03  0.11796427393E+04  0.14894757779E+04  0.10100000352E+00 0. -1.
</event>
<event>
 5   0  0.2482243E-08  0.3598432E+04  0.7818609E-02  0.8090851E-01
       -2   -1    0    0    0  501  0.00000000000E+00  0.00000000000E+00  0.28659376853E+04  0.28659376853E+04  0.25500000920E-02 0. -1.
        2   -1    0    0  501    0  0.00000000000E+00  0.00000000000E+00 -0.11295353511E+04  0.11295353511E+04  0.25500000920E-02 0.  1.
    10030    2    1    2    0    0  0.00000000000E+00  0.00000000000E+00  0.17364023342E+04  0.39954730364E+04  0.35984318416E+04 0.  0.
        5    1    3    3  502    0 -0.15965398716E+04 -0.64983325395E+03  0.29561473071E+03  0.17488947877E+04  0.46999998093E+01 0.  1.
       -5    1    3    3    0  502  0.15965398716E+04  0.64983325395E+03  0.14407876035E+04  0.22465782487E+04  0.46999998093E+01 0. -1.
</event>
<event>
 5   0  0.2608070E-08  0.3598377E+04  0.7818609E-02  0.8090863E-01
       -2   -1    0    0    0  501  0.00000000000E+00  0.00000000000E+00  0.19084438970E+04  0.19084438970E+04  0.25500000920E-02 0. -1.
        2   -1    0    0  501    0  0.00000000000E+00  0.00000000000E+00 -0.16961880722E+04  0.16961880722E+04  0.25500000920E-02 0.  1.
    10030    2    1    2    0    0  0.00000000000E+00  0.00000000000E+00  0.21225582483E+03  0.36046319691E+04  0.35983772867E+04 0.  0.
        3    1    3    3  502    0 -0.44336156931E+03 -0.87813004040E+03  0.16151985156E+04  0.18911763810E+04  0.10100000352E+00 0. -1.
       -3    1    3    3    0  502  0.44336156931E+03  0.87813004040E+03 -0.14029426907E+04  0.17134555882E+04  0.10100000352E+00 0.  1.
</event>
<event>
 5   0  0.8024500E-09  0.3603872E+04  0.7818609E-02  0.8089605E-01
        1   -1    0    0  501    0  0.00000000000E+00  0.00000000000E+00  0.15119309186E+04  0.15119309186E+04  0.50400001928E-02 0.  1.
       -1   -1    0    0    0  501  0.00000000000E+00  0.00000000000E+00 -0.21475678374E+04  0.21475678374E+04  0.50400001928E-02 0. -1.
    10030    2    1    2    0    0  0.00000000000E+00  0.00000000000E+00 -0.63563691873E+03  0.36594987560E+04  0.36038724801E+04 0.  0.
        5    1    3    3  502    0  0.52773608038E+03 -0.14367713170E+04 -0.12833552211E+04  0.19974583603E+04  0.46999998093E+01 0. -1.
       -5    1    3    3    0  502 -0.52773608038E+03  0.14367713170E+04  0.64771830232E+03  0.16620403957E+04  0.46999998093E+01 0.  1.
</event>
<event>
 5   0  0.2482243E-08  0.3597736E+04  0.7818609E-02  0.8091011E-01
        2   -1    0    0  501    0  0.00000000000E+00  0.00000000000E+00  0.19301621263E+04  0.19301621263E+04  0.25500000920E-02 0. -1.
       -2   -1    0    0    0  501  0.00000000000E+00  0.00000000000E+00 -0.16765044129E+04  0.16765044129E+04  0.25500000920E-02 0.  1.
    10030    2    1    2    0    0  0.00000000000E+00  0.00000000000E+00  0.25365771342E+03  0.36066665392E+04  0.35977355780E+04 0.  0.
        5    1    3    3  502    0 -0.25598477959E+03  0.16826759022E+04  0.71049131315E+03  0.18443823886E+04  0.46999998093E+01 0. -1.
       -5    1    3    3    0  502  0.25598477959E+03 -0.16826759022E+04 -0.45683359973E+03  0.17622841505E+04  0.46999998093E+01 0.  1.
</event>
<event>
 5   0  0.2476968E-08  0.3600384E+04  0.7818609E-02  0.8090404E-01
       -2   -1    0    0    0  501  0.00000000000E+00  0.00000000000E+00  0.27017076786E+04  0.27017076786E+04  0.25500000920E-02 0.  1.
        2   -1    0    0  501    0  0.00000000000E+00  0.00000000000E+00 -0.11994976267E+04  0.11994976267E+04  0.25500000920E-02 0. -1.
    10030    2    1    2    0    0  0.00000000000E+00  0.00000000000E+00  0.15022100519E+04  0.39012053053E+04  0.36003843953E+04 0.  0.
        2    1    3    3  502    0  0.54080310260E+03 -0.16694297791E+04  0.31602375203E+03  0.17830689260E+04  0.25500000920E-02 0.  1.
       -2    1    3    3    0  502 -0.54080310260E+03  0.16694297791E+04  0.11861862999E+04  0.21181363792E+04  0.25500000920E-02 0. -1.
</event>
<event>
 5   0  0.2482243E-08  0.3600467E+04  0.7818609E-02  0.8090385E-01
        2   -1    0    0  501    0  0.00000000000E+00  0.00000000000E+00  0.25818290279E+04  0.25818290279E+04  0.25500000920E-02 0. -1.
       -2   -1    0    0    0  501  0.00000000000E+00  0.00000000000E+00 -0.12552496859E+04  0.12552496859E+04  0.25500000920E-02 0.  1.
    10030    2    1    2    0    0  0.00000000000E+00  0.00000000000E+00  0.13265793420E+04  0.38370787138E+04  0.36004666788E+04 0.  0.
        5    1    3    3  502    0 -0.25050291298E+03 -0.45705022496E+03 -0.11730776023E+04  0.12836587430E+04  0.46999998093E+01 0.  1.
       -5    1    3    3    0  502  0.25050291298E+03  0.45705022496E+03  0.24996569444E+04  0.25534199708E+04  0.46999998093E+01 0. -1.
</event>
<event>
 5   0  0.8024500E-09  0.3595978E+04  0.7818609E-02  0.8091414E-01
        1   -1    0    0  501    0  0.00000000000E+00  0.00000000000E+00  0.17561392706E+04  0.17561392706E+04  0.50400001928E-02 0.  1.
       -1   -1    0    0    0  501  0.00000000000E+00  0.00000000000E+00 -0.18408357655E+04  0.18408357655E+04  0.50400001928E-02 0. -1.
    10030    2    1    2    0    0  0.00000000000E+00  0.00000000000E+00 -0.84696494834E+02  0.35969750361E+04  0.35959777411E+04 0.  0.
        1    1    3    3  502    0  0.13354659568E+04 -0.17123141559E+03 -0.12343055407E+04  0.18265540472E+04  0.50400001928E-02 0. -1.
       -1    1    3    3    0  502 -0.13354659568E+04  0.17123141559E+03  0.11496090459E+04  0.17704209889E+04  0.50400001928E-02 0.  1.
</event>
<event>
 5   0  0.2476968E-08  0.3600335E+04  0.7818609E-02  0.8090415E-01
       -2   -1    0    0    0  501  0.00000000000E+00  0.00000000000E+00  0.21031713542E+04  0.21031713542E+04  0.25500000920E-02 0.  1.
        2   -1    0    0  501    0  0.00000000000E+00  0.00000000000E+00 -0.15408172247E+04  0.15408172247E+04  0.25500000920E-02 0. -1.
    10030    2    1    2    0    0  0.00000000000E+00  0.00000000000E+00  0.56235412957E+03  0.36439885789E+04  0.36003347894E+04 0.  0.
        2    1    3    3  502    0  0.37708649862E+03 -0.17505368489E+04  0.46788369858E+03  0.18508075649E+04  0.25500000920E-02 0.  1.
       -2    1    3    3    0  502 -0.37708649862E+03  0.17505368489E+04  0.94470430994E+02  0.17931810140E+04  0.25500000920E-02 0. -1.
</event>
<event>
 5   0  0.8024500E-09  0.3604373E+04  0.7818609E-02  0.8089491E-01
       -1   -1    0    0    0  501  0.00000000000E+00  0.00000000000E+00  0.13709915001E+04  0.13709915001E+04  0.50400001928E-02 0. -1.
        1   -1    0    0  501    0  0.00000000000E+00  0.00000000000E+00 -0.23689979507E+04  0.23689979508E+04  0.50400001928E-02 0.  1.
    10030    2    1    2    0    0  0.00000000000E+00  0.00000000000E+00 -0.99800645064E+03  0.37399894509E+04  0.36043729298E+04 0.  0.
        5    1    3    3  502    0 -0.15412622313E+04 -0.67612400598E+03  0.16961825871E+03  0.16915748227E+04  0.46999998093E+01 0. -1.
       -5    1    3    3    0  502  0.15412622313E+04  0.67612400598E+03 -0.11676247093E+04  0.20484146282E+04  0.46999998093E+01 0.  1.
</event>
<event>
 5   0  0.8247570E-09  0.3598900E+04  0.7818609E-02  0.8090744E-01
       -1   -1    0    0    0  501  0.00000000000E+00  0.00000000000E+00  0.15831067030E+04  0.15831067030E+04  0.50400001928E-02 0.  1.
        1   -1    0    0  501    0  0.00000000000E+00  0.00000000000E+00 -0.20453576869E+04  0.20453576869E+04  0.50400001928E-02 0. -1.
    10030    2    1    2    0    0  0.00000000000E+00  0.00000000000E+00 -0.46225098392E+03  0.36284643899E+04  0.35988995341E+04 0.  0.
        3    1    3    3  502    0  0.96381645648E+03  0.65679280001E+03 -0.16126745280E+04  0.19902356864E+04  0.10100000352E+00 0. -1.
       -3    1    3    3    0  502 -0.96381645648E+03 -0.65679280001E+03  0.11504235441E+04  0.16382287035E+04  0.10100000352E+00 0.  1.
</event>
<event>
 5   0  0.2590795E-08  0.3601574E+04  0.7818609E-02  0.8090131E-01
        2   -1    0    0  501    0  0.00000000000E+00  0.00000000000E+00  0.30294497934E+04  0.30294497934E+04  0.25500000920E-02 0. -1.
       -2   -1    0    0    0  501  0.00000000000E+00  0.00000000000E+00 -0.10704363352E+04  0.10704363352E+04  0.25500000920E-02 0.  1.
    10030    2    1    2    0    0  0.00000000000E+00  0.00000000000E+00  0.19590134581E+04  0.40998861286E+04  0.36015736197E+04 0.  0.
        4    1    3    3  502    0  0.14675764400E+04 -0.96635822496E+03  0.14279723211E+04  0.22642295354E+04  0.12699999809E+01 0.  1.
       -4    1    3    3    0  502 -0.14675764400E+04  0.96635822496E+03  0.53104113706E+03  0.18356565932E+04  0.12699999809E+01 0. -1.
</event>
<event>
 5   0  0.8024500E-09  0.3603934E+04  0.7818609E-02  0.8089591E-01
       -1   -1    0    0    0  501  0.00000000000E+00  0.00000000000E+00  0.18765541303E+04  0.18765541304E+04  0.50400001928E-02 0.  1.
        1   -1    0    0  501    0  0.00000000000E+00  0.00000000000E+00 -0.17303443723E+04  0.17303443723E+04  0.50400001928E-02 0. -1.
    10030    2    1    2    0    0  0.00000000000E+00  0.00000000000E+00  0.14620975805E+03  0.36068985027E+04  0.36039338944E+04 0.  0.
        5    1    3    3  502    0 -0.16848822278E+04 -0.56838688093E+03 -0.21897593563E+03  0.17916094213E+04  0.46999998093E+01 0. -1.
       -5    1    3    3    0  502  0.16848822278E+04  0.56838688093E+03  0.36518569368E+03  0.18152890814E+04  0.46999998093E+01 0.  1.
</event>
<event>
 5   0  0.8024500E-09  0.3599465E+04  0.7818609E-02  0.8090614E-01
       -1   -1    0    0    0  501  0.00000000000E+00  0.00000000000E+00  0.23644359913E+04  0.23644359913E+04  0.50400001928E-02 0.  1.
        1   -1    0    0  501    0  0.00000000000E+00  0.00000000000E+00 -0.13698985453E+04  0.13698985453E+04  0.50400001928E-02 0. -1.
    10030    2    1    2    0    0  0.00000000000E+00  0.00000000000E+00  0.99453744602E+03  0.37343345366E+04  0.35994651963E+04 0.  0.
        1    1    3    3  502    0  0.25645193773E+03  0.22617778191E+03 -0.13358879408E+04  0.13789563357E+04  0.50400001928E-02 0. -1.
       -1    1    3    3    0  502 -0.25645193773E+03 -0.22617778191E+03  0.23304253868E+04  0.23553782008E+04  0.50400001928E-02 0.  1.
</event>
<event>
 5   0  0.8024500E-09  0.3600069E+04  0.7818609E-02  0.8090476E-01
       -1   -1    0    0    0  501  0.00000000000E+00  0.00000000000E+00  0.20301794367E+04  0.20301794367E+04  0.50400001928E-02 0.  1.
        1   -1    0    0  501    0  0.00000000000E+00  0.00000000000E+00 -0.15959792648E+04  0.15959792648E+04  0.50400001928E-02 0. -1.
    10030    2    1    2    0    0  0.00000000000E+00  0.00000000000E+00  0.43420017194E+03  0.36261587015E+04  0.36000690464E+04 0.  0.
        5    1    3    3  502    0 -0.66149551710E+03 -0.75727066800E+03  0.17209259137E+04  0.19931490848E+04  0.46999998093E+01 0.  1.
       -5    1    3    3    0  502  0.66149551710E+03  0.75727066800E+03 -0.12867257418E+04  0.16330096167E+04  0.46999998093E+01 0. -1.
</event>
<event>
 5   0  0.2482243E-08  0.3600799E+04  0.7818609E-02  0.8090309E-01
        2   -1    0    0  501    0  0.00000000000E+00  0.00000000000E+00  0.24152977252E+04  0.24152977252E+04  0.25500000920E-02 0.  1.
       -2   -1    0    0    0  501  0.00000000000E+00  0.00000000000E+00 -0.13420447586E+04  0.13420447586E+04  0.25500000920E-02 0. -1.
    10030    2    1    2    0    0  0.00000000000E+00  0.00000000000E+00  0.10732529666E+04  0.37573424838E+04  0.36007986073E+04 0.  0.
        5    1    3    3  502    0 -0.45386598648E+03 -0.47294762854E+02 -0.12806933253E+04  0.13595692744E+04  0.46999998093E+01 0. -1.
       -5    1    3    3    0  502  0.45386598648E+03  0.47294762854E+02  0.23539462920E+04  0.23977732094E+04  0.46999998093E+01 0.  1.
</event>
<event>
 5   0  0.8024500E-09  0.3601391E+04  0.7818609E-02  0.8090173E-01
        1   -1    0    0  501    0  0.00000000000E+00  0.00000000000E+00  0.19442089224E+04  0.19442089224E+04  0.50400001928E-02 0. -1.
       -1   -1    0    0    0  501  0.00000000000E+00  0.00000000000E+00 -0.16677751875E+04  0.16677751875E+04  0.50400001928E-02 0.  1.
    10030    2    1    2    0    0  0.00000000000E+00  0.00000000000E+00  0.27643373493E+03  0.36119841099E+04  0.36013905093E+04 0.  0.
        1    1    3    3  502    0 -0.42189695999E+03  0.10099529602E+04  0.15722834596E+04  0.19157445821E+04  0.50400001928E-02 0. -1.
       -1    1    3    3    0  502  0.42189695999E+03 -0.10099529602E+04 -0.12958497247E+04  0.16962395278E+04  0.50400001928E-02 0.  1.
</event>
<event>
 5   0  0.8024500E-09  0.3592814E+04  0.7818609E-02  0.8092140E-01
        3   -1    0    0  501    0  0.00000000000E+00  0.00000000000E+00  0.29828324000E+04  0.29828324017E+04  0.10100000352E+00 0. -1.
       -3   -1    0    0    0  501  0.00000000000E+00  0.00000000000E+00 -0.10818836516E+04  0.10818836563E+04  0.10100000352E+00 0.  1.
    10030    2    1    2    0    0  0.00000000000E+00  0.00000000000E+00  0.19009487484E+04  0.40647160580E+04  0.35928137286E+04 0.  0.
        1    1    3    3  502    0 -0.82454559771E+03  0.85897579983E+03  0.24722770198E+04  0.27440605916E+04  0.50400001928E-02 0. -1.
       -1    1    3    3    0  502  0.82454559771E+03 -0.85897579983E+03 -0.57132827138E+03  0.13206554665E+04  0.50400001928E-02 0.  1.
</event>
<event>
 5   0  0.2482243E-08  0.3593462E+04  0.7818609E-02  0.8091991E-01
       -2   -1    0    0    0  501  0.00000000000E+00  0.00000000000E+00  0.10166059141E+04  0.10166059141E+04  0.25500000920E-02 0.  1.
        2   -1    0    0  501    0  0.00000000000E+00  0.00000000000E+00 -0.31755101968E+04  0.31755101968E+04  0.25500000920E-02 0. -1.
    10030    2    1    2    0    0  0.00000000000E+00  0.00000000000E+00 -0.21589042827E+04  0.41921161108E+04  0.35934620890E+04 0.  0.
        5    1    3    3  502    0 -0.15959007833E+04 -0.80606722967E+03 -0.87215019433E+03  0.19892993089E+04  0.46999998093E+01 0.  1.
       -5    1    3    3    0  502  0.15959007833E+04  0.80606722967E+03 -0.12867540883E+04  0.22028168019E+04  0.46999998093E+01 0. -1.
</event>
<event>
 5   0  0.8024500E-09  0.3600714E+04  0.7818609E-02  0.8090328E-01
       -1   -1    0    0    0  501  0.00000000000E+00  0.00000000000E+00  0.20578000214E+04  0.20578000214E+04  0.50400001928E-02 0.  1.
        1   -1    0    0  501    0  0.00000000000E+00  0.00000000000E+00 -0.15751214360E+04  0.15751214360E+04  0.50400001928E-02 0. -1.
    10030    2    1    2    0    0  0.00000000000E+00  0.00000000000E+00  0.48267858539E+03  0.36329214573E+04  0.36007137762E+04 0.  0.
        5    1    3    3  502    0 -0.38075197215E+03  0.17021053412E+04  0.69156860668E+03  0.18762792662E+04  0.46999998093E+01 0.  1.
       -5    1    3    3    0  502  0.38075197215E+03 -0.17021053412E+04 -0.20889002129E+03  0.17566421912E+04  0.46999998093E+01 0. -1.
</event>
<event>
 5   0  0.2590795E-08  0.3601410E+04  0.7818609E-02  0.8090169E-01
        2   -1    0    0  501    0  0.00000000000E+00  0.00000000000E+00  0.26030103982E+04  0.26030103982E+04  0.25500000920E-02 0.  1.
       -2   -1    0    0    0  501  0.00000000000E+00  0.00000000000E+00 -0.12456876736E+04  0.12456876736E+04  0.25500000920E-02 0. -1.
    10030    2    1    2    0    0  0.00000000000E+00  0.00000000000E+00  0.13573227245E+04  0.38486980718E+04  0.36014097058E+04 0.  0.
        4    1    3    3  502    0 -0.15760248108E+04  0.44165109034E+03 -0.12363902164E+03  0.16414012643E+04  0.12699999809E+01 0. -1.
       -4    1    3    3    0  502  0.15760248108E+04 -0.44165109034E+03  0.14809617462E+04  0.22072968075E+04  0.12699999809E+01 0.  1.
</event>
<event>
 5   0  0.8146881E-09  0.3604458E+04  0.7818609E-02  0.8089471E-01
       -1   -1    0    0    0  501  0.00000000000E+00  0.00000000000E+00  0.16801370924E+04  0.16801370924E+04  0.50400001928E-02 0.  1.
        1   -1    0    0  501    0  0.00000000000E+00  0.00000000000E+00 -0.19331935562E+04  0.19331935562E+04  0.50400001928E-02 0. -1.
    10030    2    1    2    0    0  0.00000000000E+00  0.00000000000E+00 -0.25305646380E+03  0.36133306486E+04  0.36044584618E+04 0.  0.
        4    1    3    3  502    0 -0.14194660345E+04 -0.13024200928E+03 -0.12320490542E+04  0.18840895119E+04  0.12699999809E+01 0. -1.
       -4    1    3    3    0  502  0.14194660345E+04  0.13024200928E+03  0.97899259040E+03  0.17292411367E+04  0.12699999809E+01 0.  1.
</event>
<event>
 5   0  0.8063410E-09  0.3599942E+04  0.7818609E-02  0.8090505E-01
        1   -1    0    0  501    0  0.00000000000E+00  0.00000000000E+00  0.24767941961E+04  0.24767941961E+04  0.50400001928E-02 0. -1.
       -1   -1    0    0    0  501  0.00000000000E+00  0.00000000000E+00 -0.13081004921E+04  0.13081004921E+04  0.50400001928E-02 0.  1.
    10030    2    1    2    0    0  0.00000000000E+00  0.00000000000E+00  0.11686937039E+04  0.37848946882E+04  0.35999420589E+04 0.  0.
        2    1    3    3  502    0  0.80800819587E+03  0.11685396724E+04 -0.57766612854E+03  0.15336428420E+04  0.25500000920E-02 0.  1.
       -2    1    3    3    0  502 -0.80800819587E+03 -0.11685396724E+04  0.17463598325E+04  0.22512518462E+04  0.25500000920E-02 0. -1.
</event>
<event>
 5   0  0.8247570E-09  0.3599745E+04  0.7818609E-02  0.8090550E-01
       -1   -1    0    0    0  501  0.00000000000E+00  0.00000000000E+00  0.14082837183E+04  0.14082837183E+04  0.50400001928E-02 0.  1.
        1   -1    0    0  501    0  0.00000000000E+00  0.00000000000E+00 -0.23003462237E+04  0.23003462237E+04  0.50400001928E-02 0. -1.
    10030    2    1    2    0    0  0.00000000000E+00  0.00000000000E+00 -0.89206250539E+03  0.37086299420E+04  0.35997445094E+04 0.  0.
        3    1    3    3  502    0  0.14452172922E+02 -0.49111307053E+03  0.13378573033E+04  0.14252238728E+04  0.10100000352E+00 0.  1.
       -3    1    3    3    0  502 -0.14452172922E+02  0.49111307053E+03 -0.22299198087E+04  0.22834060692E+04  0.10100000352E+00 0. -1.
</event>
<event>
 5   0  0.2608070E-08  0.3599840E+04  0.7818609E-02  0.8090528E-01
        2   -1    0    0  501    0  0.00000000000E+00  0.00000000000E+00  0.24776505245E+04  0.24776505245E+04  0.25500000920E-02 0. -1.
       -2   -1    0    0    0  501  0.00000000000E+00  0.00000000000E+00 -0.13075742550E+04  0.13075742550E+04  0.25500000920E-02 0.  1.
    10030    2    1    2    0    0  0.00000000000E+00  0.00000000000E+00  0.11700762695E+04  0.37852247796E+04  0.35998400180E+04 0.  0.
        3    1    3    3  502    0  0.12339152365E+04 -0.31787822638E+03 -0.75169617488E+03  0.14794054641E+04  0.10100000352E+00 0.  1.
       -3    1    3    3    0  502 -0.12339152365E+04  0.31787822638E+03  0.19217724444E+04  0.23058193155E+04  0.10100000352E+00 0. -1.
</event>
<event>
 5   0  0.8063410E-09  0.3599842E+04  0.7818609E-02  0.8090528E-01
       -1   -1    0    0    0  501  0.00000000000E+00  0.00000000000E+00  0.12009524438E+04  0.12009524438E+04  0.50400001928E-02 0.  1.
        1   -1    0    0  501    0  0.00000000000E+00  0.00000000000E+00 -0.26976211537E+04  0.26976211537E+04  0.50400001928E-02 0. -1.
    10030    2    1    2    0    0  0.00000000000E+00  0.00000000000E+00 -0.14966687099E+04  0.38985735975E+04  0.35998415060E+04 0.  0.
        2    1    3    3  502    0 -0.13250842640E+04  0.10952246060E+04 -0.13258298102E+04  0.21709882381E+04  0.25500000920E-02 0. -1.
       -2    1    3    3    0  502  0.13250842640E+04 -0.10952246060E+04 -0.17083889968E+03  0.17275853594E+04  0.25500000920E-02 0.  1.
</event>
<event>
 5   0  0.8063410E-09  0.3595240E+04  0.7818609E-02  0.8091583E-01
        1   -1    0    0  501    0  0.00000000000E+00  0.00000000000E+00  0.18346894602E+04  0.18346894602E+04  0.50400001928E-02 0. -1.
       -1   -1    0    0    0  501  0.00000000000E+00  0.00000000000E+00 -0.17612990947E+04  0.17612990947E+04  0.50400001928E-02 0.  1.
    10030    2    1    2    0    0  0.00000000000E+00  0.00000000000E+00  0.73390365479E+02  0.35959885549E+04  0.35952395666E+04 0.  0.
        2    1    3    3  502    0 -0.10424155252E+04 -0.42457304617E+03 -0.13652189054E+04  0.17693826771E+04  0.25500000920E-02 0.  1.
       -2    1    3    3    0  502  0.10424155252E+04  0.42457304617E+03  0.14386092708E+04  0.18266058778E+04  0.25500000920E-02 0. -1.
</event>
<event>
 5   0  0.2482243E-08  0.3602287E+04  0.7818609E-02  0.8089968E-01
        2   -1    0    0  501    0  0.00000000000E+00  0.00000000000E+00  0.20887556989E+04  0.20887556989E+04  0.25500000920E-02 0.  1.
       -2   -1    0    0    0  501  0.00000000000E+00  0.00000000000E+00 -0.15531345722E+04  0.15531345722E+04  0.25500000920E-02 0. -1.
    10030    2    1    2    0    0  0.00000000000E+00  0.00000000000E+00  0.53562112670E+03  0.36418902712E+04  0.36022874338E+04 0.  0.
        5    1    3    3  502    0  0.46342461794E+03 -0.12628010868E+03 -0.14871848618E+04  0.15628339469E+04  0.46999998093E+01 0. -1.
       -5    1    3    3    0  502 -0.46342461794E+03  0.12628010868E+03  0.20228059885E+04  0.20790563243E+04  0.46999998093E+01 0.  1.
</event>
<event>
 5   0  0.2590795E-08  0.3597683E+04  0.7818609E-02  0.8091023E-01
        2   -1    0    0  501    0  0.00000000000E+00  0.00000000000E+00  0.26659154301E+04  0.26659154301E+04  0.25500000920E-02 0. -1.
       -2   -1    0    0    0  501  0.00000000000E+00  0.00000000000E+00 -0.12137788005E+04  0.12137788005E+04  0.25500000920E-02 0.  1.
    10030    2    1    2    0    0  0.00000000000E+00  0.00000000000E+00  0.14521366296E+04  0.38796942306E+04  0.35976834952E+04 0.  0.
        4    1    3    3  502    0 -0.11889119079E+04  0.56745859201E+03 -0.59481646951E+03  0.14454511488E+04  0.12699999809E+01 0.  1.
       -4    1    3    3    0  502  0.11889119079E+04 -0.56745859201E+03  0.20469530991E+04  0.24342430818E+04  0.12699999809E+01 0. -1.
</event>
<event>
 5   0  0.8063410E-09  0.3598671E+04  0.7818609E-02  0.8090796E-01
        1   -1    0    0  501    0  0.00000000000E+00  0.00000000000E+00  0.24610223487E+04  0.24610223487E+04  0.50400001928E-02 0.  1.
       -1   -1    0    0    0  501  0.00000000000E+00  0.00000000000E+00 -0.13155539066E+04  0.13155539067E+04  0.50400001928E-02 0. -1.
    10030    2    1    2    0    0  0.00000000000E+00  0.00000000000E+00  0.11454684420E+04  0.37765762553E+04  0.35986706241E+04 0.  0.
        2    1    3    3  502    0  0.73012087198E+03  0.16117805920E+04  0.91552329755E+03  0.19922590375E+04  0.25500000920E-02 0.  1.
       -2    1    3    3    0  502 -0.73012087198E+03 -0.16117805920E+04  0.22994514449E+03  0.17843172178E+04  0.25500000920E-02 0. -1.
</event>
<event>
 5   0  0.8247570E-09  0.3600649E+04  0.7818609E-02  0.8090343E-01
        1   -1    0    0  501    0  0.00000000000E+00  0.00000000000E+00  0.20269812498E+04  0.20269812498E+04  0.50400001928E-02 0.  1.
       -1   -1    0    0    0  501  0.00000000000E+00  0.00000000000E+00 -0.15990120478E+04  0.15990120478E+04  0.50400001928E-02 0. -1.
    10030    2    1    2    0    0  0.00000000000E+00  0.00000000000E+00  0.42796920202E+03  0.36259932976E+04  0.36006485188E+04 0.  0.
        3    1    3    3  502    0  0.71651322869E+03  0.10941563675E+04 -0.10318972164E+04  0.16659475498E+04  0.10100000352E+00 0. -1.
       -3    1    3    3    0  502 -0.71651322869E+03 -0.10941563675E+04  0.14598664184E+04  0.19600457477E+04  0.10100000352E+00 0.  1.
</event>
<event>
 5   0  0.8247570E-09  0.3600224E+04  0.7818609E-02  0.8090440E-01
        1   -1    0    0  501    0  0.00000000000E+00  0.00000000000E+00  0.15778814684E+04  0.15778814684E+04  0.50400001928E-02 0. -1.
       -1   -1    0    0    0  501  0.00000000000E+00  0.00000000000E+00 -0.20536421699E+04  0.20536421699E+04  0.50400001928E-02 0.  1.
    10030    2    1    2    0    0  0.00000000000E+00  0.00000000000E+00 -0.47576070149E+03  0.36315236382E+04  0.36002243944E+04 0.  0.
        3    1    3    3  502    0 -0.91917647423E+03  0.42139426263E+03  0.12643437672E+04  0.16189575928E+04  0.10100000352E+00 0. -1.
       -3    1    3    3    0  502  0.91917647423E+03 -0.42139426263E+03 -0.17401044687E+04  0.20125660455E+04  0.10100000352E+00 0.  1.
</event>
<event>
 5   0  0.2476968E-08  0.3595877E+04  0.7818609E-02  0.8091437E-01
       -2   -1    0    0    0  501  0.00000000000E+00  0.00000000000E+00  0.21210345640E+04  0.21210345640E+04  0.25500000920E-02 0. -1.
        2   -1    0    0  501    0  0.00000000000E+00  0.00000000000E+00 -0.15240595325E+04  0.15240595325E+04  0.25500000920E-02 0.  1.
    10030    2    1    2    0    0  0.00000000000E+00  0.00000000000E+00  0.59697503147E+03  0.36450940965E+04  0.35958770535E+04 0.  0.
        2    1    3    3  502    0 -0.17505337991E+04 -0.31195754067E+03  0.56839653733E+03  0.18667513794E+04  0.25500000920E-02 0. -1.
       -2    1    3    3    0  502  0.17505337991E+04  0.31195754067E+03  0.28578494137E+02  0.17783427170E+04  0.25500000920E-02 0.  1.
</event>
<event>
 5   0  0.8024500E-09  0.3597984E+04  0.7818609E-02  0.8090954E-01
       -1   -1    0    0    0  501  0.00000000000E+00  0.00000000000E+00  0.15934561250E+04  0.15934561250E+04  0.50400001928E-02 0.  1.
        1   -1    0    0  501    0  0.00000000000E+00  0.00000000000E+00 -0.20310396734E+04  0.20310396734E+04  0.50400001928E-02 0. -1.
    10030    2    1    2    0    0  0.00000000000E+00  0.00000000000E+00 -0.43758354833E+03  0.36244957984E+04  0.35979842177E+04 0.  0.
        1    1    3    3  502    0 -0.14423110120E+04  0.10219823514E+04  0.11783155379E+03  0.17716075347E+04  0.50400001928E-02 0. -1.
       -1    1    3    3    0  502  0.14423110120E+04 -0.10219823514E+04 -0.55541510212E+03  0.18528882637E+04  0.50400001928E-02 0.  1.
</event>
<event>
 5   0  0.2482243E-08  0.3600976E+04  0.7818609E-02  0.8090268E-01
       -2   -1    0    0    0  501  0.00000000000E+00  0.00000000000E+00  0.15181362638E+04  0.15181362638E+04  0.25500000920E-02 0.  1.
        2   -1    0    0  501    0  0.00000000000E+00  0.00000000000E+00 -0.21353528934E+04  0.21353528934E+04  0.25500000920E-02 0. -1.
    10030    2    1    2    0    0  0.00000000000E+00  0.00000000000E+00 -0.61721662961E+03  0.36534891573E+04  0.36009757920E+04 0.  0.
        5    1    3    3  502    0 -0.73879817763E+03 -0.12104689015E+04  0.81692833028E+03  0.16365975973E+04  0.46999998093E+01 0. -1.
       -5    1    3    3    0  502  0.73879817763E+03  0.12104689015E+04 -0.14341449599E+04  0.20168915600E+04  0.46999998093E+01 0.  1.
</event>
<event>
 5   0  0.8247570E-09  0.3597784E+04  0.7818609E-02  0.8091000E-01
       -1   -1    0    0    0  501  0.00000000000E+00  0.00000000000E+00  0.96095808839E+03  0.96095808840E+03  0.50400001928E-02 0. -1.
        1   -1    0    0  501    0  0.00000000000E+00  0.00000000000E+00 -0.33674847768E+04  0.33674847768E+04  0.50400001928E-02 0.  1.
    10030    2    1    2    0    0  0.00000000000E+00  0.00000000000E+00 -0.24065266884E+04  0.43284428652E+04  0.35977836143E+04 0.  0.
        3    1    3    3  502    0 -0.15465240185E+04 -0.20840179948E+03 -0.12662317641E+03  0.15656312748E+04  0.10100000352E+00 0. -1.
       -3    1    3    3    0  502  0.15465240185E+04  0.20840179948E+03 -0.22799035120E+04  0.27628115903E+04  0.10100000352E+00 0.  1.
</event>
<event>
 5   0  0.2476968E-08  0.3606556E+04  0.7818609E-02  0.8088992E-01
       -2   -1    0    0    0  501  0.00000000000E+00  0.00000000000E+00  0.10509103640E+04  0.10509103640E+04  0.25500000920E-02 0. -1.
        2   -1    0    0  501    0  0.00000000000E+00  0.00000000000E+00 -0.30942798027E+04  0.30942798027E+04  0.25500000920E-02 0.  1.
    10030    2    1    2    0    0  0.00000000000E+00  0.00000000000E+00 -0.20433694387E+04  0.41451901668E+04  0.36065555390E+04 0.  0.
        2    1    3    3  502    0 -0.99396641095E+03 -0.14373106961E+04 -0.15330860955E+04  0.23246901384E+04  0.25500000920E-02 0.  1.
       -2    1    3    3    0  502  0.99396641095E+03  0.14373106961E+04 -0.51028334322E+03  0.18205000284E+04  0.25500000920E-02 0. -1.
</event>
<event>
 5   0  0.2482243E-08  0.3600623E+04  0.7818609E-02  0.8090349E-01
        2   -1    0    0  501    0  0.00000000000E+00  0.00000000000E+00  0.25673925760E+04  0.25673925760E+04  0.25500000920E-02 0.  1.
       -2   -1    0    0    0  501  0.00000000000E+00  0.00000000000E+00 -0.12624174529E+04  0.12624174529E+04  0.25500000920E-02 0. -1.
    10030    2    1    2    0    0  0.00000000000E+00  0.00000000000E+00  0.13049751230E+04  0.38298100289E+04  0.36006228330E+04 0.  0.
        5    1    3    3  502    0 -0.14588036658E+04  0.46700660151E+03 -0.35371596952E+03  0.15720497379E+04  0.46999998093E+01 0. -1.
       -5    1    3    3    0  502  0.14588036658E+04 -0.46700660151E+03  0.16586910926E+04  0.22577602910E+04  0.46999998093E+01 0.  1.
</event>
<event>
 5   0  0.8024500E-09  0.3601648E+04  0.7818609E-02  0.8090114E-01
       -1   -1    0    0    0  501  0.00000000000E+00  0.00000000000E+00  0.11823625547E+04  0.11823625547E+04  0.50400001928E-02 0. -1.
        1   -1    0    0  501    0  0.00000000000E+00  0.00000000000E+00 -0.27427855487E+04  0.27427855488E+04  0.50400001928E-02 0.  1.
    10030    2    1    2    0    0  0.00000000000E+00  0.00000000000E+00 -0.15604229941E+04  0.39251481034E+04  0.36016479163E+04 0.  0.
        1    1    3    3  502    0  0.14914774010E+04 -0.21233381608E+03  0.29500323927E+03  0.15351278117E+04  0.50400001928E-02 0. -1.
       -1    1    3    3    0  502 -0.14914774010E+04  0.21233381608E+03 -0.18554262334E+04  0.23900202917E+04  0.50400001928E-02 0.  1.
</event>
<event>
 5   0  0.8146881E-09  0.3599674E+04  0.7818609E-02  0.8090566E-01
       -1   -1    0    0    0  501  0.00000000000E+00  0.00000000000E+00  0.12088598948E+04  0.12088598948E+04  0.50400001928E-02 0.  1.
        1   -1    0    0  501    0  0.00000000000E+00  0.00000000000E+00 -0.26797252998E+04  0.26797252998E+04  0.50400001928E-02 0. -1.
    10030    2    1    2    0    0  0.00000000000E+00  0.00000000000E+00 -0.14708654050E+04  0.38885851946E+04  0.35996735653E+04 0.  0.
        4    1    3    3  502    0 -0.78083432515E+03 -0.96745343867E+03 -0.21413254268E+04  0.24760744326E+04  0.12699999809E+01 0. -1.
       -4    1    3    3    0  502  0.78083432515E+03  0.96745343867E+03  0.67046002179E+03  0.14125107621E+04  0.12699999809E+01 0.  1.
</event>
<event>
 5   0  0.2608070E-08  0.3600648E+04  0.7818609E-02  0.8090343E-01
        2   -1    0    0  501    0  0.00000000000E+00  0.00000000000E+00  0.12206322463E+04  0.12206322463E+04  0.25500000920E-02 0.  1.
       -2   -1    0    0    0  501  0.00000000000E+00  0.00000000000E+00 -0.26553172213E+04  0.26553172213E+04  0.25500000920E-02 0. -1.
    10030    2    1    2    0    0  0.00000000000E+00  0.00000000000E+00 -0.14346849750E+04  0.38759494676E+04  0.36006476220E+04 0.  0.
        3    1    3    3  502    0 -0.45358799445E+03 -0.13591029522E+03 -0.25870845376E+04  0.26300608533E+04  0.10100000352E+00 0. -1.
       -3    1    3    3    0  502  0.45358799445E+03  0.13591029522E+03  0.11523995626E+04  0.12458886142E+04  0.10100000352E+00 0.  1.
</event>
<event>
 5   0  0.8024500E-09  0.3599221E+04  0.7818609E-02  0.8090670E-01
        1   -1    0    0  501    0  0.00000000000E+00  0.00000000000E+00  0.20756337995E+04  0.20756337995E+04  0.50400001928E-02 0.  1.
       -1   -1    0    0    0  501  0.00000000000E+00  0.00000000000E+00 -0.15602930866E+04  0.15602930866E+04  0.50400001928E-02 0. -1.
    10030    2    1    2    0    0  0.00000000000E+00  0.00000000000E+00  0.51534071287E+03  0.36359268861E+04  0.35992205087E+04 0.  0.
        5    1    3    3  502    0 -0.11190689195E+04  0.16059087361E+03 -0.11567771053E+04  0.16174857145E+04  0.46999998093E+01 0. -1.
       -5    1    3    3    0  502  0.11190689195E+04 -0.16059087361E+03  0.16721178182E+04  0.20184411716E+04  0.46999998093E+01 0.  1.
</event>
<event>
 5   0  0.2494592E-08  0.3599331E+04  0.7818609E-02  0.8090645E-01
        2   -1    0    0  501    0  0.00000000000E+00  0.00000000000E+00  0.15230872991E+04  0.15230872991E+04  0.25500000920E-02 0.  1.
       -2   -1    0    0    0  501  0.00000000000E+00  0.00000000000E+00 -0.21264676325E+04  0.21264676325E+04  0.25500000920E-02 0. -1.
    10030    2    1    2    0    0  0.00000000000E+00  0.00000000000E+00 -0.60338033333E+03  0.36495549316E+04  0.35993309618E+04 0.  0.
        1    1    3    3  502    0 -0.11739370579E+04 -0.66011870094E+03  0.90866263880E+03  0.16246700300E+04  0.50400001928E-02 0.  1.
       -1    1    3    3    0  502  0.11739370579E+04  0.66011870094E+03 -0.15120429721E+04  0.20248849016E+04  0.50400001928E-02 0. -1.
</event>
<event>
 5   0  0.8024500E-09  0.3601907E+04  0.7818609E-02  0.8090055E-01
        1   -1    0    0  501    0  0.00000000000E+00  0.00000000000E+00  0.23023633983E+04  0.23023633983E+04  0.50400001928E-02 0.  1.
       -1   -1    0    0    0  501  0.00000000000E+00  0.00000000000E+00 -0.14087411886E+04  0.14087411886E+04  0.50400001928E-02 0. -1.
    10030    2    1    2    0    0  0.00000000000E+00  0.00000000000E+00  0.89362220975E+03  0.37111045869E+04  0.36019073560E+04 0.  0.
        1    1    3    3  502    0 -0.46904936568E+02 -0.18003094890E+04  0.45808924216E+03  0.18582680331E+04  0.50400001928E-02 0.  1.
       -1    1    3    3    0  502  0.46904936568E+02  0.18003094890E+04  0.43553296759E+03  0.18528365538E+04  0.50400001928E-02 0. -1.
</event>
<event>
 5   0  0.2476968E-08  0.3600469E+04  0.7818609E-02  0.8090384E-01
        2   -1    0    0  501    0  0.00000000000E+00  0.00000000000E+00  0.23087412048E+04  0.23087412048E+04  0.25500000920E-02 0. -1.
       -2   -1    0    0    0  501  0.00000000000E+00  0.00000000000E+00 -0.14037274877E+04  0.14037274877E+04  0.25500000920E-02 0.  1.
    10030    2    1    2    0    0  0.00000000000E+00  0.00000000000E+00  0.90501371713E+03  0.37124686925E+04  0.36004685757E+04 0.  0.
        2    1    3    3  502    0  0.14393662756E+04  0.88571535225E+03 -0.18692631507E+03  0.17003553770E+04  0.25500000920E-02 0.  1.
       -2    1    3    3    0  502 -0.14393662756E+04 -0.88571535225E+03  0.10919400322E+04  0.20121133155E+04  0.25500000920E-02 0. -1.
</event>
<event>
 5   0  0.8247570E-09  0.3611163E+04  0.7818609E-02  0.8087939E-01
       -1   -1    0    0    0  501  0.00000000000E+00  0.00000000000E+00  0.19694658625E+04  0.19694658626E+04  0.50400001928E-02 0. -1.
        1   -1    0    0  501    0  0.00000000000E+00  0.00000000000E+00 -0.16553345445E+04  0.16553345445E+04  0.50400001928E-02 0.  1.
    10030    2    1    2    0    0  0.00000000000E+00  0.00000000000E+00  0.31413131803E+03  0.36248004071E+04  0.36111631791E+04 0.  0.
        3    1    3    3  502    0  0.13198466344E+04 -0.10158854467E+04  0.85691199443E+03  0.18730500676E+04  0.10100000352E+00 0. -1.
       -3    1    3    3    0  502 -0.13198466344E+04  0.10158854467E+04 -0.54278067640E+03  0.17517503395E+04  0.10100000352E+00 0.  1.
</event>
<event>
 5   0  0.2590795E-08  0.3599485E+04  0.7818609E-02  0.8090610E-01
       -2   -1    0    0    0  501  0.00000000000E+00  0.00000000000E+00  0.15479304052E+04  0.15479304052E+04  0.25500000920E-02 0.  1.
        2   -1    0    0  501    0  0.00000000000E+00  0.00000000000E+00 -0.20925184495E+04  0.20925184495E+04  0.25500000920E-02 0. -1.
    10030    2    1    2    0    0  0.00000000000E+00  0.00000000000E+00 -0.54458804433E+03  0.36404488546E+04  0.35994849250E+04 0.  0.
        4    1    3    3  502    0 -0.11335712980E+04 -0.84311667649E+03  0.85540280692E+03  0.16515281387E+04  0.12699999809E+01 0.  1.
       -4    1    3    3    0  502  0.11335712980E+04  0.84311667649E+03 -0.13999908513E+04  0.19889207160E+04  0.12699999809E+01 0. -1.
</event>
<event>
 5   0  0.2494592E-08  0.3598783E+04  0.7818609E-02  0.8090770E-01
        2   -1    0    0  501    0  0.00000000000E+00  0.00000000000E+00  0.24526996237E+04  0.24526996237E+04  0.25500000920E-02 0. -1.
       -2   -1    0    0    0  501  0.00000000000E+00  0.00000000000E+00 -0.13201006143E+04  0.13201006143E+04  0.25500000920E-02 0.  1.
    10030    2    1    2    0    0  0.00000000000E+00  0.00000000000E+00  0.11325990094E+04  0.37728002380E+04  0.35987832833E+04 0.  0.
        1    1    3    3  502    0  0.10906753717E+03  0.15881663768E+04  0.14456945777E+04  0.21503955404E+04  0.50400001928E-02 0. -1.
       -1    1    3    3    0  502 -0.10906753717E+03 -0.15881663768E+04 -0.31309556830E+03  0.16224046977E+04  0.50400001928E-02 0.  1.
</event>
<event>
 5   0  0.8247570E-09  0.3598732E+04  0.7818609E-02  0.8090782E-01
        1   -1    0    0  501    0  0.00000000000E+00  0.00000000000E+00  0.29710763638E+04  0.29710763638E+04  0.50400001928E-02 0.  1.
       -1   -1    0    0    0  501  0.00000000000E+00  0.00000000000E+00 -0.10897457200E+04  0.10897457200E+04  0.50400001928E-02 0. -1.
    10030    2    1    2    0    0  0.00000000000E+00  0.00000000000E+00  0.18813306438E+04  0.40608220838E+04  0.35987318607E+04 0.  0.
        3    1    3    3  502    0  0.10429403919E+04  0.10599006746E+03 -0.70956824707E+03  0.12658774281E+04  0.10100000352E+00 0. -1.
       -3    1    3    3    0  502 -0.10429403919E+04 -0.10599006746E+03  0.25908988909E+04  0.27949446557E+04  0.10100000352E+00 0.  1.
</event>
<event>
 5   0  0.8024500E-09  0.3600149E+04  0.7818609E-02  0.8090458E-01
       -1   -1    0    0    0  501  0.00000000000E+00  0.00000000000E+00  0.11843063444E+04  0.11843063444E+04  0.50400001928E-02 0. -1.
        1   -1    0    0  501    0  0.00000000000E+00  0.00000000000E+00 -0.27360048510E+04  0.27360048510E+04  0.50400001928E-02 0.  1.
    10030    2    1    2    0    0  0.00000000000E+00  0.00000000000E+00 -0.15516985066E+04  0.39203111955E+04  0.36001488322E+04 0.  0.
        5    1    3    3  502    0  0.13854424054E+04  0.98740077267E+03 -0.14162244129E+04  0.22136225113E+04  0.46999998093E+01 0.  1.
       -5    1    3    3    0  502 -0.13854424054E+04 -0.98740077267E+03 -0.13547409368E+03  0.17066886842E+04  0.46999998093E+01 0. -1.
</event>
<event>
 5   0  0.8247570E-09  0.3598109E+04  0.7818609E-02  0.8090925E-01
        1   -1    0    0  501    0  0.00000000000E+00  0.00000000000E+00  0.22179486802E+04  0.22179486802E+04  0.50400001928E-02 0. -1.
       -1   -1    0    0    0  501  0.00000000000E+00  0.00000000000E+00 -0.14592751427E+04  0.14592751427E+04  0.50400001928E-02 0.  1.
    10030    2    1    2    0    0  0.00000000000E+00  0.00000000000E+00  0.75867353752E+03  0.36772238229E+04  0.35981091572E+04 0.  0.
        3    1    3    3  502    0  0.12170279365E+04  0.58325930070E+03 -0.83646326786E+03  0.15877717780E+04  0.10100000352E+00 0.  1.
       -3    1    3    3    0  502 -0.12170279365E+04 -0.58325930070E+03  0.15951368054E+04  0.20894520450E+04  0.10100000352E+00 0. -1.
</event>
<event>
 5   0  0.8024500E-09  0.3599542E+04  0.7818609E-02  0.8090597E-01
       -3   -1    0    0    0  501  0.00000000000E+00  0.00000000000E+00  0.12752789427E+04  0.12752789467E+04  0.10100000352E+00 0.  1.
        3   -1    0    0  501    0  0.00000000000E+00  0.00000000000E+00 -0.25399745472E+04  0.25399745492E+04  0.10100000352E+00 0. -1.
    10030    2    1    2    0    0  0.00000000000E+00  0.00000000000E+00 -0.12646956045E+04  0.38152534959E+04  0.35995422300E+04 0.  0.
        4    1    3    3  502    0  0.10543975456E+04 -0.80883865393E+02  0.91124937810E+03  0.13959489338E+04  0.12699999809E+01 0.  1.
       -4    1    3    3    0  502 -0.10543975456E+04  0.80883865393E+02 -0.21759449826E+04  0.24193045621E+04  0.12699999809E+01 0. -1.
</event>
<event>
 5   0  0.2476968E-08  0.3599828E+04  0.7818609E-02  0.8090531E-01
        2   -1    0    0  501    0  0.00000000000E+00  0.00000000000E+00  0.21891881273E+04  0.21891881273E+04  0.25500000920E-02 0. -1.
       -2   -1    0    0    0  501  0.00000000000E+00  0.00000000000E+00 -0.14798595482E+04  0.14798595482E+04  0.25500000920E-02 0.  1.
    10030    2    1    2    0    0  0.00000000000E+00  0.00000000000E+00  0.70932857910E+03  0.36690476756E+04  0.35998283032E+04 0.  0.
        2    1    3    3  502    0 -0.59684786930E+03  0.83727119092E+03 -0.11510507096E+04  0.15434274075E+04  0.25500000920E-02 0.  1.
       -2    1    3    3    0  502  0.59684786930E+03 -0.83727119092E+03  0.18603792887E+04  0.21256202681E+04  0.25500000920E-02 0. -1.
</event>
<event>
 5   0  0.8247570E-09  0.3596935E+04  0.7818609E-02  0.8091194E-01
       -1   -1    0    0    0  501  0.00000000000E+00  0.00000000000E+00  0.17599033922E+04  0.17599033922E+04  0.50400001928E-02 0.  1.
        1   -1    0    0  501    0  0.00000000000E+00  0.00000000000E+00 -0.18378761611E+04  0.18378761611E+04  0.50400001928E-02 0. -1.
    10030    2    1    2    0    0  0.00000000000E+00  0.00000000000E+00 -0.77972768911E+02  0.35977795534E+04  0.35969345229E+04 0.  0.
        3    1    3    3  502    0  0.89259560143E+03 -0.58444468109E+03  0.14091734887E+04  0.17675045755E+04  0.10100000352E+00 0.  1.
       -3    1    3    3    0  502 -0.89259560143E+03  0.58444468109E+03 -0.14871462576E+04  0.18302749779E+04  0.10100000352E+00 0. -1.
</event>
<event>
 5   0  0.2494592E-08  0.3596441E+04  0.7818609E-02  0.8091307E-01
        2   -1    0    0  501    0  0.00000000000E+00  0.00000000000E+00  0.22300454240E+04  0.22300454240E+04  0.25500000920E-02 0. -1.
       -2   -1    0    0    0  501  0.00000000000E+00  0.00000000000E+00 -0.14500141200E+04  0.14500141200E+04  0.25500000920E-02 0.  1.
    10030    2    1    2    0    0  0.00000000000E+00  0.00000000000E+00  0.78003130391E+03  0.36800595440E+04  0.35964412149E+04 0.  0.
        1    1    3    3  502    0 -0.68418855922E+03 -0.16199482745E+04  0.54437252049E+01  0.17585152916E+04  0.50400001928E-02 0.  1.
       -1    1    3    3    0  502  0.68418855922E+03  0.16199482745E+04  0.77458757871E+03  0.19215442524E+04  0.50400001928E-02 0. -1.
</event>
<event>
 5   0  0.2590795E-08  0.3600054E+04  0.7818609E-02  0.8090479E-01
       -2   -1    0    0    0  501  0.00000000000E+00  0.00000000000E+00  0.10526011190E+04  0.10526011190E+04  0.25500000920E-02 0. -1.
        2   -1    0    0  501    0  0.00000000000E+00  0.00000000000E+00 -0.30781818293E+04  0.30781818293E+04  0.25500000920E-02 0.  1.
    10030    2    1    2    0    0  0.00000000000E+00  0.00000000000E+00 -0.20255807103E+04  0.41307829483E+04  0.36000542429E+04 0.  0.
        4    1    3    3  502    0  0.22711498116E+03 -0.25885005017E+02 -0.30614599144E+04  0.30699820307E+04  0.12699999809E+01 0.  1.
       -4    1    3    3    0  502 -0.22711498116E+03  0.25885005017E+02  0.10358792042E+04  0.10608009176E+04  0.12699999809E+01 0. -1.
</event>
<event>
 5   0  0.8024500E-09  0.3579167E+04  0.7818609E-02  0.8095280E-01
        1   -1    0    0  501    0  0.00000000000E+00  0.00000000000E+00  0.13118538606E+04  0.13118538606E+04  0.50400001928E-02 0.  1.
       -1   -1    0    0    0  501  0.00000000000E+00  0.00000000000E+00 -0.24412848069E+04  0.24412848069E+04  0.50400001928E-02 0. -1.
    10030    2    1    2    0    0  0.00000000000E+00  0.00000000000E+00 -0.11294309463E+04  0.37531386675E+04  0.35791668856E+04 0.  0.
        5    1    3    3  502    0  0.60702324858E+03  0.16500551893E+04 -0.91474829644E+03  0.19819046112E+04  0.46999998093E+01 0. -1.
       -5    1    3    3    0  502 -0.60702324858E+03 -0.16500551893E+04 -0.21468264983E+03  0.17712340563E+04  0.46999998093E+01 0.  1.
</event>
<event>
 5   0  0.2608070E-08  0.3597342E+04  0.7818609E-02  0.8091101E-01
       -2   -1    0    0    0  501  0.00000000000E+00  0.00000000000E+00  0.13959885428E+04  0.13959885428E+04  0.25500000920E-02 0.  1.
        2   -1    0    0  501    0  0.00000000000E+00  0.00000000000E+00 -0.23175099370E+04  0.23175099370E+04  0.25500000920E-02 0. -1.
    10030    2    1    2    0    0  0.00000000000E+00  0.00000000000E+00 -0.92152139419E+03  0.37134984798E+04  0.35973419742E+04 0.  0.
        3    1    3    3  502    0 -0.85088680583E+02  0.16011198235E+03  0.13865304073E+04  0.13983356218E+04  0.10100000352E+00 0.  1.
       -3    1    3    3    0  502  0.85088680583E+02 -0.16011198235E+03 -0.23080518015E+04  0.23151628580E+04  0.10100000352E+00 0. -1.
</event>
<event>
 5   0  0.2608070E-08  0.3597781E+04  0.7818609E-02  0.8091000E-01
        2   -1    0    0  501    0  0.00000000000E+00  0.00000000000E+00  0.26518435001E+04  0.26518435001E+04  0.25500000920E-02 0. -1.
       -2   -1    0    0    0  501  0.00000000000E+00  0.00000000000E+00 -0.12202860976E+04  0.12202860976E+04  0.25500000920E-02 0.  1.
    10030    2    1    2    0    0  0.00000000000E+00  0.00000000000E+00  0.14315574025E+04  0.38721295977E+04  0.35977814032E+04 0.  0.
        3    1    3    3  502    0 -0.38419686132E+03  0.16078726898E+04 -0.47638769084E+02  0.16538232304E+04  0.10100000352E+00 0. -1.
       -3    1    3    3    0  502  0.38419686132E+03 -0.16078726898E+04  0.14791961716E+04  0.22183063673E+04  0.10100000352E+00 0.  1.
</event>
<event>
 5   0  0.8063410E-09  0.3599257E+04  0.7818609E-02  0.8090662E-01
       -1   -1    0    0    0  501  0.00000000000E+00  0.00000000000E+00  0.16197180171E+04  0.16197180171E+04  0.50400001928E-02 0.  1.
        1   -1    0    0  501    0  0.00000000000E+00  0.00000000000E+00 -0.19995220618E+04  0.19995220618E+04  0.50400001928E-02 0. -1.
    10030    2    1    2    0    0  0.00000000000E+00  0.00000000000E+00 -0.37980404464E+03  0.36192400789E+04  0.35992565394E+04 0.  0.
        2    1    3    3  502    0  0.55403144401E+03 -0.41796076581E+03  0.14797445029E+04  0.16344068761E+04  0.25500000920E-02 0.  1.
       -2    1    3    3    0  502 -0.55403144401E+03  0.41796076581E+03 -0.18595485475E+04  0.19848332029E+04  0.25500000920E-02 0. -1.
</event>
<event>
 5   0  0.8024500E-09  0.3596547E+04  0.7818609E-02  0.8091283E-01
        1   -1    0    0  501    0  0.00000000000E+00  0.00000000000E+00  0.16027225838E+04  0.16027225838E+04  0.50400001928E-02 0. -1.
       -1   -1    0    0    0  501  0.00000000000E+00  0.00000000000E+00 -0.20176843288E+04  0.20176843288E+04  0.50400001928E-02 0.  1.
    10030    2    1    2    0    0  0.00000000000E+00  0.00000000000E+00 -0.41496174500E+03  0.36204069127E+04  0.35965473671E+04 0.  0.
        5    1    3    3  502    0  0.14661964937E+04  0.39144558725E+03  0.76370152442E+03  0.16988890235E+04  0.46999998093E+01 0. -1.
       -5    1    3    3    0  502 -0.14661964937E+04 -0.39144558725E+03 -0.11786632694E+04  0.19215178892E+04  0.46999998093E+01 0.  1.
</event>
<event>
 5   0  0.8024500E-09  0.3599067E+04  0.7818609E-02  0.8090706E-01
        1   -1    0    0  501    0  0.00000000000E+00  0.00000000000E+00  0.10968426915E+04  0.10968426915E+04  0.50400001928E-02 0.  1.
       -1   -1    0    0    0  501  0.00000000000E+00  0.00000000000E+00 -0.29524014406E+04  0.29524014406E+04  0.50400001928E-02 0. -1.
    10030    2    1    2    0    0  0.00000000000E+00  0.00000000000E+00 -0.18555587491E+04  0.40492441320E+04  0.35990665136E+04 0.  0.
        1    1    3    3  502    0  0.12658027617E+04 -0.89656406219E+03 -0.19541575013E+04  0.24949579734E+04  0.50400001928E-02 0. -1.
       -1    1    3    3    0  502 -0.12658027617E+04  0.89656406219E+03  0.98598752174E+02  0.15542861587E+04  0.50400001928E-02 0.  1.
</event>
<event>
 5   0  0.2482243E-08  0.3600756E+04  0.7818609E-02  0.8090319E-01
        2   -1    0    0  501    0  0.00000000000E+00  0.00000000000E+00  0.27416241521E+04  0.27416241521E+04  0.25500000920E-02 0.  1.
       -2   -1    0    0    0  501  0.00000000000E+00  0.00000000000E+00 -0.11822777100E+04  0.11822777100E+04  0.25500000920E-02 0. -1.
    10030    2    1    2    0    0  0.00000000000E+00  0.00000000000E+00  0.15593464421E+04  0.39239018621E+04  0.36007561008E+04 0.  0.
        5    1    3    3  502    0  0.88000847416E+03  0.17517457524E+03  0.24805947856E+04  0.26378918906E+04  0.46999998093E+01 0.  1.
       -5    1    3    3    0  502 -0.88000847416E+03 -0.17517457524E+03 -0.92124834350E+03  0.12860099715E+04  0.46999998093E+01 0. -1.
</event>
<event>
 5   0  0.2608070E-08  0.3605379E+04  0.7818609E-02  0.8089261E-01
        2   -1    0    0  501    0  0.00000000000E+00  0.00000000000E+00  0.21825637295E+04  0.21825637295E+04  0.25500000920E-02 0. -1.
       -2   -1    0    0    0  501  0.00000000000E+00  0.00000000000E+00 -0.14889324266E+04  0.14889324266E+04  0.25500000920E-02 0.  1.
    10030    2    1    2    0    0  0.00000000000E+00  0.00000000000E+00  0.69363130296E+03  0.36714961561E+04  0.36053792644E+04 0.  0.
        3    1    3    3  502    0 -0.51770952095E+03 -0.12268542305E+04 -0.89057883771E+03  0.16019753829E+04  0.10100000352E+00 0.  1.
       -3    1    3    3    0  502  0.51770952095E+03  0.12268542305E+04  0.15842101407E+04  0.20695207732E+04  0.10100000352E+00 0. -1.
</event>
<event>
 5   0  0.2590795E-08  0.3601820E+04  0.7818609E-02  0.8090075E-01
       -2   -1    0    0    0  501  0.00000000000E+00  0.00000000000E+00  0.18852868354E+04  0.18852868354E+04  0.25500000920E-02 0.  1.
        2   -1    0    0  501    0  0.00000000000E+00  0.00000000000E+00 -0.17203093605E+04  0.17203093605E+04  0.25500000920E-02 0. -1.
    10030    2    1    2    0    0  0.00000000000E+00  0.00000000000E+00  0.16497747490E+03  0.36055961958E+04  0.36018198678E+04 0.  0.
        4    1    3    3  502    0 -0.10677736544E+04  0.10907844176E+03  0.15301156596E+04  0.18690356412E+04  0.12699999809E+01 0.  1.
       -4    1    3    3    0  502  0.10677736544E+04 -0.10907844176E+03 -0.13651381847E+04  0.17365605546E+04  0.12699999809E+01 0. -1.
</event>
<event>
 5   0  0.2608070E-08  0.3599968E+04  0.7818609E-02  0.8090499E-01
        2   -1    0    0  501    0  0.00000000000E+00  0.00000000000E+00  0.16377216524E+04  0.16377216524E+04  0.25500000920E-02 0. -1.
       -2   -1    0    0    0  501  0.00000000000E+00  0.00000000000E+00 -0.19783231656E+04  0.19783231656E+04  0.25500000920E-02 0.  1.
    10030    2    1    2    0    0  0.00000000000E+00  0.00000000000E+00 -0.34060151322E+03  0.36160448180E+04  0.35999681575E+04 0.  0.
        3    1    3    3  502    0 -0.44392628963E+03 -0.13921549770E+04  0.88547670635E+03  0.17085769044E+04  0.10100000352E+00 0. -1.
       -3    1    3    3    0  502  0.44392628963E+03  0.13921549770E+04 -0.12260782196E+04  0.19074679136E+04  0.10100000352E+00 0.  1.
</event>
<event>
 5   0  0.8024500E-09  0.3599556E+04  0.7818609E-02  0.8090594E-01
        1   -1    0    0  501    0  0.00000000000E+00  0.00000000000E+00  0.28331249423E+04  0.28331249423E+04  0.50400001928E-02 0. -1.
       -1   -1    0    0    0  501  0.00000000000E+00  0.00000000000E+00 -0.11433311388E+04  0.11433311388E+04  0.50400001928E-02 0.  1.
    10030    2    1    2    0    0  0.00000000000E+00  0.00000000000E+00  0.16897938034E+04  0.39764560811E+04  0.35995555096E+04 0.  0.
        5    1    3    3  502    0  0.15535580603E+04  0.38914770129E+03  0.17519682777E+04  0.23736877462E+04  0.46999998093E+01 0. -1.
       -5    1    3    3    0  502 -0.15535580603E+04 -0.38914770129E+03 -0.62174474291E+02  0.16027683349E+04  0.46999998093E+01 0.  1.
</event>
<event>
 5   0  0.8146881E-09  0.3601843E+04  0.7818609E-02  0.8090070E-01
        1   -1    0    0  501    0  0.00000000000E+00  0.00000000000E+00  0.12741651800E+04  0.12741651800E+04  0.50400001928E-02 0. -1.
       -1   -1    0    0    0  501  0.00000000000E+00  0.00000000000E+00 -0.25454456087E+04  0.25454456087E+04  0.50400001928E-02 0.  1.
    10030    2    1    2    0    0  0.00000000000E+00  0.00000000000E+00 -0.12712804288E+04  0.38196107887E+04  0.36018429517E+04 0.  0.
        4    1    3    3  502    0 -0.11733268646E+04 -0.60803618135E+03 -0.19330959899E+04  0.23416373861E+04  0.12699999809E+01 0.  1.
       -4    1    3    3    0  502  0.11733268646E+04  0.60803618135E+03  0.66181556115E+03  0.14779734026E+04  0.12699999809E+01 0. -1.
</event>
<event>
 5   0  0.8024500E-09  0.3601145E+04  0.7818609E-02  0.8090230E-01
        1   -1    0    0  501    0  0.00000000000E+00  0.00000000000E+00  0.16693575344E+04  0.16693575344E+04  0.50400001928E-02 0.  1.
       -1   -1    0    0    0  501  0.00000000000E+00  0.00000000000E+00 -0.19421008909E+04  0.19421008909E+04  0.50400001928E-02 0. -1.
    10030    2    1    2    0    0  0.00000000000E+00  0.00000000000E+00 -0.27274335654E+03  0.36114584253E+04  0.36011446818E+04 0.  0.
        5    1    3    3  502    0  0.11833542748E+04 -0.12901541560E+04 -0.55854476846E+03  0.18376124277E+04  0.46999998093E+01 0. -1.
       -5    1    3    3    0  502 -0.11833542748E+04  0.12901541560E+04  0.28580141191E+03  0.17738459976E+04  0.46999998093E+01 0.  1.
</event>
<event>
 5   0  0.8146881E-09  0.3601098E+04  0.7818609E-02  0.8090240E-01
        1   -1    0    0  501    0  0.00000000000E+00  0.00000000000E+00  0.19790764189E+04  0.19790764189E+04  0.50400001928E-02 0. -1.
       -1   -1    0    0    0  501  0.00000000000E+00  0.00000000000E+00 -0.16381264916E+04  0.16381264916E+04  0.50400001928E-02 0.  1.
    10030    2    1    2    0    0  0.00000000000E+00  0.00000000000E+00  0.34094992729E+03  0.36172029106E+04  0.36010984496E+04 0.  0.
        4    1    3    3  502    0  0.81660110927E+03 -0.15075013882E+04 -0.38205599415E+03  0.17565210510E+04  0.12699999809E+01 0.  1.
       -4    1    3    3    0  502 -0.81660110927E+03  0.15075013882E+04  0.72300592144E+03  0.18606818596E+04  0.12699999809E+01 0. -1.
</event>
<event>
 5   0  0.2608070E-08  0.3602380E+04  0.7818609E-02  0.8089947E-01
       -2   -1    0    0    0  501  0.00000000000E+00  0.00000000000E+00  0.14197334073E+04  0.14197334073E+04  0.25500000920E-02 0. -1.
        2   -1    0    0  501    0  0.00000000000E+00  0.00000000000E+00 -0.22851371773E+04  0.22851371773E+04  0.25500000920E-02 0.  1.
    10030    2    1    2    0    0  0.00000000000E+00  0.00000000000E+00 -0.86540377002E+03  0.37048705846E+04  0.36023800971E+04 0.  0.
        3    1    3    3  502    0  0.47432535651E+03 -0.16413278790E+03 -0.22117616357E+04  0.22679977202E+04  0.10100000352E+00 0.  1.
       -3    1    3    3    0  502 -0.47432535651E+03  0.16413278790E+03  0.13463578656E+04  0.14368728644E+04  0.10100000352E+00 0. -1.
</event>
<event>
 5   0  0.8247570E-09  0.3599980E+04  0.7818609E-02  0.8090496E-01
        1   -1    0    0  501    0  0.00000000000E+00  0.00000000000E+00  0.10185474382E+04  0.10185474382E+04  0.50400001928E-02 0.  1.
       -1   -1    0    0    0  501  0.00000000000E+00  0.00000000000E+00 -0.31809646343E+04  0.31809646343E+04  0.50400001928E-02 0. -1.
    10030    2    1    2    0    0  0.00000000000E+00  0.00000000000E+00 -0.21624171961E+04  0.41995120724E+04  0.35999796550E+04 0.  0.
        3    1    3    3  502    0  0.17090741072E+03 -0.17052895648E+04 -0.43935676521E+03  0.17692530119E+04  0.10100000352E+00 0.  1.
       -3    1    3    3    0  502 -0.17090741072E+03  0.17052895648E+04 -0.17230604309E+04  0.24302590606E+04  0.10100000352E+00 0. -1.
</event>
<event>
 5   0  0.2482243E-08  0.3600248E+04  0.7818609E-02  0.8090435E-01
       -2   -1    0    0    0  501  0.00000000000E+00  0.00000000000E+00  0.14903458921E+04  0.14903458921E+04  0.25500000920E-02 0. -1.
        2   -1    0    0  501    0  0.00000000000E+00  0.00000000000E+00 -0.21742911548E+04  0.21742911548E+04  0.25500000920E-02 0.  1.
    10030    2    1    2    0    0  0.00000000000E+00  0.00000000000E+00 -0.68394526266E+03  0.36646370469E+04  0.36002477086E+04 0.  0.
        5    1    3    3  502    0  0.11417991770E+04 -0.52007533896E+03  0.97194268044E+03  0.15870974711E+04  0.46999998093E+01 0. -1.
       -5    1    3    3    0  502 -0.11417991770E+04  0.52007533896E+03 -0.16558879431E+04  0.20775395758E+04  0.46999998093E+01 0.  1.
</event>
<event>
 5   0  0.2608070E-08  0.3599659E+04  0.7818609E-02  0.8090570E-01
        2   -1    0    0  501    0  0.00000000000E+00  0.00000000000E+00  0.22517953845E+04  0.22517953845E+04  0.25500000920E-02 0.  1.
       -2   -1    0    0    0  501  0.00000000000E+00  0.00000000000E+00 -0.14385795040E+04  0.14385795040E+04  0.25500000920E-02 0. -1.
    10030    2    1    2    0    0  0.00000000000E+00  0.00000000000E+00  0.81321588052E+03  0.36903748886E+04  0.35996592547E+04 0.  0.
        3    1    3    3  502    0  0.15502147231E+04 -0.56657063042E+03 -0.32926851437E+03  0.16830287376E+04  0.10100000352E+00 0. -1.
       -3    1    3    3    0  502 -0.15502147231E+04  0.56657063042E+03  0.11424843949E+04  0.20073461509E+04  0.10100000352E+00 0.  1.
</event>
<event>
 5   0  0.8247570E-09  0.3603444E+04  0.7818609E-02  0.8089703E-01
       -1   -1    0    0    0  501  0.00000000000E+00  0.00000000000E+00  0.15979230620E+04  0.15979230621E+04  0.50400001928E-02 0.  1.
        1   -1    0    0  501    0  0.00000000000E+00  0.00000000000E+00 -0.20315134118E+04  0.20315134118E+04  0.50400001928E-02 0. -1.
    10030    2    1    2    0    0  0.00000000000E+00  0.00000000000E+00 -0.43359034970E+03  0.36294364738E+04  0.36034439813E+04 0.  0.
        3    1    3    3  502    0  0.40712782152E+03 -0.58672251627E+03 -0.18828749781E+04  0.20137563327E+04  0.10100000352E+00 0. -1.
       -3    1    3    3    0  502 -0.40712782152E+03  0.58672251627E+03  0.14492846284E+04  0.16156801411E+04  0.10100000352E+00 0.  1.
</event>
<event>
 5   0  0.2590795E-08  0.3597402E+04  0.7818609E-02  0.8091087E-01
        2   -1    0    0  501    0  0.00000000000E+00  0.00000000000E+00  0.18153030007E+04  0.18153030007E+04  0.25500000920E-02 0. -1.
       -2   -1    0    0    0  501  0.00000000000E+00  0.00000000000E+00 -0.17822505479E+04  0.17822505479E+04  0.25500000920E-02 0.  1.
    10030    2    1    2    0    0  0.00000000000E+00  0.00000000000E+00  0.33052452795E+02  0.35975535486E+04  0.35974017110E+04 0.  0.
        4    1    3    3  502    0 -0.11918227358E+04 -0.84586689702E+03  0.10650889193E+04  0.18084104235E+04  0.12699999809E+01 0. -1.
       -4    1    3    3    0  502  0.11918227358E+04  0.84586689702E+03 -0.10320364665E+04  0.17891431251E+04  0.12699999809E+01 0.  1.
</event>
<event>
 5   0  0.8024500E-09  0.3601598E+04  0.7818609E-02  0.8090126E-01
        4   -1    0    0  501    0  0.00000000000E+00  0.00000000000E+00  0.12374269591E+04  0.12374276108E+04  0.12699999809E+01 0.  1.
       -4   -1    0    0    0  501  0.00000000000E+00  0.00000000000E+00 -0.26206600836E+04  0.26206603913E+04  0.12699999809E+01 0. -1.
    10030    2    1    2    0    0  0.00000000000E+00  0.00000000000E+00 -0.13832331245E+04  0.38580880022E+04  0.36015981391E+04 0.  0.
        2    1    3    3  502    0 -0.12027351006E+04  0.66795007513E+03 -0.19363249251E+04  0.23753069782E+04  0.25500000920E-02 0. -1.
       -2    1    3    3    0  502  0.12027351006E+04 -0.66795007513E+03  0.55309180068E+03  0.14827810239E+04  0.25500000920E-02 0.  1.
</event>
<event>
 5   0  0.8063410E-09  0.3600142E+04  0.7818609E-02  0.8090459E-01
       -1   -1    0    0    0  501  0.00000000000E+00  0.00000000000E+00  0.17800838855E+04  0.17800838855E+04  0.50400001928E-02 0.  1.
        1   -1    0    0  501    0  0.00000000000E+00  0.00000000000E+00 -0.18202829254E+04  0.18202829254E+04  0.50400001928E-02 0. -1.
    10030    2    1    2    0    0  0.00000000000E+00  0.00000000000E+00 -0.40199039838E+02  0.36003668109E+04  0.36001423875E+04 0.  0.
        2    1    3    3  502    0  0.98865924432E+03 -0.14258174217E+04 -0.49956019504E+03  0.18055367096E+04  0.25500000920E-02 0. -1.
       -2    1    3    3    0  502 -0.98865924432E+03  0.14258174217E+04  0.45936115520E+03  0.17948301012E+04  0.25500000920E-02 0.  1.
</event>
<event>
 5   0  0.8146881E-09  0.3599012E+04  0.7818609E-02  0.8090718E-01
       -1   -1    0    0    0  501  0.00000000000E+00  0.00000000000E+00  0.20494647639E+04  0.20494647639E+04  0.50400001928E-02 0. -1.
        1   -1    0    0  501    0  0.00000000000E+00  0.00000000000E+00 -0.15800328201E+04  0.15800328201E+04  0.50400001928E-02 0.  1.
    10030    2    1    2    0    0  0.00000000000E+00  0.00000000000E+00  0.46943194378E+03  0.36294975839E+04  0.35990118591E+04 0.  0.
        4    1    3    3  502    0  0.38874721708E+03 -0.14181031443E+04  0.12808451666E+04  0.19500530455E+04  0.12699999809E+01 0. -1.
       -4    1    3    3    0  502 -0.38874721708E+03  0.14181031443E+04 -0.81141322278E+03  0.16794445384E+04  0.12699999809E+01 0.  1.
</event>
<event>
 5   0  0.8247570E-09  0.3601105E+04  0.7818609E-02  0.8090239E-01
        1   -1    0    0  501    0  0.00000000000E+00  0.00000000000E+00  0.13168945640E+04  0.13168945640E+04  0.50400001928E-02 0. -1.
       -1   -1    0    0    0  501  0.00000000000E+00  0.00000000000E+00 -0.24618438943E+04  0.24618438943E+04  0.50400001928E-02 0.  1.
    10030    2    1    2    0    0  0.00000000000E+00  0.00000000000E+00 -0.11449493303E+04  0.37787384583E+04  0.36011047426E+04 0.  0.
        3    1    3    3  502    0 -0.57291770836E+03  0.96441242691E+03  0.90542518410E+03  0.14415688689E+04  0.10100000352E+00 0. -1.
       -3    1    3    3    0  502  0.57291770836E+03 -0.96441242691E+03 -0.20503745144E+04  0.23371695893E+04  0.10100000352E+00 0.  1.
</event>
<event>
 5   0  0.8024500E-09  0.3604170E+04  0.7818609E-02  0.8089537E-01
       -1   -1    0    0    0  501  0.00000000000E+00  0.00000000000E+00  0.14968307373E+04  0.14968307373E+04  0.50400001928E-02 0. -1.
        1   -1    0    0  501    0  0.00000000000E+00  0.00000000000E+00 -0.21695906236E+04  0.21695906236E+04  0.50400001928E-02 0.  1.
    10030    2    1    2    0    0  0.00000000000E+00  0.00000000000E+00 -0.67275988631E+03  0.36664213609E+04  0.36041697700E+04 0.  0.
        5    1    3    3  502    0  0.32194244942E+03  0.17202591381E+04  0.10063214846E+03  0.17530223507E+04  0.46999998093E+01 0.  1.
       -5    1    3    3    0  502 -0.32194244942E+03 -0.17202591381E+04 -0.77339203476E+03  0.19133990102E+04  0.46999998093E+01 0. -1.
</event>
<event>
 5   0  0.2608070E-08  0.3595620E+04  0.7818609E-02  0.8091496E-01
       -2   -1    0    0    0  501  0.00000000000E+00  0.00000000000E+00  0.22944964760E+04  0.22944964760E+04  0.25500000920E-02 0.  1.
        2   -1    0    0  501    0  0.00000000000E+00  0.00000000000E+00 -0.14086404648E+04  0.14086404648E+04  0.25500000920E-02 0. -1.
    10030    2    1    2    0    0  0.00000000000E+00  0.00000000000E+00  0.88585601115E+03  0.37031369408E+04  0.35956198812E+04 0.  0.
        3    1    3    3  502    0 -0.14123181520E+03 -0.79476680557E+03 -0.12115065908E+04  0.14557983826E+04  0.10100000352E+00 0. -1.
       -3    1    3    3    0  502  0.14123181520E+03  0.79476680557E+03  0.20973626020E+04  0.22473385582E+04  0.10100000352E+00 0.  1.
</event>
<event>
 5   0  0.8024500E-09  0.3598672E+04  0.7818609E-02  0.8090796E-01
        1   -1    0    0  501    0  0.00000000000E+00  0.00000000000E+00  0.22211183776E+04  0.22211183776E+04  0.50400001928E-02 0.  1.
       -1   -1    0    0    0  501  0.00000000000E+00  0.00000000000E+00 -0.14576485408E+04  0.14576485408E+04  0.50400001928E-02 0. -1.
    10030    2    1    2    0    0  0.00000000000E+00  0.00000000000E+00  0.76346983683E+03  0.36787669184E+04  0.35986719562E+04 0.  0.
        1    1    3    3  502    0  0.22198072028E+03  0.11945640714E+04  0.17384323188E+04  0.21209445273E+04  0.50400001928E-02 0.  1.
       -1    1    3    3    0  502 -0.22198072028E+03 -0.11945640714E+04 -0.97496248200E+03  0.15578223911E+04  0.50400001928E-02 0. -1.
</event>
<event>
 5   0  0.2494592E-08  0.3599893E+04  0.7818609E-02  0.8090516E-01
        2   -1    0    0  501    0  0.00000000000E+00  0.00000000000E+00  0.27001528443E+04  0.27001528443E+04  0.25500000920E-02 0.  1.
       -2   -1    0    0    0  501  0.00000000000E+00  0.00000000000E+00 -0.11998607201E+04  0.11998607201E+04  0.25500000920E-02 0. -1.
    10030    2    1    2    0    0  0.00000000000E+00  0.00000000000E+00  0.15002921241E+04  0.39000135644E+04  0.35998929629E+04 0.  0.
        1    1    3    3  502    0  0.72001244131E+02 -0.12257527177E+04  0.21759824994E+04  0.24985103045E+04  0.50400001928E-02 0.  1.
       -1    1    3    3    0  502 -0.72001244131E+02  0.12257527177E+04 -0.67569037528E+03  0.14015032598E+04  0.50400001928E-02 0. -1.
</event>
<event>
 5   0  0.8247570E-09  0.3597055E+04  0.7818609E-02  0.8091167E-01
       -1   -1    0    0    0  501  0.00000000000E+00  0.00000000000E+00  0.14806626889E+04  0.14806626889E+04  0.50400001928E-02 0. -1.
        1   -1    0    0  501    0  0.00000000000E+00  0.00000000000E+00 -0.21846311929E+04  0.21846311929E+04  0.50400001928E-02 0.  1.
    10030    2    1    2    0    0  0.00000000000E+00  0.00000000000E+00 -0.70396850402E+03  0.36652938819E+04  0.35970554049E+04 0.  0.
        3    1    3    3  502    0  0.13330581386E+03 -0.16643345641E+04 -0.10331887318E+04  0.19634813335E+04  0.10100000352E+00 0.  1.
       -3    1    3    3    0  502 -0.13330581386E+03  0.16643345641E+04  0.32922022775E+03  0.17018125484E+04  0.10100000352E+00 0. -1.
</event>
<event>
 5   0  0.8063410E-09  0.3601312E+04  0.7818609E-02  0.8090191E-01
       -1   -1    0    0    0  501  0.00000000000E+00  0.00000000000E+00  0.14298457219E+04  0.14298457219E+04  0.50400001928E-02 0. -1.
        1   -1    0    0  501    0  0.00000000000E+00  0.00000000000E+00 -0.22676307485E+04  0.22676307485E+04  0.50400001928E-02 0.  1.
    10030    2    1    2    0    0  0.00000000000E+00  0.00000000000E+00 -0.83778502657E+03  0.36974764704E+04  0.36013120524E+04 0.  0.
        2    1    3    3  502    0 -0.57130008782E+03 -0.48959629527E+03  0.12607232270E+04  0.14681659912E+04  0.25500000920E-02 0. -1.
       -2    1    3    3    0  502  0.57130008782E+03  0.48959629527E+03 -0.20985082535E+04  0.22293104792E+04  0.25500000920E-02 0.  1.
</event>
<event>
 5   0  0.8024500E-09  0.3600055E+04  0.7818609E-02  0.8090479E-01
       -1   -1    0    0    0  501  0.00000000000E+00  0.00000000000E+00  0.12971248165E+04  0.12971248165E+04  0.50400001928E-02 0.  1.
        1   -1    0    0  501    0  0.00000000000E+00  0.00000000000E+00 -0.24979090659E+04  0.24979090659E+04  0.50400001928E-02 0. -1.
    10030    2    1    2    0    0  0.00000000000E+00  0.00000000000E+00 -0.12007842494E+04  0.37950338825E+04  0.36000554656E+04 0.  0.
        5    1    3    3  502    0  0.12649045101E+03  0.14540221373E+04  0.51018291883E+03  0.15461206003E+04  0.46999998093E+01 0.  1.
       -5    1    3    3    0  502 -0.12649045101E+03 -0.14540221373E+04 -0.17109671682E+04  0.22489132822E+04  0.46999998093E+01 0. -1.
</event>
<event>
 5   0  0.2482243E-08  0.3601826E+04  0.7818609E-02  0.8090074E-01
       -2   -1    0    0    0  501  0.00000000000E+00  0.00000000000E+00  0.13290563282E+04  0.13290563282E+04  0.25500000920E-02 0. -1.
        2   -1    0    0  501    0  0.00000000000E+00  0.00000000000E+00 -0.24402929618E+04  0.24402929618E+04  0.25500000920E-02 0.  1.
    10030    2    1    2    0    0  0.00000000000E+00  0.00000000000E+00 -0.11112366337E+04  0.37693492900E+04  0.36018255391E+04 0.  0.
        5    1    3    3  502    0  0.34612497895E+03  0.17422337832E+04 -0.86621111371E+03  0.19762400765E+04  0.46999998093E+01 0. -1.
       -5    1    3    3    0  502 -0.34612497895E+03 -0.17422337832E+04 -0.24502551996E+03  0.17931092136E+04  0.46999998093E+01 0.  1.
</event>
<event>
 5   0  0.2482243E-08  0.3601462E+04  0.7818609E-02  0.8090157E-01
       -2   -1    0    0    0  501  0.00000000000E+00  0.00000000000E+00  0.30317531989E+04  0.30317531989E+04  0.25500000920E-02 0.  1.
        2   -1    0    0  501    0  0.00000000000E+00  0.00000000000E+00 -0.10695569609E+04  0.10695569609E+04  0.25500000920E-02 0. -1.
    10030    2    1    2    0    0  0.00000000000E+00  0.00000000000E+00  0.19621962381E+04  0.41013101598E+04  0.36014623350E+04 0.  0.
        5    1    3    3  502    0  0.13744067565E+04 -0.97336562730E+03  0.17068712796E+04  0.23978878689E+04  0.46999998093E+01 0.  1.
       -5    1    3    3    0  502 -0.13744067565E+04  0.97336562730E+03  0.25532495848E+03  0.17034222909E+04  0.46999998093E+01 0. -1.
</event>
<event>
 5   0  0.2482243E-08  0.3598651E+04  0.7818609E-02  0.8090801E-01
        2   -1    0    0  501    0  0.00000000000E+00  0.00000000000E+00  0.18433352893E+04  0.18433352893E+04  0.25500000920E-02 0. -1.
       -2   -1    0    0    0  501  0.00000000000E+00  0.00000000000E+00 -0.17563661635E+04  0.17563661635E+04  0.25500000920E-02 0.  1.
    10030    2    1    2    0    0  0.00000000000E+00  0.00000000000E+00  0.86969125774E+02  0.35997014528E+04  0.35986507084E+04 0.  0.
        5    1    3    3  502    0  0.90201097743E+03 -0.15314209915E+04  0.32405814348E+03  0.18066294105E+04  0.46999998093E+01 0. -1.
       -5    1    3    3    0  502 -0.90201097743E+03  0.15314209915E+04 -0.23708901771E+03  0.17930720423E+04  0.46999998093E+01 0.  1.
</event>
<event>
 5   0  0.8146881E-09  0.3598956E+04  0.7818609E-02  0.8090731E-01
       -1   -1    0    0    0  501  0.00000000000E+00  0.00000000000E+00  0.14388805393E+04  0.14388805393E+04  0.50400001928E-02 0. -1.
        1   -1    0    0  501    0  0.00000000000E+00  0.00000000000E+00 -0.22504444532E+04  0.22504444532E+04  0.50400001928E-02 0.  1.
    10030    2    1    2    0    0  0.00000000000E+00  0.00000000000E+00 -0.81156391392E+03  0.36893249924E+04  0.35989558088E+04 0.  0.
        4    1    3    3  502    0 -0.11830453784E+04  0.30013685235E+03  0.94970656179E+03  0.15464872013E+04  0.12699999809E+01 0. -1.
       -4    1    3    3    0  502  0.11830453784E+04 -0.30013685235E+03 -0.17612704757E+04  0.21428377911E+04  0.12699999809E+01 0.  1.
</event>
<event>
 5   0  0.2476968E-08  0.3600465E+04  0.7818609E-02  0.8090385E-01
       -2   -1    0    0    0  501  0.00000000000E+00  0.00000000000E+00  0.23674503863E+04  0.23674503863E+04  0.25500000920E-02 0. -1.
        2   -1    0    0  501    0  0.00000000000E+00  0.00000000000E+00 -0.13689147847E+04  0.13689147847E+04  0.25500000920E-02 0.  1.
    10030    2    1    2    0    0  0.00000000000E+00  0.00000000000E+00  0.99853560157E+03  0.37363651711E+04  0.36004654344E+04 0.  0.
        2    1    3    3  502    0 -0.24668141083E+03 -0.13838130379E+04 -0.66792903529E+03  0.15562517272E+04  0.25500000920E-02 0.  1.
       -2    1    3    3    0  502  0.24668141083E+03  0.13838130379E+04  0.16664646369E+04  0.21801134439E+04  0.25500000920E-02 0. -1.
</event>
<event>
 5   0  0.2608070E-08  0.3599615E+04  0.7818609E-02  0.8090580E-01
       -2   -1    0    0    0  501  0.00000000000E+00  0.00000000000E+00  0.15898402578E+04  0.15898402578E+04  0.25500000920E-02 0.  1.
        2   -1    0    0  501    0  0.00000000000E+00  0.00000000000E+00 -0.20375047413E+04  0.20375047413E+04  0.25500000920E-02 0. -1.
    10030    2    1    2    0    0  0.00000000000E+00  0.00000000000E+00 -0.44766448356E+03  0.36273449991E+04  0.35996150145E+04 0.  0.
        3    1    3    3  502    0  0.47422331279E+03  0.13602207147E+04  0.86346962444E+03  0.16794844285E+04  0.10100000352E+00 0.  1.
       -3    1    3    3    0  502 -0.47422331279E+03 -0.13602207147E+04 -0.13111341080E+04  0.19478605706E+04  0.10100000352E+00 0. -1.
</event>
<event>
 5   0  0.8247570E-09  0.3595247E+04  0.7818609E-02  0.8091581E-01
       -1   -1    0    0    0  501  0.00000000000E+00  0.00000000000E+00  0.12809444315E+04  0.12809444316E+04  0.50400001928E-02 0.  1.
        1   -1    0    0  501    0  0.00000000000E+00  0.00000000000E+00 -0.25227096157E+04  0.25227096158E+04  0.50400001928E-02 0. -1.
    10030    2    1    2    0    0  0.00000000000E+00  0.00000000000E+00 -0.12417651842E+04  0.38036540473E+04  0.35952473265E+04 0.  0.
        3    1    3    3  502    0 -0.72686665092E+03  0.16216211117E+04 -0.33413507279E+03  0.18082135978E+04  0.10100000352E+00 0.  1.
       -3    1    3    3    0  502  0.72686665092E+03 -0.16216211117E+04 -0.90763011141E+03  0.19954404495E+04  0.10100000352E+00 0. -1.
</event>
<event>
 5   0  0.2608070E-08  0.3598523E+04  0.7818609E-02  0.8090830E-01
        2   -1    0    0  501    0  0.00000000000E+00  0.00000000000E+00  0.17542362273E+04  0.17542362273E+04  0.25500000920E-02 0.  1.
       -2   -1    0    0    0  501  0.00000000000E+00  0.00000000000E+00 -0.18454422279E+04  0.18454422279E+04  0.25500000920E-02 0. -1.
    10030    2    1    2    0    0  0.00000000000E+00  0.00000000000E+00 -0.91206000537E+02  0.35996784552E+04  0.35985228145E+04 0.  0.
        3    1    3    3  502    0 -0.70403521197E+01  0.78307177941E+03 -0.16660277319E+04  0.18408963556E+04  0.10100000352E+00 0. -1.
       -3    1    3    3    0  502  0.70403521197E+01 -0.78307177941E+03  0.15748217314E+04  0.17587820997E+04  0.10100000352E+00 0.  1.
</event>
<event>
 5   0  0.8024500E-09  0.3601225E+04  0.7818609E-02  0.8090211E-01
       -1   -1    0    0    0  501  0.00000000000E+00  0.00000000000E+00  0.15182272784E+04  0.15182272784E+04  0.50400001928E-02 0. -1.
        1   -1    0    0  501    0  0.00000000000E+00  0.00000000000E+00 -0.21355202200E+04  0.21355202200E+04  0.50400001928E-02 0.  1.
    10030    2    1    2    0    0  0.00000000000E+00  0.00000000000E+00 -0.61729294161E+03  0.36537474984E+04  0.36012248203E+04 0.  0.
        1    1    3    3  502    0  0.12924825582E+04 -0.36707456606E+03  0.90756514661E+03  0.16213973590E+04  0.50400001928E-02 0. -1.
       -1    1    3    3    0  502 -0.12924825582E+04  0.36707456606E+03 -0.15248580882E+04  0.20323501395E+04  0.50400001928E-02 0.  1.
</event>
<event>
 5   0  0.2482243E-08  0.3602125E+04  0.7818609E-02  0.8090005E-01
       -2   -1    0    0    0  501  0.00000000000E+00  0.00000000000E+00  0.20528667840E+04  0.20528667840E+04  0.25500000920E-02 0. -1.
        2   -1    0    0  501    0  0.00000000000E+00  0.00000000000E+00 -0.15801443469E+04  0.15801443469E+04  0.25500000920E-02 0.  1.
    10030    2    1    2    0    0  0.00000000000E+00  0.00000000000E+00  0.47272243705E+03  0.36330111309E+04  0.36021248417E+04 0.  0.
        5    1    3    3  502    0  0.79325189333E+03 -0.14464847264E+04  0.96521739507E+03  0.19113433338E+04  0.46999998093E+01 0. -1.
       -5    1    3    3    0  502 -0.79325189333E+03  0.14464847264E+04 -0.49249495802E+03  0.17216677971E+04  0.46999998093E+01 0.  1.
</event>
<event>
 5   0  0.8247570E-09  0.3599814E+04  0.7818609E-02  0.8090534E-01
       -1   -1    0    0    0  501  0.00000000000E+00  0.00000000000E+00  0.12687684327E+04  0.12687684328E+04  0.50400001928E-02 0. -1.
        1   -1    0    0  501    0  0.00000000000E+00  0.00000000000E+00 -0.25533938035E+04  0.25533938035E+04  0.50400001928E-02 0.  1.
    10030    2    1    2    0    0  0.00000000000E+00  0.00000000000E+00 -0.12846253707E+04  0.38221622362E+04  0.35998141364E+04 0.  0.
        3    1    3    3  502    0 -0.34240798225E+03 -0.17638362160E+04 -0.75520009723E+03  0.19490224781E+04  0.10100000352E+00 0. -1.
       -3    1    3    3    0  502  0.34240798225E+03  0.17638362160E+04 -0.52942527349E+03  0.18731397581E+04  0.10100000352E+00 0.  1.
</event>
<event>
 5   0  0.2476968E-08  0.3602739E+04  0.7818609E-02  0.8089865E-01
       -2   -1    0    0    0  501  0.00000000000E+00  0.00000000000E+00  0.17597073295E+04  0.17597073295E+04  0.25500000920E-02 0.  1.
        2   -1    0    0  501    0  0.00000000000E+00  0.00000000000E+00 -0.18440176272E+04  0.18440176272E+04  0.25500000920E-02 0. -1.
    10030    2    1    2    0    0  0.00000000000E+00  0.00000000000E+00 -0.84310297729E+02  0.36037249566E+04  0.36027385885E+04 0.  0.
        2    1    3    3  502    0 -0.76129032822E+03 -0.94529765378E+03 -0.13736021119E+04  0.18330121058E+04  0.25500000920E-02 0. -1.
       -2    1    3    3    0  502  0.76129032822E+03  0.94529765378E+03  0.12892918142E+04  0.17707128509E+04  0.25500000920E-02 0.  1.
</event>
<event>
 5   0  0.8024500E-09  0.3600674E+04  0.7818609E-02  0.8090337E-01
        1   -1    0    0  501    0  0.00000000000E+00  0.00000000000E+00  0.34403142814E+04  0.34403142814E+04  0.50400001928E-02 0.  1.
       -1   -1    0    0    0  501  0.00000000000E+00  0.00000000000E+00 -0.94212722048E+03  0.94212722050E+03  0.50400001928E-02 0. -1.
    10030    2    1    2    0    0  0.00000000000E+00  0.00000000000E+00  0.24981870609E+04  0.43824415019E+04  0.36006742322E+04 0.  0.
        5    1    3    3  502    0  0.12462435728E+04  0.12734693302E+04  0.15625914340E+04  0.23699285343E+04  0.46999998093E+01 0.  1.
       -5    1    3    3    0  502 -0.12462435728E+04 -0.12734693302E+04  0.93559562690E+03  0.20125129676E+04  0.46999998093E+01 0. -1.
</event>
<event>
 5   0  0.8063410E-09  0.3603032E+04  0.7818609E-02  0.8089798E-01
        1   -1    0    0  501    0  0.00000000000E+00  0.00000000000E+00  0.21599483509E+04  0.21599483510E+04  0.50400001928E-02 0.  1.
       -1   -1    0    0    0  501  0.00000000000E+00  0.00000000000E+00 -0.15025636502E+04  0.15025636502E+04  0.50400001928E-02 0. -1.
    10030    2    1    2    0    0  0.00000000000E+00  0.00000000000E+00  0.65738470072E+03  0.36625120012E+04  0.36030319891E+04 0.  0.
        2    1    3    3  502    0 -0.17812393177E+04  0.19646185316E+03  0.14112215421E+03  0.17975890045E+04  0.25500000920E-02 0. -1.
       -2    1    3    3    0  502  0.17812393177E+04 -0.19646185316E+03  0.51626254651E+03  0.18649229967E+04  0.25500000920E-02 0.  1.
</event>
<event>
 5   0  0.8024500E-09  0.3599843E+04  0.7818609E-02  0.8090528E-01
       -1   -1    0    0    0  501  0.00000000000E+00  0.00000000000E+00  0.15967190224E+04  0.15967190224E+04  0.50400001928E-02 0.  1.
        1   -1    0    0  501    0  0.00000000000E+00  0.00000000000E+00 -0.20289841649E+04  0.20289841649E+04  0.50400001928E-02 0. -1.
    10030    2    1    2    0    0  0.00000000000E+00  0.00000000000E+00 -0.43226514252E+03  0.36257031874E+04  0.35998431146E+04 0.  0.
        5    1    3    3  502    0 -0.50793985115E+03 -0.10223924349E+04  0.11854120276E+04  0.16457560416E+04  0.46999998093E+01 0.  1.
       -5    1    3    3    0  502  0.50793985115E+03  0.10223924349E+04 -0.16176771701E+04  0.19799471458E+04  0.46999998093E+01 0. -1.
</event>
<event>
 5   0  0.2482243E-08  0.3601259E+04  0.7818609E-02  0.8090203E-01
       -2   -1    0    0    0  501  0.00000000000E+00  0.00000000000E+00  0.17405722411E+04  0.17405722411E+04  0.25500000920E-02 0. -1.
        2   -1    0    0  501    0  0.00000000000E+00  0.00000000000E+00 -0.18627588618E+04  0.18627588618E+04  0.25500000920E-02 0.  1.
    10030    2    1    2    0    0  0.00000000000E+00  0.00000000000E+00 -0.12218662064E+03  0.36033311029E+04  0.36012588725E+04 0.  0.
        5    1    3    3  502    0 -0.64623479205E+03 -0.93375209912E+03  0.13371126150E+04  0.17542532954E+04  0.46999998093E+01 0. -1.
       -5    1    3    3    0  502  0.64623479205E+03  0.93375209912E+03 -0.14592992357E+04  0.18490778075E+04  0.46999998093E+01 0.  1.
</event>
<event>
 5   0  0.8024500E-09  0.3600295E+04  0.7818609E-02  0.8090424E-01
        1   -1    0    0  501    0  0.00000000000E+00  0.00000000000E+00  0.12695570176E+04  0.12695570176E+04  0.50400001928E-02 0. -1.
       -1   -1    0    0    0  501  0.00000000000E+00  0.00000000000E+00 -0.25524897520E+04  0.25524897520E+04  0.50400001928E-02 0.  1.
    10030    2    1    2    0    0  0.00000000000E+00  0.00000000000E+00 -0.12829327344E+04  0.38220467696E+04  0.36002951418E+04 0.  0.
        5    1    3    3  502    0  0.97539790375E+03  0.93943212643E+03  0.61757326450E+03  0.14884060662E+04  0.46999998093E+01 0. -1.
       -5    1    3    3    0  502 -0.97539790375E+03 -0.93943212643E+03 -0.19005059989E+04  0.23336407035E+04  0.46999998093E+01 0.  1.
</event>
<event>
 5   0  0.2494592E-08  0.3599688E+04  0.7818609E-02  0.8090563E-01
        2   -1    0    0  501    0  0.00000000000E+00  0.00000000000E+00  0.18223041251E+04  0.18223041251E+04  0.25500000920E-02 0.  1.
       -2   -1    0    0    0  501  0.00000000000E+00  0.00000000000E+00 -0.17776603593E+04  0.17776603593E+04  0.25500000920E-02 0. -1.
    10030    2    1    2    0    0  0.00000000000E+00  0.00000000000E+00  0.44643765773E+02  0.35999644845E+04  0.35996876564E+04 0.  0.
        1    1    3    3  502    0 -0.13839525485E+04 -0.10827918548E+04 -0.36716274832E+03  0.17951521777E+04  0.50400001928E-02 0. -1.
       -1    1    3    3    0  502  0.13839525485E+04  0.10827918548E+04  0.41180651410E+03  0.18048123067E+04  0.50400001928E-02 0.  1.
</event>
<event>
 5   0  0.2482243E-08  0.3600186E+04  0.7818609E-02  0.8090449E-01
       -2   -1    0    0    0  501  0.00000000000E+00  0.00000000000E+00  0.11806351127E+04  0.11806351127E+04  0.25500000920E-02 0. -1.
        2   -1    0    0  501    0  0.00000000000E+00  0.00000000000E+00 -0.27445698238E+04  0.27445698238E+04  0.25500000920E-02 0.  1.
    10030    2    1    2    0    0  0.00000000000E+00  0.00000000000E+00 -0.15639347111E+04  0.39252049365E+04  0.36001863859E+04 0.  0.
        5    1    3    3  502    0  0.65159598472E+03 -0.11050632390E+04 -0.21587307991E+04  0.25111516964E+04  0.46999998093E+01 0.  1.
       -5    1    3    3    0  502 -0.65159598472E+03  0.11050632390E+04  0.59479608804E+03  0.14140532401E+04  0.46999998093E+01 0. -1.
</event>
<event>
 5   0  0.2482243E-08  0.3604622E+04  0.7818609E-02  0.8089434E-01
        2   -1    0    0  501    0  0.00000000000E+00  0.00000000000E+00  0.20753083974E+04  0.20753083974E+04  0.25500000920E-02 0.  1.
       -2   -1    0    0    0  501  0.00000000000E+00  0.00000000000E+00 -0.15652249345E+04  0.15652249345E+04  0.25500000920E-02 0. -1.
    10030    2    1    2    0    0  0.00000000000E+00  0.00000000000E+00  0.51008346287E+03  0.36405333319E+04  0.36046217280E+04 0.  0.
        5    1    3    3  502    0 -0.71596561314E+03  0.11821859508E+04 -0.91325938133E+03  0.16565733213E+04  0.46999998093E+01 0. -1.
       -5    1    3    3    0  502  0.71596561314E+03 -0.11821859508E+04  0.14233428442E+04  0.19839600106E+04  0.46999998093E+01 0.  1.
</event>
<event>
 5   0  0.8024500E-09  0.3600907E+04  0.7818609E-02  0.8090284E-01
       -1   -1    0    0    0  501  0.00000000000E+00  0.00000000000E+00  0.14678170220E+04  0.14678170220E+04  0.50400001928E-02 0. -1.
        1   -1    0    0  501    0  0.00000000000E+00  0.00000000000E+00 -0.22084721055E+04  0.22084721055E+04  0.50400001928E-02 0.  1.
    10030    2    1    2    0    0  0.00000000000E+00  0.00000000000E+00 -0.74065508342E+03  0.36762891275E+04  0.36009070797E+04 0.  0.
        5    1    3    3  502    0  0.12107033077E+04 -0.13193369898E+04 -0.56175819306E+03  0.18767117385E+04  0.46999998093E+01 0. -1.
       -5    1    3    3    0  502 -0.12107033077E+04  0.13193369898E+04 -0.17889689036E+03  0.17995773890E+04  0.46999998093E+01 0.  1.
</event>
<event>
 5   0  0.8024500E-09  0.3600415E+04  0.7818609E-02  0.8090397E-01
        1   -1    0    0  501    0  0.00000000000E+00  0.00000000000E+00  0.18724500974E+04  0.18724500974E+04  0.50400001928E-02 0.  1.
       -1   -1    0    0    0  501  0.00000000000E+00  0.00000000000E+00 -0.17307520022E+04  0.17307520022E+04  0.50400001928E-02 0. -1.
    10030    2    1    2    0    0  0.00000000000E+00  0.00000000000E+00  0.14169809521E+03  0.36032020996E+04  0.36004148400E+04 0.  0.
        5    1    3    3  502    0 -0.80877864211E+03  0.16067408589E+04  0.14151238891E+03  0.18043799283E+04  0.46999998093E+01 0. -1.
       -5    1    3    3    0  502  0.80877864211E+03 -0.16067408589E+04  0.18570629341E+00  0.17988221713E+04  0.46999998093E+01 0.  1.
</event>
<event>
 5   0  0.2482243E-08  0.3587667E+04  0.7818609E-02  0.8093323E-01
       -2   -1    0    0    0  501  0.00000000000E+00  0.00000000000E+00  0.18038818757E+04  0.18038818757E+04  0.25500000920E-02 0. -1.
        2   -1    0    0  501    0  0.00000000000E+00  0.00000000000E+00 -0.17838410794E+04  0.17838410795E+04  0.25500000920E-02 0.  1.
    10030    2    1    2    0    0  0.00000000000E+00  0.00000000000E+00  0.20040796294E+02  0.35877229552E+04  0.35876669814E+04 0.  0.
        5    1    3    3  502    0 -0.15973148329E+04  0.63324330607E+03 -0.50516211709E+03  0.17909837003E+04  0.46999998093E+01 0. -1.
       -5    1    3    3    0  502  0.15973148329E+04 -0.63324330607E+03  0.52520291339E+03  0.17967392549E+04  0.46999998093E+01 0.  1.
</event>
<event>
 5   0  0.8146881E-09  0.3601653E+04  0.7818609E-02  0.8090113E-01
        1   -1    0    0  501    0  0.00000000000E+00  0.00000000000E+00  0.25297729705E+04  0.25297729706E+04  0.50400001928E-02 0. -1.
       -1   -1    0    0    0  501  0.00000000000E+00  0.00000000000E+00 -0.12819236468E+04  0.12819236468E+04  0.50400001928E-02 0.  1.
    10030    2    1    2    0    0  0.00000000000E+00  0.00000000000E+00  0.12478493237E+04  0.38116966174E+04  0.36016528384E+04 0.  0.
        4    1    3    3  502    0  0.10733708510E+04 -0.14297671607E+04  0.39542813205E+03  0.18310445484E+04  0.12699999809E+01 0.  1.
       -4    1    3    3    0  502 -0.10733708510E+04  0.14297671607E+04  0.85242119165E+03  0.19806520690E+04  0.12699999809E+01 0. -1.
</event>
<event>
 5   0  0.2494592E-08  0.3600956E+04  0.7818609E-02  0.8090273E-01
       -2   -1    0    0    0  501  0.00000000000E+00  0.00000000000E+00  0.14027101854E+04  0.14027101854E+04  0.25500000920E-02 0.  1.
        2   -1    0    0  501    0  0.00000000000E+00  0.00000000000E+00 -0.23110411764E+04  0.23110411764E+04  0.25500000920E-02 0. -1.
    10030    2    1    2    0    0  0.00000000000E+00  0.00000000000E+00 -0.90833099096E+03  0.37137513618E+04  0.36009559825E+04 0.  0.
        1    1    3    3  502    0  0.11282711345E+04 -0.81455953566E+03  0.72408203927E+03  0.15686930196E+04  0.50400001928E-02 0.  1.
       -1    1    3    3    0  502 -0.11282711345E+04  0.81455953566E+03 -0.16324130302E+04  0.21450583422E+04  0.50400001928E-02 0. -1.
</event>
<event>
 5   0  0.8024500E-09  0.3599561E+04  0.7818609E-02  0.8090592E-01
        1   -1    0    0  501    0  0.00000000000E+00  0.00000000000E+00  0.17109103209E+04  0.17109103209E+04  0.50400001928E-02 0. -1.
       -1   -1    0    0    0  501  0.00000000000E+00  0.00000000000E+00 -0.18932672443E+04  0.18932672443E+04  0.50400001928E-02 0.  1.
    10030    2    1    2    0    0  0.00000000000E+00  0.00000000000E+00 -0.18235692336E+03  0.36041775652E+04  0.35995613447E+04 0.  0.
        5    1    3    3  502    0 -0.14568806501E+03 -0.17915844111E+04 -0.57117341495E+00  0.17975044174E+04  0.46999998093E+01 0. -1.
       -5    1    3    3    0  502  0.14568806501E+03  0.17915844111E+04 -0.18178574994E+03  0.18066731479E+04  0.46999998093E+01 0.  1.
</event>
<event>
 5   0  0.8024500E-09  0.3599287E+04  0.7818609E-02  0.8090655E-01
        1   -1    0    0  501    0  0.00000000000E+00  0.00000000000E+00  0.18272000171E+04  0.18272000171E+04  0.50400001928E-02 0. -1.
       -1   -1    0    0    0  501  0.00000000000E+00  0.00000000000E+00 -0.17725029536E+04  0.17725029536E+04  0.50400001928E-02 0.  1.
    10030    2    1    2    0    0  0.00000000000E+00  0.00000000000E+00  0.54697063554E+02  0.35997029707E+04  0.35992873890E+04 0.  0.
        1    1    3    3  502    0 -0.54170820395E+03  0.12404742168E+04 -0.11587451318E+04  0.17818289315E+04  0.50400001928E-02 0.  1.
       -1    1    3    3    0  502  0.54170820395E+03 -0.12404742168E+04  0.12134421953E+04  0.18178740392E+04  0.50400001928E-02 0. -1.
</event>
<event>
 5   0  0.8024500E-09  0.3596837E+04  0.7818609E-02  0.8091217E-01
       -1   -1    0    0    0  501  0.00000000000E+00  0.00000000000E+00  0.23385340472E+04  0.23385340472E+04  0.50400001928E-02 0.  1.
        1   -1    0    0  501    0  0.00000000000E+00  0.00000000000E+00 -0.13830498338E+04  0.13830498338E+04  0.50400001928E-02 0. -1.
    10030    2    1    2    0    0  0.00000000000E+00  0.00000000000E+00  0.95548421339E+03  0.37215838810E+04  0.35968370134E+04 0.  0.
        1    1    3    3  502    0 -0.11857405533E+04 -0.13148396528E+04  0.80415964116E+03  0.19445967965E+04  0.50400001928E-02 0. -1.
       -1    1    3    3    0  502  0.11857405533E+04  0.13148396528E+04  0.15132457224E+03  0.17769870845E+04  0.50400001928E-02 0.  1.
</event>
<event>
 5   0  0.8146881E-09  0.3600517E+04  0.7818609E-02  0.8090373E-01
        1   -1    0    0  501    0  0.00000000000E+00  0.00000000000E+00  0.15516351993E+04  0.15516351993E+04  0.50400001928E-02 0.  1.
       -1   -1    0    0    0  501  0.00000000000E+00  0.00000000000E+00 -0.20887190609E+04  0.20887190609E+04  0.50400001928E-02 0. -1.
    10030    2    1    2    0    0  0.00000000000E+00  0.00000000000E+00 -0.53708386153E+03  0.36403542602E+04  0.36005166387E+04 0.  0.
        4    1    3    3  502    0 -0.75963913240E+03  0.13422619462E+04 -0.12073682773E+04  0.19586879572E+04  0.12699999809E+01 0. -1.
       -4    1    3    3    0  502  0.75963913240E+03 -0.13422619462E+04  0.67028441576E+03  0.16816663030E+04  0.12699999809E+01 0.  1.
</event>
<event>
 5   0  0.2590795E-08  0.3611400E+04  0.7818609E-02  0.8087885E-01
       -2   -1    0    0    0  501  0.00000000000E+00  0.00000000000E+00  0.12278027767E+04  0.12278027767E+04  0.25500000920E-02 0.  1.
        2   -1    0    0  501    0  0.00000000000E+00  0.00000000000E+00 -0.26555989819E+04  0.26555989819E+04  0.25500000920E-02 0. -1.
    10030    2    1    2    0    0  0.00000000000E+00  0.00000000000E+00 -0.14277962052E+04  0.38834017586E+04  0.36113996200E+04 0.  0.
        4    1    3    3  502    0 -0.85234205422E+02 -0.15349299142E+04  0.30469252284E+03  0.15671993675E+04  0.12699999809E+01 0.  1.
       -4    1    3    3    0  502  0.85234205422E+02  0.15349299142E+04 -0.17324887280E+04  0.23162023911E+04  0.12699999809E+01 0. -1.
</event>
<event>
 5   0  0.2608070E-08  0.3600534E+04  0.7818609E-02  0.8090369E-01
       -2   -1    0    0    0  501  0.00000000000E+00  0.00000000000E+00  0.13051600716E+04  0.13051600716E+04  0.25500000920E-02 0.  1.
        2   -1    0    0  501    0  0.00000000000E+00  0.00000000000E+00 -0.24831908328E+04  0.24831908328E+04  0.25500000920E-02 0. -1.
    10030    2    1    2    0    0  0.00000000000E+00  0.00000000000E+00 -0.11780307612E+04  0.37883509043E+04  0.36005341410E+04 0.  0.
        3    1    3    3  502    0 -0.86570452939E+03  0.50351626079E+03  0.98501169002E+03  0.14047138487E+04  0.10100000352E+00 0.  1.
       -3    1    3    3    0  502  0.86570452939E+03 -0.50351626079E+03 -0.21630424512E+04  0.23836370556E+04  0.10100000352E+00 0. -1.
</event>
<event>
 5   0  0.8024500E-09  0.3600054E+04  0.7818609E-02  0.8090479E-01
       -1   -1    0    0    0  501  0.00000000000E+00  0.00000000000E+00  0.30431648987E+04  0.30431648987E+04  0.50400001928E-02 0. -1.
        1   -1    0    0  501    0  0.00000000000E+00  0.00000000000E+00 -0.10647130481E+04  0.10647130481E+04  0.50400001928E-02 0.  1.
    10030    2    1    2    0    0  0.00000000000E+00  0.00000000000E+00  0.19784518506E+04  0.41078779468E+04  0.36000540969E+04 0.  0.
        1    1    3    3  502    0 -0.82437487206E+03  0.14941030391E+04  0.16428846026E+04  0.23687565596E+04  0.50400001928E-02 0. -1.
       -1    1    3    3    0  502  0.82437487206E+03 -0.14941030391E+04  0.33556724800E+03  0.17391213871E+04  0.50400001928E-02 0.  1.
</event>
<event>
 5   0  0.2482243E-08  0.3598824E+04  0.7818609E-02  0.8090761E-01
       -2   -1    0    0    0  501  0.00000000000E+00  0.00000000000E+00  0.16140655950E+04  0.16140655950E+04  0.25500000920E-02 0.  1.
        2   -1    0    0  501    0  0.00000000000E+00  0.00000000000E+00 -0.20060421684E+04  0.20060421684E+04  0.25500000920E-02 0. -1.
    10030    2    1    2    0    0  0.00000000000E+00  0.00000000000E+00 -0.39197657345E+03  0.36201077634E+04  0.35988240558E+04 0.  0.
        5    1    3    3  502    0  0.14074251562E+04  0.10691552093E+04  0.14353285870E+03  0.17732913476E+04  0.46999998093E+01 0.  1.
       -5    1    3    3    0  502 -0.14074251562E+04 -0.10691552093E+04 -0.53550943216E+03  0.18468164158E+04  0.46999998093E+01 0. -1.
</event>
<event>
 5   0  0.2608070E-08  0.3599522E+04  0.7818609E-02  0.8090601E-01
        2   -1    0    0  501    0  0.00000000000E+00  0.00000000000E+00  0.17565051048E+04  0.17565051048E+04  0.25500000920E-02 0. -1.
       -2   -1    0    0    0  501  0.00000000000E+00  0.00000000000E+00 -0.18440817799E+04  0.18440817799E+04  0.25500000920E-02 0.  1.
    10030    2    1    2    0    0  0.00000000000E+00  0.00000000000E+00 -0.87576675074E+02  0.36005868847E+04  0.35995216683E+04 0.  0.
        3    1    3    3  502    0 -0.33432056805E+03  0.11304092334E+04  0.13165934529E+04  0.17672050271E+04  0.10100000352E+00 0. -1.
       -3    1    3    3    0  502  0.33432056805E+03 -0.11304092334E+04 -0.14041701280E+04  0.18333818576E+04  0.10100000352E+00 0.  1.
</event>
<event>
 5   0  0.2590795E-08  0.3598879E+04  0.7818609E-02  0.8090749E-01
        2   -1    0    0  501    0  0.00000000000E+00  0.00000000000E+00  0.23761233294E+04  0.23761233294E+04  0.25500000920E-02 0. -1.
       -2   -1    0    0    0  501  0.00000000000E+00  0.00000000000E+00 -0.13627165524E+04  0.13627165524E+04  0.25500000920E-02 0.  1.
    10030    2    1    2    0    0  0.00000000000E+00  0.00000000000E+00  0.10134067770E+04  0.37388398817E+04  0.35988790429E+04 0.  0.
        4    1    3    3  502    0  0.45750755324E+03 -0.20082331840E+03  0.23026129441E+04  0.23561984530E+04  0.12699999809E+01 0. -1.
       -4    1    3    3    0  502 -0.45750755324E+03  0.20082331840E+03 -0.12892061671E+04  0.13826414288E+04  0.12699999809E+01 0.  1.
</event>
<event>
 5   0  0.2476968E-08  0.3603378E+04  0.7818609E-02  0.8089718E-01
       -2   -1    0    0    0  501  0.00000000000E+00  0.00000000000E+00  0.17826787055E+04  0.17826787055E+04  0.25500000920E-02 0.  1.
        2   -1    0    0  501    0  0.00000000000E+00  0.00000000000E+00 -0.18209020709E+04  0.18209020709E+04  0.25500000920E-02 0. -1.
    10030    2    1    2    0    0  0.00000000000E+00  0.00000000000E+00 -0.38223365436E+02  0.36035807764E+04  0.36033780521E+04 0.  0.
        2    1    3    3  502    0 -0.18421714668E+03  0.62692058216E+03  0.16600057005E+04  0.17839799043E+04  0.25500000920E-02 0.  1.
       -2    1    3    3    0  502  0.18421714668E+03 -0.62692058216E+03 -0.16982290659E+04  0.18196008721E+04  0.25500000920E-02 0. -1.
</event>
<event>
 5   0  0.2476968E-08  0.3601365E+04  0.7818609E-02  0.8090179E-01
       -2   -1    0    0    0  501  0.00000000000E+00  0.00000000000E+00  0.21278991312E+04  0.21278991312E+04  0.25500000920E-02 0.  1.
        2   -1    0    0  501    0  0.00000000000E+00  0.00000000000E+00 -0.15237837184E+04  0.15237837184E+04  0.25500000920E-02 0. -1.
    10030    2    1    2    0    0  0.00000000000E+00  0.00000000000E+00  0.60411541277E+03  0.36516828496E+04  0.36013653248E+04 0.  0.
        2    1    3    3  502    0 -0.52112140552E+03  0.12444433948E+04 -0.90718652063E+03  0.16257903510E+04  0.25500000920E-02 0. -1.
       -2    1    3    3    0  502  0.52112140552E+03 -0.12444433948E+04  0.15113019334E+04  0.20258924986E+04  0.25500000920E-02 0.  1.
</event>
<event>
 5   0  0.2476968E-08  0.3601186E+04  0.7818609E-02  0.8090220E-01
       -2   -1    0    0    0  501  0.00000000000E+00  0.00000000000E+00  0.14254679777E+04  0.14254679777E+04  0.25500000920E-02 0. -1.
        2   -1    0    0  501    0  0.00000000000E+00  0.00000000000E+00 -0.22744355084E+04  0.22744355084E+04  0.25500000920E-02 0.  1.
    10030    2    1    2    0    0  0.00000000000E+00  0.00000000000E+00 -0.84896753064E+03  0.36999034861E+04  0.36011859072E+04 0.  0.
        2    1    3    3  502    0 -0.86123645969E+03  0.53922792889E+03 -0.19517178697E+04  0.22003857939E+04  0.25500000920E-02 0.  1.
       -2    1    3    3    0  502  0.86123645969E+03 -0.53922792889E+03  0.11027503391E+04  0.14995176922E+04  0.25500000920E-02 0. -1.
</event>
<event>
 5   0  0.2608070E-08  0.3600315E+04  0.7818609E-02  0.8090419E-01
        2   -1    0    0  501    0  0.00000000000E+00  0.00000000000E+00  0.21493033856E+04  0.21493033856E+04  0.25500000920E-02 0. -1.
       -2   -1    0    0    0  501  0.00000000000E+00  0.00000000000E+00 -0.15077294034E+04  0.15077294034E+04  0.25500000920E-02 0.  1.
    10030    2    1    2    0    0  0.00000000000E+00  0.00000000000E+00  0.64157398216E+03  0.36570327891E+04  0.36003154925E+04 0.  0.
        3    1    3    3  502    0 -0.39842134017E+03 -0.27489944975E+02  0.21037373993E+04  0.21413094865E+04  0.10100000352E+00 0. -1.
       -3    1    3    3    0  502  0.39842134017E+03  0.27489944975E+02 -0.14621634171E+04  0.15157233026E+04  0.10100000352E+00 0.  1.
</event>
<event>
 5   0  0.2590795E-08  0.3606280E+04  0.7818609E-02  0.8089055E-01
        2   -1    0    0  501    0  0.00000000000E+00  0.00000000000E+00  0.22408158842E+04  0.22408158842E+04  0.25500000920E-02 0.  1.
       -2   -1    0    0    0  501  0.00000000000E+00  0.00000000000E+00 -0.14509509455E+04  0.14509509455E+04  0.25500000920E-02 0. -1.
    10030    2    1    2    0    0  0.00000000000E+00  0.00000000000E+00  0.78986493872E+03  0.36917668297E+04  0.36062800367E+04 0.  0.
        4    1    3    3  502    0  0.14530434643E+04 -0.41352840151E+03 -0.61276522459E+03  0.16302833745E+04  0.12699999809E+01 0. -1.
       -4    1    3    3    0  502 -0.14530434643E+04  0.41352840151E+03  0.14026301633E+04  0.20614834551E+04  0.12699999809E+01 0.  1.
</event>
<event>
 5   0  0.2494592E-08  0.3615085E+04  0.7818609E-02  0.8087045E-01
       -2   -1    0    0    0  501  0.00000000000E+00  0.00000000000E+00  0.13274415140E+04  0.13274415140E+04  0.25500000920E-02 0.  1.
        2   -1    0    0  501    0  0.00000000000E+00  0.00000000000E+00 -0.24612836278E+04  0.24612836278E+04  0.25500000920E-02 0. -1.
    10030    2    1    2    0    0  0.00000000000E+00  0.00000000000E+00 -0.11338421138E+04  0.37887251418E+04  0.36150850974E+04 0.  0.
        1    1    3    3  502    0 -0.36273952823E+03  0.90149186016E+03 -0.21642479640E+04  0.23723905220E+04  0.50400001928E-02 0. -1.
       -1    1    3    3    0  502  0.36273952823E+03 -0.90149186016E+03  0.10304058502E+04  0.14163346198E+04  0.50400001928E-02 0.  1.
</event>
<event>
 5   0  0.8024500E-09  0.3599945E+04  0.7818609E-02  0.8090504E-01
        1   -1    0    0  501    0  0.00000000000E+00  0.00000000000E+00  0.21697811347E+04  0.21697811347E+04  0.50400001928E-02 0. -1.
       -1   -1    0    0    0  501  0.00000000000E+00  0.00000000000E+00 -0.14931926562E+04  0.14931926562E+04  0.50400001928E-02 0.  1.
    10030    2    1    2    0    0  0.00000000000E+00  0.00000000000E+00  0.67658847849E+03  0.36629737910E+04  0.35999451418E+04 0.  0.
        1    1    3    3  502    0 -0.25540765466E+03  0.28622494376E+03 -0.14511158331E+04  0.15009646730E+04  0.50400001928E-02 0.  1.
       -1    1    3    3    0  502  0.25540765466E+03 -0.28622494376E+03  0.21277043116E+04  0.21620091180E+04  0.50400001928E-02 0. -1.
</event>
<event>
 5   0  0.8247570E-09  0.3599723E+04  0.7818609E-02  0.8090555E-01
       -1   -1    0    0    0  501  0.00000000000E+00  0.00000000000E+00  0.12946491777E+04  0.12946491777E+04  0.50400001928E-02 0.  1.
        1   -1    0    0  501    0  0.00000000000E+00  0.00000000000E+00 -0.25022226725E+04  0.25022226725E+04  0.50400001928E-02 0. -1.
    10030    2    1    2    0    0  0.00000000000E+00  0.00000000000E+00 -0.12075734949E+04  0.37968718502E+04  0.35997225034E+04 0.  0.
        3    1    3    3  502    0 -0.14714480797E+03  0.17589130694E+04 -0.97531927679E+03  0.20165997327E+04  0.10100000352E+00 0. -1.
       -3    1    3    3    0  502  0.14714480797E+03 -0.17589130694E+04 -0.23225421807E+03  0.17802721175E+04  0.10100000352E+00 0.  1.
</event>
<event>
 5   0  0.8024500E-09  0.3602284E+04  0.7818609E-02  0.8089969E-01
       -1   -1    0    0    0  501  0.00000000000E+00  0.00000000000E+00  0.11059531927E+04  0.11059531927E+04  0.50400001928E-02 0.  1.
        1   -1    0    0  501    0  0.00000000000E+00  0.00000000000E+00 -0.29333178111E+04  0.29333178111E+04  0.50400001928E-02 0. -1.
    10030    2    1    2    0    0  0.00000000000E+00  0.00000000000E+00 -0.18273646184E+04  0.40392710038E+04  0.36022838302E+04 0.  0.
        1    1    3    3  502    0  0.49568763260E+03  0.15366169367E+04 -0.18087746482E+04  0.24245749251E+04  0.50400001928E-02 0. -1.
       -1    1    3    3    0  502 -0.49568763260E+03 -0.15366169367E+04 -0.18589970173E+02  0.16146960786E+04  0.50400001928E-02 0.  1.
</event>
<event>
 5   0  0.2590795E-08  0.3594558E+04  0.7818609E-02  0.8091739E-01
        2   -1    0    0  501    0  0.00000000000E+00  0.00000000000E+00  0.24138261451E+04  0.24138261451E+04  0.25500000920E-02 0.  1.
       -2   -1    0    0    0  501  0.00000000000E+00  0.00000000000E+00 -0.13382125589E+04  0.13382125589E+04  0.25500000920E-02 0. -1.
    10030    2    1    2    0    0  0.00000000000E+00  0.00000000000E+00  0.10756135861E+04  0.37520387040E+04  0.35945583664E+04 0.  0.
        4    1    3    3  502    0 -0.10779703911E+03 -0.27896535226E+03 -0.13120570604E+04  0.13457106718E+04  0.12699999809E+01 0. -1.
       -4    1    3    3    0  502  0.10779703911E+03  0.27896535226E+03  0.23876706466E+04  0.24063280322E+04  0.12699999809E+01 0.  1.
</event>
<event>
 5   0  0.2476968E-08  0.3600683E+04  0.7818609E-02  0.8090335E-01
       -2   -1    0    0    0  501  0.00000000000E+00  0.00000000000E+00  0.20386877177E+04  0.20386877177E+04  0.25500000920E-02 0.  1.
        2   -1    0    0  501    0  0.00000000000E+00  0.00000000000E+00 -0.15898608944E+04  0.15898608944E+04  0.25500000920E-02 0. -1.
    10030    2    1    2    0    0  0.00000000000E+00  0.00000000000E+00  0.44882682326E+03  0.36285486120E+04  0.36006832008E+04 0.  0.
        2    1    3    3  502    0 -0.10948574217E+04 -0.13726749023E+04 -0.17651057255E+03  0.17646827317E+04  0.25500000920E-02 0.  1.
       -2    1    3    3    0  502  0.10948574217E+04  0.13726749023E+04  0.62533739581E+03  0.18638658803E+04  0.25500000920E-02 0. -1.
</event>
<event>
 5   0  0.2476968E-08  0.3599958E+04  0.7818609E-02  0.8090501E-01
        2   -1    0    0  501    0  0.00000000000E+00  0.00000000000E+00  0.20040380890E+04  0.20040380890E+04  0.25500000920E-02 0.  1.
       -2   -1    0    0    0  501  0.00000000000E+00  0.00000000000E+00 -0.16166981232E+04  0.16166981232E+04  0.25500000920E-02 0. -1.
    10030    2    1    2    0    0  0.00000000000E+00  0.00000000000E+00  0.38733996581E+03  0.36207362122E+04  0.35999581205E+04 0.  0.
        2    1    3    3  502    0 -0.14038264447E+04 -0.79171990666E+03 -0.61243931076E+03  0.17241319574E+04  0.25500000920E-02 0. -1.
       -2    1    3    3    0  502  0.14038264447E+04  0.79171990666E+03  0.99977927657E+03  0.18966042548E+04  0.25500000920E-02 0.  1.
</event>
<event>
 5   0  0.2494592E-08  0.3600888E+04  0.7818609E-02  0.8090288E-01
       -2   -1    0    0    0  501  0.00000000000E+00  0.00000000000E+00  0.14469837303E+04  0.14469837304E+04  0.25500000920E-02 0.  1.
        2   -1    0    0  501    0  0.00000000000E+00  0.00000000000E+00 -0.22402456010E+04  0.22402456010E+04  0.25500000920E-02 0. -1.
    10030    2    1    2    0    0  0.00000000000E+00  0.00000000000E+00 -0.79326187068E+03  0.36872293314E+04  0.36008881886E+04 0.  0.
        1    1    3    3  502    0 -0.57513936315E+03  0.14928811073E+04 -0.12423396263E+04  0.20255584500E+04  0.50400001928E-02 0. -1.
       -1    1    3    3    0  502  0.57513936315E+03 -0.14928811073E+04  0.44907775557E+03  0.16616708814E+04  0.50400001928E-02 0.  1.
</event>
<event>
 5   0  0.2482243E-08  0.3600116E+04  0.7818609E-02  0.8090465E-01
       -2   -1    0    0    0  501  0.00000000000E+00  0.00000000000E+00  0.20120223658E+04  0.20120223658E+04  0.25500000920E-02 0.  1.
        2   -1    0    0  501    0  0.00000000000E+00  0.00000000000E+00 -0.16104234681E+04  0.16104234681E+04  0.25500000920E-02 0. -1.
    10030    2    1    2    0    0  0.00000000000E+00  0.00000000000E+00  0.40159889768E+03  0.36224458339E+04  0.36001155738E+04 0.  0.
        5    1    3    3  502    0 -0.17372626375E+04  0.26018071072E+03 -0.19458886852E+03  0.17673885797E+04  0.46999998093E+01 0. -1.
       -5    1    3    3    0  502  0.17372626375E+04 -0.26018071072E+03  0.59618776620E+03  0.18550572542E+04  0.46999998093E+01 0.  1.
</event>
<event>
 5   0  0.8063410E-09  0.3600579E+04  0.7818609E-02  0.8090359E-01
       -1   -1    0    0    0  501  0.00000000000E+00  0.00000000000E+00  0.17121392230E+04  0.17121392230E+04  0.50400001928E-02 0. -1.
        1   -1    0    0  501    0  0.00000000000E+00  0.00000000000E+00 -0.18929785602E+04  0.18929785602E+04  0.50400001928E-02 0.  1.
    10030    2    1    2    0    0  0.00000000000E+00  0.00000000000E+00 -0.18083933715E+03  0.36051177832E+04  0.36005793096E+04 0.  0.
        2    1    3    3  502    0  0.16871285385E+04  0.32932084845E+03 -0.62605932342E+03  0.18294275616E+04  0.25500000920E-02 0. -1.
       -2    1    3    3    0  502 -0.16871285385E+04 -0.32932084845E+03  0.44521998627E+03  0.17756902216E+04  0.25500000920E-02 0.  1.
</event>
<event>
 5   0  0.8247570E-09  0.3601173E+04  0.7818609E-02  0.8090223E-01
       -1   -1    0    0    0  501  0.00000000000E+00  0.00000000000E+00  0.21469222224E+04  0.21469222224E+04  0.50400001928E-02 0. -1.
        1   -1    0    0  501    0  0.00000000000E+00  0.00000000000E+00 -0.15101207447E+04  0.15101207447E+04  0.50400001928E-02 0.  1.
    10030    2    1    2    0    0  0.00000000000E+00  0.00000000000E+00  0.63680147768E+03  0.36570429671E+04  0.36011730229E+04 0.  0.
        3    1    3    3  502    0  0.10467754846E+04 -0.38686059945E+03 -0.11165723623E+04  0.15786493876E+04  0.10100000352E+00 0.  1.
       -3    1    3    3    0  502 -0.10467754846E+04  0.38686059945E+03  0.17533738399E+04  0.20783935795E+04  0.10100000352E+00 0. -1.
</event>
<event>
 5   0  0.8024500E-09  0.3602162E+04  0.7818609E-02  0.8089997E-01
        1   -1    0    0  501    0  0.00000000000E+00  0.00000000000E+00  0.25093900354E+04  0.25093900354E+04  0.50400001928E-02 0.  1.
       -1   -1    0    0    0  501  0.00000000000E+00  0.00000000000E+00 -0.12927018176E+04  0.12927018176E+04  0.50400001928E-02 0. -1.
    10030    2    1    2    0    0  0.00000000000E+00  0.00000000000E+00  0.12166882178E+04  0.38020918530E+04  0.36021621617E+04 0.  0.
        1    1    3    3  502    0  0.64633331573E+03 -0.17198005862E+03 -0.11567673201E+04  0.13362015298E+04  0.50400001928E-02 0. -1.
       -1    1    3    3    0  502 -0.64633331573E+03  0.17198005862E+03  0.23734555378E+04  0.24658903231E+04  0.50400001928E-02 0.  1.
</event>
<event>
 5   0  0.8063410E-09  0.3599646E+04  0.7818609E-02  0.8090573E-01
        1   -1    0    0  501    0  0.00000000000E+00  0.00000000000E+00  0.18299741172E+04  0.18299741172E+04  0.50400001928E-02 0. -1.
       -1   -1    0    0    0  501  0.00000000000E+00  0.00000000000E+00 -0.17701682467E+04  0.17701682468E+04  0.50400001928E-02 0.  1.
    10030    2    1    2    0    0  0.00000000000E+00  0.00000000000E+00  0.59805870416E+02  0.36001423639E+04  0.35996455795E+04 0.  0.
        2    1    3    3  502    0 -0.12273587682E+04  0.10618939801E+04  0.80804225335E+03  0.18129976983E+04  0.25500000920E-02 0. -1.
       -2    1    3    3    0  502  0.12273587682E+04 -0.10618939801E+04 -0.74823638293E+03  0.17871446656E+04  0.25500000920E-02 0.  1.
</event>
<event>
 5   0  0.2608070E-08  0.3597265E+04  0.7818609E-02  0.8091118E-01
       -2   -1    0    0    0  501  0.00000000000E+00  0.00000000000E+00  0.12102337585E+04  0.12102337585E+04  0.25500000920E-02 0.  1.
        2   -1    0    0  501    0  0.00000000000E+00  0.00000000000E+00 -0.26731031455E+04  0.26731031455E+04  0.25500000920E-02 0. -1.
    10030    2    1    2    0    0  0.00000000000E+00  0.00000000000E+00 -0.14628693870E+04  0.38833369039E+04  0.35972654428E+04 0.  0.
        3    1    3    3  502    0 -0.14001423636E+04 -0.71354119867E+03  0.21309696997E+03  0.15858593914E+04  0.10100000352E+00 0. -1.
       -3    1    3    3    0  502  0.14001423636E+04  0.71354119867E+03 -0.16759663570E+04  0.22974775125E+04  0.10100000352E+00 0.  1.
</event>
<event>
 5   0  0.8063410E-09  0.3604107E+04  0.7818609E-02  0.8089552E-01
       -1   -1    0    0    0  501  0.00000000000E+00  0.00000000000E+00  0.19791058586E+04  0.19791058586E+04  0.50400001928E-02 0.  1.
        1   -1    0    0  501    0  0.00000000000E+00  0.00000000000E+00 -0.16408404546E+04  0.16408404546E+04  0.50400001928E-02 0. -1.
    10030    2    1    2    0    0  0.00000000000E+00  0.00000000000E+00  0.33826540408E+03  0.36199463132E+04  0.36041070776E+04 0.  0.
        2    1    3    3  502    0 -0.15573525571E+04 -0.66190036319E+03  0.79148303307E+03  0.18681286009E+04  0.25500000920E-02 0.  1.
       -2    1    3    3    0  502  0.15573525571E+04  0.66190036319E+03 -0.45321762899E+03  0.17518177123E+04  0.25500000920E-02 0. -1.
</event>
<event>
 5   0  0.2482243E-08  0.3601447E+04  0.7818609E-02  0.8090160E-01
       -2   -1    0    0    0  501  0.00000000000E+00  0.00000000000E+00  0.21293309569E+04  0.21293309569E+04  0.25500000920E-02 0. -1.
        2   -1    0    0  501    0  0.00000000000E+00  0.00000000000E+00 -0.15228279589E+04  0.15228279589E+04  0.25500000920E-02 0.  1.
    10030    2    1    2    0    0  0.00000000000E+00  0.00000000000E+00  0.60650299802E+03  0.36521589157E+04  0.36014467731E+04 0.  0.
        5    1    3    3  502    0  0.11105977313E+03 -0.36866959010E+03  0.20870921481E+04  0.21223164855E+04  0.46999998093E+01 0. -1.
       -5    1    3    3    0  502 -0.11105977313E+03  0.36866959010E+03 -0.14805891501E+04  0.15298424302E+04  0.46999998093E+01 0.  1.
</event>
<event>
 5   0  0.2494592E-08  0.3600242E+04  0.7818609E-02  0.8090436E-01
       -2   -1    0    0    0  501  0.00000000000E+00  0.00000000000E+00  0.17649005695E+04  0.17649005695E+04  0.25500000920E-02 0.  1.
        2   -1    0    0  501    0  0.00000000000E+00  0.00000000000E+00 -0.18360437986E+04  0.18360437986E+04  0.25500000920E-02 0. -1.
    10030    2    1    2    0    0  0.00000000000E+00  0.00000000000E+00 -0.71143229160E+02  0.36009443681E+04  0.36002415173E+04 0.  0.
        1    1    3    3  502    0 -0.72246503656E+03 -0.78603677269E+03 -0.14852079381E+04  0.18291123958E+04  0.50400001928E-02 0. -1.
       -1    1    3    3    0  502  0.72246503656E+03  0.78603677269E+03  0.14140647089E+04  0.17718319723E+04  0.50400001928E-02 0.  1.
</event>
<event>
 5   0  0.8024500E-09  0.3606373E+04  0.7818609E-02  0.8089033E-01
        1   -1    0    0  501    0  0.00000000000E+00  0.00000000000E+00  0.23343036773E+04  0.23343036774E+04  0.50400001928E-02 0. -1.
       -1   -1    0    0    0  501  0.00000000000E+00  0.00000000000E+00 -0.13929127221E+04  0.13929127221E+04  0.50400001928E-02 0.  1.
    10030    2    1    2    0    0  0.00000000000E+00  0.00000000000E+00  0.94139095529E+03  0.37272163994E+04  0.36063728534E+04 0.  0.
        5    1    3    3  502    0  0.17514848135E+04  0.42635271619E+03  0.42466653115E+03  0.18519825710E+04  0.46999998093E+01 0. -1.
       -5    1    3    3    0  502 -0.17514848135E+04 -0.42635271619E+03  0.51672442414E+03  0.18752338284E+04  0.46999998093E+01 0.  1.
</event>
<event>
 5   0  0.8247570E-09  0.3599988E+04  0.7818609E-02  0.8090494E-01
        1   -1    0    0  501    0  0.00000000000E+00  0.00000000000E+00  0.16729361147E+04  0.16729361148E+04  0.50400001928E-02 0. -1.
       -1   -1    0    0    0  501  0.00000000000E+00  0.00000000000E+00 -0.19367021460E+04  0.19367021461E+04  0.50400001928E-02 0.  1.
    10030    2    1    2    0    0  0.00000000000E+00  0.00000000000E+00 -0.26376603130E+03  0.36096382608E+04  0.35999883131E+04 0.  0.
        3    1    3    3  502    0 -0.95968508268E+03  0.40273473767E+03 -0.16044204447E+04  0.19124214234E+04  0.10100000352E+00 0.  1.
       -3    1    3    3    0  502  0.95968508268E+03 -0.40273473767E+03  0.13406544134E+04  0.16972168374E+04  0.10100000352E+00 0. -1.
</event>
<event>
 5   0  0.8024500E-09  0.3593396E+04  0.7818609E-02  0.8092006E-01
        1   -1    0    0  501    0  0.00000000000E+00  0.00000000000E+00  0.18595943514E+04  0.18595943514E+04  0.50400001928E-02 0.  1.
       -1   -1    0    0    0  501  0.00000000000E+00  0.00000000000E+00 -0.17359285651E+04  0.17359285652E+04  0.50400001928E-02 0. -1.
    10030    2    1    2    0    0  0.00000000000E+00  0.00000000000E+00  0.12366578621E+03  0.35955229165E+04  0.35933955831E+04 0.  0.
        1    1    3    3  502    0  0.16503752828E+04 -0.65174670786E+03 -0.22048766534E+03  0.17880512173E+04  0.50400001928E-02 0. -1.
       -1    1    3    3    0  502 -0.16503752828E+04  0.65174670786E+03  0.34415345155E+03  0.18074716992E+04  0.50400001928E-02 0.  1.
</event>
<event>
 5   0  0.8024500E-09  0.3599152E+04  0.7818609E-02  0.8090686E-01
        1   -1    0    0  501    0  0.00000000000E+00  0.00000000000E+00  0.24750372382E+04  0.24750372382E+04  0.50400001928E-02 0. -1.
       -1   -1    0    0    0  501  0.00000000000E+00  0.00000000000E+00 -0.13084544005E+04  0.13084544005E+04  0.50400001928E-02 0.  1.
    10030    2    1    2    0    0  0.00000000000E+00  0.00000000000E+00  0.11665828376E+04  0.37834916387E+04  0.35991517699E+04 0.  0.
        5    1    3    3  502    0 -0.43644151313E+03  0.13716561564E+04  0.17186694208E+04  0.22418225786E+04  0.46999998093E+01 0. -1.
       -5    1    3    3    0  502  0.43644151313E+03 -0.13716561564E+04 -0.55208658316E+03  0.15416690602E+04  0.46999998093E+01 0.  1.
</event>
<event>
 5   0  0.2476968E-08  0.3598511E+04  0.7818609E-02  0.8090833E-01
       -2   -1    0    0    0  501  0.00000000000E+00  0.00000000000E+00  0.29173917731E+04  0.29173917731E+04  0.25500000920E-02 0. -1.
        2   -1    0    0  501    0  0.00000000000E+00  0.00000000000E+00 -0.11096623984E+04  0.11096623984E+04  0.25500000920E-02 0.  1.
    10030    2    1    2    0    0  0.00000000000E+00  0.00000000000E+00  0.18077293747E+04  0.40270541715E+04  0.35985107764E+04 0.  0.
        2    1    3    3  502    0 -0.74498306307E+03  0.92642657002E+03  0.24152789267E+04  0.26919952169E+04  0.25500000920E-02 0. -1.
       -2    1    3    3    0  502  0.74498306307E+03 -0.92642657002E+03 -0.60754955206E+03  0.13350589545E+04  0.25500000920E-02 0.  1.
</event>
<event>
 5   0  0.8063410E-09  0.3598617E+04  0.7818609E-02  0.8090809E-01
        1   -1    0    0  501    0  0.00000000000E+00  0.00000000000E+00  0.13339973882E+04  0.13339973883E+04  0.50400001928E-02 0. -1.
       -1   -1    0    0    0  501  0.00000000000E+00  0.00000000000E+00 -0.24269245899E+04  0.24269245899E+04  0.50400001928E-02 0.  1.
    10030    2    1    2    0    0  0.00000000000E+00  0.00000000000E+00 -0.10929272017E+04  0.37609219782E+04  0.35986169924E+04 0.  0.
        2    1    3    3  502    0  0.79368314494E+03 -0.16780573703E+03 -0.22249571463E+04  0.23682326749E+04  0.25500000920E-02 0.  1.
       -2    1    3    3    0  502 -0.79368314494E+03  0.16780573703E+03  0.11320299446E+04  0.13926893032E+04  0.25500000920E-02 0. -1.
</event>
<event>
 5   0  0.2482243E-08  0.3599823E+04  0.7818609E-02  0.8090532E-01
       -2   -1    0    0    0  501  0.00000000000E+00  0.00000000000E+00  0.14642221742E+04  0.14642221742E+04  0.25500000920E-02 0.  1.
        2   -1    0    0  501    0  0.00000000000E+00  0.00000000000E+00 -0.22125609950E+04  0.22125609950E+04  0.25500000920E-02 0. -1.
    10030    2    1    2    0    0  0.00000000000E+00  0.00000000000E+00 -0.74833882089E+03  0.36767831692E+04  0.35998227015E+04 0.  0.
        5    1    3    3  502    0  0.21698954852E+03  0.33634031261E+03  0.14181831952E+04  0.14735925269E+04  0.46999998093E+01 0.  1.
       -5    1    3    3    0  502 -0.21698954852E+03 -0.33634031261E+03 -0.21665220161E+04  0.22031906423E+04  0.46999998093E+01 0. -1.
</event>
<event>
 5   0  0.8024500E-09  0.3600077E+04  0.7818609E-02  0.8090474E-01
       -1   -1    0    0    0  501  0.00000000000E+00  0.00000000000E+00  0.15721576476E+04  0.15721576476E+04  0.50400001928E-02 0. -1.
        1   -1    0    0  501    0  0.00000000000E+00  0.00000000000E+00 -0.20609499969E+04  0.20609499969E+04  0.50400001928E-02 0.  1.
    10030    2    1    2    0    0  0.00000000000E+00  0.00000000000E+00 -0.48879234929E+03  0.36331076445E+04  0.36000768320E+04 0.  0.
        1    1    3    3  502    0 -0.12971507421E+04 -0.12394150491E+04 -0.39198638359E+03  0.18364103671E+04  0.50400001928E-02 0.  1.
       -1    1    3    3    0  502  0.12971507421E+04  0.12394150491E+04 -0.96805965699E+02  0.17966972774E+04  0.50400001928E-02 0. -1.
</event>
<event>
 5   0  0.2608070E-08  0.3600450E+04  0.7818609E-02  0.8090389E-01
        2   -1    0    0  501    0  0.00000000000E+00  0.00000000000E+00  0.16391240216E+04  0.16391240216E+04  0.25500000920E-02 0.  1.
       -2   -1    0    0    0  501  0.00000000000E+00  0.00000000000E+00 -0.19771600591E+04  0.19771600591E+04  0.25500000920E-02 0. -1.
    10030    2    1    2    0    0  0.00000000000E+00  0.00000000000E+00 -0.33803603748E+03  0.36162840807E+04  0.36004502759E+04 0.  0.
        3    1    3    3  502    0 -0.35790543896E+03  0.11624659521E+04  0.11639911396E+04  0.16835375779E+04  0.10100000352E+00 0.  1.
       -3    1    3    3    0  502  0.35790543896E+03 -0.11624659521E+04 -0.15020271771E+04  0.19327465027E+04  0.10100000352E+00 0. -1.
</event>
<event>
 5   0  0.2482243E-08  0.3600250E+04  0.7818609E-02  0.8090434E-01
       -2   -1    0    0    0  501  0.00000000000E+00  0.00000000000E+00  0.16796657030E+04  0.16796657030E+04  0.25500000920E-02 0. -1.
        2   -1    0    0  501    0  0.00000000000E+00  0.00000000000E+00 -0.19292236511E+04  0.19292236511E+04  0.25500000920E-02 0.  1.
    10030    2    1    2    0    0  0.00000000000E+00  0.00000000000E+00 -0.24955794813E+03  0.36088893541E+04  0.36002504358E+04 0.  0.
        5    1    3    3  502    0  0.11521721648E+04 -0.27851586159E+03  0.12332252574E+04  0.17105374617E+04  0.46999998093E+01 0. -1.
       -5    1    3    3    0  502 -0.11521721648E+04  0.27851586159E+03 -0.14827832056E+04  0.18983518923E+04  0.46999998093E+01 0.  1.
</event>
<event>
 5   0  0.2482243E-08  0.3600446E+04  0.7818609E-02  0.8090390E-01
        2   -1    0    0  501    0  0.00000000000E+00  0.00000000000E+00  0.18531156688E+04  0.18531156688E+04  0.25500000920E-02 0.  1.
       -2   -1    0    0    0  501  0.00000000000E+00  0.00000000000E+00 -0.17488397097E+04  0.17488397097E+04  0.25500000920E-02 0. -1.
    10030    2    1    2    0    0  0.00000000000E+00  0.00000000000E+00  0.10427595913E+03  0.36019553785E+04  0.36004456770E+04 0.  0.
        5    1    3    3  502    0  0.17712923802E+04  0.22565568297E+03 -0.17683130576E+03  0.17943490697E+04  0.46999998093E+01 0. -1.
       -5    1    3    3    0  502 -0.17712923802E+04 -0.22565568297E+03  0.28110726489E+03  0.18076063088E+04  0.46999998093E+01 0.  1.
</event>
<event>
 5   0  0.2608070E-08  0.3599473E+04  0.7818609E-02  0.8090612E-01
        2   -1    0    0  501    0  0.00000000000E+00  0.00000000000E+00  0.22291246224E+04  0.22291246224E+04  0.25500000920E-02 0.  1.
       -2   -1    0    0    0  501  0.00000000000E+00  0.00000000000E+00 -0.14530599917E+04  0.14530599917E+04  0.25500000920E-02 0. -1.
    10030    2    1    2    0    0  0.00000000000E+00  0.00000000000E+00  0.77606463069E+03  0.36821846142E+04  0.35994731867E+04 0.  0.
        3    1    3    3  502    0 -0.12993616841E+04  0.10851716157E+04 -0.23683403859E+03  0.17093942183E+04  0.10100000352E+00 0.  1.
       -3    1    3    3    0  502  0.12993616841E+04 -0.10851716157E+04  0.10128986693E+04  0.19727903959E+04  0.10100000352E+00 0. -1.
</event>
<event>
 5   0  0.8024500E-09  0.3599515E+04  0.7818609E-02  0.8090603E-01
        1   -1    0    0  501    0  0.00000000000E+00  0.00000000000E+00  0.17338618386E+04  0.17338618386E+04  0.50400001928E-02 0.  1.
       -1   -1    0    0    0  501  0.00000000000E+00  0.00000000000E+00 -0.18681571665E+04  0.18681571665E+04  0.50400001928E-02 0. -1.
    10030    2    1    2    0    0  0.00000000000E+00  0.00000000000E+00 -0.13429532793E+03  0.36020190052E+04  0.35995146448E+04 0.  0.
        1    1    3    3  502    0  0.75465110037E+03  0.14459684340E+04  0.69417297062E+03  0.17726249205E+04  0.50400001928E-02 0.  1.
       -1    1    3    3    0  502 -0.75465110037E+03 -0.14459684340E+04 -0.82846829855E+03  0.18293940847E+04  0.50400001928E-02 0. -1.
</event>
<event>
 5   0  0.8146881E-09  0.3599867E+04  0.7818609E-02  0.8090522E-01
       -1   -1    0    0    0  501  0.00000000000E+00  0.00000000000E+00  0.30165225560E+04  0.30165225560E+04  0.50400001928E-02 0.  1.
        1   -1    0    0  501    0  0.00000000000E+00  0.00000000000E+00 -0.10740052560E+04  0.10740052561E+04  0.50400001928E-02 0. -1.
    10030    2    1    2    0    0  0.00000000000E+00  0.00000000000E+00  0.19425173000E+04  0.40905278121E+04  0.35998672643E+04 0.  0.
        4    1    3    3  502    0  0.39135699709E+03 -0.27307499371E+03  0.29433292213E+04  0.29817643719E+04  0.12699999809E+01 0.  1.
       -4    1    3    3    0  502 -0.39135699709E+03  0.27307499371E+03 -0.10008119214E+04  0.11087634402E+04  0.12699999809E+01 0. -1.
</event>
<event>
 5   0  0.8024500E-09  0.3599975E+04  0.7818609E-02  0.8090497E-01
        1   -1    0    0  501    0  0.00000000000E+00  0.00000000000E+00  0.18755993584E+04  0.18755993584E+04  0.50400001928E-02 0.  1.
       -1   -1    0    0    0  501  0.00000000000E+00  0.00000000000E+00 -0.17274234935E+04  0.17274234935E+04  0.50400001928E-02 0. -1.
    10030    2    1    2    0    0  0.00000000000E+00  0.00000000000E+00  0.14817586488E+03  0.36030228520E+04  0.35999746645E+04 0.  0.
        5    1    3    3  502    0  0.15485316697E+04 -0.43051348751E+03  0.88510739513E+03  0.18348649503E+04  0.46999998093E+01 0.  1.
       -5    1    3    3    0  502 -0.15485316697E+04  0.43051348751E+03 -0.73693153024E+03  0.17681579017E+04  0.46999998093E+01 0. -1.
</event>
<event>
 5   0  0.2476968E-08  0.3601537E+04  0.7818609E-02  0.8090140E-01
       -2   -1    0    0    0  501  0.00000000000E+00  0.00000000000E+00  0.14522160619E+04  0.14522160619E+04  0.25500000920E-02 0. -1.
        2   -1    0    0  501    0  0.00000000000E+00  0.00000000000E+00 -0.22329788153E+04  0.22329788153E+04  0.25500000920E-02 0.  1.
    10030    2    1    2    0    0  0.00000000000E+00  0.00000000000E+00 -0.78076275339E+03  0.36851948772E+04  0.36015372837E+04 0.  0.
        2    1    3    3  502    0  0.82945150271E+02 -0.42192854397E+03 -0.21796750832E+04  0.22216856354E+04  0.25500000920E-02 0.  1.
       -2    1    3    3    0  502 -0.82945150271E+02  0.42192854397E+03  0.13989123299E+04  0.14635092418E+04  0.25500000920E-02 0. -1.
</event>
<event>
 5   0  0.8247570E-09  0.3600536E+04  0.7818609E-02  0.8090369E-01
       -1   -1    0    0    0  501  0.00000000000E+00  0.00000000000E+00  0.15875421221E+04  0.15875421221E+04  0.50400001928E-02 0.  1.
        1   -1    0    0  501    0  0.00000000000E+00  0.00000000000E+00 -0.20414989294E+04  0.20414989294E+04  0.50400001928E-02 0. -1.
    10030    2    1    2    0    0  0.00000000000E+00  0.00000000000E+00 -0.45395680725E+03  0.36290410515E+04  0.36005363727E+04 0.  0.
        3    1    3    3  502    0  0.12233613006E+04  0.12865724723E+04 -0.52781064048E+03  0.18521516354E+04  0.10100000352E+00 0.  1.
       -3    1    3    3    0  502 -0.12233613006E+04 -0.12865724723E+04  0.73853833229E+02  0.17768894161E+04  0.10100000352E+00 0. -1.
</event>
<event>
 5   0  0.8146881E-09  0.3599876E+04  0.7818609E-02  0.8090520E-01
       -1   -1    0    0    0  501  0.00000000000E+00  0.00000000000E+00  0.12063137631E+04  0.12063137631E+04  0.50400001928E-02 0.  1.
        1   -1    0    0  501    0  0.00000000000E+00  0.00000000000E+00 -0.26856834071E+04  0.26856834071E+04  0.50400001928E-02 0. -1.
    10030    2    1    2    0    0  0.00000000000E+00  0.00000000000E+00 -0.14793696440E+04  0.38919971701E+04  0.35998760296E+04 0.  0.
        4    1    3    3  502    0  0.37526970831E+03  0.45200391828E+03  0.10997409899E+04  0.12468226634E+04  0.12699999809E+01 0.  1.
       -4    1    3    3    0  502 -0.37526970831E+03 -0.45200391828E+03 -0.25791106339E+04  0.26451745067E+04  0.12699999809E+01 0. -1.
</event>
<event>
 5   0  0.2590795E-08  0.3600409E+04  0.7818609E-02  0.8090398E-01
       -2   -1    0    0    0  501  0.00000000000E+00  0.00000000000E+00  0.11255487285E+04  0.11255487285E+04  0.25500000920E-02 0. -1.
        2   -1    0    0  501    0  0.00000000000E+00  0.00000000000E+00 -0.28792492777E+04  0.28792492777E+04  0.25500000920E-02 0.  1.
    10030    2    1    2    0    0  0.00000000000E+00  0.00000000000E+00 -0.17537005493E+04  0.40047980062E+04  0.36004085121E+04 0.  0.
        4    1    3    3  502    0 -0.26619572652E+03  0.69760341780E+03  0.94518686361E+03  0.12045291667E+04  0.12699999809E+01 0. -1.
       -4    1    3    3    0  502  0.26619572652E+03 -0.69760341780E+03 -0.26988874129E+04  0.28002688395E+04  0.12699999809E+01 0.  1.
</event>
<event>
 5   0  0.8146881E-09  0.3600034E+04  0.7818609E-02  0.8090484E-01
        1   -1    0    0  501    0  0.00000000000E+00  0.00000000000E+00  0.22390254420E+04  0.22390254420E+04  0.50400001928E-02 0. -1.
       -1   -1    0    0    0  501  0.00000000000E+00  0.00000000000E+00 -0.14470857528E+04  0.14470857528E+04  0.50400001928E-02 0.  1.
    10030    2    1    2    0    0  0.00000000000E+00  0.00000000000E+00  0.79193968926E+03  0.36861111948E+04  0.36000343428E+04 0.  0.
        4    1    3    3  502    0  0.13958346929E+04  0.65787485965E+03  0.13449009952E+04  0.20469279715E+04  0.12699999809E+01 0. -1.
       -4    1    3    3    0  502 -0.13958346929E+04 -0.65787485965E+03 -0.55296130591E+03  0.16391832233E+04  0.12699999809E+01 0.  1.
</event>
<event>
 5   0  0.8146881E-09  0.3598560E+04  0.7818609E-02  0.8090822E-01
       -1   -1    0    0    0  501  0.00000000000E+00  0.00000000000E+00  0.13298500544E+04  0.13298500544E+04  0.50400001928E-02 0. -1.
        1   -1    0    0  501    0  0.00000000000E+00  0.00000000000E+00 -0.24344163153E+04  0.24344163153E+04  0.50400001928E-02 0.  1.
    10030    2    1    2    0    0  0.00000000000E+00  0.00000000000E+00 -0.11045662608E+04  0.37642663697E+04  0.35985600839E+04 0.  0.
        4    1    3    3  502    0  0.14548814933E+04  0.30522640830E+03 -0.16126495702E+04  0.21932814614E+04  0.12699999809E+01 0.  1.
       -4    1    3    3    0  502 -0.14548814933E+04 -0.30522640830E+03  0.50808330939E+03  0.15709849083E+04  0.12699999809E+01 0. -1.
</event>
<event>
 5   0  0.8024500E-09  0.3596398E+04  0.7818609E-02  0.8091317E-01
        1   -1    0    0  501    0  0.00000000000E+00  0.00000000000E+00  0.16708698183E+04  0.16708698183E+04  0.50400001928E-02 0. -1.
       -1   -1    0    0    0  501  0.00000000000E+00  0.00000000000E+00 -0.19352314527E+04  0.19352314527E+04  0.50400001928E-02 0.  1.
    10030    2    1    2    0    0  0.00000000000E+00  0.00000000000E+00 -0.26436163438E+03  0.36061012710E+04  0.35963981013E+04 0.  0.
        1    1    3    3  502    0 -0.70698934389E+03  0.34054931786E+03 -0.17544805467E+04  0.19219806865E+04  0.50400001928E-02 0.  1.
       -1    1    3    3    0  502  0.70698934389E+03 -0.34054931786E+03  0.14901189124E+04  0.16841205845E+04  0.50400001928E-02 0. -1.
</event>
<event>
 5   0  0.2494592E-08  0.3600439E+04  0.7818609E-02  0.8090391E-01
        2   -1    0    0  501    0  0.00000000000E+00  0.00000000000E+00  0.28609562599E+04  0.28609562599E+04  0.25500000920E-02 0.  1.
       -2   -1    0    0    0  501  0.00000000000E+00  0.00000000000E+00 -0.11327645731E+04  0.11327645732E+04  0.25500000920E-02 0. -1.
    10030    2    1    2    0    0  0.00000000000E+00  0.00000000000E+00  0.17281916868E+04  0.39937208331E+04  0.36004388047E+04 0.  0.
        1    1    3    3  502    0  0.65405294707E+03  0.13202740676E+04  0.20114302370E+04  0.24933432314E+04  0.50400001928E-02 0.  1.
       -1    1    3    3    0  502 -0.65405294707E+03 -0.13202740676E+04 -0.28323855023E+03  0.15003776017E+04  0.50400001928E-02 0. -1.
</event>
<event>
 5   0  0.8247570E-09  0.3599680E+04  0.7818609E-02  0.8090565E-01
        1   -1    0    0  501    0  0.00000000000E+00  0.00000000000E+00  0.23950134038E+04  0.23950134038E+04  0.50400001928E-02 0. -1.
       -1   -1    0    0    0  501  0.00000000000E+00  0.00000000000E+00 -0.13525701630E+04  0.13525701630E+04  0.50400001928E-02 0.  1.
    10030    2    1    2    0    0  0.00000000000E+00  0.00000000000E+00  0.10424432408E+04  0.37475835668E+04  0.35996798025E+04 0.  0.
        3    1    3    3  502    0  0.83586722497E+03  0.14389174389E+04 -0.19271450613E+03  0.16752003775E+04  0.10100000352E+00 0.  1.
       -3    1    3    3    0  502 -0.83586722497E+03 -0.14389174389E+04  0.12351577469E+04  0.20723831894E+04  0.10100000352E+00 0. -1.
</event>
<event>
 5   0  0.2476968E-08  0.3600453E+04  0.7818609E-02  0.8090388E-01
        2   -1    0    0  501    0  0.00000000000E+00  0.00000000000E+00  0.24912273018E+04  0.24912273018E+04  0.25500000920E-02 0. -1.
       -2   -1    0    0    0  501  0.00000000000E+00  0.00000000000E+00 -0.13008909797E+04  0.13008909797E+04  0.25500000920E-02 0.  1.
    10030    2    1    2    0    0  0.00000000000E+00  0.00000000000E+00  0.11903363221E+04  0.37921182815E+04  0.36004528189E+04 0.  0.
        2    1    3    3  502    0 -0.51013335943E+03 -0.79067804302E+03 -0.10212650339E+04  0.13886648557E+04  0.25500000920E-02 0.  1.
       -2    1    3    3    0  502  0.51013335943E+03  0.79067804302E+03  0.22116013560E+04  0.24034534258E+04  0.25500000920E-02 0. -1.
</event>
<event>
 5   0  0.2608070E-08  0.3600167E+04  0.7818609E-02  0.8090453E-01
       -2   -1    0    0    0  501  0.00000000000E+00  0.00000000000E+00  0.12868352648E+04  0.12868352648E+04  0.25500000920E-02 0. -1.
        2   -1    0    0  501    0  0.00000000000E+00  0.00000000000E+00 -0.25180389688E+04  0.25180389688E+04  0.25500000920E-02 0.  1.
    10030    2    1    2    0    0  0.00000000000E+00  0.00000000000E+00 -0.12312037040E+04  0.38048742336E+04  0.36001674090E+04 0.  0.
        3    1    3    3  502    0 -0.42163400344E+02 -0.12383084976E+04  0.76444722110E+03  0.14558726770E+04  0.10100000352E+00 0. -1.
       -3    1    3    3    0  502  0.42163400344E+02  0.12383084976E+04 -0.19956509251E+04  0.23490015566E+04  0.10100000352E+00 0.  1.
</event>
<event>
 5   0  0.8024500E-09  0.3599791E+04  0.7818609E-02  0.8090539E-01
        1   -1    0    0  501    0  0.00000000000E+00  0.00000000000E+00  0.27878582181E+04  0.27878582181E+04  0.50400001928E-02 0.  1.
       -1   -1    0    0    0  501  0.00000000000E+00  0.00000000000E+00 -0.11620478499E+04  0.11620478499E+04  0.50400001928E-02 0. -1.
    10030    2    1    2    0    0  0.00000000000E+00  0.00000000000E+00  0.16258103682E+04  0.39499060681E+04  0.35997914652E+04 0.  0.
        5    1    3    3  502    0  0.78258204962E+03 -0.14237259164E+03  0.25845287121E+04  0.27041662990E+04  0.46999998093E+01 0.  1.
       -5    1    3    3    0  502 -0.78258204962E+03  0.14237259164E+03 -0.95871834390E+03  0.12457397690E+04  0.46999998093E+01 0. -1.
</event>
<event>
 5   0  0.2590795E-08  0.3599498E+04  0.7818609E-02  0.8090607E-01
       -2   -1    0    0    0  501  0.00000000000E+00  0.00000000000E+00  0.15968248680E+04  0.15968248680E+04  0.25500000920E-02 0. -1.
        2   -1    0    0  501    0  0.00000000000E+00  0.00000000000E+00 -0.20284607448E+04  0.20284607448E+04  0.25500000920E-02 0.  1.
    10030    2    1    2    0    0  0.00000000000E+00  0.00000000000E+00 -0.43163587686E+03  0.36252856128E+04  0.35994980545E+04 0.  0.
        4    1    3    3  502    0  0.15582245933E+04  0.67037196928E+03  0.38984919028E+03  0.17405305123E+04  0.12699999809E+01 0. -1.
       -4    1    3    3    0  502 -0.15582245933E+04 -0.67037196928E+03 -0.82148506714E+03  0.18847551005E+04  0.12699999809E+01 0.  1.
</event>
<event>
 5   0  0.2590795E-08  0.3600204E+04  0.7818609E-02  0.8090445E-01
       -2   -1    0    0    0  501  0.00000000000E+00  0.00000000000E+00  0.10935615629E+04  0.10935615629E+04  0.25500000920E-02 0.  1.
        2   -1    0    0  501    0  0.00000000000E+00  0.00000000000E+00 -0.29631311920E+04  0.29631311920E+04  0.25500000920E-02 0. -1.
    10030    2    1    2    0    0  0.00000000000E+00  0.00000000000E+00 -0.18695696291E+04  0.40566927549E+04  0.36002035372E+04 0.  0.
        4    1    3    3  502    0  0.19002196646E+02  0.10213405767E+04 -0.26049020402E+04  0.27980375103E+04  0.12699999809E+01 0. -1.
       -4    1    3    3    0  502 -0.19002196646E+02 -0.10213405767E+04  0.73533241109E+03  0.12586552446E+04  0.12699999809E+01 0.  1.
</event>
<event>
 5   0  0.2476968E-08  0.3601046E+04  0.7818609E-02  0.8090252E-01
       -2   -1    0    0    0  501  0.00000000000E+00  0.00000000000E+00  0.12981766289E+04  0.12981766289E+04  0.25500000920E-02 0.  1.
        2   -1    0    0  501    0  0.00000000000E+00  0.00000000000E+00 -0.24972586207E+04  0.24972586207E+04  0.25500000920E-02 0. -1.
    10030    2    1    2    0    0  0.00000000000E+00  0.00000000000E+00 -0.11990819918E+04  0.37954352495E+04  0.36010458356E+04 0.  0.
        2    1    3    3  502    0  0.15382384193E+04 -0.83590498212E+03 -0.10429255490E+04  0.20377949540E+04  0.25500000920E-02 0.  1.
       -2    1    3    3    0  502 -0.15382384193E+04  0.83590498212E+03 -0.15615644282E+03  0.17576402955E+04  0.25500000920E-02 0. -1.
</event>
<event>
 5   0  0.8024500E-09  0.3600058E+04  0.7818609E-02  0.8090478E-01
        1   -1    0    0  501    0  0.00000000000E+00  0.00000000000E+00  0.17811480762E+04  0.17811480762E+04  0.50400001928E-02 0. -1.
       -1   -1    0    0    0  501  0.00000000000E+00  0.00000000000E+00 -0.18191105442E+04  0.18191105442E+04  0.50400001928E-02 0.  1.
    10030    2    1    2    0    0  0.00000000000E+00  0.00000000000E+00 -0.37962467978E+02  0.36002586203E+04  0.36000584696E+04 0.  0.
        5    1    3    3  502    0 -0.15583062978E+04  0.76499786748E+03  0.45701045896E+03  0.17951102765E+04  0.46999998093E+01 0. -1.
       -5    1    3    3    0  502  0.15583062978E+04 -0.76499786748E+03 -0.49497292694E+03  0.18051483439E+04  0.46999998093E+01 0.  1.
</event>
<event>
 5   0  0.2608070E-08  0.3599880E+04  0.7818609E-02  0.8090519E-01
        2   -1    0    0  501    0  0.00000000000E+00  0.00000000000E+00  0.17841252913E+04  0.17841252913E+04  0.25500000920E-02 0.  1.
       -2   -1    0    0    0  501  0.00000000000E+00  0.00000000000E+00 -0.18158952832E+04  0.18158952832E+04  0.25500000920E-02 0. -1.
    10030    2    1    2    0    0  0.00000000000E+00  0.00000000000E+00 -0.31769991810E+02  0.36000205745E+04  0.35998803875E+04 0.  0.
        3    1    3    3  502    0  0.45918252624E+03  0.10136660828E+04  0.13988846154E+04  0.17875250200E+04  0.10100000352E+00 0.  1.
       -3    1    3    3    0  502 -0.45918252624E+03 -0.10136660828E+04 -0.14306546072E+04  0.18124955545E+04  0.10100000352E+00 0. -1.
</event>
<event>
 5   0  0.8247570E-09  0.3602004E+04  0.7818609E-02  0.8090033E-01
       -1   -1    0    0    0  501  0.00000000000E+00  0.00000000000E+00  0.25345369169E+04  0.25345369169E+04  0.50400001928E-02 0.  1.
        1   -1    0    0  501    0  0.00000000000E+00  0.00000000000E+00 -0.12797636424E+04  0.12797636424E+04  0.50400001928E-02 0. -1.
    10030    2    1    2    0    0  0.00000000000E+00  0.00000000000E+00  0.12547732745E+04  0.38143005593E+04  0.36020039958E+04 0.  0.
        3    1    3    3  502    0  0.13964552855E+04 -0.81139568804E+03  0.14713266140E+04  0.21847774125E+04  0.10100000352E+00 0.  1.
       -3    1    3    3    0  502 -0.13964552855E+04  0.81139568804E+03 -0.21655333947E+03  0.16295231468E+04  0.10100000352E+00 0. -1.
</event>
<event>
 5   0  0.2590795E-08  0.3600004E+04  0.7818609E-02  0.8090491E-01
        2   -1    0    0  501    0  0.00000000000E+00  0.00000000000E+00  0.23357711682E+04  0.23357711682E+04  0.25500000920E-02 0.  1.
       -2   -1    0    0    0  501  0.00000000000E+00  0.00000000000E+00 -0.13871250904E+04  0.13871250904E+04  0.25500000920E-02 0. -1.
    10030    2    1    2    0    0  0.00000000000E+00  0.00000000000E+00  0.94864607781E+03  0.37228962586E+04  0.36000037738E+04 0.  0.
        4    1    3    3  502    0 -0.94118158992E+03 -0.13892478161E+04  0.11478413969E+04  0.20330700345E+04  0.12699999809E+01 0. -1.
       -4    1    3    3    0  502  0.94118158992E+03  0.13892478161E+04 -0.19919531907E+03  0.16898262241E+04  0.12699999809E+01 0.  1.
</event>
<event>
 5   0  0.8146881E-09  0.3599571E+04  0.7818609E-02  0.8090590E-01
       -1   -1    0    0    0  501  0.00000000000E+00  0.00000000000E+00  0.18810177202E+04  0.18810177202E+04  0.50400001928E-02 0. -1.
        1   -1    0    0  501    0  0.00000000000E+00  0.00000000000E+00 -0.17220617332E+04  0.17220617332E+04  0.50400001928E-02 0.  1.
    10030    2    1    2    0    0  0.00000000000E+00  0.00000000000E+00  0.15895598708E+03  0.36030794534E+04  0.35995714386E+04 0.  0.
        4    1    3    3  502    0  0.81430866075E+02 -0.85918463331E+03 -0.15014274669E+04  0.17317953896E+04  0.12699999809E+01 0.  1.
       -4    1    3    3    0  502 -0.81430866075E+02  0.85918463331E+03  0.16603834540E+04  0.18712840638E+04  0.12699999809E+01 0. -1.
</event>
<event>
 5   0  0.8247570E-09  0.3599622E+04  0.7818609E-02  0.8090578E-01
       -1   -1    0    0    0  501  0.00000000000E+00  0.00000000000E+00  0.13717114806E+04  0.13717114806E+04  0.50400001928E-02 0. -1.
        1   -1    0    0  501    0  0.00000000000E+00  0.00000000000E+00 -0.23615173006E+04  0.23615173006E+04  0.50400001928E-02 0.  1.
    10030    2    1    2    0    0  0.00000000000E+00  0.00000000000E+00 -0.98980582004E+03  0.37332287812E+04  0.35996224207E+04 0.  0.
        3    1    3    3  502    0  0.99810216073E+03  0.33873147608E+03  0.10181411439E+04  0.14654549926E+04  0.10100000352E+00 0. -1.
       -3    1    3    3    0  502 -0.99810216073E+03 -0.33873147608E+03 -0.20079469640E+04  0.22677737886E+04  0.10100000352E+00 0.  1.
</event>
<event>
 5   0  0.2476968E-08  0.3598601E+04  0.7818609E-02  0.8090812E-01
       -2   -1    0    0    0  501  0.00000000000E+00  0.00000000000E+00  0.12338224574E+04  0.12338224574E+04  0.25500000920E-02 0. -1.
        2   -1    0    0  501    0  0.00000000000E+00  0.00000000000E+00 -0.26239453184E+04  0.26239453184E+04  0.25500000920E-02 0.  1.
    10030    2    1    2    0    0  0.00000000000E+00  0.00000000000E+00 -0.13901228610E+04  0.38577677758E+04  0.35986012065E+04 0.  0.
        2    1    3    3  502    0 -0.92586874103E+03 -0.22177317687E+03  0.94167851403E+03  0.13390947283E+04  0.25500000920E-02 0. -1.
       -2    1    3    3    0  502  0.92586874103E+03  0.22177317687E+03 -0.23318013750E+04  0.25186730475E+04  0.25500000920E-02 0.  1.
</event>
<event>
 5   0  0.8247570E-09  0.3591317E+04  0.7818609E-02  0.8092483E-01
        1   -1    0    0  501    0  0.00000000000E+00  0.00000000000E+00  0.21010076289E+04  0.21010076289E+04  0.50400001928E-02 0.  1.
       -1   -1    0    0    0  501  0.00000000000E+00  0.00000000000E+00 -0.15346873029E+04  0.15346873029E+04  0.50400001928E-02 0. -1.
    10030    2    1    2    0    0  0.00000000000E+00  0.00000000000E+00  0.56632032594E+03  0.36356949318E+04  0.35913171575E+04 0.  0.
        3    1    3    3  502    0  0.10432454583E+04 -0.81437929067E+03  0.15117524219E+04  0.20092212697E+04  0.10100000352E+00 0.  1.
       -3    1    3    3    0  502 -0.10432454583E+04  0.81437929067E+03 -0.94543209594E+03  0.16264736621E+04  0.10100000352E+00 0. -1.
</event>
<event>
 5   0  0.2590795E-08  0.3601991E+04  0.7818609E-02  0.8090036E-01
        2   -1    0    0  501    0  0.00000000000E+00  0.00000000000E+00  0.14639367516E+04  0.14639367516E+04  0.25500000920E-02 0. -1.
       -2   -1    0    0    0  501  0.00000000000E+00  0.00000000000E+00 -0.22156589862E+04  0.22156589862E+04  0.25500000920E-02 0.  1.
    10030    2    1    2    0    0  0.00000000000E+00  0.00000000000E+00 -0.75172223462E+03  0.36795957378E+04  0.36019909044E+04 0.  0.
        4    1    3    3  502    0  0.82063981396E+02 -0.15326818495E+04 -0.13383575572E+04  0.20364308759E+04  0.12699999809E+01 0.  1.
       -4    1    3    3    0  502 -0.82063981396E+02  0.15326818495E+04  0.58663532255E+03  0.16431648619E+04  0.12699999809E+01 0. -1.
</event>
<event>
 5   0  0.2494592E-08  0.3599888E+04  0.7818609E-02  0.8090517E-01
        2   -1    0    0  501    0  0.00000000000E+00  0.00000000000E+00  0.10927003697E+04  0.10927003697E+04  0.25500000920E-02 0.  1.
       -2   -1    0    0    0  501  0.00000000000E+00  0.00000000000E+00 -0.29649464226E+04  0.29649464226E+04  0.25500000920E-02 0. -1.
    10030    2    1    2    0    0  0.00000000000E+00  0.00000000000E+00 -0.18722460529E+04  0.40576467923E+04  0.35998878050E+04 0.  0.
        1    1    3    3  502    0 -0.10510836721E+04  0.47604338814E+03 -0.24932370553E+04  0.27472941610E+04  0.50400001928E-02 0. -1.
       -1    1    3    3    0  502  0.10510836721E+04 -0.47604338814E+03  0.62099100243E+03  0.13103526313E+04  0.50400001928E-02 0.  1.
</event>
<event>
 5   0  0.2494592E-08  0.3602678E+04  0.7818609E-02  0.8089879E-01
        2   -1    0    0  501    0  0.00000000000E+00  0.00000000000E+00  0.17157300456E+04  0.17157300456E+04  0.25500000920E-02 0. -1.
       -2   -1    0    0    0  501  0.00000000000E+00  0.00000000000E+00 -0.18912190771E+04  0.18912190771E+04  0.25500000920E-02 0.  1.
    10030    2    1    2    0    0  0.00000000000E+00  0.00000000000E+00 -0.17548903152E+03  0.36069491227E+04  0.36026775561E+04 0.  0.
        1    1    3    3  502    0 -0.49298268714E+03  0.60670726630E+03 -0.17125352154E+04  0.18825255644E+04  0.50400001928E-02 0.  1.
       -1    1    3    3    0  502  0.49298268714E+03 -0.60670726630E+03  0.15370461839E+04  0.17244235582E+04  0.50400001928E-02 0. -1.
</event>
<event>
 5   0  0.2608070E-08  0.3599607E+04  0.7818609E-02  0.8090582E-01
       -2   -1    0    0    0  501  0.00000000000E+00  0.00000000000E+00  0.13509291802E+04  0.13509291802E+04  0.25500000920E-02 0.  1.
        2   -1    0    0  501    0  0.00000000000E+00  0.00000000000E+00 -0.23978260010E+04  0.23978260010E+04  0.25500000920E-02 0. -1.
    10030    2    1    2    0    0  0.00000000000E+00  0.00000000000E+00 -0.10468968208E+04  0.37487551812E+04  0.35996072640E+04 0.  0.
        3    1    3    3  502    0 -0.16928228511E+04  0.36036336983E+03 -0.10376493930E+04  0.20179760247E+04  0.10100000352E+00 0.  1.
       -3    1    3    3    0  502  0.16928228511E+04 -0.36036336983E+03 -0.92474278129E+01  0.17307791565E+04  0.10100000352E+00 0. -1.
</event>
<event>
 5   0  0.2482243E-08  0.3597684E+04  0.7818609E-02  0.8091023E-01
        2   -1    0    0  501    0  0.00000000000E+00  0.00000000000E+00  0.18594389341E+04  0.18594389341E+04  0.25500000920E-02 0.  1.
       -2   -1    0    0    0  501  0.00000000000E+00  0.00000000000E+00 -0.17402194171E+04  0.17402194171E+04  0.25500000920E-02 0. -1.
    10030    2    1    2    0    0  0.00000000000E+00  0.00000000000E+00  0.11921951694E+03  0.35996583512E+04  0.35976835537E+04 0.  0.
        5    1    3    3  502    0  0.36007284391E+03 -0.39376866515E+03  0.17784303110E+04  0.18567559548E+04  0.46999998093E+01 0.  1.
       -5    1    3    3    0  502 -0.36007284391E+03  0.39376866515E+03 -0.16592107940E+04  0.17429023965E+04  0.46999998093E+01 0. -1.
</event>
<event>
 5   0  0.8247570E-09  0.3599189E+04  0.7818609E-02  0.8090677E-01
       -1   -1    0    0    0  501  0.00000000000E+00  0.00000000000E+00  0.16251750970E+04  0.16251750971E+04  0.50400001928E-02 0.  1.
        1   -1    0    0  501    0  0.00000000000E+00  0.00000000000E+00 -0.19927333115E+04  0.19927333115E+04  0.50400001928E-02 0. -1.
    10030    2    1    2    0    0  0.00000000000E+00  0.00000000000E+00 -0.36755821441E+03  0.36179084085E+04  0.35991891047E+04 0.  0.
        3    1    3    3  502    0 -0.15450362997E+04 -0.82394569284E+02 -0.11075880704E+04  0.19028077612E+04  0.10100000352E+00 0. -1.
       -3    1    3    3    0  502  0.15450362997E+04  0.82394569284E+02  0.74002985598E+03  0.17151006473E+04  0.10100000352E+00 0.  1.
</event>
<event>
 5   0  0.8146881E-09  0.3599687E+04  0.7818609E-02  0.8090563E-01
        1   -1    0    0  501    0  0.00000000000E+00  0.00000000000E+00  0.16805992058E+04  0.16805992059E+04  0.50400001928E-02 0. -1.
       -1   -1    0    0    0  501  0.00000000000E+00  0.00000000000E+00 -0.19275489665E+04  0.19275489666E+04  0.50400001928E-02 0.  1.
    10030    2    1    2    0    0  0.00000000000E+00  0.00000000000E+00 -0.24694976070E+03  0.36081481724E+04  0.35996873544E+04 0.  0.
        4    1    3    3  502    0  0.12571049483E+04 -0.10133838527E+04  0.67348887689E+03  0.17495280976E+04  0.12699999809E+01 0. -1.
       -4    1    3    3    0  502 -0.12571049483E+04  0.10133838527E+04 -0.92043863759E+03  0.18586200748E+04  0.12699999809E+01 0.  1.
</event>
<event>
 5   0  0.2590795E-08  0.3614133E+04  0.7818609E-02  0.8087262E-01
       -2   -1    0    0    0  501  0.00000000000E+00  0.00000000000E+00  0.14283791355E+04  0.14283791355E+04  0.25500000920E-02 0.  1.
        2   -1    0    0  501    0  0.00000000000E+00  0.00000000000E+00 -0.22861501849E+04  0.22861501849E+04  0.25500000920E-02 0. -1.
    10030    2    1    2    0    0  0.00000000000E+00  0.00000000000E+00 -0.85777104941E+03  0.37145293203E+04  0.36141329387E+04 0.  0.
        4    1    3    3  502    0  0.38902005300E+03  0.16025148919E+04  0.33062636238E+03  0.16818757341E+04  0.12699999809E+01 0.  1.
       -4    1    3    3    0  502 -0.38902005300E+03 -0.16025148919E+04 -0.11883974118E+04  0.20326535863E+04  0.12699999809E+01 0. -1.
</event>
<event>
 5   0  0.8247570E-09  0.3597058E+04  0.7818609E-02  0.8091166E-01
        1   -1    0    0  501    0  0.00000000000E+00  0.00000000000E+00  0.19604873691E+04  0.19604873691E+04  0.50400001928E-02 0.  1.
       -1   -1    0    0    0  501  0.00000000000E+00  0.00000000000E+00 -0.16499505039E+04  0.16499505039E+04  0.50400001928E-02 0. -1.
    10030    2    1    2    0    0  0.00000000000E+00  0.00000000000E+00  0.31053686516E+03  0.36104378730E+04  0.35970583107E+04 0.  0.
        3    1    3    3  502    0 -0.10408141389E+04 -0.86616894351E+02  0.16249245587E+04  0.19316253233E+04  0.10100000352E+00 0.  1.
       -3    1    3    3    0  502  0.10408141389E+04  0.86616894351E+02 -0.13143876935E+04  0.16788125497E+04  0.10100000352E+00 0. -1.
</event>
<event>
 5   0  0.8063410E-09  0.3593207E+04  0.7818609E-02  0.8092050E-01
        1   -1    0    0  501    0  0.00000000000E+00  0.00000000000E+00  0.11087356785E+04  0.11087356785E+04  0.50400001928E-02 0. -1.
       -1   -1    0    0    0  501  0.00000000000E+00  0.00000000000E+00 -0.29112294286E+04  0.29112294286E+04  0.50400001928E-02 0.  1.
    10030    2    1    2    0    0  0.00000000000E+00  0.00000000000E+00 -0.18024937501E+04  0.40199651071E+04  0.35932068884E+04 0.  0.
        2    1    3    3  502    0  0.15059107574E+04 -0.82566872266E+00 -0.19974203923E+04  0.25014907785E+04  0.25500000920E-02 0.  1.
       -2    1    3    3    0  502 -0.15059107574E+04  0.82566872266E+00  0.19492664221E+03  0.15184743287E+04  0.25500000920E-02 0. -1.
</event>
<event>
 5   0  0.8024500E-09  0.3600004E+04  0.7818609E-02  0.8090491E-01
        1   -1    0    0  501    0  0.00000000000E+00  0.00000000000E+00  0.30088056636E+04  0.30088056636E+04  0.50400001928E-02 0. -1.
       -1   -1    0    0    0  501  0.00000000000E+00  0.00000000000E+00 -0.10768418262E+04  0.10768418262E+04  0.50400001928E-02 0.  1.
    10030    2    1    2    0    0  0.00000000000E+00  0.00000000000E+00  0.19319638374E+04  0.40856474898E+04  0.36000043253E+04 0.  0.
        5    1    3    3  502    0 -0.12725180422E+04 -0.11223762145E+04  0.16478250945E+04  0.23652442087E+04  0.46999998093E+01 0. -1.
       -5    1    3    3    0  502  0.12725180422E+04  0.11223762145E+04  0.28413874287E+03  0.17204032811E+04  0.46999998093E+01 0.  1.
</event>
<event>
 5   0  0.8247570E-09  0.3600650E+04  0.7818609E-02  0.8090343E-01
        1   -1    0    0  501    0  0.00000000000E+00  0.00000000000E+00  0.14733446234E+04  0.14733446234E+04  0.50400001928E-02 0. -1.
       -1   -1    0    0    0  501  0.00000000000E+00  0.00000000000E+00 -0.21998726325E+04  0.21998726325E+04  0.50400001928E-02 0.  1.
    10030    2    1    2    0    0  0.00000000000E+00  0.00000000000E+00 -0.72652800909E+03  0.36732172559E+04  0.36006502276E+04 0.  0.
        3    1    3    3  502    0 -0.17212348802E+04  0.52528437774E+03 -0.31127302638E+03  0.18263252989E+04  0.10100000352E+00 0.  1.
       -3    1    3    3    0  502  0.17212348802E+04 -0.52528437774E+03 -0.41525498270E+03  0.18468919571E+04  0.10100000352E+00 0. -1.
</event>
<event>
 5   0  0.8024500E-09  0.3601782E+04  0.7818609E-02  0.8090084E-01
        1   -1    0    0  501    0  0.00000000000E+00  0.00000000000E+00  0.20098652156E+04  0.20098652157E+04  0.50400001928E-02 0.  1.
       -1   -1    0    0    0  501  0.00000000000E+00  0.00000000000E+00 -0.16136449317E+04  0.16136449317E+04  0.50400001928E-02 0. -1.
    10030    2    1    2    0    0  0.00000000000E+00  0.00000000000E+00  0.39622028400E+03  0.36235101473E+04  0.36017822358E+04 0.  0.
        5    1    3    3  502    0 -0.16621305664E+04  0.46040523985E+03  0.71944055904E+03  0.18687610368E+04  0.46999998093E+01 0.  1.
       -5    1    3    3    0  502  0.16621305664E+04 -0.46040523985E+03 -0.32322027504E+03  0.17547491105E+04  0.46999998093E+01 0. -1.
</event>
<event>
 5   0  0.8063410E-09  0.3601201E+04  0.7818609E-02  0.8090217E-01
        1   -1    0    0  501    0  0.00000000000E+00  0.00000000000E+00  0.27404293331E+04  0.27404293331E+04  0.50400001928E-02 0.  1.
       -1   -1    0    0    0  501  0.00000000000E+00  0.00000000000E+00 -0.11830853536E+04  0.11830853536E+04  0.50400001928E-02 0. -1.
    10030    2    1    2    0    0  0.00000000000E+00  0.00000000000E+00  0.15573439795E+04  0.39235146867E+04  0.36012008034E+04 0.  0.
        2    1    3    3  502    0  0.36067168071E+03  0.77512619055E+03  0.25051996324E+04  0.26470606095E+04  0.25500000920E-02 0.  1.
       -2    1    3    3    0  502 -0.36067168071E+03 -0.77512619055E+03 -0.94785565283E+03  0.12764540772E+04  0.25500000920E-02 0. -1.
</event>
<event>
 5   0  0.8063410E-09  0.3599418E+04  0.7818609E-02  0.8090625E-01
        1   -1    0    0  501    0  0.00000000000E+00  0.00000000000E+00  0.23248720347E+04  0.23248720347E+04  0.50400001928E-02 0.  1.
       -1   -1    0    0    0  501  0.00000000000E+00  0.00000000000E+00 -0.13931742307E+04  0.13931742307E+04  0.50400001928E-02 0. -1.
    10030    2    1    2    0    0  0.00000000000E+00  0.00000000000E+00  0.93169780403E+03  0.37180462654E+04  0.35994176242E+04 0.  0.
        2    1    3    3  502    0 -0.61122857599E+03 -0.16790169271E+04  0.24369430899E+03  0.18033538560E+04  0.25500000920E-02 0.  1.
       -2    1    3    3    0  502  0.61122857599E+03  0.16790169271E+04  0.68800349504E+03  0.19146924094E+04  0.25500000920E-02 0. -1.
</event>
<event>
 5   0  0.2482243E-08  0.3599681E+04  0.7818609E-02  0.8090565E-01
       -2   -1    0    0    0  501  0.00000000000E+00  0.00000000000E+00  0.14467900716E+04  0.14467900716E+04  0.25500000920E-02 0.  1.
        2   -1    0    0  501    0  0.00000000000E+00  0.00000000000E+00 -0.22390428813E+04  0.22390428813E+04  0.25500000920E-02 0. -1.
    10030    2    1    2    0    0  0.00000000000E+00  0.00000000000E+00 -0.79225280963E+03  0.36858329529E+04  0.35996805473E+04 0.  0.
        5    1    3    3  502    0 -0.82110488797E+03  0.11539311842E+04  0.74114623077E+03  0.15984649638E+04  0.46999998093E+01 0.  1.
       -5    1    3    3    0  502  0.82110488797E+03 -0.11539311842E+04 -0.15333990404E+04  0.20873679891E+04  0.46999998093E+01 0. -1.
</event>
<event>
 5   0  0.8247570E-09  0.3600453E+04  0.7818609E-02  0.8090388E-01
        1   -1    0    0  501    0  0.00000000000E+00  0.00000000000E+00  0.21280166225E+04  0.21280166225E+04  0.50400001928E-02 0. -1.
       -1   -1    0    0    0  501  0.00000000000E+00  0.00000000000E+00 -0.15229277618E+04  0.15229277618E+04  0.50400001928E-02 0.  1.
    10030    2    1    2    0    0  0.00000000000E+00  0.00000000000E+00  0.60508886070E+03  0.36509443843E+04  0.36004530781E+04 0.  0.
        3    1    3    3  502    0  0.72936182554E+03  0.65841691309E+03 -0.12270301145E+04  0.15719683254E+04  0.10100000352E+00 0.  1.
       -3    1    3    3    0  502 -0.72936182554E+03 -0.65841691309E+03  0.18321189752E+04  0.20789760589E+04  0.10100000352E+00 0. -1.
</event>
<event>
 5   0  0.2482243E-08  0.3600373E+04  0.7818609E-02  0.8090406E-01
        2   -1    0    0  501    0  0.00000000000E+00  0.00000000000E+00  0.21526219062E+04  0.21526219062E+04  0.25500000920E-02 0. -1.
       -2   -1    0    0    0  501  0.00000000000E+00  0.00000000000E+00 -0.15054529169E+04  0.15054529169E+04  0.25500000920E-02 0.  1.
    10030    2    1    2    0    0  0.00000000000E+00  0.00000000000E+00  0.64716898926E+03  0.36580748231E+04  0.36003727183E+04 0.  0.
        5    1    3    3  502    0 -0.33171066174E+02  0.31282159096E+03 -0.14773041842E+04  0.15104328552E+04  0.46999998093E+01 0.  1.
       -5    1    3    3    0  502  0.33171066174E+02 -0.31282159096E+03  0.21244731735E+04  0.21476419679E+04  0.46999998093E+01 0. -1.
</event>
<event>
 5   0  0.8247570E-09  0.3599250E+04  0.7818609E-02  0.8090664E-01
       -1   -1    0    0    0  501  0.00000000000E+00  0.00000000000E+00  0.15152452441E+04  0.15152452442E+04  0.50400001928E-02 0. -1.
        1   -1    0    0  501    0  0.00000000000E+00  0.00000000000E+00 -0.21373765377E+04  0.21373765377E+04  0.50400001928E-02 0.  1.
    10030    2    1    2    0    0  0.00000000000E+00  0.00000000000E+00 -0.62213129352E+03  0.36526217818E+04  0.35992497183E+04 0.  0.
        3    1    3    3  502    0 -0.36220921447E+03 -0.17564932982E+04 -0.15990930418E+03  0.18005652494E+04  0.10100000352E+00 0.  1.
       -3    1    3    3    0  502  0.36220921447E+03  0.17564932982E+04 -0.46222198934E+03  0.18520565324E+04  0.10100000352E+00 0. -1.
</event>
<event>
 5   0  0.2590795E-08  0.3601097E+04  0.7818609E-02  0.8090240E-01
       -2   -1    0    0    0  501  0.00000000000E+00  0.00000000000E+00  0.27911112104E+04  0.27911112104E+04  0.25500000920E-02 0.  1.
        2   -1    0    0  501    0  0.00000000000E+00  0.00000000000E+00 -0.11615356200E+04  0.11615356200E+04  0.25500000920E-02 0. -1.
    10030    2    1    2    0    0  0.00000000000E+00  0.00000000000E+00  0.16295755905E+04  0.39526468304E+04  0.36010971051E+04 0.  0.
        4    1    3    3  502    0 -0.17047688827E+04 -0.38822581947E+03  0.34266030719E+03  0.17816772798E+04  0.12699999809E+01 0. -1.
       -4    1    3    3    0  502  0.17047688827E+04  0.38822581947E+03  0.12869152833E+04  0.21709695506E+04  0.12699999809E+01 0.  1.
</event>
<event>
 5   0  0.8146881E-09  0.3603435E+04  0.7818609E-02  0.8089705E-01
       -1   -1    0    0    0  501  0.00000000000E+00  0.00000000000E+00  0.14959526818E+04  0.14959526818E+04  0.50400001928E-02 0.  1.
        1   -1    0    0  501    0  0.00000000000E+00  0.00000000000E+00 -0.21699785349E+04  0.21699785349E+04  0.50400001928E-02 0. -1.
    10030    2    1    2    0    0  0.00000000000E+00  0.00000000000E+00 -0.67402585314E+03  0.36659312167E+04  0.36034345886E+04 0.  0.
        4    1    3    3  502    0 -0.42319040681E+01  0.15602073848E+04 -0.12537059272E+04  0.20015107188E+04  0.12699999809E+01 0. -1.
       -4    1    3    3    0  502  0.42319040681E+01 -0.15602073848E+04  0.57968007402E+03  0.16644204979E+04  0.12699999809E+01 0.  1.
</event>
<event>
 5   0  0.2590795E-08  0.3599832E+04  0.7818609E-02  0.8090530E-01
       -2   -1    0    0    0  501  0.00000000000E+00  0.00000000000E+00  0.28066728561E+04  0.28066728561E+04  0.25500000920E-02 0. -1.
        2   -1    0    0  501    0  0.00000000000E+00  0.00000000000E+00 -0.11542842536E+04  0.11542842536E+04  0.25500000920E-02 0.  1.
    10030    2    1    2    0    0  0.00000000000E+00  0.00000000000E+00  0.16523886026E+04  0.39609571097E+04  0.35998323754E+04 0.  0.
        4    1    3    3  502    0  0.90661674254E+03 -0.17361255425E+03 -0.87400086333E+03  0.12712098013E+04  0.12699999809E+01 0.  1.
       -4    1    3    3    0  502 -0.90661674254E+03  0.17361255425E+03  0.25263894659E+04  0.26897473084E+04  0.12699999809E+01 0. -1.
</event>
<event>
 5   0  0.2476968E-08  0.3598742E+04  0.7818609E-02  0.8090780E-01
       -2   -1    0    0    0  501  0.00000000000E+00  0.00000000000E+00  0.30128818714E+04  0.30128818714E+04  0.25500000920E-02 0. -1.
        2   -1    0    0  501    0  0.00000000000E+00  0.00000000000E+00 -0.10746311091E+04  0.10746311091E+04  0.25500000920E-02 0.  1.
    10030    2    1    2    0    0  0.00000000000E+00  0.00000000000E+00  0.19382507623E+04  0.40875129805E+04  0.35987423287E+04 0.  0.
        2    1    3    3  502    0 -0.63070098466E+03  0.77814037048E+03 -0.72870286263E+03  0.12386662304E+04  0.25500000920E-02 0.  1.
       -2    1    3    3    0  502  0.63070098466E+03 -0.77814037048E+03  0.26669536249E+04  0.28488467501E+04  0.25500000920E-02 0. -1.
</event>
<event>
 5   0  0.8024500E-09  0.3599721E+04  0.7818609E-02  0.8090556E-01
        1   -1    0    0  501    0  0.00000000000E+00  0.00000000000E+00  0.22656894004E+04  0.22656894004E+04  0.50400001928E-02 0. -1.
       -1   -1    0    0    0  501  0.00000000000E+00  0.00000000000E+00 -0.14298068501E+04  0.14298068501E+04  0.50400001928E-02 0.  1.
    10030    2    1    2    0    0  0.00000000000E+00  0.00000000000E+00  0.83588255027E+03  0.36954962506E+04  0.35997212253E+04 0.  0.
        1    1    3    3  502    0  0.78473807862E+03 -0.70866335831E+02  0.20792243788E+04  0.22235129653E+04  0.50400001928E-02 0. -1.
       -1    1    3    3    0  502 -0.78473807862E+03  0.70866335831E+02 -0.12433418285E+04  0.14719832853E+04  0.50400001928E-02 0.  1.
</event>
<event>
 5   0  0.8024500E-09  0.3593915E+04  0.7818609E-02  0.8091887E-01
       -1   -1    0    0    0  501  0.00000000000E+00  0.00000000000E+00  0.24601441338E+04  0.24601441338E+04  0.50400001928E-02 0. -1.
        1   -1    0    0  501    0  0.00000000000E+00  0.00000000000E+00 -0.13125473749E+04  0.13125473749E+04  0.50400001928E-02 0.  1.
    10030    2    1    2    0    0  0.00000000000E+00  0.00000000000E+00  0.11475967588E+04  0.37726915087E+04  0.35939147039E+04 0.  0.
        1    1    3    3  502    0  0.65346512402E+03  0.46778527684E+03 -0.11133912188E+04  0.13731277215E+04  0.50400001928E-02 0.  1.
       -1    1    3    3    0  502 -0.65346512402E+03 -0.46778527684E+03  0.22609879776E+04  0.23995637871E+04  0.50400001928E-02 0. -1.
</event>
<event>
 5   0  0.2482243E-08  0.3616143E+04  0.7818609E-02  0.8086804E-01
       -2   -1    0    0    0  501  0.00000000000E+00  0.00000000000E+00  0.16377444090E+04  0.16377444090E+04  0.25500000920E-02 0.  1.
        2   -1    0    0  501    0  0.00000000000E+00  0.00000000000E+00 -0.19961128890E+04  0.19961128890E+04  0.25500000920E-02 0. -1.
    10030    2    1    2    0    0  0.00000000000E+00  0.00000000000E+00 -0.35836848000E+03  0.36338572979E+04  0.36161430965E+04 0.  0.
        5    1    3    3  502    0  0.69504682320E+03 -0.12999404369E+04 -0.12312922015E+04  0.19206868046E+04  0.46999998093E+01 0. -1.
       -5    1    3    3    0  502 -0.69504682320E+03  0.12999404369E+04  0.87292372146E+03  0.17131704934E+04  0.46999998093E+01 0.  1.
</event>
<event>
 5   0  0.2608070E-08  0.3601521E+04  0.7818609E-02  0.8090143E-01
        2   -1    0    0  501    0  0.00000000000E+00  0.00000000000E+00  0.21504918923E+04  0.21504918923E+04  0.25500000920E-02 0. -1.
       -2   -1    0    0    0  501  0.00000000000E+00  0.00000000000E+00 -0.15079052250E+04  0.15079052250E+04  0.25500000920E-02 0.  1.
    10030    2    1    2    0    0  0.00000000000E+00  0.00000000000E+00  0.64258666728E+03  0.36583971173E+04  0.36015207681E+04 0.  0.
        3    1    3    3  502    0  0.25366262521E+03  0.15224983081E+04  0.12635151073E+04  0.19946970352E+04  0.10100000352E+00 0.  1.
       -3    1    3    3    0  502 -0.25366262521E+03 -0.15224983081E+04 -0.62092844004E+03  0.16637000822E+04  0.10100000352E+00 0. -1.
</event>
<event>
 5   0  0.2482243E-08  0.3604226E+04  0.7818609E-02  0.8089524E-01
        2   -1    0    0  501    0  0.00000000000E+00  0.00000000000E+00  0.17484995764E+04  0.17484995764E+04  0.25500000920E-02 0.  1.
       -2   -1    0    0    0  501  0.00000000000E+00  0.00000000000E+00 -0.18573699261E+04  0.18573699261E+04  0.25500000920E-02 0. -1.
    10030    2    1    2    0    0  0.00000000000E+00  0.00000000000E+00 -0.10887034972E+03  0.36058695025E+04  0.36042255918E+04 0.  0.
        5    1    3    3  502    0 -0.18643819217E+03  0.17739892320E+04 -0.31105059474E+03  0.18106826219E+04  0.46999998093E+01 0. -1.
       -5    1    3    3    0  502  0.18643819217E+03 -0.17739892320E+04  0.20218024502E+03  0.17951868806E+04  0.46999998093E+01 0.  1.
</event>
<event>
 5   0  0.8063410E-09  0.3588796E+04  0.7818609E-02  0.8093063E-01
       -1   -1    0    0    0  501  0.00000000000E+00  0.00000000000E+00  0.11300840551E+04  0.11300840551E+04  0.50400001928E-02 0. -1.
        1   -1    0    0  501    0  0.00000000000E+00  0.00000000000E+00 -0.28492258952E+04  0.28492258952E+04  0.50400001928E-02 0.  1.
    10030    2    1    2    0    0  0.00000000000E+00  0.00000000000E+00 -0.17191418401E+04  0.39793099504E+04  0.35887963184E+04 0.  0.
        2    1    3    3  502    0 -0.13818241743E+04 -0.68817273076E+03 -0.18739060559E+04  0.24278681311E+04  0.25500000920E-02 0.  1.
       -2    1    3    3    0  502  0.13818241743E+04  0.68817273076E+03  0.15476421575E+03  0.15514418192E+04  0.25500000920E-02 0. -1.
</event>
<event>
 5   0  0.2590795E-08  0.3609382E+04  0.7818609E-02  0.8088346E-01
        2   -1    0    0  501    0  0.00000000000E+00  0.00000000000E+00  0.31772744672E+04  0.31772744672E+04  0.25500000920E-02 0. -1.
       -2   -1    0    0    0  501  0.00000000000E+00  0.00000000000E+00 -0.10250641035E+04  0.10250641035E+04  0.25500000920E-02 0.  1.
    10030    2    1    2    0    0  0.00000000000E+00  0.00000000000E+00  0.21522103637E+04  0.42023385707E+04  0.36093822204E+04 0.  0.
        4    1    3    3  502    0  0.45749890833E+03  0.52351557253E+03  0.30150924505E+04  0.30942136164E+04  0.12699999809E+01 0. -1.
       -4    1    3    3    0  502 -0.45749890833E+03 -0.52351557253E+03 -0.86288208677E+03  0.11081249543E+04  0.12699999809E+01 0.  1.
</event>
<event>
 5   0  0.8247570E-09  0.3599935E+04  0.7818609E-02  0.8090507E-01
        1   -1    0    0  501    0  0.00000000000E+00  0.00000000000E+00  0.17740199366E+04  0.17740199366E+04  0.50400001928E-02 0.  1.
       -1   -1    0    0    0  501  0.00000000000E+00  0.00000000000E+00 -0.18262944103E+04  0.18262944103E+04  0.50400001928E-02 0. -1.
    10030    2    1    2    0    0  0.00000000000E+00  0.00000000000E+00 -0.52274473750E+02  0.36003143469E+04  0.35999348294E+04 0.  0.
        3    1    3    3  502    0  0.83809472802E+03 -0.80041976626E+02  0.15649651764E+04  0.17770552903E+04  0.10100000352E+00 0.  1.
       -3    1    3    3    0  502 -0.83809472802E+03  0.80041976626E+02 -0.16172396502E+04  0.18232590566E+04  0.10100000352E+00 0. -1.
</event>
<event>
 5   0  0.2608070E-08  0.3602407E+04  0.7818609E-02  0.8089941E-01
        2   -1    0    0  501    0  0.00000000000E+00  0.00000000000E+00  0.27998217432E+04  0.27998217432E+04  0.25500000920E-02 0.  1.
       -2   -1    0    0    0  501  0.00000000000E+00  0.00000000000E+00 -0.11587644998E+04  0.11587644999E+04  0.25500000920E-02 0. -1.
    10030    2    1    2    0    0  0.00000000000E+00  0.00000000000E+00  0.16410572434E+04  0.39585862431E+04  0.36024069964E+04 0.  0.
        3    1    3    3  502    0  0.15111747257E+04  0.80731018297E+03  0.20975388517E+03  0.17260925484E+04  0.10100000352E+00 0.  1.
       -3    1    3    3    0  502 -0.15111747257E+04 -0.80731018297E+03  0.14313033582E+04  0.22324936946E+04  0.10100000352E+00 0. -1.
</event>
<event>
 5   0  0.8024500E-09  0.3598441E+04  0.7818609E-02  0.8090849E-01
       -1   -1    0    0    0  501  0.00000000000E+00  0.00000000000E+00  0.15641690739E+04  0.15641690739E+04  0.50400001928E-02 0.  1.
        1   -1    0    0  501    0  0.00000000000E+00  0.00000000000E+00 -0.20695941633E+04  0.20695941633E+04  0.50400001928E-02 0. -1.
    10030    2    1    2    0    0  0.00000000000E+00  0.00000000000E+00 -0.50542508936E+03  0.36337632372E+04  0.35984414325E+04 0.  0.
        1    1    3    3  502    0 -0.48941719785E+03  0.47044169481E+03 -0.19353065710E+04  0.20509159187E+04  0.50400001928E-02 0. -1.
       -1    1    3    3    0  502  0.48941719785E+03 -0.47044169481E+03  0.14298814817E+04  0.15828473184E+04  0.50400001928E-02 0.  1.
</event>
<event>
 5   0  0.2482243E-08  0.3598436E+04  0.7818609E-02  0.8090850E-01
        2   -1    0    0  501    0  0.00000000000E+00  0.00000000000E+00  0.23384286788E+04  0.23384286788E+04  0.25500000920E-02 0.  1.
       -2   -1    0    0    0  501  0.00000000000E+00  0.00000000000E+00 -0.13843419620E+04  0.13843419620E+04  0.25500000920E-02 0. -1.
    10030    2    1    2    0    0  0.00000000000E+00  0.00000000000E+00  0.95408671678E+03  0.37227706408E+04  0.35984357408E+04 0.  0.
        5    1    3    3  502    0  0.91829467192E+03 -0.10528498436E+04  0.16499744913E+04  0.21619888551E+04  0.46999998093E+01 0.  1.
       -5    1    3    3    0  502 -0.91829467192E+03  0.10528498436E+04 -0.69588777450E+03  0.15607817857E+04  0.46999998093E+01 0. -1.
</event>
<event>
 5   0  0.8146881E-09  0.3604606E+04  0.7818609E-02  0.8089437E-01
       -1   -1    0    0    0  501  0.00000000000E+00  0.00000000000E+00  0.24632419942E+04  0.24632419942E+04  0.50400001928E-02 0. -1.
        1   -1    0    0  501    0  0.00000000000E+00  0.00000000000E+00 -0.13187079410E+04  0.13187079410E+04  0.50400001928E-02 0.  1.
    10030    2    1    2    0    0  0.00000000000E+00  0.00000000000E+00  0.11445340532E+04  0.37819499352E+04  0.36046063742E+04 0.  0.
        4    1    3    3  502    0 -0.67497545230E+03 -0.15781664458E+04  0.11489391525E+04  0.20654936410E+04  0.12699999809E+01 0. -1.
       -4    1    3    3    0  502  0.67497545230E+03  0.15781664458E+04 -0.44050993153E+01  0.17164562941E+04  0.12699999809E+01 0.  1.
</event>
<event>
 5   0  0.2476968E-08  0.3600397E+04  0.7818609E-02  0.8090401E-01
        2   -1    0    0  501    0  0.00000000000E+00  0.00000000000E+00  0.22914416907E+04  0.22914416907E+04  0.25500000920E-02 0. -1.
       -2   -1    0    0    0  501  0.00000000000E+00  0.00000000000E+00 -0.14142685604E+04  0.14142685604E+04  0.25500000920E-02 0.  1.
    10030    2    1    2    0    0  0.00000000000E+00  0.00000000000E+00  0.87717313022E+03  0.37057102511E+04  0.36003966121E+04 0.  0.
        2    1    3    3  502    0  0.15506762144E+04 -0.77241158315E+03  0.94228623487E+03  0.19720851209E+04  0.25500000920E-02 0. -1.
       -2    1    3    3    0  502 -0.15506762144E+04  0.77241158315E+03 -0.65113104653E+02  0.17336251302E+04  0.25500000920E-02 0.  1.
</event>
<event>
 5   0  0.2608070E-08  0.3596756E+04  0.7818609E-02  0.8091235E-01
        2   -1    0    0  501    0  0.00000000000E+00  0.00000000000E+00  0.15806834738E+04  0.15806834738E+04  0.25500000920E-02 0.  1.
       -2   -1    0    0    0  501  0.00000000000E+00  0.00000000000E+00 -0.20460540034E+04  0.20460540034E+04  0.25500000920E-02 0. -1.
    10030    2    1    2    0    0  0.00000000000E+00  0.00000000000E+00 -0.46537052962E+03  0.36267374773E+04  0.35967561773E+04 0.  0.
        3    1    3    3  502    0  0.49631338997E+03  0.89929105678E+03 -0.17211718788E+04  0.20043662421E+04  0.10100000352E+00 0. -1.
       -3    1    3    3    0  502 -0.49631338997E+03 -0.89929105678E+03  0.12558013492E+04  0.16223712352E+04  0.10100000352E+00 0.  1.
</event>
<event>
 5   0  0.8024500E-09  0.3600705E+04  0.7818609E-02  0.8090330E-01
       -1   -1    0    0    0  501  0.00000000000E+00  0.00000000000E+00  0.14109523082E+04  0.14109523083E+04  0.50400001928E-02 0.  1.
        1   -1    0    0  501    0  0.00000000000E+00  0.00000000000E+00 -0.22972213418E+04  0.22972213418E+04  0.50400001928E-02 0. -1.
    10030    2    1    2    0    0  0.00000000000E+00  0.00000000000E+00 -0.88626903358E+03  0.37081736501E+04  0.36007053502E+04 0.  0.
        5    1    3    3  502    0  0.10083020389E+04  0.14460514629E+04 -0.81943008267E+03  0.19440230414E+04  0.46999998093E+01 0. -1.
       -5    1    3    3    0  502 -0.10083020389E+04 -0.14460514629E+04 -0.66838950905E+02  0.17641506087E+04  0.46999998093E+01 0.  1.
</event>
<event>
 5   0  0.8063410E-09  0.3600701E+04  0.7818609E-02  0.8090331E-01
        1   -1    0    0  501    0  0.00000000000E+00  0.00000000000E+00  0.19903867772E+04  0.19903867772E+04  0.50400001928E-02 0. -1.
       -1   -1    0    0    0  501  0.00000000000E+00  0.00000000000E+00 -0.16284581326E+04  0.16284581326E+04  0.50400001928E-02 0.  1.
    10030    2    1    2    0    0  0.00000000000E+00  0.00000000000E+00  0.36192864466E+03  0.36188449098E+04  0.36007007842E+04 0.  0.
        2    1    3    3  502    0  0.85982531281E+03  0.15714645385E+04 -0.11339974790E+00  0.17913124734E+04  0.25500000920E-02 0.  1.
       -2    1    3    3    0  502 -0.85982531281E+03 -0.15714645385E+04  0.36204204441E+03  0.18275324365E+04  0.25500000920E-02 0. -1.
</event>
<event>
 5   0  0.2590795E-08  0.3599748E+04  0.7818609E-02  0.8090549E-01
        2   -1    0    0  501    0  0.00000000000E+00  0.00000000000E+00  0.24585531652E+04  0.24585531652E+04  0.25500000920E-02 0.  1.
       -2   -1    0    0    0  501  0.00000000000E+00  0.00000000000E+00 -0.13176640468E+04  0.13176640468E+04  0.25500000920E-02 0. -1.
    10030    2    1    2    0    0  0.00000000000E+00  0.00000000000E+00  0.11408891185E+04  0.37762172120E+04  0.35997483873E+04 0.  0.
        4    1    3    3  502    0 -0.17888620618E+04 -0.17927062915E+03  0.48032585707E+03  0.18608815052E+04  0.12699999809E+01 0. -1.
       -4    1    3    3    0  502  0.17888620618E+04  0.17927062915E+03  0.66056326139E+03  0.19153357068E+04  0.12699999809E+01 0.  1.
</event>
<event>
 5   0  0.2476968E-08  0.3599700E+04  0.7818609E-02  0.8090560E-01
       -2   -1    0    0    0  501  0.00000000000E+00  0.00000000000E+00  0.16743112834E+04  0.16743112834E+04  0.25500000920E-02 0.  1.
        2   -1    0    0  501    0  0.00000000000E+00  0.00000000000E+00 -0.19348019077E+04  0.19348019077E+04  0.25500000920E-02 0. -1.
    10030    2    1    2    0    0  0.00000000000E+00  0.00000000000E+00 -0.26049062428E+03  0.36091131911E+04  0.35997003571E+04 0.  0.
        2    1    3    3  502    0 -0.13522952047E+03 -0.14074406549E+04 -0.12468380534E+04  0.18851475676E+04  0.25500000920E-02 0. -1.
       -2    1    3    3    0  502  0.13522952047E+03  0.14074406549E+04  0.98634742911E+03  0.17239656235E+04  0.25500000920E-02 0.  1.
</event>
<event>
 5   0  0.8063410E-09  0.3599433E+04  0.7818609E-02  0.8090622E-01
       -1   -1    0    0    0  501  0.00000000000E+00  0.00000000000E+00  0.14852603643E+04  0.14852603643E+04  0.50400001928E-02 0.  1.
        1   -1    0    0  501    0  0.00000000000E+00  0.00000000000E+00 -0.21807483694E+04  0.21807483694E+04  0.50400001928E-02 0. -1.
    10030    2    1    2    0    0  0.00000000000E+00  0.00000000000E+00 -0.69548800516E+03  0.36660087337E+04  0.35994327984E+04 0.  0.
        2    1    3    3  502    0  0.83303160186E+03 -0.82175554852E+03  0.10449375099E+04  0.15687951526E+04  0.25500000920E-02 0.  1.
       -2    1    3    3    0  502 -0.83303160186E+03  0.82175554852E+03 -0.17404255151E+04  0.20972135811E+04  0.25500000920E-02 0. -1.
</event>
<event>
 5   0  0.2476968E-08  0.3600204E+04  0.7818609E-02  0.8090445E-01
        2   -1    0    0  501    0  0.00000000000E+00  0.00000000000E+00  0.29140957127E+04  0.29140957127E+04  0.25500000920E-02 0.  1.
       -2   -1    0    0    0  501  0.00000000000E+00  0.00000000000E+00 -0.11119632074E+04  0.11119632075E+04  0.25500000920E-02 0. -1.
    10030    2    1    2    0    0  0.00000000000E+00  0.00000000000E+00  0.18021325053E+04  0.40260589202E+04  0.36002040029E+04 0.  0.
        2    1    3    3  502    0 -0.58822665622E+02  0.12321767227E+04  0.23671083395E+04  0.26692548535E+04  0.25500000920E-02 0.  1.
       -2    1    3    3    0  502  0.58822665622E+02 -0.12321767227E+04 -0.56497583426E+03  0.13568040666E+04  0.25500000920E-02 0. -1.
</event>
<event>
 5   0  0.2482243E-08  0.3599450E+04  0.7818609E-02  0.8090618E-01
       -2   -1    0    0    0  501  0.00000000000E+00  0.00000000000E+00  0.13296116438E+04  0.13296116438E+04  0.25500000920E-02 0.  1.
        2   -1    0    0  501    0  0.00000000000E+00  0.00000000000E+00 -0.24360573070E+04  0.24360573070E+04  0.25500000920E-02 0. -1.
    10030    2    1    2    0    0  0.00000000000E+00  0.00000000000E+00 -0.11064456632E+04  0.37656689508E+04  0.35994500471E+04 0.  0.
        5    1    3    3  502    0  0.15686205756E+04 -0.88227974308E+03 -0.55309455810E+03  0.18827967855E+04  0.46999998093E+01 0. -1.
       -5    1    3    3    0  502 -0.15686205756E+04  0.88227974308E+03 -0.55335110508E+03  0.18828721653E+04  0.46999998093E+01 0.  1.
</event>
<event>
 5   0  0.2590795E-08  0.3596256E+04  0.7818609E-02  0.8091350E-01
        2   -1    0    0  501    0  0.00000000000E+00  0.00000000000E+00  0.15081405892E+04  0.15081405892E+04  0.25500000920E-02 0. -1.
       -2   -1    0    0    0  501  0.00000000000E+00  0.00000000000E+00 -0.21438749817E+04  0.21438749817E+04  0.25500000920E-02 0.  1.
    10030    2    1    2    0    0  0.00000000000E+00  0.00000000000E+00 -0.63573439247E+03  0.36520155709E+04  0.35962563190E+04 0.  0.
        4    1    3    3  502    0 -0.11028388102E+02 -0.22917723366E+03 -0.21289480391E+04  0.21412765342E+04  0.12699999809E+01 0.  1.
       -4    1    3    3    0  502  0.11028388102E+02  0.22917723366E+03  0.14932136466E+04  0.15107390367E+04  0.12699999809E+01 0. -1.
</event>
<event>
 5   0  0.2476968E-08  0.3601090E+04  0.7818609E-02  0.8090242E-01
       -2   -1    0    0    0  501  0.00000000000E+00  0.00000000000E+00  0.11210421279E+04  0.11210421279E+04  0.25500000920E-02 0. -1.
        2   -1    0    0  501    0  0.00000000000E+00  0.00000000000E+00 -0.28919182259E+04  0.28919182259E+04  0.25500000920E-02 0.  1.
    10030    2    1    2    0    0  0.00000000000E+00  0.00000000000E+00 -0.17708760980E+04  0.40129603537E+04  0.36010899247E+04 0.  0.
        2    1    3    3  502    0  0.17670932255E+04 -0.13868305281E+03 -0.53284709845E+03  0.18508855954E+04  0.25500000920E-02 0.  1.
       -2    1    3    3    0  502 -0.17670932255E+04  0.13868305281E+03 -0.12380289996E+04  0.21620747583E+04  0.25500000920E-02 0. -1.
</event>
<event>
 5   0  0.2482243E-08  0.3600279E+04  0.7818609E-02  0.8090428E-01
        2   -1    0    0  501    0  0.00000000000E+00  0.00000000000E+00  0.19664361607E+04  0.19664361607E+04  0.25500000920E-02 0. -1.
       -2   -1    0    0    0  501  0.00000000000E+00  0.00000000000E+00 -0.16479059759E+04  0.16479059759E+04  0.25500000920E-02 0.  1.
    10030    2    1    2    0    0  0.00000000000E+00  0.00000000000E+00  0.31853018484E+03  0.36143421366E+04  0.36002788228E+04 0.  0.
        5    1    3    3  502    0  0.11982286882E+04 -0.11983525116E+04 -0.45029618700E+03  0.17534507343E+04  0.46999998093E+01 0.  1.
       -5    1    3    3    0  502 -0.11982286882E+04  0.11983525116E+04  0.76882637184E+03  0.18608914024E+04  0.46999998093E+01 0. -1.
</event>
<event>
 5   0  0.8024500E-09  0.3599577E+04  0.7818609E-02  0.8090589E-01
       -1   -1    0    0    0  501  0.00000000000E+00  0.00000000000E+00  0.18258972196E+04  0.18258972196E+04  0.50400001928E-02 0.  1.
        1   -1    0    0  501    0  0.00000000000E+00  0.00000000000E+00 -0.17740534732E+04  0.17740534732E+04  0.50400001928E-02 0. -1.
    10030    2    1    2    0    0  0.00000000000E+00  0.00000000000E+00  0.51843746368E+02  0.35999506928E+04  0.35995773663E+04 0.  0.
        1    1    3    3  502    0 -0.15967500976E+04  0.54699891950E+03 -0.59897939915E+03  0.17909759945E+04  0.50400001928E-02 0. -1.
       -1    1    3    3    0  502  0.15967500976E+04 -0.54699891950E+03  0.65082314551E+03  0.18089746983E+04  0.50400001928E-02 0.  1.
</event>
<event>
 5   0  0.2608070E-08  0.3604126E+04  0.7818609E-02  0.8089547E-01
        2   -1    0    0  501    0  0.00000000000E+00  0.00000000000E+00  0.12572206450E+04  0.12572206450E+04  0.25500000920E-02 0.  1.
       -2   -1    0    0    0  501  0.00000000000E+00  0.00000000000E+00 -0.25830239080E+04  0.25830239080E+04  0.25500000920E-02 0. -1.
    10030    2    1    2    0    0  0.00000000000E+00  0.00000000000E+00 -0.13258032629E+04  0.38402445530E+04  0.36041259599E+04 0.  0.
        3    1    3    3  502    0  0.38496381057E+03 -0.25835313608E+03  0.11925875671E+04  0.12795345223E+04  0.10100000352E+00 0.  1.
       -3    1    3    3    0  502 -0.38496381057E+03  0.25835313608E+03 -0.25183908300E+04  0.25607100307E+04  0.10100000352E+00 0. -1.
</event>
<event>
 5   0  0.8024500E-09  0.3598999E+04  0.7818609E-02  0.8090721E-01
        1   -1    0    0  501    0  0.00000000000E+00  0.00000000000E+00  0.14833242482E+04  0.14833242482E+04  0.50400001928E-02 0. -1.
       -1   -1    0    0    0  501  0.00000000000E+00  0.00000000000E+00 -0.21830679739E+04  0.21830679739E+04  0.50400001928E-02 0.  1.
    10030    2    1    2    0    0  0.00000000000E+00  0.00000000000E+00 -0.69974372563E+03  0.36663922221E+04  0.35989985614E+04 0.  0.
        1    1    3    3  502    0  0.21275632342E+03  0.99122188522E+03 -0.18644574636E+04  0.21222600483E+04  0.50400001928E-02 0.  1.
       -1    1    3    3    0  502 -0.21275632342E+03 -0.99122188522E+03  0.11647137380E+04  0.15441321738E+04  0.50400001928E-02 0. -1.
</event>
<event>
 5   0  0.2476968E-08  0.3600190E+04  0.7818609E-02  0.8090448E-01
       -2   -1    0    0    0  501  0.00000000000E+00  0.00000000000E+00  0.12970570912E+04  0.12970570912E+04  0.25500000920E-02 0. -1.
        2   -1    0    0  501    0  0.00000000000E+00  0.00000000000E+00 -0.24982261875E+04  0.24982261875E+04  0.25500000920E-02 0.  1.
    10030    2    1    2    0    0  0.00000000000E+00  0.00000000000E+00 -0.12011690962E+04  0.37952832787E+04  0.36001899905E+04 0.  0.
        2    1    3    3  502    0 -0.14843329660E+04  0.60726992669E+03  0.26122497727E+03  0.16248875673E+04  0.25500000920E-02 0. -1.
       -2    1    3    3    0  502  0.14843329660E+04 -0.60726992669E+03 -0.14623940735E+04  0.21703957114E+04  0.25500000920E-02 0.  1.
</event>
<event>
 5   0  0.2482243E-08  0.3600333E+04  0.7818609E-02  0.8090415E-01
       -2   -1    0    0    0  501  0.00000000000E+00  0.00000000000E+00  0.18874784315E+04  0.18874784316E+04  0.25500000920E-02 0.  1.
        2   -1    0    0  501    0  0.00000000000E+00  0.00000000000E+00 -0.17168932803E+04  0.17168932804E+04  0.25500000920E-02 0. -1.
    10030    2    1    2    0    0  0.00000000000E+00  0.00000000000E+00  0.17058515120E+03  0.36043717119E+04  0.36003327824E+04 0.  0.
        5    1    3    3  502    0 -0.77516174371E+03  0.11533824821E+04  0.12308708413E+04  0.18564029726E+04  0.46999998093E+01 0.  1.
       -5    1    3    3    0  502  0.77516174371E+03 -0.11533824821E+04 -0.10602856901E+04  0.17479687393E+04  0.46999998093E+01 0. -1.
</event>
<event>
 5   0  0.8247570E-09  0.3600712E+04  0.7818609E-02  0.8090329E-01
       -1   -1    0    0    0  501  0.00000000000E+00  0.00000000000E+00  0.12044083052E+04  0.12044083052E+04  0.50400001928E-02 0.  1.
        1   -1    0    0  501    0  0.00000000000E+00  0.00000000000E+00 -0.26911823802E+04  0.26911823802E+04  0.50400001928E-02 0. -1.
    10030    2    1    2    0    0  0.00000000000E+00  0.00000000000E+00 -0.14867740749E+04  0.38955906854E+04  0.36007123793E+04 0.  0.
        3    1    3    3  502    0  0.30603716974E+03  0.17988671857E+03 -0.26529427966E+04  0.26765880282E+04  0.10100000352E+00 0. -1.
       -3    1    3    3    0  502 -0.30603716974E+03 -0.17988671857E+03  0.11661687216E+04  0.12190026572E+04  0.10100000352E+00 0.  1.
</event>
<event>
 5   0  0.8024500E-09  0.3586756E+04  0.7818609E-02  0.8093532E-01
       -1   -1    0    0    0  501  0.00000000000E+00  0.00000000000E+00  0.12975953429E+04  0.12975953429E+04  0.50400001928E-02 0.  1.
        1   -1    0    0  501    0  0.00000000000E+00  0.00000000000E+00 -0.24785880596E+04  0.24785880596E+04  0.50400001928E-02 0. -1.
    10030    2    1    2    0    0  0.00000000000E+00  0.00000000000E+00 -0.11809927167E+04  0.37761834025E+04  0.35867558172E+04 0.  0.
        1    1    3    3  502    0 -0.80856650383E+03  0.18023272793E+02  0.10946952195E+04  0.13610518921E+04  0.50400001928E-02 0.  1.
       -1    1    3    3    0  502  0.80856650383E+03 -0.18023272793E+02 -0.22756879361E+04  0.24151315103E+04  0.50400001928E-02 0. -1.
</event>
<event>
 5   0  0.8024500E-09  0.3598543E+04  0.7818609E-02  0.8090826E-01
        1   -1    0    0  501    0  0.00000000000E+00  0.00000000000E+00  0.20353740173E+04  0.20353740173E+04  0.50400001928E-02 0.  1.
       -1   -1    0    0    0  501  0.00000000000E+00  0.00000000000E+00 -0.15905567543E+04  0.15905567543E+04  0.50400001928E-02 0. -1.
    10030    2    1    2    0    0  0.00000000000E+00  0.00000000000E+00  0.44481726302E+03  0.36259307717E+04  0.35985429779E+04 0.  0.
        5    1    3    3  502    0  0.43951177947E+03  0.14090858216E+04  0.12591526706E+04  0.19401497352E+04  0.46999998093E+01 0.  1.
       -5    1    3    3    0  502 -0.43951177947E+03 -0.14090858216E+04 -0.81433540760E+03  0.16857810365E+04  0.46999998093E+01 0. -1.
</event>
<event>
 5   0  0.8247570E-09  0.3607834E+04  0.7818609E-02  0.8088700E-01
       -1   -1    0    0    0  501  0.00000000000E+00  0.00000000000E+00  0.27578481808E+04  0.27578481808E+04  0.50400001928E-02 0. -1.
        1   -1    0    0  501    0  0.00000000000E+00  0.00000000000E+00 -0.11799475835E+04  0.11799475835E+04  0.50400001928E-02 0.  1.
    10030    2    1    2    0    0  0.00000000000E+00  0.00000000000E+00  0.15779005973E+04  0.39377957643E+04  0.36078338635E+04 0.  0.
        3    1    3    3  502    0 -0.71026704846E+03  0.15806669618E+04  0.24199093976E+03  0.17497276787E+04  0.10100000352E+00 0.  1.
       -3    1    3    3    0  502  0.71026704846E+03 -0.15806669618E+04  0.13359096575E+04  0.21880680857E+04  0.10100000352E+00 0. -1.
</event>
<event>
 5   0  0.2482243E-08  0.3600603E+04  0.7818609E-02  0.8090354E-01
        2   -1    0    0  501    0  0.00000000000E+00  0.00000000000E+00  0.93600419638E+03  0.93600419639E+03  0.25500000920E-02 0. -1.
       -2   -1    0    0    0  501  0.00000000000E+00  0.00000000000E+00 -0.34626818408E+04  0.34626818408E+04  0.25500000920E-02 0.  1.
    10030    2    1    2    0    0  0.00000000000E+00  0.00000000000E+00 -0.25266776444E+04  0.43986860372E+04  0.36006025794E+04 0.  0.
        5    1    3    3  502    0  0.11764062290E+04 -0.12508028045E+04 -0.60248975410E+03  0.18197404390E+04  0.46999998093E+01 0. -1.
       -5    1    3    3    0  502 -0.11764062290E+04  0.12508028045E+04 -0.19241878903E+04  0.25789455982E+04  0.46999998093E+01 0.  1.
</event>
<event>
 5   0  0.2482243E-08  0.3600082E+04  0.7818609E-02  0.8090473E-01
       -2   -1    0    0    0  501  0.00000000000E+00  0.00000000000E+00  0.16268542696E+04  0.16268542696E+04  0.25500000920E-02 0.  1.
        2   -1    0    0  501    0  0.00000000000E+00  0.00000000000E+00 -0.19916640731E+04  0.19916640731E+04  0.25500000920E-02 0. -1.
    10030    2    1    2    0    0  0.00000000000E+00  0.00000000000E+00 -0.36480980357E+03  0.36185183427E+04  0.36000817774E+04 0.  0.
        5    1    3    3  502    0  0.16136428141E+03 -0.17894124608E+04 -0.29292127328E+03  0.18204011505E+04  0.46999998093E+01 0.  1.
       -5    1    3    3    0  502 -0.16136428141E+03  0.17894124608E+04 -0.71888530293E+02  0.17981171922E+04  0.46999998093E+01 0. -1.
</event>
<event>
 5   0  0.8024500E-09  0.3598818E+04  0.7818609E-02  0.8090762E-01
       -1   -1    0    0    0  501  0.00000000000E+00  0.00000000000E+00  0.26465476544E+04  0.26465476544E+04  0.50400001928E-02 0. -1.
        1   -1    0    0  501    0  0.00000000000E+00  0.00000000000E+00 -0.12234329398E+04  0.12234329398E+04  0.50400001928E-02 0.  1.
    10030    2    1    2    0    0  0.00000000000E+00  0.00000000000E+00  0.14231147146E+04  0.38699805942E+04  0.35988184600E+04 0.  0.
        1    1    3    3  502    0  0.31432607891E+03  0.89363896644E+02  0.26143716308E+04  0.26347155091E+04  0.50400001928E-02 0. -1.
       -1    1    3    3    0  502 -0.31432607891E+03 -0.89363896644E+02 -0.11912569162E+04  0.12352650851E+04  0.50400001928E-02 0.  1.
</event>
<event>
 5   0  0.8024500E-09  0.3599059E+04  0.7818609E-02  0.8090707E-01
        1   -1    0    0  501    0  0.00000000000E+00  0.00000000000E+00  0.23479056024E+04  0.23479056024E+04  0.50400001928E-02 0.  1.
       -1   -1    0    0    0  501  0.00000000000E+00  0.00000000000E+00 -0.13792319607E+04  0.13792319607E+04  0.50400001928E-02 0. -1.
    10030    2    1    2    0    0  0.00000000000E+00  0.00000000000E+00  0.96867364170E+03  0.37271375631E+04  0.35990590145E+04 0.  0.
        5    1    3    3  502    0 -0.41630170149E+03 -0.88325567284E+03  0.20496961077E+04  0.22704017077E+04  0.46999998093E+01 0.  1.
       -5    1    3    3    0  502  0.41630170149E+03  0.88325567284E+03 -0.10810224660E+04  0.14567358554E+04  0.46999998093E+01 0. -1.
</event>
<event>
 5   0  0.2608070E-08  0.3599815E+04  0.7818609E-02  0.8090534E-01
       -2   -1    0    0    0  501  0.00000000000E+00  0.00000000000E+00  0.10601323602E+04  0.10601323602E+04  0.25500000920E-02 0.  1.
        2   -1    0    0  501    0  0.00000000000E+00  0.00000000000E+00 -0.30559082857E+04  0.30559082857E+04  0.25500000920E-02 0. -1.
    10030    2    1    2    0    0  0.00000000000E+00  0.00000000000E+00 -0.19957759255E+04  0.41160406459E+04  0.35998151417E+04 0.  0.
        3    1    3    3  502    0 -0.63312590882E+03  0.53420274181E+03  0.82921413860E+03  0.11720994342E+04  0.10100000352E+00 0.  1.
       -3    1    3    3    0  502  0.63312590882E+03 -0.53420274181E+03 -0.28249900641E+04  0.29439412117E+04  0.10100000352E+00 0. -1.
</event>
<event>
 5   0  0.2482243E-08  0.3599289E+04  0.7818609E-02  0.8090655E-01
        2   -1    0    0  501    0  0.00000000000E+00  0.00000000000E+00  0.20743178817E+04  0.20743178817E+04  0.25500000920E-02 0.  1.
       -2   -1    0    0    0  501  0.00000000000E+00  0.00000000000E+00 -0.15613420910E+04  0.15613420910E+04  0.25500000920E-02 0. -1.
    10030    2    1    2    0    0  0.00000000000E+00  0.00000000000E+00  0.51297579069E+03  0.36356599727E+04  0.35992887180E+04 0.  0.
        5    1    3    3  502    0 -0.14527138256E+04  0.10487061805E+04  0.42711978711E+03  0.18419054033E+04  0.46999998093E+01 0. -1.
       -5    1    3    3    0  502  0.14527138256E+04 -0.10487061805E+04  0.85856003582E+02  0.17937545694E+04  0.46999998093E+01 0.  1.
</event>
<event>
 5   0  0.2590795E-08  0.3601574E+04  0.7818609E-02  0.8090131E-01
        2   -1    0    0  501    0  0.00000000000E+00  0.00000000000E+00  0.11685882845E+04  0.11685882845E+04  0.25500000920E-02 0.  1.
       -2   -1    0    0    0  501  0.00000000000E+00  0.00000000000E+00 -0.27750018607E+04  0.27750018607E+04  0.25500000920E-02 0. -1.
    10030    2    1    2    0    0  0.00000000000E+00  0.00000000000E+00 -0.16064135763E+04  0.39435901452E+04  0.36015744690E+04 0.  0.
        4    1    3    3  502    0 -0.43838521887E+03 -0.38977329190E+03 -0.26674523755E+04  0.27311917925E+04  0.12699999809E+01 0. -1.
       -4    1    3    3    0  502  0.43838521887E+03  0.38977329190E+03  0.10610387992E+04  0.12123983527E+04  0.12699999809E+01 0.  1.
</event>
<event>
 5   0  0.8247570E-09  0.3600375E+04  0.7818609E-02  0.8090406E-01
       -1   -1    0    0    0  501  0.00000000000E+00  0.00000000000E+00  0.11426439528E+04  0.11426439528E+04  0.50400001928E-02 0.  1.
        1   -1    0    0  501    0  0.00000000000E+00  0.00000000000E+00 -0.28361194452E+04  0.28361194452E+04  0.50400001928E-02 0. -1.
    10030    2    1    2    0    0  0.00000000000E+00  0.00000000000E+00 -0.16934754924E+04  0.39787633980E+04  0.36003748324E+04 0.  0.
        3    1    3    3  502    0  0.65362976781E+03  0.14741770118E+04 -0.17309845332E+04  0.23657424205E+04  0.10100000352E+00 0. -1.
       -3    1    3    3    0  502 -0.65362976781E+03 -0.14741770118E+04  0.37509040775E+02  0.16130209775E+04  0.10100000352E+00 0.  1.
</event>
<event>
 5   0  0.8146881E-09  0.3599242E+04  0.7818609E-02  0.8090665E-01
        1   -1    0    0  501    0  0.00000000000E+00  0.00000000000E+00  0.21911009921E+04  0.21911009922E+04  0.50400001928E-02 0.  1.
       -1   -1    0    0    0  501  0.00000000000E+00  0.00000000000E+00 -0.14780856418E+04  0.14780856418E+04  0.50400001928E-02 0. -1.
    10030    2    1    2    0    0  0.00000000000E+00  0.00000000000E+00  0.71301535032E+03  0.36691866340E+04  0.35992415403E+04 0.  0.
        4    1    3    3  502    0  0.31077406126E+03  0.45754439779E+03  0.21023019602E+04  0.21738451043E+04  0.12699999809E+01 0.  1.
       -4    1    3    3    0  502 -0.31077406126E+03 -0.45754439779E+03 -0.13892866098E+04  0.14953415296E+04  0.12699999809E+01 0. -1.
</event>
<event>
 5   0  0.8146881E-09  0.3613260E+04  0.7818609E-02  0.8087461E-01
       -1   -1    0    0    0  501  0.00000000000E+00  0.00000000000E+00  0.25128435248E+04  0.25128435248E+04  0.50400001928E-02 0. -1.
        1   -1    0    0  501    0  0.00000000000E+00  0.00000000000E+00 -0.12988919413E+04  0.12988919413E+04  0.50400001928E-02 0.  1.
    10030    2    1    2    0    0  0.00000000000E+00  0.00000000000E+00  0.12139515836E+04  0.38117354661E+04  0.36132601368E+04 0.  0.
        4    1    3    3  502    0 -0.36490999093E+03 -0.11156262078E+03  0.24698469714E+04  0.24991500945E+04  0.12699999809E+01 0. -1.
       -4    1    3    3    0  502  0.36490999093E+03  0.11156262078E+03 -0.12558953878E+04  0.13125853716E+04  0.12699999809E+01 0.  1.
</event>
<event>
 5   0  0.8146881E-09  0.3603488E+04  0.7818609E-02  0.8089693E-01
        1   -1    0    0  501    0  0.00000000000E+00  0.00000000000E+00  0.22050452569E+04  0.22050452569E+04  0.50400001928E-02 0. -1.
       -1   -1    0    0    0  501  0.00000000000E+00  0.00000000000E+00 -0.14722060445E+04  0.14722060445E+04  0.50400001928E-02 0.  1.
    10030    2    1    2    0    0  0.00000000000E+00  0.00000000000E+00  0.73283921243E+03  0.36772513015E+04  0.36034877304E+04 0.  0.
        4    1    3    3  502    0 -0.15828225028E+04  0.79466571124E+03  0.28801790776E+02  0.17713418146E+04  0.12699999809E+01 0. -1.
       -4    1    3    3    0  502  0.15828225028E+04 -0.79466571124E+03  0.70403742165E+03  0.19059094869E+04  0.12699999809E+01 0.  1.
</event>
<event>
 5   0  0.8024500E-09  0.3597186E+04  0.7818609E-02  0.8091137E-01
        1   -1    0    0  501    0  0.00000000000E+00  0.00000000000E+00  0.27661066915E+04  0.27661066915E+04  0.50400001928E-02 0. -1.
       -1   -1    0    0    0  501  0.00000000000E+00  0.00000000000E+00 -0.11694911462E+04  0.11694911462E+04  0.50400001928E-02 0.  1.
    10030    2    1    2    0    0  0.00000000000E+00  0.00000000000E+00  0.15966155453E+04  0.39355978376E+04  0.35971862810E+04 0.  0.
        1    1    3    3  502    0  0.52676929892E+03  0.83338720698E+03 -0.84751138070E+03  0.13001137148E+04  0.50400001928E-02 0.  1.
       -1    1    3    3    0  502 -0.52676929892E+03 -0.83338720698E+03  0.24441269260E+04  0.26354841228E+04  0.50400001928E-02 0. -1.
</event>
<event>
 5   0  0.8024500E-09  0.3599280E+04  0.7818609E-02  0.8090657E-01
        1   -1    0    0  501    0  0.00000000000E+00  0.00000000000E+00  0.17240922221E+04  0.17240922221E+04  0.50400001928E-02 0. -1.
       -1   -1    0    0    0  501  0.00000000000E+00  0.00000000000E+00 -0.18784978966E+04  0.18784978966E+04  0.50400001928E-02 0.  1.
    10030    2    1    2    0    0  0.00000000000E+00  0.00000000000E+00 -0.15440567457E+03  0.36025901187E+04  0.35992797128E+04 0.  0.
        5    1    3    3  502    0 -0.82719423193E+03 -0.45636722478E+03 -0.16103296705E+04  0.18670043061E+04  0.46999998093E+01 0.  1.
       -5    1    3    3    0  502  0.82719423193E+03  0.45636722478E+03  0.14559239959E+04  0.17355858127E+04  0.46999998093E+01 0. -1.
</event>
<event>
 5   0  0.2590795E-08  0.3599162E+04  0.7818609E-02  0.8090684E-01
        2   -1    0    0  501    0  0.00000000000E+00  0.00000000000E+00  0.11996107505E+04  0.11996107505E+04  0.25500000920E-02 0.  1.
       -2   -1    0    0    0  501  0.00000000000E+00  0.00000000000E+00 -0.26996188879E+04  0.26996188879E+04  0.25500000920E-02 0. -1.
    10030    2    1    2    0    0  0.00000000000E+00  0.00000000000E+00 -0.15000081374E+04  0.38992296384E+04  0.35991620359E+04 0.  0.
        4    1    3    3  502    0 -0.11430547274E+03 -0.29691299550E+03  0.11688995657E+04  0.12114251424E+04  0.12699999809E+01 0.  1.
       -4    1    3    3    0  502  0.11430547274E+03  0.29691299550E+03 -0.26689077031E+04  0.26878044960E+04  0.12699999809E+01 0. -1.
</event>
<event>
 5   0  0.8024500E-09  0.3600081E+04  0.7818609E-02  0.8090473E-01
        1   -1    0    0  501    0  0.00000000000E+00  0.00000000000E+00  0.22163900285E+04  0.22163900285E+04  0.50400001928E-02 0. -1.
       -1   -1    0    0    0  501  0.00000000000E+00  0.00000000000E+00 -0.14619021853E+04  0.14619021853E+04  0.50400001928E-02 0.  1.
    10030    2    1    2    0    0  0.00000000000E+00  0.00000000000E+00  0.75448784313E+03  0.36782922138E+04  0.36000807914E+04 0.  0.
        5    1    3    3  502    0 -0.65789263174E+03 -0.53573686102E+03  0.19992741707E+04  0.21718554277E+04  0.46999998093E+01 0. -1.
       -5    1    3    3    0  502  0.65789263174E+03  0.53573686102E+03 -0.12447863276E+04  0.15064367861E+04  0.46999998093E+01 0.  1.
</event>
<event>
 5   0  0.2590795E-08  0.3601074E+04  0.7818609E-02  0.8090246E-01
       -2   -1    0    0    0  501  0.00000000000E+00  0.00000000000E+00  0.15535990143E+04  0.15535990143E+04  0.25500000920E-02 0.  1.
        2   -1    0    0  501    0  0.00000000000E+00  0.00000000000E+00 -0.20867250768E+04  0.20867250768E+04  0.25500000920E-02 0. -1.
    10030    2    1    2    0    0  0.00000000000E+00  0.00000000000E+00 -0.53312606250E+03  0.36403240912E+04  0.36010742967E+04 0.  0.
        4    1    3    3  502    0  0.39221289290E+03 -0.65015766293E+03 -0.19169617474E+04  0.20618632093E+04  0.12699999809E+01 0. -1.
       -4    1    3    3    0  502 -0.39221289290E+03  0.65015766293E+03  0.13838356849E+04  0.15784608819E+04  0.12699999809E+01 0.  1.
</event>
<event>
 5   0  0.8024500E-09  0.3600668E+04  0.7818609E-02  0.8090339E-01
        1   -1    0    0  501    0  0.00000000000E+00  0.00000000000E+00  0.22808179796E+04  0.22808179796E+04  0.50400001928E-02 0. -1.
       -1   -1    0    0    0  501  0.00000000000E+00  0.00000000000E+00 -0.14210704291E+04  0.14210704291E+04  0.50400001928E-02 0.  1.
    10030    2    1    2    0    0  0.00000000000E+00  0.00000000000E+00  0.85974755047E+03  0.37018884087E+04  0.36006682630E+04 0.  0.
        1    1    3    3  502    0  0.50226352150E+03 -0.12298033840E+04 -0.81940563337E+03  0.15608044722E+04  0.50400001928E-02 0.  1.
       -1    1    3    3    0  502 -0.50226352150E+03  0.12298033840E+04  0.16791531838E+04  0.21410839365E+04  0.50400001928E-02 0. -1.
</event>
<event>
 5   0  0.2494592E-08  0.3599948E+04  0.7818609E-02  0.8090504E-01
        2   -1    0    0  501    0  0.00000000000E+00  0.00000000000E+00  0.23867925557E+04  0.23867925557E+04  0.25500000920E-02 0. -1.
       -2   -1    0    0    0  501  0.00000000000E+00  0.00000000000E+00 -0.13574309777E+04  0.13574309777E+04  0.25500000920E-02 0.  1.
    10030    2    1    2    0    0  0.00000000000E+00  0.00000000000E+00  0.10293615780E+04  0.37442235334E+04  0.35999478621E+04 0.  0.
        1    1    3    3  502    0 -0.61801795755E+03 -0.13835191776E+04  0.15251277320E+04  0.21499037442E+04  0.50400001928E-02 0. -1.
       -1    1    3    3    0  502  0.61801795755E+03  0.13835191776E+04 -0.49576615394E+03  0.15943197892E+04  0.50400001928E-02 0.  1.
</event>
<event>
 5   0  0.8247570E-09  0.3607038E+04  0.7818609E-02  0.8088882E-01
       -1   -1    0    0    0  501  0.00000000000E+00  0.00000000000E+00  0.29901402823E+04  0.29901402823E+04  0.50400001928E-02 0. -1.
        1   -1    0    0  501    0  0.00000000000E+00  0.00000000000E+00 -0.10878017998E+04  0.10878017998E+04  0.50400001928E-02 0.  1.
    10030    2    1    2    0    0  0.00000000000E+00  0.00000000000E+00  0.19023384825E+04  0.40779420821E+04  0.36070375549E+04 0.  0.
        3    1    3    3  502    0 -0.35218803561E+03  0.16552360356E+04  0.16561451995E+04  0.23678386089E+04  0.10100000352E+00 0. -1.
       -3    1    3    3    0  502  0.35218803561E+03 -0.16552360356E+04  0.24619328300E+03  0.17101034731E+04  0.10100000352E+00 0.  1.
</event>
<event>
 5   0  0.2476968E-08  0.3599424E+04  0.7818609E-02  0.8090624E-01
       -2   -1    0    0    0  501  0.00000000000E+00  0.00000000000E+00  0.16523216360E+04  0.16523216360E+04  0.25500000920E-02 0.  1.
        2   -1    0    0  501    0  0.00000000000E+00  0.00000000000E+00 -0.19602501081E+04  0.19602501081E+04  0.25500000920E-02 0. -1.
    10030    2    1    2    0    0  0.00000000000E+00  0.00000000000E+00 -0.30792847206E+03  0.36125717441E+04  0.35994242126E+04 0.  0.
        2    1    3    3  502    0  0.57485254781E+03  0.13996756787E+04  0.82397476796E+03  0.17229282851E+04  0.25500000920E-02 0.  1.
       -2    1    3    3    0  502 -0.57485254781E+03 -0.13996756787E+04 -0.11319032400E+04  0.18896434590E+04  0.25500000920E-02 0. -1.
</event>
<event>
 5   0  0.8024500E-09  0.3599854E+04  0.7818609E-02  0.8090525E-01
        1   -1    0    0  501    0  0.00000000000E+00  0.00000000000E+00  0.22374093929E+04  0.22374093929E+04  0.50400001928E-02 0.  1.
       -1   -1    0    0    0  501  0.00000000000E+00  0.00000000000E+00 -0.14479859685E+04  0.14479859685E+04  0.50400001928E-02 0. -1.
    10030    2    1    2    0    0  0.00000000000E+00  0.00000000000E+00  0.78942342439E+03  0.36853953614E+04  0.35998541119E+04 0.  0.
        1    1    3    3  502    0 -0.59553819010E+02 -0.82794420833E+03 -0.12403298685E+04  0.14924665665E+04  0.50400001928E-02 0. -1.
       -1    1    3    3    0  502  0.59553819010E+02  0.82794420833E+03  0.20297532929E+04  0.21929287949E+04  0.50400001928E-02 0.  1.
</event>
<event>
 5   0  0.8247570E-09  0.3599733E+04  0.7818609E-02  0.8090553E-01
        1   -1    0    0  501    0  0.00000000000E+00  0.00000000000E+00  0.17705073759E+04  0.17705073759E+04  0.50400001928E-02 0.  1.
       -1   -1    0    0    0  501  0.00000000000E+00  0.00000000000E+00 -0.18297121926E+04  0.18297121926E+04  0.50400001928E-02 0. -1.
    10030    2    1    2    0    0  0.00000000000E+00  0.00000000000E+00 -0.59204816703E+02  0.36002195684E+04  0.35997327304E+04 0.  0.
        3    1    3    3  502    0  0.81336433668E+03 -0.12888625506E+04 -0.98722378417E+03  0.18158576565E+04  0.10100000352E+00 0. -1.
       -3    1    3    3    0  502 -0.81336433668E+03  0.12888625506E+04  0.92801896747E+03  0.17843619119E+04  0.10100000352E+00 0.  1.
</event>
<event>
 5   0  0.8024500E-09  0.3598669E+04  0.7818609E-02  0.8090797E-01
        1   -1    0    0  501    0  0.00000000000E+00  0.00000000000E+00  0.12494691936E+04  0.12494691936E+04  0.50400001928E-02 0. -1.
       -1   -1    0    0    0  501  0.00000000000E+00  0.00000000000E+00 -0.25911845218E+04  0.25911845218E+04  0.50400001928E-02 0.  1.
    10030    2    1    2    0    0  0.00000000000E+00  0.00000000000E+00 -0.13417153282E+04  0.38406537155E+04  0.35986693291E+04 0.  0.
        1    1    3    3  502    0 -0.34588539753E+03  0.17532534084E+04 -0.44681035869E+03  0.18420569261E+04  0.50400001928E-02 0.  1.
       -1    1    3    3    0  502  0.34588539753E+03 -0.17532534084E+04 -0.89490496948E+03  0.19985967894E+04  0.50400001928E-02 0. -1.
</event>
<event>
 5   0  0.2482243E-08  0.3599888E+04  0.7818609E-02  0.8090517E-01
        2   -1    0    0  501    0  0.00000000000E+00  0.00000000000E+00  0.26111940910E+04  0.26111940910E+04  0.25500000920E-02 0.  1.
       -2   -1    0    0    0  501  0.00000000000E+00  0.00000000000E+00 -0.12407344154E+04  0.12407344154E+04  0.25500000920E-02 0. -1.
    10030    2    1    2    0    0  0.00000000000E+00  0.00000000000E+00  0.13704596756E+04  0.38519285063E+04  0.35998879837E+04 0.  0.
        5    1    3    3  502    0  0.11158423664E+04  0.12688409626E+04  0.13489096785E+04  0.21620918079E+04  0.46999998093E+01 0.  1.
       -5    1    3    3    0  502 -0.11158423664E+04 -0.12688409626E+04  0.21549997028E+02  0.16898366984E+04  0.46999998093E+01 0. -1.
</event>
<event>
 5   0  0.2608070E-08  0.3600086E+04  0.7818609E-02  0.8090472E-01
       -2   -1    0    0    0  501  0.00000000000E+00  0.00000000000E+00  0.14922544405E+04  0.14922544405E+04  0.25500000920E-02 0.  1.
        2   -1    0    0  501    0  0.00000000000E+00  0.00000000000E+00 -0.21713156346E+04  0.21713156346E+04  0.25500000920E-02 0. -1.
    10030    2    1    2    0    0  0.00000000000E+00  0.00000000000E+00 -0.67906119406E+03  0.36635700751E+04  0.36000863309E+04 0.  0.
        3    1    3    3  502    0 -0.66565232863E+03  0.13612244571E+04  0.64926737049E+03  0.16485063463E+04  0.10100000352E+00 0.  1.
       -3    1    3    3    0  502  0.66565232863E+03 -0.13612244571E+04 -0.13283285646E+04  0.20150637287E+04  0.10100000352E+00 0. -1.
</event>
<event>
 5   0  0.2494592E-08  0.3599696E+04  0.7818609E-02  0.8090561E-01
       -2   -1    0    0    0  501  0.00000000000E+00  0.00000000000E+00  0.11895579394E+04  0.11895579394E+04  0.25500000920E-02 0. -1.
        2   -1    0    0  501    0  0.00000000000E+00  0.00000000000E+00 -0.27232402573E+04  0.27232402573E+04  0.25500000920E-02 0.  1.
    10030    2    1    2    0    0  0.00000000000E+00  0.00000000000E+00 -0.15336823179E+04  0.39127981967E+04  0.35996955809E+04 0.  0.
        1    1    3    3  502    0 -0.10131504486E+04  0.13923467608E+04 -0.19749924659E+03  0.17332366504E+04  0.50400001928E-02 0. -1.
       -1    1    3    3    0  502  0.10131504486E+04 -0.13923467608E+04 -0.13361830713E+04  0.21795615463E+04  0.50400001928E-02 0.  1.
</event>
<event>
 5   0  0.8063410E-09  0.3599434E+04  0.7818609E-02  0.8090621E-01
        1   -1    0    0  501    0  0.00000000000E+00  0.00000000000E+00  0.20197618716E+04  0.20197618716E+04  0.50400001928E-02 0.  1.
       -1   -1    0    0    0  501  0.00000000000E+00  0.00000000000E+00 -0.16036450765E+04  0.16036450766E+04  0.50400001928E-02 0. -1.
    10030    2    1    2    0    0  0.00000000000E+00  0.00000000000E+00  0.41611679509E+03  0.36234069482E+04  0.35994339451E+04 0.  0.
        2    1    3    3  502    0 -0.10083260503E+04  0.11078706224E+04  0.12121394872E+04  0.19270134603E+04  0.25500000920E-02 0.  1.
       -2    1    3    3    0  502  0.10083260503E+04 -0.11078706224E+04 -0.79602269211E+03  0.16963934879E+04  0.25500000920E-02 0. -1.
</event>
<event>
 5   0  0.8024500E-09  0.3599879E+04  0.7818609E-02  0.8090519E-01
        1   -1    0    0  501    0  0.00000000000E+00  0.00000000000E+00  0.13610131810E+04  0.13610131810E+04  0.50400001928E-02 0.  1.
       -1   -1    0    0    0  501  0.00000000000E+00  0.00000000000E+00 -0.23804192501E+04  0.23804192501E+04  0.50400001928E-02 0. -1.
    10030    2    1    2    0    0  0.00000000000E+00  0.00000000000E+00 -0.10194060691E+04  0.37414324311E+04  0.35998788734E+04 0.  0.
        1    1    3    3  502    0  0.14730389573E+04  0.54047417668E+02  0.56388015980E+03  0.15782033227E+04  0.50400001928E-02 0.  1.
       -1    1    3    3    0  502 -0.14730389573E+04 -0.54047417668E+02 -0.15832862289E+04  0.21632291085E+04  0.50400001928E-02 0. -1.
</event>
<event>
 5   0  0.2482243E-08  0.3600606E+04  0.7818609E-02  0.8090353E-01
       -2   -1    0    0    0  501  0.00000000000E+00  0.00000000000E+00  0.17357149874E+04  0.17357149874E+04  0.25500000920E-02 0.  1.
        2   -1    0    0  501    0  0.00000000000E+00  0.00000000000E+00 -0.18672944231E+04  0.18672944231E+04  0.25500000920E-02 0. -1.
    10030    2    1    2    0    0  0.00000000000E+00  0.00000000000E+00 -0.13157943570E+03  0.36030094106E+04  0.36006060135E+04 0.  0.
        5    1    3    3  502    0 -0.32338254191E+03 -0.12763879413E+03 -0.18333778320E+04  0.18660558125E+04  0.46999998093E+01 0. -1.
       -5    1    3    3    0  502  0.32338254191E+03  0.12763879413E+03  0.17017983963E+04  0.17369535981E+04  0.46999998093E+01 0.  1.
</event>
<event>
 5   0  0.8024500E-09  0.3600143E+04  0.7818609E-02  0.8090459E-01
        1   -1    0    0  501    0  0.00000000000E+00  0.00000000000E+00  0.19038332632E+04  0.19038332632E+04  0.50400001928E-02 0.  1.
       -1   -1    0    0    0  501  0.00000000000E+00  0.00000000000E+00 -0.17019645372E+04  0.17019645372E+04  0.50400001928E-02 0. -1.
    10030    2    1    2    0    0  0.00000000000E+00  0.00000000000E+00  0.20186872600E+03  0.36057978005E+04  0.36001426076E+04 0.  0.
        5    1    3    3  502    0 -0.12868123976E+04 -0.99578087490E+03 -0.67018991118E+03  0.17597279063E+04  0.46999998093E+01 0.  1.
       -5    1    3    3    0  502  0.12868123976E+04  0.99578087490E+03  0.87205863719E+03  0.18460698941E+04  0.46999998093E+01 0. -1.
</event>
<event>
 5   0  0.8146881E-09  0.3604463E+04  0.7818609E-02  0.8089470E-01
        1   -1    0    0  501    0  0.00000000000E+00  0.00000000000E+00  0.18258286868E+04  0.18258286868E+04  0.50400001928E-02 0.  1.
       -1   -1    0    0    0  501  0.00000000000E+00  0.00000000000E+00 -0.17789387977E+04  0.17789387977E+04  0.50400001928E-02 0. -1.
    10030    2    1    2    0    0  0.00000000000E+00  0.00000000000E+00  0.46889889087E+02  0.36047674845E+04  0.36044625057E+04 0.  0.
        4    1    3    3  502    0  0.17489243063E+04 -0.41921836094E+03  0.13988336811E+03  0.18038983433E+04  0.12699999809E+01 0.  1.
       -4    1    3    3    0  502 -0.17489243063E+04  0.41921836094E+03 -0.92993479019E+02  0.18008691411E+04  0.12699999809E+01 0. -1.
</event>
<event>
 5   0  0.2482243E-08  0.3600840E+04  0.7818609E-02  0.8090299E-01
       -2   -1    0    0    0  501  0.00000000000E+00  0.00000000000E+00  0.96796064260E+03  0.96796064260E+03  0.25500000920E-02 0. -1.
        2   -1    0    0  501    0  0.00000000000E+00  0.00000000000E+00 -0.33488054395E+04  0.33488054395E+04  0.25500000920E-02 0.  1.
    10030    2    1    2    0    0  0.00000000000E+00  0.00000000000E+00 -0.23808447969E+04  0.43167660821E+04  0.36008398271E+04 0.  0.
        5    1    3    3  502    0  0.90922213558E+03 -0.15435904341E+04 -0.14053209179E+04  0.22769069574E+04  0.46999998093E+01 0.  1.
       -5    1    3    3    0  502 -0.90922213558E+03  0.15435904341E+04 -0.97552387895E+03  0.20398591247E+04  0.46999998093E+01 0. -1.
</event>
<event>
 5   0  0.8024500E-09  0.3613994E+04  0.7818609E-02  0.8087294E-01
        3   -1    0    0  501    0  0.00000000000E+00  0.00000000000E+00  0.17846298093E+04  0.17846298122E+04  0.10100000352E+00 0.  1.
       -3   -1    0    0    0  501  0.00000000000E+00  0.00000000000E+00 -0.18296445703E+04  0.18296445731E+04  0.10100000352E+00 0. -1.
    10030    2    1    2    0    0  0.00000000000E+00  0.00000000000E+00 -0.45014761026E+02  0.36142743853E+04  0.36139940514E+04 0.  0.
        3    1    3    3  502    0  0.16711770934E+04  0.33365541682E+03  0.57843807886E+03  0.17996525876E+04  0.10100000352E+00 0. -1.
       -3    1    3    3    0  502 -0.16711770934E+04 -0.33365541682E+03 -0.62345283989E+03  0.18146217977E+04  0.10100000352E+00 0.  1.
</event>
<event>
 5   0  0.2482243E-08  0.3600688E+04  0.7818609E-02  0.8090334E-01
        2   -1    0    0  501    0  0.00000000000E+00  0.00000000000E+00  0.16311342912E+04  0.16311342912E+04  0.25500000920E-02 0. -1.
       -2   -1    0    0    0  501  0.00000000000E+00  0.00000000000E+00 -0.19871075619E+04  0.19871075619E+04  0.25500000920E-02 0.  1.
    10030    2    1    2    0    0  0.00000000000E+00  0.00000000000E+00 -0.35597327066E+03  0.36182418531E+04  0.36006884256E+04 0.  0.
        5    1    3    3  502    0 -0.67564131150E+03 -0.16535704710E+04  0.47675966910E+02  0.17869195763E+04  0.46999998093E+01 0.  1.
       -5    1    3    3    0  502  0.67564131150E+03  0.16535704710E+04 -0.40364923757E+03  0.18313222768E+04  0.46999998093E+01 0. -1.
</event>
<event>
 5   0  0.2590795E-08  0.3599695E+04  0.7818609E-02  0.8090562E-01
       -2   -1    0    0    0  501  0.00000000000E+00  0.00000000000E+00  0.12817527773E+04  0.12817527773E+04  0.25500000920E-02 0.  1.
        2   -1    0    0  501    0  0.00000000000E+00  0.00000000000E+00 -0.25273605761E+04  0.25273605761E+04  0.25500000920E-02 0. -1.
    10030    2    1    2    0    0  0.00000000000E+00  0.00000000000E+00 -0.12456077988E+04  0.38091133534E+04  0.35996952303E+04 0.  0.
        4    1    3    3  502    0  0.94847488461E+03 -0.11542070572E+04  0.43941321920E+03  0.15572039455E+04  0.12699999809E+01 0.  1.
       -4    1    3    3    0  502 -0.94847488461E+03  0.11542070572E+04 -0.16850210180E+04  0.22519094080E+04  0.12699999809E+01 0. -1.
</event>
<event>
 5   0  0.2494592E-08  0.3599335E+04  0.7818609E-02  0.8090644E-01
        2   -1    0    0  501    0  0.00000000000E+00  0.00000000000E+00  0.17346529402E+04  0.17346529402E+04  0.25500000920E-02 0.  1.
       -2   -1    0    0    0  501  0.00000000000E+00  0.00000000000E+00 -0.18671192548E+04  0.18671192548E+04  0.25500000920E-02 0. -1.
    10030    2    1    2    0    0  0.00000000000E+00  0.00000000000E+00 -0.13246631468E+03  0.36017721950E+04  0.35993354415E+04 0.  0.
        1    1    3    3  502    0  0.15650079733E+04 -0.88780118295E+03 -0.10317709233E+03  0.18022448250E+04  0.50400001928E-02 0.  1.
       -1    1    3    3    0  502 -0.15650079733E+04  0.88780118295E+03 -0.29289222348E+02  0.17995273700E+04  0.50400001928E-02 0. -1.
</event>
<event>
 5   0  0.2494592E-08  0.3600264E+04  0.7818609E-02  0.8090431E-01
       -2   -1    0    0    0  501  0.00000000000E+00  0.00000000000E+00  0.14975644358E+04  0.14975644358E+04  0.25500000920E-02 0.  1.
        2   -1    0    0  501    0  0.00000000000E+00  0.00000000000E+00 -0.21638299396E+04  0.21638299396E+04  0.25500000920E-02 0. -1.
    10030    2    1    2    0    0  0.00000000000E+00  0.00000000000E+00 -0.66626550382E+03  0.36613943754E+04  0.36002637473E+04 0.  0.
        1    1    3    3  502    0  0.13890918969E+04 -0.11186007819E+04 -0.84792368329E+02  0.17855065816E+04  0.50400001928E-02 0.  1.
       -1    1    3    3    0  502 -0.13890918969E+04  0.11186007819E+04 -0.58147313549E+03  0.18758877937E+04  0.50400001928E-02 0. -1.
</event>
<event>
 5   0  0.8063410E-09  0.3600318E+04  0.7818609E-02  0.8090419E-01
        1   -1    0    0  501    0  0.00000000000E+00  0.00000000000E+00  0.10923756241E+04  0.10923756242E+04  0.50400001928E-02 0.  1.
       -1   -1    0    0    0  501  0.00000000000E+00  0.00000000000E+00 -0.29665365228E+04  0.29665365228E+04  0.50400001928E-02 0. -1.
    10030    2    1    2    0    0  0.00000000000E+00  0.00000000000E+00 -0.18741608987E+04  0.40589121470E+04  0.36003178669E+04 0.  0.
        2    1    3    3  502    0 -0.36981493199E+03  0.16298926223E+04 -0.18312025341E+03  0.16813227148E+04  0.25500000920E-02 0.  1.
       -2    1    3    3    0  502  0.36981493199E+03 -0.16298926223E+04 -0.16910406453E+04  0.23775894322E+04  0.25500000920E-02 0. -1.
</event>
<event>
 5   0  0.2494592E-08  0.3599943E+04  0.7818609E-02  0.8090505E-01
       -2   -1    0    0    0  501  0.00000000000E+00  0.00000000000E+00  0.18349263849E+04  0.18349263849E+04  0.25500000920E-02 0.  1.
        2   -1    0    0  501    0  0.00000000000E+00  0.00000000000E+00 -0.17656824580E+04  0.17656824580E+04  0.25500000920E-02 0. -1.
    10030    2    1    2    0    0  0.00000000000E+00  0.00000000000E+00  0.69243926869E+02  0.36006088429E+04  0.35999429604E+04 0.  0.
        1    1    3    3  502    0 -0.17182295774E+04  0.53500290088E+03 -0.22134363381E+01  0.17995960335E+04  0.50400001928E-02 0.  1.
       -1    1    3    3    0  502  0.17182295774E+04 -0.53500290088E+03  0.71457363207E+02  0.18010128093E+04  0.50400001928E-02 0. -1.
</event>
<event>
 5   0  0.8024500E-09  0.3597925E+04  0.7818609E-02  0.8090967E-01
       -1   -1    0    0    0  501  0.00000000000E+00  0.00000000000E+00  0.12987047837E+04  0.12987047837E+04  0.50400001928E-02 0.  1.
        1   -1    0    0  501    0  0.00000000000E+00  0.00000000000E+00 -0.24919185083E+04  0.24919185084E+04  0.50400001928E-02 0. -1.
    10030    2    1    2    0    0  0.00000000000E+00  0.00000000000E+00 -0.11932137247E+04  0.37906232920E+04  0.35979252284E+04 0.  0.
        5    1    3    3  502    0  0.47241496274E+02 -0.87193409857E+03  0.10604439732E+04  0.13737046049E+04  0.46999998093E+01 0.  1.
       -5    1    3    3    0  502 -0.47241496274E+02  0.87193409857E+03 -0.22536576979E+04  0.24169186872E+04  0.46999998093E+01 0. -1.
</event>
<event>
 5   0  0.8247570E-09  0.3599377E+04  0.7818609E-02  0.8090634E-01
       -1   -1    0    0    0  501  0.00000000000E+00  0.00000000000E+00  0.17360393997E+04  0.17360393997E+04  0.50400001928E-02 0. -1.
        1   -1    0    0  501    0  0.00000000000E+00  0.00000000000E+00 -0.18656708386E+04  0.18656708386E+04  0.50400001928E-02 0.  1.
    10030    2    1    2    0    0  0.00000000000E+00  0.00000000000E+00 -0.12963143887E+03  0.36017102383E+04  0.35993766586E+04 0.  0.
        3    1    3    3  502    0  0.61519617886E+03 -0.12060291900E+03 -0.17528791012E+04  0.18616112796E+04  0.10100000352E+00 0.  1.
       -3    1    3    3    0  502 -0.61519617886E+03  0.12060291900E+03  0.16232476623E+04  0.17400989587E+04  0.10100000352E+00 0. -1.
</event>
<event>
 5   0  0.2590795E-08  0.3604288E+04  0.7818609E-02  0.8089510E-01
        2   -1    0    0  501    0  0.00000000000E+00  0.00000000000E+00  0.17640920765E+04  0.17640920765E+04  0.25500000920E-02 0. -1.
       -2   -1    0    0    0  501  0.00000000000E+00  0.00000000000E+00 -0.18410163543E+04  0.18410163543E+04  0.25500000920E-02 0.  1.
    10030    2    1    2    0    0  0.00000000000E+00  0.00000000000E+00 -0.76924277828E+02  0.36051084307E+04  0.36042876485E+04 0.  0.
        4    1    3    3  502    0  0.86927935416E+03  0.91489233299E+03 -0.13252410813E+04  0.18300109598E+04  0.12699999809E+01 0.  1.
       -4    1    3    3    0  502 -0.86927935416E+03 -0.91489233299E+03  0.12483168035E+04  0.17750974709E+04  0.12699999809E+01 0. -1.
</event>
<event>
 5   0  0.8024500E-09  0.3599601E+04  0.7818609E-02  0.8090583E-01
       -1   -1    0    0    0  501  0.00000000000E+00  0.00000000000E+00  0.13578473966E+04  0.13578473966E+04  0.50400001928E-02 0. -1.
        1   -1    0    0  501    0  0.00000000000E+00  0.00000000000E+00 -0.23856009469E+04  0.23856009469E+04  0.50400001928E-02 0.  1.
    10030    2    1    2    0    0  0.00000000000E+00  0.00000000000E+00 -0.10277535503E+04  0.37434483435E+04  0.35996011085E+04 0.  0.
        1    1    3    3  502    0  0.96198876919E+03 -0.15206975071E+04 -0.47582588873E+03  0.18612774045E+04  0.50400001928E-02 0. -1.
       -1    1    3    3    0  502 -0.96198876919E+03  0.15206975071E+04 -0.55192766155E+03  0.18821709390E+04  0.50400001928E-02 0.  1.
</event>
<event>
 5   0  0.2608070E-08  0.3600186E+04  0.7818609E-02  0.8090449E-01
        2   -1    0    0  501    0  0.00000000000E+00  0.00000000000E+00  0.18620624517E+04  0.18620624517E+04  0.25500000920E-02 0.  1.
       -2   -1    0    0    0  501  0.00000000000E+00  0.00000000000E+00 -0.17401860483E+04  0.17401860483E+04  0.25500000920E-02 0. -1.
    10030    2    1    2    0    0  0.00000000000E+00  0.00000000000E+00  0.12187640343E+03  0.36022485000E+04  0.36001861615E+04 0.  0.
        3    1    3    3  502    0  0.10446195373E+04 -0.83944133151E+03 -0.11416002436E+04  0.17604382560E+04  0.10100000352E+00 0. -1.
       -3    1    3    3    0  502 -0.10446195373E+04  0.83944133151E+03  0.12634766471E+04  0.18418102439E+04  0.10100000352E+00 0.  1.
</event>
<event>
 5   0  0.2608070E-08  0.3600461E+04  0.7818609E-02  0.8090386E-01
        2   -1    0    0  501    0  0.00000000000E+00  0.00000000000E+00  0.32247997835E+04  0.32247997835E+04  0.25500000920E-02 0. -1.
       -2   -1    0    0    0  501  0.00000000000E+00  0.00000000000E+00 -0.10049710362E+04  0.10049710362E+04  0.25500000920E-02 0.  1.
    10030    2    1    2    0    0  0.00000000000E+00  0.00000000000E+00  0.22198287474E+04  0.42297708197E+04  0.36004612926E+04 0.  0.
        3    1    3    3  502    0  0.15688071069E+04  0.71812086923E+03  0.50632473688E+03  0.17981151439E+04  0.10100000352E+00 0.  1.
       -3    1    3    3    0  502 -0.15688071069E+04 -0.71812086923E+03  0.17135040105E+04  0.24316556758E+04  0.10100000352E+00 0. -1.
</event>
<event>
 5   0  0.2608070E-08  0.3599319E+04  0.7818609E-02  0.8090648E-01
       -2   -1    0    0    0  501  0.00000000000E+00  0.00000000000E+00  0.26241081253E+04  0.26241081253E+04  0.25500000920E-02 0.  1.
        2   -1    0    0  501    0  0.00000000000E+00  0.00000000000E+00 -0.12342381986E+04  0.12342381986E+04  0.25500000920E-02 0. -1.
    10030    2    1    2    0    0  0.00000000000E+00  0.00000000000E+00  0.13898699268E+04  0.38583463239E+04  0.35993190942E+04 0.  0.
        3    1    3    3  502    0 -0.33196175767E+03  0.13702172634E+04  0.18939468469E+04  0.23610863234E+04  0.10100000352E+00 0.  1.
       -3    1    3    3    0  502  0.33196175767E+03 -0.13702172634E+04 -0.50407692018E+03  0.14972600005E+04  0.10100000352E+00 0. -1.
</event>
<event>
 5   0  0.8063410E-09  0.3600927E+04  0.7818609E-02  0.8090279E-01
        1   -1    0    0  501    0  0.00000000000E+00  0.00000000000E+00  0.22344456947E+04  0.22344456947E+04  0.50400001928E-02 0. -1.
       -1   -1    0    0    0  501  0.00000000000E+00  0.00000000000E+00 -0.14507705143E+04  0.14507705143E+04  0.50400001928E-02 0.  1.
    10030    2    1    2    0    0  0.00000000000E+00  0.00000000000E+00  0.78367518043E+03  0.36852162090E+04  0.36009265084E+04 0.  0.
        2    1    3    3  502    0  0.13162927285E+04  0.98658100995E+03  0.11408849051E+04  0.20018958522E+04  0.25500000920E-02 0. -1.
       -2    1    3    3    0  502 -0.13162927285E+04 -0.98658100995E+03 -0.35720972471E+03  0.16833203568E+04  0.25500000920E-02 0.  1.
</event>
<event>
 5   0  0.2482243E-08  0.3602372E+04  0.7818609E-02  0.8089949E-01
       -2   -1    0    0    0  501  0.00000000000E+00  0.00000000000E+00  0.21908624120E+04  0.21908624120E+04  0.25500000920E-02 0. -1.
        2   -1    0    0  501    0  0.00000000000E+00  0.00000000000E+00 -0.14808191350E+04  0.14808191350E+04  0.25500000920E-02 0.  1.
    10030    2    1    2    0    0  0.00000000000E+00  0.00000000000E+00  0.71004327703E+03  0.36716815470E+04  0.36023719863E+04 0.  0.
        5    1    3    3  502    0  0.15673338950E+03  0.58425912954E+03  0.20842261122E+04  0.21702406923E+04  0.46999998093E+01 0. -1.
       -5    1    3    3    0  502 -0.15673338950E+03 -0.58425912954E+03 -0.13741828351E+04  0.15014408547E+04  0.46999998093E+01 0.  1.
</event>
<event>
 5   0  0.2482243E-08  0.3615703E+04  0.7818609E-02  0.8086904E-01
        2   -1    0    0  501    0  0.00000000000E+00  0.00000000000E+00  0.23877926391E+04  0.23877926391E+04  0.25500000920E-02 0.  1.
       -2   -1    0    0    0  501  0.00000000000E+00  0.00000000000E+00 -0.13687650296E+04  0.13687650296E+04  0.25500000920E-02 0. -1.
    10030    2    1    2    0    0  0.00000000000E+00  0.00000000000E+00  0.10190276096E+04  0.37565576687E+04  0.36157030090E+04 0.  0.
        5    1    3    3  502    0 -0.96969995929E+03  0.10356204076E+04  0.16736445187E+04  0.21940682999E+04  0.46999998093E+01 0.  1.
       -5    1    3    3    0  502  0.96969995929E+03 -0.10356204076E+04 -0.65461690912E+03  0.15624893688E+04  0.46999998093E+01 0. -1.
</event>
<event>
 5   0  0.2590795E-08  0.3600036E+04  0.7818609E-02  0.8090484E-01
       -2   -1    0    0    0  501  0.00000000000E+00  0.00000000000E+00  0.18596231356E+04  0.18596231356E+04  0.25500000920E-02 0.  1.
        2   -1    0    0  501    0  0.00000000000E+00  0.00000000000E+00 -0.17423229159E+04  0.17423229159E+04  0.25500000920E-02 0. -1.
    10030    2    1    2    0    0  0.00000000000E+00  0.00000000000E+00  0.11730021972E+03  0.36019460515E+04  0.36000355577E+04 0.  0.
        4    1    3    3  502    0 -0.16380360033E+04  0.11390821149E+02 -0.68791655940E+03  0.17766604922E+04  0.12699999809E+01 0. -1.
       -4    1    3    3    0  502  0.16380360033E+04 -0.11390821149E+02  0.80521677912E+03  0.18252855593E+04  0.12699999809E+01 0.  1.
</event>
<event>
 5   0  0.2590795E-08  0.3596477E+04  0.7818609E-02  0.8091299E-01
        2   -1    0    0  501    0  0.00000000000E+00  0.00000000000E+00  0.24364086354E+04  0.24364086354E+04  0.25500000920E-02 0. -1.
       -2   -1    0    0    0  501  0.00000000000E+00  0.00000000000E+00 -0.13272248924E+04  0.13272248924E+04  0.25500000920E-02 0.  1.
    10030    2    1    2    0    0  0.00000000000E+00  0.00000000000E+00  0.11091837430E+04  0.37636335279E+04  0.35964772704E+04 0.  0.
        4    1    3    3  502    0 -0.15912380626E+04  0.83682283270E+03  0.59303552660E+03  0.18931465273E+04  0.12699999809E+01 0. -1.
       -4    1    3    3    0  502  0.15912380626E+04 -0.83682283270E+03  0.51614821643E+03  0.18704870006E+04  0.12699999809E+01 0.  1.
</event>
<event>
 5   0  0.8146881E-09  0.3601215E+04  0.7818609E-02  0.8090213E-01
       -1   -1    0    0    0  501  0.00000000000E+00  0.00000000000E+00  0.14266219924E+04  0.14266219924E+04  0.50400001928E-02 0.  1.
        1   -1    0    0  501    0  0.00000000000E+00  0.00000000000E+00 -0.22726321884E+04  0.22726321884E+04  0.50400001928E-02 0. -1.
    10030    2    1    2    0    0  0.00000000000E+00  0.00000000000E+00 -0.84601019595E+03  0.36992541808E+04  0.36012148287E+04 0.  0.
        4    1    3    3  502    0  0.40349888821E+03 -0.10572687038E+04  0.10156795455E+04  0.15206035041E+04  0.12699999809E+01 0.  1.
       -4    1    3    3    0  502 -0.40349888821E+03  0.10572687038E+04 -0.18616897414E+04  0.21786506767E+04  0.12699999809E+01 0. -1.
</event>
<event>
 5   0  0.2608070E-08  0.3599346E+04  0.7818609E-02  0.8090642E-01
       -2   -1    0    0    0  501  0.00000000000E+00  0.00000000000E+00  0.23523991034E+04  0.23523991034E+04  0.25500000920E-02 0. -1.
        2   -1    0    0  501    0  0.00000000000E+00  0.00000000000E+00 -0.13768169452E+04  0.13768169452E+04  0.25500000920E-02 0.  1.
    10030    2    1    2    0    0  0.00000000000E+00  0.00000000000E+00  0.97558215819E+03  0.37292160485E+04  0.35993460224E+04 0.  0.
        3    1    3    3  502    0  0.81228855287E+03  0.23991781262E+03  0.21329925851E+04  0.22950012262E+04  0.10100000352E+00 0. -1.
       -3    1    3    3    0  502 -0.81228855287E+03 -0.23991781262E+03 -0.11574104269E+04  0.14342148223E+04  0.10100000352E+00 0.  1.
</event>
<event>
 5   0  0.8146881E-09  0.3600604E+04  0.7818609E-02  0.8090353E-01
        1   -1    0    0  501    0  0.00000000000E+00  0.00000000000E+00  0.21982220322E+04  0.21982220322E+04  0.50400001928E-02 0. -1.
       -1   -1    0    0    0  501  0.00000000000E+00  0.00000000000E+00 -0.14744134177E+04  0.14744134177E+04  0.50400001928E-02 0.  1.
    10030    2    1    2    0    0  0.00000000000E+00  0.00000000000E+00  0.72380861456E+03  0.36726354499E+04  0.36006044267E+04 0.  0.
        4    1    3    3  502    0 -0.10760010482E+04  0.82323741792E+03  0.15711971554E+04  0.20746470100E+04  0.12699999809E+01 0. -1.
       -4    1    3    3    0  502  0.10760010482E+04 -0.82323741792E+03 -0.84738854085E+03  0.15979884399E+04  0.12699999809E+01 0.  1.
</event>
<event>
 5   0  0.2494592E-08  0.3593284E+04  0.7818609E-02  0.8092032E-01
        2   -1    0    0  501    0  0.00000000000E+00  0.00000000000E+00  0.22143219933E+04  0.22143219933E+04  0.25500000920E-02 0. -1.
       -2   -1    0    0    0  501  0.00000000000E+00  0.00000000000E+00 -0.14577472865E+04  0.14577472865E+04  0.25500000920E-02 0.  1.
    10030    2    1    2    0    0  0.00000000000E+00  0.00000000000E+00  0.75657470681E+03  0.36720692799E+04  0.35932836667E+04 0.  0.
        1    1    3    3  502    0  0.80325673200E+03  0.64272947414E+03 -0.11269643638E+04  0.15259001382E+04  0.50400001928E-02 0.  1.
       -1    1    3    3    0  502 -0.80325673200E+03 -0.64272947414E+03  0.18835390706E+04  0.21461691417E+04  0.50400001928E-02 0. -1.
</event>
<event>
 5   0  0.2476968E-08  0.3598004E+04  0.7818609E-02  0.8090949E-01
        2   -1    0    0  501    0  0.00000000000E+00  0.00000000000E+00  0.14616804260E+04  0.14616804260E+04  0.25500000920E-02 0.  1.
       -2   -1    0    0    0  501  0.00000000000E+00  0.00000000000E+00 -0.22141696374E+04  0.22141696374E+04  0.25500000920E-02 0. -1.
    10030    2    1    2    0    0  0.00000000000E+00  0.00000000000E+00 -0.75248921144E+03  0.36758500634E+04  0.35980041238E+04 0.  0.
        2    1    3    3  502    0 -0.99474859715E+03  0.14059770076E+04  0.15472335133E+03  0.17292297225E+04  0.25500000920E-02 0.  1.
       -2    1    3    3    0  502  0.99474859715E+03 -0.14059770076E+04 -0.90721256277E+03  0.19466203409E+04  0.25500000920E-02 0. -1.
</event>
<event>
 5   0  0.8024500E-09  0.3602170E+04  0.7818609E-02  0.8089995E-01
        1   -1    0    0  501    0  0.00000000000E+00  0.00000000000E+00  0.18664129432E+04  0.18664129432E+04  0.50400001928E-02 0. -1.
       -1   -1    0    0    0  501  0.00000000000E+00  0.00000000000E+00 -0.17380440956E+04  0.17380440956E+04  0.50400001928E-02 0.  1.
    10030    2    1    2    0    0  0.00000000000E+00  0.00000000000E+00  0.12836884757E+03  0.36044570388E+04  0.36021704545E+04 0.  0.
        1    1    3    3  502    0 -0.10999471097E+03  0.57789266715E+03  0.17675720436E+04  0.18628928312E+04  0.50400001928E-02 0. -1.
       -1    1    3    3    0  502  0.10999471097E+03 -0.57789266715E+03 -0.16392031960E+04  0.17415642076E+04  0.50400001928E-02 0.  1.
</event>
<event>
 5   0  0.8063410E-09  0.3599622E+04  0.7818609E-02  0.8090578E-01
        1   -1    0    0  501    0  0.00000000000E+00  0.00000000000E+00  0.15987043086E+04  0.15987043086E+04  0.50400001928E-02 0.  1.
       -1   -1    0    0    0  501  0.00000000000E+00  0.00000000000E+00 -0.20262155038E+04  0.20262155038E+04  0.50400001928E-02 0. -1.
    10030    2    1    2    0    0  0.00000000000E+00  0.00000000000E+00 -0.42751119521E+03  0.36249198125E+04  0.35996219003E+04 0.  0.
        2    1    3    3  502    0  0.86839299172E+03  0.40817333261E+03  0.13196432972E+04  0.16316158523E+04  0.25500000920E-02 0.  1.
       -2    1    3    3    0  502 -0.86839299172E+03 -0.40817333261E+03 -0.17471544924E+04  0.19933039602E+04  0.25500000920E-02 0. -1.
</event>
<event>
 5   0  0.2590795E-08  0.3600744E+04  0.7818609E-02  0.8090321E-01
        2   -1    0    0  501    0  0.00000000000E+00  0.00000000000E+00  0.22272855015E+04  0.22272855015E+04  0.25500000920E-02 0.  1.
       -2   -1    0    0    0  501  0.00000000000E+00  0.00000000000E+00 -0.14552866958E+04  0.14552866958E+04  0.25500000920E-02 0. -1.
    10030    2    1    2    0    0  0.00000000000E+00  0.00000000000E+00  0.77199880570E+03  0.36825721972E+04  0.36007437887E+04 0.  0.
        4    1    3    3  502    0  0.60460126646E+03 -0.45981789065E+03 -0.12833824125E+04  0.14913239801E+04  0.12699999809E+01 0. -1.
       -4    1    3    3    0  502 -0.60460126646E+03  0.45981789065E+03  0.20553812182E+04  0.21912482171E+04  0.12699999809E+01 0.  1.
</event>
<event>
 5   0  0.2590795E-08  0.3603397E+04  0.7818609E-02  0.8089714E-01
       -2   -1    0    0    0  501  0.00000000000E+00  0.00000000000E+00  0.13175457067E+04  0.13175457067E+04  0.25500000920E-02 0. -1.
        2   -1    0    0  501    0  0.00000000000E+00  0.00000000000E+00 -0.24637608868E+04  0.24637608868E+04  0.25500000920E-02 0.  1.
    10030    2    1    2    0    0  0.00000000000E+00  0.00000000000E+00 -0.11462151801E+04  0.37813065935E+04  0.36033970521E+04 0.  0.
        4    1    3    3  502    0 -0.59687796425E+03  0.99793953383E+03 -0.20172706969E+04  0.23284177664E+04  0.12699999809E+01 0.  1.
       -4    1    3    3    0  502  0.59687796425E+03 -0.99793953383E+03  0.87105551686E+03  0.14528888270E+04  0.12699999809E+01 0. -1.
</event>
<event>
 5   0  0.8146881E-09  0.3618173E+04  0.7818609E-02  0.8086342E-01
       -1   -1    0    0    0  501  0.00000000000E+00  0.00000000000E+00  0.13823663255E+04  0.13823663255E+04  0.50400001928E-02 0.  1.
        1   -1    0    0  501    0  0.00000000000E+00  0.00000000000E+00 -0.23675296080E+04  0.23675296081E+04  0.50400001928E-02 0. -1.
    10030    2    1    2    0    0  0.00000000000E+00  0.00000000000E+00 -0.98516328251E+03  0.37498959336E+04  0.36181725801E+04 0.  0.
        4    1    3    3  502    0  0.78251459129E+03 -0.12220767797E+04 -0.16121836345E+04  0.21690870027E+04  0.12699999809E+01 0. -1.
       -4    1    3    3    0  502 -0.78251459129E+03  0.12220767797E+04  0.62702035203E+03  0.15808089309E+04  0.12699999809E+01 0.  1.
</event>
<event>
 5   0  0.8063410E-09  0.3599819E+04  0.7818609E-02  0.8090533E-01
        1   -1    0    0  501    0  0.00000000000E+00  0.00000000000E+00  0.21031014519E+04  0.21031014519E+04  0.50400001928E-02 0. -1.
       -1   -1    0    0    0  501  0.00000000000E+00  0.00000000000E+00 -0.15404272971E+04  0.15404272971E+04  0.50400001928E-02 0.  1.
    10030    2    1    2    0    0  0.00000000000E+00  0.00000000000E+00  0.56267415480E+03  0.36435287490E+04  0.35998193760E+04 0.  0.
        2    1    3    3  502    0  0.66727485038E+03 -0.14249258066E+04  0.11660243160E+04  0.19583875984E+04  0.25500000920E-02 0. -1.
       -2    1    3    3    0  502 -0.66727485038E+03  0.14249258066E+04 -0.60335016119E+03  0.16851411505E+04  0.25500000920E-02 0.  1.
</event>
<event>
 5   0  0.2482243E-08  0.3599286E+04  0.7818609E-02  0.8090655E-01
        2   -1    0    0  501    0  0.00000000000E+00  0.00000000000E+00  0.24009247744E+04  0.24009247744E+04  0.25500000920E-02 0. -1.
       -2   -1    0    0    0  501  0.00000000000E+00  0.00000000000E+00 -0.13489444295E+04  0.13489444295E+04  0.25500000920E-02 0.  1.
    10030    2    1    2    0    0  0.00000000000E+00  0.00000000000E+00  0.10519803449E+04  0.37498692039E+04  0.35992855403E+04 0.  0.
        5    1    3    3  502    0  0.16829820808E+04 -0.56203842068E+03  0.21278659713E+03  0.17870691359E+04  0.46999998093E+01 0.  1.
       -5    1    3    3    0  502 -0.16829820808E+04  0.56203842068E+03  0.83919374782E+03  0.19628000680E+04  0.46999998093E+01 0. -1.
</event>
<event>
 5   0  0.2482243E-08  0.3596480E+04  0.7818609E-02  0.8091298E-01
        2   -1    0    0  501    0  0.00000000000E+00  0.00000000000E+00  0.11895935638E+04  0.11895935638E+04  0.25500000920E-02 0.  1.
       -2   -1    0    0    0  501  0.00000000000E+00  0.00000000000E+00 -0.27182964631E+04  0.27182964631E+04  0.25500000920E-02 0. -1.
    10030    2    1    2    0    0  0.00000000000E+00  0.00000000000E+00 -0.15287028992E+04  0.39078900269E+04  0.35964804891E+04 0.  0.
        5    1    3    3  502    0 -0.17063529014E+04 -0.56724361244E+03 -0.78119695210E+03  0.19605346995E+04  0.46999998093E+01 0.  1.
       -5    1    3    3    0  502  0.17063529014E+04  0.56724361244E+03 -0.74750594713E+03  0.19473553274E+04  0.46999998093E+01 0. -1.
</event>
<event>
 5   0  0.8024500E-09  0.3597146E+04  0.7818609E-02  0.8091146E-01
       -1   -1    0    0    0  501  0.00000000000E+00  0.00000000000E+00  0.16199227463E+04  0.16199227463E+04  0.50400001928E-02 0. -1.
        1   -1    0    0  501    0  0.00000000000E+00  0.00000000000E+00 -0.19969249369E+04  0.19969249369E+04  0.50400001928E-02 0.  1.
    10030    2    1    2    0    0  0.00000000000E+00  0.00000000000E+00 -0.37700219053E+03  0.36168476832E+04  0.35971456062E+04 0.  0.
        5    1    3    3  502    0  0.11480281670E+04  0.11209503093E+04 -0.10055672937E+04  0.18935907531E+04  0.46999998093E+01 0.  1.
       -5    1    3    3    0  502 -0.11480281670E+04 -0.11209503093E+04  0.62856510322E+03  0.17232569301E+04  0.46999998093E+01 0. -1.
</event>
<event>
 5   0  0.2476968E-08  0.3600072E+04  0.7818609E-02  0.8090475E-01
       -2   -1    0    0    0  501  0.00000000000E+00  0.00000000000E+00  0.16511521562E+04  0.16511521562E+04  0.25500000920E-02 0.  1.
        2   -1    0    0  501    0  0.00000000000E+00  0.00000000000E+00 -0.19623448325E+04  0.19623448325E+04  0.25500000920E-02 0. -1.
    10030    2    1    2    0    0  0.00000000000E+00  0.00000000000E+00 -0.31119267631E+03  0.36134969887E+04  0.36000721667E+04 0.  0.
        2    1    3    3  502    0 -0.67920060795E+03  0.11307038377E+04  0.10738489365E+04  0.17008692404E+04  0.25500000920E-02 0.  1.
       -2    1    3    3    0  502  0.67920060795E+03 -0.11307038377E+04 -0.13850416128E+04  0.19126277483E+04  0.25500000920E-02 0. -1.
</event>
<event>
 5   0  0.8146881E-09  0.3598616E+04  0.7818609E-02  0.8090809E-01
        1   -1    0    0  501    0  0.00000000000E+00  0.00000000000E+00  0.20266868237E+04  0.20266868237E+04  0.50400001928E-02 0. -1.
       -1   -1    0    0    0  501  0.00000000000E+00  0.00000000000E+00 -0.15974390258E+04  0.15974390258E+04  0.50400001928E-02 0.  1.
    10030    2    1    2    0    0  0.00000000000E+00  0.00000000000E+00  0.42924779791E+03  0.36241258495E+04  0.35986156367E+04 0.  0.
        4    1    3    3  502    0  0.20950998503E+03 -0.29162972414E+02  0.20141207347E+04  0.20251984742E+04  0.12699999809E+01 0. -1.
       -4    1    3    3    0  502 -0.20950998503E+03  0.29162972414E+02 -0.15848729368E+04  0.15989273753E+04  0.12699999809E+01 0.  1.
</event>
<event>
 5   0  0.2608070E-08  0.3598113E+04  0.7818609E-02  0.8090924E-01
        2   -1    0    0  501    0  0.00000000000E+00  0.00000000000E+00  0.16911364829E+04  0.16911364829E+04  0.25500000920E-02 0.  1.
       -2   -1    0    0    0  501  0.00000000000E+00  0.00000000000E+00 -0.19138629713E+04  0.19138629713E+04  0.25500000920E-02 0. -1.
    10030    2    1    2    0    0  0.00000000000E+00  0.00000000000E+00 -0.22272648848E+03  0.36049994542E+04  0.35981125574E+04 0.  0.
        3    1    3    3  502    0  0.49274290028E+03 -0.11159936490E+04 -0.14361520388E+04  0.18843487149E+04  0.10100000352E+00 0. -1.
       -3    1    3    3    0  502 -0.49274290028E+03  0.11159936490E+04  0.12134255503E+04  0.17206507393E+04  0.10100000352E+00 0.  1.
</event>
<event>
 5   0  0.8024500E-09  0.3599795E+04  0.7818609E-02  0.8090539E-01
       -4   -1    0    0    0  501  0.00000000000E+00  0.00000000000E+00  0.20200916950E+04  0.20200920943E+04  0.12699999809E+01 0.  1.
        4   -1    0    0  501    0  0.00000000000E+00  0.00000000000E+00 -0.16037038359E+04  0.16037043388E+04  0.12699999809E+01 0. -1.
    10030    2    1    2    0    0  0.00000000000E+00  0.00000000000E+00  0.41638785913E+03  0.36237964330E+04  0.35997946801E+04 0.  0.
        3    1    3    3  502    0 -0.71057700869E+03  0.65797438899E+03  0.17354716282E+04  0.19873881766E+04  0.10100000352E+00 0.  1.
       -3    1    3    3    0  502  0.71057700869E+03 -0.65797438899E+03 -0.13190837691E+04  0.16364082565E+04  0.10100000352E+00 0. -1.
</event>
<event>
 5   0  0.2476968E-08  0.3598819E+04  0.7818609E-02  0.8090762E-01
       -2   -1    0    0    0  501  0.00000000000E+00  0.00000000000E+00  0.17031781953E+04  0.17031781953E+04  0.25500000920E-02 0.  1.
        2   -1    0    0  501    0  0.00000000000E+00  0.00000000000E+00 -0.19010781575E+04  0.19010781575E+04  0.25500000920E-02 0. -1.
    10030    2    1    2    0    0  0.00000000000E+00  0.00000000000E+00 -0.19789996223E+03  0.36042563529E+04  0.35988191761E+04 0.  0.
        2    1    3    3  502    0  0.51880158619E+03 -0.10688936757E+04  0.12544562195E+04  0.17278163046E+04  0.25500000920E-02 0.  1.
       -2    1    3    3    0  502 -0.51880158619E+03  0.10688936757E+04 -0.14523561818E+04  0.18764400482E+04  0.25500000920E-02 0. -1.
</event>
<event>
 5   0  0.8247570E-09  0.3599231E+04  0.7818609E-02  0.8090668E-01
        1   -1    0    0  501    0  0.00000000000E+00  0.00000000000E+00  0.15221393552E+04  0.15221393552E+04  0.50400001928E-02 0. -1.
       -1   -1    0    0    0  501  0.00000000000E+00  0.00000000000E+00 -0.21276739590E+04  0.21276739591E+04  0.50400001928E-02 0.  1.
    10030    2    1    2    0    0  0.00000000000E+00  0.00000000000E+00 -0.60553460382E+03  0.36498133143E+04  0.35992311780E+04 0.  0.
        3    1    3    3  502    0 -0.70135575759E+03 -0.15408703865E+04  0.31608362056E+03  0.17222341049E+04  0.10100000352E+00 0. -1.
       -3    1    3    3    0  502  0.70135575759E+03  0.15408703865E+04 -0.92161822438E+03  0.19275792094E+04  0.10100000352E+00 0.  1.
</event>
<event>
 5   0  0.2476968E-08  0.3602217E+04  0.7818609E-02  0.8089984E-01
        2   -1    0    0  501    0  0.00000000000E+00  0.00000000000E+00  0.23015671439E+04  0.23015671439E+04  0.25500000920E-02 0. -1.
       -2   -1    0    0    0  501  0.00000000000E+00  0.00000000000E+00 -0.14094707395E+04  0.14094707395E+04  0.25500000920E-02 0.  1.
    10030    2    1    2    0    0  0.00000000000E+00  0.00000000000E+00  0.89209640438E+03  0.37110378834E+04  0.36022168421E+04 0.  0.
        2    1    3    3  502    0  0.53682733628E+03  0.70371656633E+03  0.20620626771E+04  0.22439926646E+04  0.25500000920E-02 0. -1.
       -2    1    3    3    0  502 -0.53682733628E+03 -0.70371656633E+03 -0.11699662727E+04  0.14670452188E+04  0.25500000920E-02 0.  1.
</event>
<event>
 5   0  0.8024500E-09  0.3600178E+04  0.7818609E-02  0.8090451E-01
        1   -1    0    0  501    0  0.00000000000E+00  0.00000000000E+00  0.21656192234E+04  0.21656192234E+04  0.50400001928E-02 0.  1.
       -1   -1    0    0    0  501  0.00000000000E+00  0.00000000000E+00 -0.14962557447E+04  0.14962557447E+04  0.50400001928E-02 0. -1.
    10030    2    1    2    0    0  0.00000000000E+00  0.00000000000E+00  0.66936347868E+03  0.36618749681E+04  0.36001778866E+04 0.  0.
        5    1    3    3  502    0  0.35376093210E+03 -0.16935301224E+03 -0.14522610282E+04  0.15042976513E+04  0.46999998093E+01 0. -1.
       -5    1    3    3    0  502 -0.35376093210E+03  0.16935301224E+03  0.21216245068E+04  0.21575773168E+04  0.46999998093E+01 0.  1.
</event>
<event>
 5   0  0.8146881E-09  0.3599923E+04  0.7818609E-02  0.8090509E-01
       -1   -1    0    0    0  501  0.00000000000E+00  0.00000000000E+00  0.19120300748E+04  0.19120300748E+04  0.50400001928E-02 0.  1.
        1   -1    0    0  501    0  0.00000000000E+00  0.00000000000E+00 -0.16944612280E+04  0.16944612280E+04  0.50400001928E-02 0. -1.
    10030    2    1    2    0    0  0.00000000000E+00  0.00000000000E+00  0.21756884676E+03  0.36064913028E+04  0.35999226817E+04 0.  0.
        4    1    3    3  502    0  0.33403125890E+03 -0.17624657537E+04 -0.39799381779E+02  0.17942820343E+04  0.12699999809E+01 0.  1.
       -4    1    3    3    0  502 -0.33403125890E+03  0.17624657537E+04  0.25736822853E+03  0.18122092685E+04  0.12699999809E+01 0. -1.
</event>
<event>
 5   0  0.2608070E-08  0.3598926E+04  0.7818609E-02  0.8090738E-01
        2   -1    0    0  501    0  0.00000000000E+00  0.00000000000E+00  0.13409974759E+04  0.13409974759E+04  0.25500000920E-02 0. -1.
       -2   -1    0    0    0  501  0.00000000000E+00  0.00000000000E+00 -0.24146699116E+04  0.24146699116E+04  0.25500000920E-02 0.  1.
    10030    2    1    2    0    0  0.00000000000E+00  0.00000000000E+00 -0.10736724357E+04  0.37556673875E+04  0.35989255377E+04 0.  0.
        3    1    3    3  502    0 -0.99801295553E+03 -0.13533887699E+03 -0.20929963721E+04  0.23227096880E+04  0.10100000352E+00 0.  1.
       -3    1    3    3    0  502  0.99801295553E+03  0.13533887699E+03  0.10193239364E+04  0.14329576995E+04  0.10100000352E+00 0. -1.
</event>
<event>
 5   0  0.8247570E-09  0.3599454E+04  0.7818609E-02  0.8090617E-01
        1   -1    0    0  501    0  0.00000000000E+00  0.00000000000E+00  0.15984288758E+04  0.15984288758E+04  0.50400001928E-02 0. -1.
       -1   -1    0    0    0  501  0.00000000000E+00  0.00000000000E+00 -0.20263751868E+04  0.20263751868E+04  0.50400001928E-02 0.  1.
    10030    2    1    2    0    0  0.00000000000E+00  0.00000000000E+00 -0.42794631101E+03  0.36248040626E+04  0.35994536317E+04 0.  0.
        3    1    3    3  502    0  0.14021381402E+02 -0.30593009042E+03  0.15719959218E+04  0.16015495645E+04  0.10100000352E+00 0. -1.
       -3    1    3    3    0  502 -0.14021381402E+02  0.30593009042E+03 -0.19999422328E+04  0.20232544981E+04  0.10100000352E+00 0.  1.
</event>
<event>
 5   0  0.8063410E-09  0.3599696E+04  0.7818609E-02  0.8090561E-01
       -1   -1    0    0    0  501  0.00000000000E+00  0.00000000000E+00  0.10469408928E+04  0.10469408929E+04  0.50400001928E-02 0. -1.
        1   -1    0    0  501    0  0.00000000000E+00  0.00000000000E+00 -0.30942074362E+04  0.30942074362E+04  0.50400001928E-02 0.  1.
    10030    2    1    2    0    0  0.00000000000E+00  0.00000000000E+00 -0.20472665434E+04  0.41411483291E+04  0.35996957071E+04 0.  0.
        2    1    3    3  502    0 -0.97644180966E+03 -0.13961117160E+04 -0.16913562571E+04  0.24006775126E+04  0.25500000920E-02 0.  1.
       -2    1    3    3    0  502  0.97644180966E+03  0.13961117160E+04 -0.35591028629E+03  0.17404708165E+04  0.25500000920E-02 0. -1.
</event>
<event>
 5   0  0.8063410E-09  0.3599358E+04  0.7818609E-02  0.8090639E-01
        1   -1    0    0  501    0  0.00000000000E+00  0.00000000000E+00  0.20438208420E+04  0.20438208421E+04  0.50400001928E-02 0. -1.
       -1   -1    0    0    0  501  0.00000000000E+00  0.00000000000E+00 -0.15847004124E+04  0.15847004124E+04  0.50400001928E-02 0.  1.
    10030    2    1    2    0    0  0.00000000000E+00  0.00000000000E+00  0.45912042967E+03  0.36285212544E+04  0.35993575712E+04 0.  0.
        2    1    3    3  502    0 -0.39265101393E+03 -0.59190026465E+03 -0.14374166993E+04  0.16033363682E+04  0.25500000920E-02 0.  1.
       -2    1    3    3    0  502  0.39265101393E+03  0.59190026465E+03  0.18965371290E+04  0.20251848863E+04  0.25500000920E-02 0. -1.
</event>
<event>
 5   0  0.2590795E-08  0.3600072E+04  0.7818609E-02  0.8090475E-01
       -2   -1    0    0    0  501  0.00000000000E+00  0.00000000000E+00  0.18049255451E+04  0.18049255451E+04  0.25500000920E-02 0. -1.
        2   -1    0    0  501    0  0.00000000000E+00  0.00000000000E+00 -0.17951592450E+04  0.17951592450E+04  0.25500000920E-02 0.  1.
    10030    2    1    2    0    0  0.00000000000E+00  0.00000000000E+00  0.97663000999E+01  0.36000847901E+04  0.36000715430E+04 0.  0.
        4    1    3    3  502    0  0.38013923165E+03 -0.14899205851E+04 -0.93093971008E+03  0.17975036974E+04  0.12699999809E+01 0.  1.
       -4    1    3    3    0  502 -0.38013923165E+03  0.14899205851E+04  0.94070601018E+03  0.18025810927E+04  0.12699999809E+01 0. -1.
</event>
<event>
 5   0  0.8024500E-09  0.3598807E+04  0.7818609E-02  0.8090765E-01
        1   -1    0    0  501    0  0.00000000000E+00  0.00000000000E+00  0.17639995424E+04  0.17639995424E+04  0.50400001928E-02 0.  1.
       -1   -1    0    0    0  501  0.00000000000E+00  0.00000000000E+00 -0.18355185123E+04  0.18355185123E+04  0.50400001928E-02 0. -1.
    10030    2    1    2    0    0  0.00000000000E+00  0.00000000000E+00 -0.71518969909E+02  0.35995180547E+04  0.35988074779E+04 0.  0.
        1    1    3    3  502    0 -0.12101702126E+04  0.36667398643E+03 -0.13162044527E+04  0.18252002402E+04  0.50400001928E-02 0. -1.
       -1    1    3    3    0  502  0.12101702126E+04 -0.36667398643E+03  0.12446854828E+04  0.17743178145E+04  0.50400001928E-02 0.  1.
</event>
<event>
 5   0  0.8024500E-09  0.3599802E+04  0.7818609E-02  0.8090537E-01
       -1   -1    0    0    0  501  0.00000000000E+00  0.00000000000E+00  0.16078752113E+04  0.16078752113E+04  0.50400001928E-02 0. -1.
        1   -1    0    0  501    0  0.00000000000E+00  0.00000000000E+00 -0.20148600101E+04  0.20148600101E+04  0.50400001928E-02 0.  1.
    10030    2    1    2    0    0  0.00000000000E+00  0.00000000000E+00 -0.40698479887E+03  0.36227352214E+04  0.35998019193E+04 0.  0.
        1    1    3    3  502    0  0.56927976994E+03  0.89360862578E+03  0.12607778971E+04  0.16468687678E+04  0.50400001928E-02 0. -1.
       -1    1    3    3    0  502 -0.56927976994E+03 -0.89360862578E+03 -0.16677626959E+04  0.19758664536E+04  0.50400001928E-02 0.  1.
</event>
<event>
 5   0  0.2482243E-08  0.3600069E+04  0.7818609E-02  0.8090476E-01
        2   -1    0    0  501    0  0.00000000000E+00  0.00000000000E+00  0.21946507911E+04  0.21946507911E+04  0.25500000920E-02 0.  1.
       -2   -1    0    0    0  501  0.00000000000E+00  0.00000000000E+00 -0.14763737902E+04  0.14763737902E+04  0.25500000920E-02 0. -1.
    10030    2    1    2    0    0  0.00000000000E+00  0.00000000000E+00  0.71827700090E+03  0.36710245812E+04  0.36000693918E+04 0.  0.
        5    1    3    3  502    0  0.11501058584E+04  0.77681951337E+03  0.15279900519E+04  0.20642111643E+04  0.46999998093E+01 0.  1.
       -5    1    3    3    0  502 -0.11501058584E+04 -0.77681951337E+03 -0.80971305102E+03  0.16068134170E+04  0.46999998093E+01 0. -1.
</event>
<event>
 5   0  0.2494592E-08  0.3599735E+04  0.7818609E-02  0.8090552E-01
        2   -1    0    0  501    0  0.00000000000E+00  0.00000000000E+00  0.24806752131E+04  0.24806752131E+04  0.25500000920E-02 0.  1.
       -2   -1    0    0    0  501  0.00000000000E+00  0.00000000000E+00 -0.13059039029E+04  0.13059039029E+04  0.25500000920E-02 0. -1.
    10030    2    1    2    0    0  0.00000000000E+00  0.00000000000E+00  0.11747713102E+04  0.37865791160E+04  0.35997352362E+04 0.  0.
        1    1    3    3  502    0 -0.12202174808E+04 -0.88331063836E+03  0.16235814207E+04  0.22147652277E+04  0.50400001928E-02 0.  1.
       -1    1    3    3    0  502  0.12202174808E+04  0.88331063836E+03 -0.44881011047E+03  0.15718138883E+04  0.50400001928E-02 0. -1.
</event>
<event>
 5   0  0.2494592E-08  0.3599532E+04  0.7818609E-02  0.8090599E-01
        2   -1    0    0  501    0  0.00000000000E+00  0.00000000000E+00  0.10437808149E+04  0.10437808149E+04  0.25500000920E-02 0. -1.
       -2   -1    0    0    0  501  0.00000000000E+00  0.00000000000E+00 -0.31032936432E+04  0.31032936432E+04  0.25500000920E-02 0.  1.
    10030    2    1    2    0    0  0.00000000000E+00  0.00000000000E+00 -0.20595128283E+04  0.41470744581E+04  0.35995323961E+04 0.  0.
        1    1    3    3  502    0  0.16084396523E+04 -0.55004295535E+03 -0.17109018306E+04  0.24118064686E+04  0.50400001928E-02 0.  1.
       -1    1    3    3    0  502 -0.16084396523E+04  0.55004295535E+03 -0.34861099770E+03  0.17352679895E+04  0.50400001928E-02 0. -1.
</event>
<event>
 5   0  0.8247570E-09  0.3601081E+04  0.7818609E-02  0.8090244E-01
        1   -1    0    0  501    0  0.00000000000E+00  0.00000000000E+00  0.18278476455E+04  0.18278476455E+04  0.50400001928E-02 0.  1.
       -1   -1    0    0    0  501  0.00000000000E+00  0.00000000000E+00 -0.17736415308E+04  0.17736415309E+04  0.50400001928E-02 0. -1.
    10030    2    1    2    0    0  0.00000000000E+00  0.00000000000E+00  0.54206114659E+02  0.36014891764E+04  0.36010812244E+04 0.  0.
        3    1    3    3  502    0  0.15672393452E+04 -0.22464981980E+03 -0.83045532176E+03  0.17878374530E+04  0.10100000352E+00 0. -1.
       -3    1    3    3    0  502 -0.15672393452E+04  0.22464981980E+03  0.88466143642E+03  0.18136517234E+04  0.10100000352E+00 0.  1.
</event>
<event>
 5   0  0.2482243E-08  0.3599258E+04  0.7818609E-02  0.8090662E-01
       -2   -1    0    0    0  501  0.00000000000E+00  0.00000000000E+00  0.13843639908E+04  0.13843639908E+04  0.25500000920E-02 0.  1.
        2   -1    0    0  501    0  0.00000000000E+00  0.00000000000E+00 -0.23394608906E+04  0.23394608906E+04  0.25500000920E-02 0. -1.
    10030    2    1    2    0    0  0.00000000000E+00  0.00000000000E+00 -0.95509689984E+03  0.37238248814E+04  0.35992584875E+04 0.  0.
        5    1    3    3  502    0 -0.12404957164E+04 -0.99179974186E+02  0.86743398790E+03  0.15169476270E+04  0.46999998093E+01 0.  1.
       -5    1    3    3    0  502  0.12404957164E+04  0.99179974186E+02 -0.18225308877E+04  0.22068772545E+04  0.46999998093E+01 0. -1.
</event>
<event>
 5   0  0.2476968E-08  0.3596303E+04  0.7818609E-02  0.8091339E-01
       -2   -1    0    0    0  501  0.00000000000E+00  0.00000000000E+00  0.21972107121E+04  0.21972107121E+04  0.25500000920E-02 0.  1.
        2   -1    0    0  501    0  0.00000000000E+00  0.00000000000E+00 -0.14715700755E+04  0.14715700755E+04  0.25500000920E-02 0. -1.
    10030    2    1    2    0    0  0.00000000000E+00  0.00000000000E+00  0.72564063663E+03  0.36687807876E+04  0.35963033985E+04 0.  0.
        2    1    3    3  502    0  0.12287203427E+04 -0.22655586593E+03 -0.95640329811E+03  0.15734638571E+04  0.25500000920E-02 0. -1.
       -2    1    3    3    0  502 -0.12287203427E+04  0.22655586593E+03  0.16820439347E+04  0.20953169305E+04  0.25500000920E-02 0.  1.
</event>
<event>
 5   0  0.8024500E-09  0.3600823E+04  0.7818609E-02  0.8090303E-01
       -1   -1    0    0    0  501  0.00000000000E+00  0.00000000000E+00  0.10738644043E+04  0.10738644043E+04  0.50400001928E-02 0.  1.
        1   -1    0    0  501    0  0.00000000000E+00  0.00000000000E+00 -0.30185197585E+04  0.30185197585E+04  0.50400001928E-02 0. -1.
    10030    2    1    2    0    0  0.00000000000E+00  0.00000000000E+00 -0.19446553542E+04  0.40923841629E+04  0.36008226407E+04 0.  0.
        5    1    3    3  502    0  0.51359105636E+03  0.59246496058E+03  0.86961997550E+03  0.11709190811E+04  0.46999998093E+01 0.  1.
       -5    1    3    3    0  502 -0.51359105636E+03 -0.59246496058E+03 -0.28142753297E+04  0.29214650818E+04  0.46999998093E+01 0. -1.
</event>
<event>
 5   0  0.2494592E-08  0.3600032E+04  0.7818609E-02  0.8090484E-01
        2   -1    0    0  501    0  0.00000000000E+00  0.00000000000E+00  0.28476765950E+04  0.28476765950E+04  0.25500000920E-02 0. -1.
       -2   -1    0    0    0  501  0.00000000000E+00  0.00000000000E+00 -0.11377897537E+04  0.11377897537E+04  0.25500000920E-02 0.  1.
    10030    2    1    2    0    0  0.00000000000E+00  0.00000000000E+00  0.17098868414E+04  0.39854663487E+04  0.36000318063E+04 0.  0.
        1    1    3    3  502    0  0.82629518740E+03  0.86464678908E+03  0.23442140872E+04  0.26316757957E+04  0.50400001928E-02 0. -1.
       -1    1    3    3    0  502 -0.82629518740E+03 -0.86464678908E+03 -0.63432724589E+03  0.13537905530E+04  0.50400001928E-02 0.  1.
</event>
<event>
 5   0  0.2590795E-08  0.3601116E+04  0.7818609E-02  0.8090236E-01
        2   -1    0    0  501    0  0.00000000000E+00  0.00000000000E+00  0.13612856911E+04  0.13612856911E+04  0.25500000920E-02 0.  1.
       -2   -1    0    0    0  501  0.00000000000E+00  0.00000000000E+00 -0.23815791267E+04  0.23815791267E+04  0.25500000920E-02 0. -1.
    10030    2    1    2    0    0  0.00000000000E+00  0.00000000000E+00 -0.10202934356E+04  0.37428648178E+04  0.36011162644E+04 0.  0.
        4    1    3    3  502    0  0.28695210537E+03 -0.11121871034E+04  0.93105069774E+03  0.14785664268E+04  0.12699999809E+01 0.  1.
       -4    1    3    3    0  502 -0.28695210537E+03  0.11121871034E+04 -0.19513441333E+04  0.22642983910E+04  0.12699999809E+01 0. -1.
</event>
<event>
 5   0  0.2494592E-08  0.3603232E+04  0.7818609E-02  0.8089752E-01
        2   -1    0    0  501    0  0.00000000000E+00  0.00000000000E+00  0.25408470469E+04  0.25408470469E+04  0.25500000920E-02 0.  1.
       -2   -1    0    0    0  501  0.00000000000E+00  0.00000000000E+00 -0.12774558487E+04  0.12774558487E+04  0.25500000920E-02 0. -1.
    10030    2    1    2    0    0  0.00000000000E+00  0.00000000000E+00  0.12633911981E+04  0.38183028956E+04  0.36032318387E+04 0.  0.
        1    1    3    3  502    0 -0.66095450146E+03  0.12283808596E+04 -0.57655341586E+03  0.15093688186E+04  0.50400001928E-02 0. -1.
       -1    1    3    3    0  502  0.66095450146E+03 -0.12283808596E+04  0.18399446140E+04  0.23089340770E+04  0.50400001928E-02 0.  1.
</event>
<event>
 5   0  0.2476968E-08  0.3595898E+04  0.7818609E-02  0.8091432E-01
       -2   -1    0    0    0  501  0.00000000000E+00  0.00000000000E+00  0.10826177621E+04  0.10826177621E+04  0.25500000920E-02 0. -1.
        2   -1    0    0  501    0  0.00000000000E+00  0.00000000000E+00 -0.29859299649E+04  0.29859299649E+04  0.25500000920E-02 0.  1.
    10030    2    1    2    0    0  0.00000000000E+00  0.00000000000E+00 -0.19033122028E+04  0.40685477271E+04  0.35958981168E+04 0.  0.
        2    1    3    3  502    0 -0.15361077248E+04  0.71593814068E+03 -0.27238933706E+03  0.17165052620E+04  0.25500000920E-02 0.  1.
       -2    1    3    3    0  502  0.15361077248E+04 -0.71593814068E+03 -0.16309228657E+04  0.23520424651E+04  0.25500000920E-02 0. -1.
</event>
<event>
 5   0  0.8063410E-09  0.3600306E+04  0.7818609E-02  0.8090422E-01
       -1   -1    0    0    0  501  0.00000000000E+00  0.00000000000E+00  0.12482765642E+04  0.12482765642E+04  0.50400001928E-02 0. -1.
        1   -1    0    0  501    0  0.00000000000E+00  0.00000000000E+00 -0.25960196780E+04  0.25960196780E+04  0.50400001928E-02 0.  1.
    10030    2    1    2    0    0  0.00000000000E+00  0.00000000000E+00 -0.13477431138E+04  0.38442962422E+04  0.36003058338E+04 0.  0.
        2    1    3    3  502    0 -0.11312441670E+04 -0.13984826654E+04 -0.75000129065E+03  0.19488378760E+04  0.25500000920E-02 0.  1.
       -2    1    3    3    0  502  0.11312441670E+04  0.13984826654E+04 -0.59774182315E+03  0.18954583662E+04  0.25500000920E-02 0. -1.
</event>
<event>
 5   0  0.8063410E-09  0.3599658E+04  0.7818609E-02  0.8090570E-01
       -1   -1    0    0    0  501  0.00000000000E+00  0.00000000000E+00  0.14964890857E+04  0.14964890857E+04  0.50400001928E-02 0.  1.
        1   -1    0    0  501    0  0.00000000000E+00  0.00000000000E+00 -0.21646563002E+04  0.21646563002E+04  0.50400001928E-02 0. -1.
    10030    2    1    2    0    0  0.00000000000E+00  0.00000000000E+00 -0.66816721451E+03  0.36611453859E+04  0.35996580547E+04 0.  0.
        2    1    3    3  502    0  0.99813659146E+03  0.82822486390E+03 -0.16032575723E+04  0.20621997778E+04  0.25500000920E-02 0.  1.
       -2    1    3    3    0  502 -0.99813659146E+03 -0.82822486390E+03  0.93509035784E+03  0.15989456081E+04  0.25500000920E-02 0. -1.
</event>
<event>
 5   0  0.2494592E-08  0.3599341E+04  0.7818609E-02  0.8090643E-01
       -2   -1    0    0    0  501  0.00000000000E+00  0.00000000000E+00  0.10570086568E+04  0.10570086568E+04  0.25500000920E-02 0. -1.
        2   -1    0    0  501    0  0.00000000000E+00  0.00000000000E+00 -0.30641317352E+04  0.30641317352E+04  0.25500000920E-02 0.  1.
    10030    2    1    2    0    0  0.00000000000E+00  0.00000000000E+00 -0.20071230784E+04  0.41211403919E+04  0.35993409228E+04 0.  0.
        1    1    3    3  502    0  0.44721293983E+03  0.16763169531E+04 -0.45591607609E+03  0.17938498848E+04  0.50400001928E-02 0. -1.
       -1    1    3    3    0  502 -0.44721293983E+03 -0.16763169531E+04 -0.15512070023E+04  0.23272905072E+04  0.50400001928E-02 0.  1.
</event>
<event>
 5   0  0.8247570E-09  0.3600159E+04  0.7818609E-02  0.8090455E-01
        1   -1    0    0  501    0  0.00000000000E+00  0.00000000000E+00  0.10065252444E+04  0.10065252444E+04  0.50400001928E-02 0. -1.
       -1   -1    0    0    0  501  0.00000000000E+00  0.00000000000E+00 -0.32192801470E+04  0.32192801470E+04  0.50400001928E-02 0.  1.
    10030    2    1    2    0    0  0.00000000000E+00  0.00000000000E+00 -0.22127549026E+04  0.42258053913E+04  0.36001592946E+04 0.  0.
        3    1    3    3  502    0 -0.13493124435E+04  0.85629889238E+03 -0.13391064118E+03  0.16036907225E+04  0.10100000352E+00 0. -1.
       -3    1    3    3    0  502  0.13493124435E+04 -0.85629889238E+03 -0.20788442614E+04  0.26221146689E+04  0.10100000352E+00 0.  1.
</event>
<event>
 5   0  0.8024500E-09  0.3599925E+04  0.7818609E-02  0.8090509E-01
       -1   -1    0    0    0  501  0.00000000000E+00  0.00000000000E+00  0.11871059046E+04  0.11871059046E+04  0.50400001928E-02 0. -1.
        1   -1    0    0  501    0  0.00000000000E+00  0.00000000000E+00 -0.27292129174E+04  0.27292129174E+04  0.50400001928E-02 0.  1.
    10030    2    1    2    0    0  0.00000000000E+00  0.00000000000E+00 -0.15421070128E+04  0.39163188221E+04  0.35999248710E+04 0.  0.
        5    1    3    3  502    0  0.40425066989E+03 -0.16812672811E+04 -0.13147416658E+04  0.21722444642E+04  0.46999998093E+01 0.  1.
       -5    1    3    3    0  502 -0.40425066989E+03  0.16812672811E+04 -0.22736534703E+03  0.17440743578E+04  0.46999998093E+01 0. -1.
</event>
<event>
 5   0  0.2494592E-08  0.3599975E+04  0.7818609E-02  0.8090497E-01
       -2   -1    0    0    0  501  0.00000000000E+00  0.00000000000E+00  0.19735575032E+04  0.19735575033E+04  0.25500000920E-02 0. -1.
        2   -1    0    0  501    0  0.00000000000E+00  0.00000000000E+00 -0.16416828694E+04  0.16416828694E+04  0.25500000920E-02 0.  1.
    10030    2    1    2    0    0  0.00000000000E+00  0.00000000000E+00  0.33187463389E+03  0.36152403726E+04  0.35999753026E+04 0.  0.
        1    1    3    3  502    0  0.10129158974E+04 -0.70163009963E+03  0.14836262000E+04  0.19285824103E+04  0.50400001928E-02 0. -1.
       -1    1    3    3    0  502 -0.10129158974E+04  0.70163009963E+03 -0.11517515661E+04  0.16866579623E+04  0.50400001928E-02 0.  1.
</event>
<event>
 5   0  0.8146881E-09  0.3597534E+04  0.7818609E-02  0.8091057E-01
        1   -1    0    0  501    0  0.00000000000E+00  0.00000000000E+00  0.23641191977E+04  0.23641191977E+04  0.50400001928E-02 0.  1.
       -1   -1    0    0    0  501  0.00000000000E+00  0.00000000000E+00 -0.13686122822E+04  0.13686122822E+04  0.50400001928E-02 0. -1.
    10030    2    1    2    0    0  0.00000000000E+00  0.00000000000E+00  0.99550691554E+03  0.37327314799E+04  0.35975339168E+04 0.  0.
        4    1    3    3  502    0 -0.16663717190E+04 -0.45485519209E+02  0.11989440547E+04  0.20533709109E+04  0.12699999809E+01 0. -1.
       -4    1    3    3    0  502  0.16663717190E+04  0.45485519209E+02 -0.20343713912E+03  0.16793605691E+04  0.12699999809E+01 0.  1.
</event>
<event>
 5   0  0.2476968E-08  0.3600048E+04  0.7818609E-02  0.8090481E-01
       -2   -1    0    0    0  501  0.00000000000E+00  0.00000000000E+00  0.23691305208E+04  0.23691305208E+04  0.25500000920E-02 0. -1.
        2   -1    0    0  501    0  0.00000000000E+00  0.00000000000E+00 -0.13676266551E+04  0.13676266551E+04  0.25500000920E-02 0.  1.
    10030    2    1    2    0    0  0.00000000000E+00  0.00000000000E+00  0.10015038657E+04  0.37367571759E+04  0.36000478051E+04 0.  0.
        2    1    3    3  502    0 -0.14599467804E+03  0.15199591382E+04  0.14900976466E+04  0.21335372563E+04  0.25500000920E-02 0. -1.
       -2    1    3    3    0  502  0.14599467804E+03 -0.15199591382E+04 -0.48859378084E+03  0.16032199196E+04  0.25500000920E-02 0.  1.
</event>
<event>
 5   0  0.8024500E-09  0.3598524E+04  0.7818609E-02  0.8090830E-01
       -1   -1    0    0    0  501  0.00000000000E+00  0.00000000000E+00  0.12391198308E+04  0.12391198308E+04  0.50400001928E-02 0.  1.
        1   -1    0    0  501    0  0.00000000000E+00  0.00000000000E+00 -0.26126159996E+04  0.26126159996E+04  0.50400001928E-02 0. -1.
    10030    2    1    2    0    0  0.00000000000E+00  0.00000000000E+00 -0.13734961688E+04  0.38517358304E+04  0.35985243061E+04 0.  0.
        1    1    3    3  502    0 -0.15549249592E+04 -0.14711031878E+03  0.26936517123E+03  0.15849260772E+04  0.50400001928E-02 0.  1.
       -1    1    3    3    0  502  0.15549249592E+04  0.14711031878E+03 -0.16428613400E+04  0.22668097532E+04  0.50400001928E-02 0. -1.
</event>
<event>
 5   0  0.8024500E-09  0.3597791E+04  0.7818609E-02  0.8090998E-01
        1   -1    0    0  501    0  0.00000000000E+00  0.00000000000E+00  0.21138287896E+04  0.21138287896E+04  0.50400001928E-02 0. -1.
       -1   -1    0    0    0  501  0.00000000000E+00  0.00000000000E+00 -0.15308830299E+04  0.15308830299E+04  0.50400001928E-02 0.  1.
    10030    2    1    2    0    0  0.00000000000E+00  0.00000000000E+00  0.58294575968E+03  0.36447118195E+04  0.35977907789E+04 0.  0.
        1    1    3    3  502    0 -0.96938562432E+03  0.98419366902E+03 -0.87580384666E+03  0.16356582909E+04  0.50400001928E-02 0.  1.
       -1    1    3    3    0  502  0.96938562432E+03 -0.98419366902E+03  0.14587496063E+04  0.20090535286E+04  0.50400001928E-02 0. -1.
</event>
<event>
 5   0  0.2482243E-08  0.3600705E+04  0.7818609E-02  0.8090330E-01
       -2   -1    0    0    0  501  0.00000000000E+00  0.00000000000E+00  0.13856683203E+04  0.13856683203E+04  0.25500000920E-02 0. -1.
        2   -1    0    0  501    0  0.00000000000E+00  0.00000000000E+00 -0.23391383991E+04  0.23391383991E+04  0.25500000920E-02 0.  1.
    10030    2    1    2    0    0  0.00000000000E+00  0.00000000000E+00 -0.95347007872E+03  0.37248067194E+04  0.36007054734E+04 0.  0.
        5    1    3    3  502    0  0.10564552032E+04 -0.12671130621E+04  0.26892380513E+03  0.16715307989E+04  0.46999998093E+01 0. -1.
       -5    1    3    3    0  502 -0.10564552032E+04  0.12671130621E+04 -0.12223938839E+04  0.20532759205E+04  0.46999998093E+01 0.  1.
</event>
<event>
 5   0  0.8247570E-09  0.3600124E+04  0.7818609E-02  0.8090463E-01
        1   -1    0    0  501    0  0.00000000000E+00  0.00000000000E+00  0.24918422955E+04  0.24918422955E+04  0.50400001928E-02 0.  1.
       -1   -1    0    0    0  501  0.00000000000E+00  0.00000000000E+00 -0.13003321482E+04  0.13003321482E+04  0.50400001928E-02 0. -1.
    10030    2    1    2    0    0  0.00000000000E+00  0.00000000000E+00  0.11915101472E+04  0.37921744437E+04  0.36001236896E+04 0.  0.
        3    1    3    3  502    0  0.53832224665E+03  0.11783995952E+04  0.19121447100E+04  0.23096999480E+04  0.10100000352E+00 0.  1.
       -3    1    3    3    0  502 -0.53832224665E+03 -0.11783995952E+04 -0.72063456281E+03  0.14824744957E+04  0.10100000352E+00 0. -1.
</event>
<event>
 5   0  0.8024500E-09  0.3600554E+04  0.7818609E-02  0.8090365E-01
        1   -1    0    0  501    0  0.00000000000E+00  0.00000000000E+00  0.20338462815E+04  0.20338462815E+04  0.50400001928E-02 0. -1.
       -1   -1    0    0    0  501  0.00000000000E+00  0.00000000000E+00 -0.15935312358E+04  0.15935312358E+04  0.50400001928E-02 0.  1.
    10030    2    1    2    0    0  0.00000000000E+00  0.00000000000E+00  0.44031504569E+03  0.36273775173E+04  0.36005541676E+04 0.  0.
        5    1    3    3  502    0  0.70205319644E+03  0.14921326073E+04 -0.50746751605E+03  0.17253648247E+04  0.46999998093E+01 0.  1.
       -5    1    3    3    0  502 -0.70205319644E+03 -0.14921326073E+04  0.94778256173E+03  0.19020126926E+04  0.46999998093E+01 0. -1.
</event>
<event>
 5   0  0.2476968E-08  0.3599030E+04  0.7818609E-02  0.8090714E-01
       -2   -1    0    0    0  501  0.00000000000E+00  0.00000000000E+00  0.16801524868E+04  0.16801524868E+04  0.25500000920E-02 0. -1.
        2   -1    0    0  501    0  0.00000000000E+00  0.00000000000E+00 -0.19273577257E+04  0.19273577257E+04  0.25500000920E-02 0.  1.
    10030    2    1    2    0    0  0.00000000000E+00  0.00000000000E+00 -0.24720523894E+03  0.36075102126E+04  0.35990303560E+04 0.  0.
        2    1    3    3  502    0 -0.17323347717E+04  0.41415465759E+03  0.13341337042E+03  0.17861430427E+04  0.25500000920E-02 0.  1.
       -2    1    3    3    0  502  0.17323347717E+04 -0.41415465759E+03 -0.38061860936E+03  0.18213671698E+04  0.25500000920E-02 0. -1.
</event>
<event>
 5   0  0.2590795E-08  0.3625516E+04  0.7818609E-02  0.8084672E-01
        2   -1    0    0  501    0  0.00000000000E+00  0.00000000000E+00  0.12133898550E+04  0.12133898550E+04  0.25500000920E-02 0.  1.
       -2   -1    0    0    0  501  0.00000000000E+00  0.00000000000E+00 -0.27081914240E+04  0.27081914240E+04  0.25500000920E-02 0. -1.
    10030    2    1    2    0    0  0.00000000000E+00  0.00000000000E+00 -0.14948015690E+04  0.39215812790E+04  0.36255162387E+04 0.  0.
        4    1    3    3  502    0  0.46216755956E+03 -0.14010575350E+04  0.39195866073E+03  0.15264973876E+04  0.12699999809E+01 0.  1.
       -4    1    3    3    0  502 -0.46216755956E+03  0.14010575350E+04 -0.18867602297E+04  0.23950838914E+04  0.12699999809E+01 0. -1.
</event>
<event>
 5   0  0.8247570E-09  0.3600144E+04  0.7818609E-02  0.8090459E-01
        1   -1    0    0  501    0  0.00000000000E+00  0.00000000000E+00  0.26560258194E+04  0.26560258194E+04  0.50400001928E-02 0.  1.
       -1   -1    0    0    0  501  0.00000000000E+00  0.00000000000E+00 -0.12199654994E+04  0.12199654994E+04  0.50400001928E-02 0. -1.
    10030    2    1    2    0    0  0.00000000000E+00  0.00000000000E+00  0.14360603200E+04  0.38759913188E+04  0.36001443667E+04 0.  0.
        3    1    3    3  502    0  0.10914810072E+02 -0.97138259199E+03 -0.91352384703E+03  0.13335025693E+04  0.10100000352E+00 0. -1.
       -3    1    3    3    0  502 -0.10914810072E+02  0.97138259199E+03  0.23495841670E+04  0.25424887495E+04  0.10100000352E+00 0.  1.
</event>
<event>
 5   0  0.2476968E-08  0.3598609E+04  0.7818609E-02  0.8090811E-01
        2   -1    0    0  501    0  0.00000000000E+00  0.00000000000E+00  0.17106546649E+04  0.17106546649E+04  0.25500000920E-02 0.  1.
       -2   -1    0    0    0  501  0.00000000000E+00  0.00000000000E+00 -0.18925478454E+04  0.18925478454E+04  0.25500000920E-02 0. -1.
    10030    2    1    2    0    0  0.00000000000E+00  0.00000000000E+00 -0.18189318053E+03  0.36032025103E+04  0.35986085090E+04 0.  0.
        2    1    3    3  502    0  0.70252231766E+03  0.10881366387E+04  0.11596141584E+04  0.17384717276E+04  0.25500000920E-02 0.  1.
       -2    1    3    3    0  502 -0.70252231766E+03 -0.10881366387E+04 -0.13415073390E+04  0.18647307827E+04  0.25500000920E-02 0. -1.
</event>
<event>
 5   0  0.2590795E-08  0.3600677E+04  0.7818609E-02  0.8090337E-01
       -2   -1    0    0    0  501  0.00000000000E+00  0.00000000000E+00  0.13922186122E+04  0.13922186122E+04  0.25500000920E-02 0. -1.
        2   -1    0    0  501    0  0.00000000000E+00  0.00000000000E+00 -0.23280966721E+04  0.23280966721E+04  0.25500000920E-02 0.  1.
    10030    2    1    2    0    0  0.00000000000E+00  0.00000000000E+00 -0.93587805986E+03  0.37203152844E+04  0.36006774463E+04 0.  0.
        4    1    3    3  502    0  0.15127942809E+03 -0.10268718474E+04  0.10519461303E+04  0.14778171505E+04  0.12699999809E+01 0. -1.
       -4    1    3    3    0  502 -0.15127942809E+03  0.10268718474E+04 -0.19878241902E+04  0.22424981338E+04  0.12699999809E+01 0.  1.
</event>
<event>
 5   0  0.2608070E-08  0.3602230E+04  0.7818609E-02  0.8089981E-01
       -2   -1    0    0    0  501  0.00000000000E+00  0.00000000000E+00  0.13676930381E+04  0.13676930381E+04  0.25500000920E-02 0.  1.
        2   -1    0    0  501    0  0.00000000000E+00  0.00000000000E+00 -0.23718882851E+04  0.23718882851E+04  0.25500000920E-02 0. -1.
    10030    2    1    2    0    0  0.00000000000E+00  0.00000000000E+00 -0.10041952469E+04  0.37395813232E+04  0.36022299175E+04 0.  0.
        3    1    3    3  502    0 -0.12737958373E+04 -0.11139744690E+04 -0.11424814759E+04  0.20417538749E+04  0.10100000352E+00 0.  1.
       -3    1    3    3    0  502  0.12737958373E+04  0.11139744690E+04  0.13828622895E+03  0.16978274483E+04  0.10100000352E+00 0. -1.
</event>
<event>
 5   0  0.8024500E-09  0.3599998E+04  0.7818609E-02  0.8090492E-01
        1   -1    0    0  501    0  0.00000000000E+00  0.00000000000E+00  0.18128125425E+04  0.18128125425E+04  0.50400001928E-02 0.  1.
       -1   -1    0    0    0  501  0.00000000000E+00  0.00000000000E+00 -0.17872764294E+04  0.17872764294E+04  0.50400001928E-02 0. -1.
    10030    2    1    2    0    0  0.00000000000E+00  0.00000000000E+00  0.25536113159E+02  0.36000889719E+04  0.35999984045E+04 0.  0.
        5    1    3    3  502    0 -0.29508112694E+03 -0.13506916153E+04 -0.11398815751E+04  0.17918685237E+04  0.46999998093E+01 0. -1.
       -5    1    3    3    0  502  0.29508112694E+03  0.13506916153E+04  0.11654176883E+04  0.18082204482E+04  0.46999998093E+01 0.  1.
</event>
<event>
 5   0  0.2476968E-08  0.3599100E+04  0.7818609E-02  0.8090698E-01
       -2   -1    0    0    0  501  0.00000000000E+00  0.00000000000E+00  0.20674803982E+04  0.20674803982E+04  0.25500000920E-02 0. -1.
        2   -1    0    0  501    0  0.00000000000E+00  0.00000000000E+00 -0.15663414620E+04  0.15663414620E+04  0.25500000920E-02 0.  1.
    10030    2    1    2    0    0  0.00000000000E+00  0.00000000000E+00  0.50113893622E+03  0.36338218602E+04  0.35991000372E+04 0.  0.
        2    1    3    3  502    0 -0.73853983096E+03  0.32181956829E+03  0.18752459154E+04  0.20409694167E+04  0.25500000920E-02 0. -1.
       -2    1    3    3    0  502  0.73853983096E+03 -0.32181956829E+03 -0.13741069792E+04  0.15928524435E+04  0.25500000920E-02 0.  1.
</event>
<event>
 5   0  0.8024500E-09  0.3601369E+04  0.7818609E-02  0.8090178E-01
       -3   -1    0    0    0  501  0.00000000000E+00  0.00000000000E+00  0.15249103413E+04  0.15249103446E+04  0.10100000352E+00 0.  1.
        3   -1    0    0  501    0  0.00000000000E+00  0.00000000000E+00 -0.21263316296E+04  0.21263316320E+04  0.10100000352E+00 0. -1.
    10030    2    1    2    0    0  0.00000000000E+00  0.00000000000E+00 -0.60142128831E+03  0.36512419766E+04  0.36013692404E+04 0.  0.
        5    1    3    3  502    0  0.55058468750E+03 -0.44430083015E+03 -0.19795087725E+04  0.21021474250E+04  0.46999998093E+01 0. -1.
       -5    1    3    3    0  502 -0.55058468750E+03  0.44430083015E+03  0.13780874842E+04  0.15490945517E+04  0.46999998093E+01 0.  1.
</event>
<event>
 5   0  0.8146881E-09  0.3599063E+04  0.7818609E-02  0.8090706E-01
        1   -1    0    0  501    0  0.00000000000E+00  0.00000000000E+00  0.20128167489E+04  0.20128167489E+04  0.50400001928E-02 0. -1.
       -1   -1    0    0    0  501  0.00000000000E+00  0.00000000000E+00 -0.16088470417E+04  0.16088470417E+04  0.50400001928E-02 0.  1.
    10030    2    1    2    0    0  0.00000000000E+00  0.00000000000E+00  0.40396970722E+03  0.36216637905E+04  0.35990633625E+04 0.  0.
        4    1    3    3  502    0 -0.24676282864E+03 -0.30547151076E+02 -0.15914773276E+04  0.16107845043E+04  0.12699999809E+01 0.  1.
       -4    1    3    3    0  502  0.24676282864E+03  0.30547151076E+02  0.19954470349E+04  0.20108792862E+04  0.12699999809E+01 0. -1.
</event>
<event>
 5   0  0.2476968E-08  0.3602708E+04  0.7818609E-02  0.8089872E-01
        2   -1    0    0  501    0  0.00000000000E+00  0.00000000000E+00  0.25665159356E+04  0.25665159356E+04  0.25500000920E-02 0. -1.
       -2   -1    0    0    0  501  0.00000000000E+00  0.00000000000E+00 -0.12643119923E+04  0.12643119923E+04  0.25500000920E-02 0.  1.
    10030    2    1    2    0    0  0.00000000000E+00  0.00000000000E+00  0.13022039433E+04  0.38308279280E+04  0.36027083567E+04 0.  0.
        2    1    3    3  502    0 -0.13467828041E+03  0.79829082110E+03 -0.10599729008E+04  0.13337724786E+04  0.25500000920E-02 0.  1.
       -2    1    3    3    0  502  0.13467828041E+03 -0.79829082110E+03  0.23621768441E+04  0.24970554493E+04  0.25500000920E-02 0. -1.
</event>
<event>
 5   0  0.8024500E-09  0.3599461E+04  0.7818609E-02  0.8090615E-01
       -1   -1    0    0    0  501  0.00000000000E+00  0.00000000000E+00  0.10939114798E+04  0.10939114798E+04  0.50400001928E-02 0.  1.
        1   -1    0    0  501    0  0.00000000000E+00  0.00000000000E+00 -0.29609610472E+04  0.29609610472E+04  0.50400001928E-02 0. -1.
    10030    2    1    2    0    0  0.00000000000E+00  0.00000000000E+00 -0.18670495674E+04  0.40548725270E+04  0.35994606711E+04 0.  0.
        5    1    3    3  502    0  0.23999873385E+03  0.29898224992E+03  0.10473669453E+04  0.11153427214E+04  0.46999998093E+01 0.  1.
       -5    1    3    3    0  502 -0.23999873385E+03 -0.29898224992E+03 -0.29144165127E+04  0.29395298055E+04  0.46999998093E+01 0. -1.
</event>
<event>
 5   0  0.8024500E-09  0.3600127E+04  0.7818609E-02  0.8090462E-01
        1   -1    0    0  501    0  0.00000000000E+00  0.00000000000E+00  0.18317544904E+04  0.18317544904E+04  0.50400001928E-02 0.  1.
       -1   -1    0    0    0  501  0.00000000000E+00  0.00000000000E+00 -0.17689212708E+04  0.17689212708E+04  0.50400001928E-02 0. -1.
    10030    2    1    2    0    0  0.00000000000E+00  0.00000000000E+00  0.62833219588E+02  0.36006757611E+04  0.36001274871E+04 0.  0.
        5    1    3    3  502    0  0.30240956704E+03  0.17742386014E+04  0.60286730320E+02  0.18008416756E+04  0.46999998093E+01 0.  1.
       -5    1    3    3    0  502 -0.30240956704E+03 -0.17742386014E+04  0.25464892682E+01  0.17998340855E+04  0.46999998093E+01 0. -1.
</event>
<event>
 5   0  0.8247570E-09  0.3598716E+04  0.7818609E-02  0.8090786E-01
        1   -1    0    0  501    0  0.00000000000E+00  0.00000000000E+00  0.14482837260E+04  0.14482837260E+04  0.50400001928E-02 0.  1.
       -1   -1    0    0    0  501  0.00000000000E+00  0.00000000000E+00 -0.22355347108E+04  0.22355347109E+04  0.50400001928E-02 0. -1.
    10030    2    1    2    0    0  0.00000000000E+00  0.00000000000E+00 -0.78725098483E+03  0.36838184369E+04  0.35987156268E+04 0.  0.
        3    1    3    3  502    0 -0.11860162675E+04  0.12059166526E+04  0.23474685781E+03  0.17076228088E+04  0.10100000352E+00 0. -1.
       -3    1    3    3    0  502  0.11860162675E+04 -0.12059166526E+04 -0.10219978426E+04  0.19761956281E+04  0.10100000352E+00 0.  1.
</event>
<event>
 5   0  0.8063410E-09  0.3599913E+04  0.7818609E-02  0.8090512E-01
       -1   -1    0    0    0  501  0.00000000000E+00  0.00000000000E+00  0.17718263644E+04  0.17718263644E+04  0.50400001928E-02 0. -1.
        1   -1    0    0  501    0  0.00000000000E+00  0.00000000000E+00 -0.18285331293E+04  0.18285331293E+04  0.50400001928E-02 0.  1.
    10030    2    1    2    0    0  0.00000000000E+00  0.00000000000E+00 -0.56706764917E+02  0.36003594938E+04  0.35999128916E+04 0.  0.
        2    1    3    3  502    0 -0.14972676632E+04 -0.72288175826E+01  0.97076028887E+03  0.17844434005E+04  0.25500000920E-02 0. -1.
       -2    1    3    3    0  502  0.14972676632E+04  0.72288175826E+01 -0.10274670538E+04  0.18159160933E+04  0.25500000920E-02 0.  1.
</event>
<event>
 5   0  0.2482243E-08  0.3598690E+04  0.7818609E-02  0.8090792E-01
       -2   -1    0    0    0  501  0.00000000000E+00  0.00000000000E+00  0.16718886492E+04  0.16718886492E+04  0.25500000920E-02 0.  1.
        2   -1    0    0  501    0  0.00000000000E+00  0.00000000000E+00 -0.19365178656E+04  0.19365178656E+04  0.25500000920E-02 0. -1.
    10030    2    1    2    0    0  0.00000000000E+00  0.00000000000E+00 -0.26462921641E+03  0.36084065148E+04  0.35986898941E+04 0.  0.
        5    1    3    3  502    0  0.12587133854E+04  0.12856654666E+04 -0.15039298288E+03  0.18055290687E+04  0.46999998093E+01 0.  1.
       -5    1    3    3    0  502 -0.12587133854E+04 -0.12856654666E+04 -0.11423623353E+03  0.18028774461E+04  0.46999998093E+01 0. -1.
</event>
<event>
 5   0  0.8146881E-09  0.3601325E+04  0.7818609E-02  0.8090188E-01
       -1   -1    0    0    0  501  0.00000000000E+00  0.00000000000E+00  0.11181573454E+04  0.11181573454E+04  0.50400001928E-02 0. -1.
        1   -1    0    0  501    0  0.00000000000E+00  0.00000000000E+00 -0.28997569955E+04  0.28997569955E+04  0.50400001928E-02 0.  1.
    10030    2    1    2    0    0  0.00000000000E+00  0.00000000000E+00 -0.17815996501E+04  0.40179143409E+04  0.36013245254E+04 0.  0.
        4    1    3    3  502    0 -0.45090732893E+03  0.11204814157E+04 -0.23807973877E+04  0.26696430166E+04  0.12699999809E+01 0.  1.
       -4    1    3    3    0  502  0.45090732893E+03 -0.11204814157E+04  0.59919773755E+03  0.13482713242E+04  0.12699999809E+01 0. -1.
</event>
<event>
 5   0  0.8024500E-09  0.3602562E+04  0.7818609E-02  0.8089905E-01
       -1   -1    0    0    0  501  0.00000000000E+00  0.00000000000E+00  0.14105842029E+04  0.14105842029E+04  0.50400001928E-02 0. -1.
        1   -1    0    0  501    0  0.00000000000E+00  0.00000000000E+00 -0.23001915753E+04  0.23001915753E+04  0.50400001928E-02 0.  1.
    10030    2    1    2    0    0  0.00000000000E+00  0.00000000000E+00 -0.88960737241E+03  0.37107757782E+04  0.36025623657E+04 0.  0.
        5    1    3    3  502    0  0.15541869633E+04  0.23091987093E+03 -0.13520388886E+04  0.20728850306E+04  0.46999998093E+01 0.  1.
       -5    1    3    3    0  502 -0.15541869633E+04 -0.23091987093E+03  0.46243151621E+03  0.16378907476E+04  0.46999998093E+01 0. -1.
</event>
<event>
 5   0  0.2476968E-08  0.3599606E+04  0.7818609E-02  0.8090582E-01
       -2   -1    0    0    0  501  0.00000000000E+00  0.00000000000E+00  0.19934208007E+04  0.19934208007E+04  0.25500000920E-02 0.  1.
        2   -1    0    0  501    0  0.00000000000E+00  0.00000000000E+00 -0.16249910090E+04  0.16249910090E+04  0.25500000920E-02 0. -1.
    10030    2    1    2    0    0  0.00000000000E+00  0.00000000000E+00  0.36842979171E+03  0.36184118097E+04  0.35996060219E+04 0.  0.
        2    1    3    3  502    0  0.12420454054E+04  0.12359146925E+04  0.59761636364E+03  0.18512987966E+04  0.25500000920E-02 0.  1.
       -2    1    3    3    0  502 -0.12420454054E+04 -0.12359146925E+04 -0.22918657193E+03  0.17671130131E+04  0.25500000920E-02 0. -1.
</event>
<event>
 5   0  0.8063410E-09  0.3601361E+04  0.7818609E-02  0.8090180E-01
        1   -1    0    0  501    0  0.00000000000E+00  0.00000000000E+00  0.11804990681E+04  0.11804990681E+04  0.50400001928E-02 0.  1.
       -1   -1    0    0    0  501  0.00000000000E+00  0.00000000000E+00 -0.27466782833E+04  0.27466782833E+04  0.50400001928E-02 0. -1.
    10030    2    1    2    0    0  0.00000000000E+00  0.00000000000E+00 -0.15661792151E+04  0.39271773514E+04  0.36013614947E+04 0.  0.
        2    1    3    3  502    0  0.13752694120E+04  0.58060521257E+03 -0.18811572362E+04  0.24015038862E+04  0.25500000920E-02 0. -1.
       -2    1    3    3    0  502 -0.13752694120E+04 -0.58060521257E+03  0.31497802102E+03  0.15256734651E+04  0.25500000920E-02 0.  1.
</event>
<event>
 5   0  0.2482243E-08  0.3600649E+04  0.7818609E-02  0.8090343E-01
        2   -1    0    0  501    0  0.00000000000E+00  0.00000000000E+00  0.23322684425E+04  0.23322684425E+04  0.25500000920E-02 0. -1.
       -2   -1    0    0    0  501  0.00000000000E+00  0.00000000000E+00 -0.13897066320E+04  0.13897066320E+04  0.25500000920E-02 0.  1.
    10030    2    1    2    0    0  0.00000000000E+00  0.00000000000E+00  0.94256181050E+03  0.37219750745E+04  0.36006493426E+04 0.  0.
        5    1    3    3  502    0  0.21494897901E+02  0.37675950749E+03  0.22909188974E+04  0.23217969854E+04  0.46999998093E+01 0. -1.
       -5    1    3    3    0  502 -0.21494897901E+02 -0.37675950749E+03 -0.13483570869E+04  0.14001780890E+04  0.46999998093E+01 0.  1.
</event>
<event>
 5   0  0.8024500E-09  0.3601658E+04  0.7818609E-02  0.8090112E-01
        1   -1    0    0  501    0  0.00000000000E+00  0.00000000000E+00  0.25669785188E+04  0.25669785188E+04  0.50400001928E-02 0.  1.
       -1   -1    0    0    0  501  0.00000000000E+00  0.00000000000E+00 -0.12633468373E+04  0.12633468374E+04  0.50400001928E-02 0. -1.
    10030    2    1    2    0    0  0.00000000000E+00  0.00000000000E+00  0.13036316814E+04  0.38303253561E+04  0.36016575036E+04 0.  0.
        1    1    3    3  502    0 -0.14130723946E+04 -0.10862828133E+04  0.37818624404E+03  0.18220342417E+04  0.50400001928E-02 0. -1.
       -1    1    3    3    0  502  0.14130723946E+04  0.10862828133E+04  0.92544543739E+03  0.20082911144E+04  0.50400001928E-02 0.  1.
</event>
<event>
 5   0  0.2608070E-08  0.3621084E+04  0.7818609E-02  0.8085679E-01
        2   -1    0    0  501    0  0.00000000000E+00  0.00000000000E+00  0.14527333751E+04  0.14527333751E+04  0.25500000920E-02 0. -1.
       -2   -1    0    0    0  501  0.00000000000E+00  0.00000000000E+00 -0.22564789553E+04  0.22564789553E+04  0.25500000920E-02 0.  1.
    10030    2    1    2    0    0  0.00000000000E+00  0.00000000000E+00 -0.80374558024E+03  0.37092123304E+04  0.36210839750E+04 0.  0.
        3    1    3    3  502    0 -0.15006846049E+04  0.10025386675E+04 -0.25370026357E+03  0.18224988058E+04  0.10100000352E+00 0. -1.
       -3    1    3    3    0  502  0.15006846049E+04 -0.10025386675E+04 -0.55004531667E+03  0.18867135246E+04  0.10100000352E+00 0.  1.
</event>
<event>
 5   0  0.2482243E-08  0.3602297E+04  0.7818609E-02  0.8089966E-01
       -2   -1    0    0    0  501  0.00000000000E+00  0.00000000000E+00  0.16579323103E+04  0.16579323103E+04  0.25500000920E-02 0. -1.
        2   -1    0    0  501    0  0.00000000000E+00  0.00000000000E+00 -0.19567362140E+04  0.19567362140E+04  0.25500000920E-02 0.  1.
    10030    2    1    2    0    0  0.00000000000E+00  0.00000000000E+00 -0.29880390364E+03  0.36146685243E+04  0.36022971515E+04 0.  0.
        5    1    3    3  502    0 -0.61628161653E+03 -0.28601644741E+03 -0.18232150851E+04  0.19456987885E+04  0.46999998093E+01 0.  1.
       -5    1    3    3    0  502  0.61628161653E+03  0.28601644741E+03  0.15244111814E+04  0.16689697358E+04  0.46999998093E+01 0. -1.
</event>
<event>
 5   0  0.8024500E-09  0.3610061E+04  0.7818609E-02  0.8088191E-01
        1   -1    0    0  501    0  0.00000000000E+00  0.00000000000E+00  0.12824013709E+04  0.12824013709E+04  0.50400001928E-02 0. -1.
       -1   -1    0    0    0  501  0.00000000000E+00  0.00000000000E+00 -0.25406520082E+04  0.25406520082E+04  0.50400001928E-02 0.  1.
    10030    2    1    2    0    0  0.00000000000E+00  0.00000000000E+00 -0.12582506373E+04  0.38230533792E+04  0.36100612839E+04 0.  0.
        1    1    3    3  502    0 -0.79026924564E+03  0.77369611774E+03 -0.21398261547E+04  0.24087314370E+04  0.50400001928E-02 0.  1.
       -1    1    3    3    0  502  0.79026924564E+03 -0.77369611774E+03  0.88157551738E+03  0.14143219422E+04  0.50400001928E-02 0. -1.
</event>
<event>
 5   0  0.2476968E-08  0.3600049E+04  0.7818609E-02  0.8090480E-01
       -2   -1    0    0    0  501  0.00000000000E+00  0.00000000000E+00  0.13405216895E+04  0.13405216895E+04  0.25500000920E-02 0. -1.
        2   -1    0    0  501    0  0.00000000000E+00  0.00000000000E+00 -0.24170352142E+04  0.24170352142E+04  0.25500000920E-02 0.  1.
    10030    2    1    2    0    0  0.00000000000E+00  0.00000000000E+00 -0.10765135246E+04  0.37575569037E+04  0.36000489602E+04 0.  0.
        2    1    3    3  502    0  0.17110325594E+03  0.96774775168E+03 -0.21123075904E+04  0.23297329013E+04  0.25500000920E-02 0.  1.
       -2    1    3    3    0  502 -0.17110325594E+03 -0.96774775168E+03  0.10357940657E+04  0.14278240024E+04  0.25500000920E-02 0. -1.
</event>
<event>
 5   0  0.2482243E-08  0.3600104E+04  0.7818609E-02  0.8090468E-01
        2   -1    0    0  501    0  0.00000000000E+00  0.00000000000E+00  0.16504953201E+04  0.16504953201E+04  0.25500000920E-02 0. -1.
       -2   -1    0    0    0  501  0.00000000000E+00  0.00000000000E+00 -0.19631609272E+04  0.19631609272E+04  0.25500000920E-02 0.  1.
    10030    2    1    2    0    0  0.00000000000E+00  0.00000000000E+00 -0.31266560705E+03  0.36136562473E+04  0.36001044002E+04 0.  0.
        5    1    3    3  502    0 -0.17470863387E+04  0.43339370802E+03 -0.15130874740E+03  0.18063934256E+04  0.46999998093E+01 0. -1.
       -5    1    3    3    0  502  0.17470863387E+04 -0.43339370802E+03 -0.16135685966E+03  0.18072628218E+04  0.46999998093E+01 0.  1.
</event>
<event>
 5   0  0.8063410E-09  0.3598253E+04  0.7818609E-02  0.8090892E-01
        1   -1    0    0  501    0  0.00000000000E+00  0.00000000000E+00  0.12690979486E+04  0.12690979486E+04  0.50400001928E-02 0.  1.
       -1   -1    0    0    0  501  0.00000000000E+00  0.00000000000E+00 -0.25505174553E+04  0.25505174553E+04  0.50400001928E-02 0. -1.
    10030    2    1    2    0    0  0.00000000000E+00  0.00000000000E+00 -0.12814195067E+04  0.38196154039E+04  0.35982531708E+04 0.  0.
        2    1    3    3  502    0 -0.14405504604E+04 -0.52985935263E+03  0.35560401417E+03  0.15755604646E+04  0.25500000920E-02 0.  1.
       -2    1    3    3    0  502  0.14405504604E+04  0.52985935263E+03 -0.16370235209E+04  0.22440549393E+04  0.25500000920E-02 0. -1.
</event>
<event>
 5   0  0.2482243E-08  0.3601763E+04  0.7818609E-02  0.8090088E-01
        2   -1    0    0  501    0  0.00000000000E+00  0.00000000000E+00  0.19863271226E+04  0.19863271226E+04  0.25500000920E-02 0. -1.
       -2   -1    0    0    0  501  0.00000000000E+00  0.00000000000E+00 -0.16327490844E+04  0.16327490844E+04  0.25500000920E-02 0.  1.
    10030    2    1    2    0    0  0.00000000000E+00  0.00000000000E+00  0.35357803820E+03  0.36190762070E+04  0.36017627855E+04 0.  0.
        5    1    3    3  502    0 -0.62311369973E+02 -0.16849952513E+04 -0.45875434052E+03  0.17474465195E+04  0.46999998093E+01 0.  1.
       -5    1    3    3    0  502  0.62311369973E+02  0.16849952513E+04  0.81233237872E+03  0.18716296875E+04  0.46999998093E+01 0. -1.
</event>
<event>
 5   0  0.8146881E-09  0.3621579E+04  0.7818609E-02  0.8085567E-01
       -1   -1    0    0    0  501  0.00000000000E+00  0.00000000000E+00  0.16883783673E+04  0.16883783673E+04  0.50400001928E-02 0.  1.
        1   -1    0    0  501    0  0.00000000000E+00  0.00000000000E+00 -0.19420760315E+04  0.19420760315E+04  0.50400001928E-02 0. -1.
    10030    2    1    2    0    0  0.00000000000E+00  0.00000000000E+00 -0.25369766425E+03  0.36304543988E+04  0.36215793015E+04 0.  0.
        4    1    3    3  502    0  0.15303774285E+04 -0.93171383844E+03  0.13611403922E+03  0.17968512445E+04  0.12699999809E+01 0.  1.
       -4    1    3    3    0  502 -0.15303774285E+04  0.93171383844E+03 -0.38981170347E+03  0.18336031543E+04  0.12699999809E+01 0. -1.
</event>
<event>
 5   0  0.8024500E-09  0.3600372E+04  0.7818609E-02  0.8090406E-01
       -1   -1    0    0    0  501  0.00000000000E+00  0.00000000000E+00  0.17662235352E+04  0.17662235352E+04  0.50400001928E-02 0. -1.
        1   -1    0    0  501    0  0.00000000000E+00  0.00000000000E+00 -0.18348017323E+04  0.18348017323E+04  0.50400001928E-02 0.  1.
    10030    2    1    2    0    0  0.00000000000E+00  0.00000000000E+00 -0.68578197108E+02  0.36010252675E+04  0.36003722041E+04 0.  0.
        5    1    3    3  502    0 -0.28503017796E+03  0.24437593779E+03 -0.17952009938E+04  0.18340475729E+04  0.46999998093E+01 0.  1.
       -5    1    3    3    0  502  0.28503017796E+03 -0.24437593779E+03  0.17266227967E+04  0.17669776947E+04  0.46999998093E+01 0. -1.
</event>
<event>
 5   0  0.8024500E-09  0.3599571E+04  0.7818609E-02  0.8090590E-01
        1   -1    0    0  501    0  0.00000000000E+00  0.00000000000E+00  0.21573875646E+04  0.21573875646E+04  0.50400001928E-02 0. -1.
       -1   -1    0    0    0  501  0.00000000000E+00  0.00000000000E+00 -0.15014587581E+04  0.15014587581E+04  0.50400001928E-02 0.  1.
    10030    2    1    2    0    0  0.00000000000E+00  0.00000000000E+00  0.65592880657E+03  0.36588463227E+04  0.35995713375E+04 0.  0.
        5    1    3    3  502    0  0.71512802846E+03 -0.13721411267E+04  0.12623554649E+04  0.19969333435E+04  0.46999998093E+01 0.  1.
       -5    1    3    3    0  502 -0.71512802846E+03  0.13721411267E+04 -0.60642665829E+03  0.16619129792E+04  0.46999998093E+01 0. -1.
</event>
<event>
 5   0  0.2608070E-08  0.3608879E+04  0.7818609E-02  0.8088461E-01
       -2   -1    0    0    0  501  0.00000000000E+00  0.00000000000E+00  0.16199030117E+04  0.16199030117E+04  0.25500000920E-02 0.  1.
        2   -1    0    0  501    0  0.00000000000E+00  0.00000000000E+00 -0.20099982651E+04  0.20099982651E+04  0.25500000920E-02 0. -1.
    10030    2    1    2    0    0  0.00000000000E+00  0.00000000000E+00 -0.39009525338E+03  0.36299012768E+04  0.36088791851E+04 0.  0.
        3    1    3    3  502    0  0.13849347032E+04 -0.14716088668E+03 -0.13490327326E+04  0.19389661633E+04  0.10100000352E+00 0. -1.
       -3    1    3    3    0  502 -0.13849347032E+04  0.14716088668E+03  0.95893747921E+03  0.16909351135E+04  0.10100000352E+00 0.  1.
</event>
<event>
 5   0  0.8024500E-09  0.3598683E+04  0.7818609E-02  0.8090793E-01
       -1   -1    0    0    0  501  0.00000000000E+00  0.00000000000E+00  0.17065416197E+04  0.17065416198E+04  0.50400001928E-02 0.  1.
        1   -1    0    0  501    0  0.00000000000E+00  0.00000000000E+00 -0.18971877633E+04  0.18971877633E+04  0.50400001928E-02 0. -1.
    10030    2    1    2    0    0  0.00000000000E+00  0.00000000000E+00 -0.19064614360E+03  0.36037293831E+04  0.35986830250E+04 0.  0.
        5    1    3    3  502    0  0.74327806421E+03 -0.11069623806E+04  0.11145846536E+04  0.17378575985E+04  0.46999998093E+01 0.  1.
       -5    1    3    3    0  502 -0.74327806421E+03  0.11069623806E+04 -0.13052307972E+04  0.18658717846E+04  0.46999998093E+01 0. -1.
</event>
<event>
 5   0  0.8024500E-09  0.3600571E+04  0.7818609E-02  0.8090361E-01
        1   -1    0    0  501    0  0.00000000000E+00  0.00000000000E+00  0.18657009441E+04  0.18657009441E+04  0.50400001928E-02 0.  1.
       -1   -1    0    0    0  501  0.00000000000E+00  0.00000000000E+00 -0.17371632010E+04  0.17371632010E+04  0.50400001928E-02 0. -1.
    10030    2    1    2    0    0  0.00000000000E+00  0.00000000000E+00  0.12853774309E+03  0.36028641452E+04  0.36005705238E+04 0.  0.
        5    1    3    3  502    0 -0.92124174231E+03 -0.15016952239E+04  0.43495058428E+03  0.18146567152E+04  0.46999998093E+01 0. -1.
       -5    1    3    3    0  502  0.92124174231E+03  0.15016952239E+04 -0.30641284119E+03  0.17882074300E+04  0.46999998093E+01 0.  1.
</event>
<event>
 5   0  0.2608070E-08  0.3599535E+04  0.7818609E-02  0.8090598E-01
       -2   -1    0    0    0  501  0.00000000000E+00  0.00000000000E+00  0.24069933666E+04  0.24069933666E+04  0.25500000920E-02 0. -1.
        2   -1    0    0  501    0  0.00000000000E+00  0.00000000000E+00 -0.13457299067E+04  0.13457299067E+04  0.25500000920E-02 0.  1.
    10030    2    1    2    0    0  0.00000000000E+00  0.00000000000E+00  0.10612634599E+04  0.37527232733E+04  0.35995349470E+04 0.  0.
        3    1    3    3  502    0 -0.10053991487E+04  0.92360182511E+03  0.17532703360E+04  0.22221216575E+04  0.10100000352E+00 0. -1.
       -3    1    3    3    0  502  0.10053991487E+04 -0.92360182511E+03 -0.69200687616E+03  0.15306016158E+04  0.10100000352E+00 0.  1.
</event>
<event>
 5   0  0.2494592E-08  0.3602080E+04  0.7818609E-02  0.8090015E-01
        2   -1    0    0  501    0  0.00000000000E+00  0.00000000000E+00  0.30585017634E+04  0.30585017634E+04  0.25500000920E-02 0.  1.
       -2   -1    0    0    0  501  0.00000000000E+00  0.00000000000E+00 -0.10605668316E+04  0.10605668316E+04  0.25500000920E-02 0. -1.
    10030    2    1    2    0    0  0.00000000000E+00  0.00000000000E+00  0.19979349318E+04  0.41190685951E+04  0.36020802461E+04 0.  0.
        1    1    3    3  502    0  0.98276795442E+03  0.16569738982E+03 -0.71649414941E+03  0.12274576748E+04  0.50400001928E-02 0. -1.
       -1    1    3    3    0  502 -0.98276795442E+03 -0.16569738982E+03  0.27144290812E+04  0.28916109203E+04  0.50400001928E-02 0.  1.
</event>
<event>
 5   0  0.2590795E-08  0.3600477E+04  0.7818609E-02  0.8090382E-01
       -2   -1    0    0    0  501  0.00000000000E+00  0.00000000000E+00  0.12331888095E+04  0.12331888095E+04  0.25500000920E-02 0.  1.
        2   -1    0    0  501    0  0.00000000000E+00  0.00000000000E+00 -0.26280315867E+04  0.26280315867E+04  0.25500000920E-02 0. -1.
    10030    2    1    2    0    0  0.00000000000E+00  0.00000000000E+00 -0.13948427772E+04  0.38612203962E+04  0.36004772704E+04 0.  0.
        4    1    3    3  502    0 -0.16693366712E+04  0.14964196145E+03 -0.14021075208E+04  0.21851738492E+04  0.12699999809E+01 0. -1.
       -4    1    3    3    0  502  0.16693366712E+04 -0.14964196145E+03  0.72647435545E+01  0.16760465470E+04  0.12699999809E+01 0.  1.
</event>
<event>
 5   0  0.8063410E-09  0.3599847E+04  0.7818609E-02  0.8090527E-01
        1   -1    0    0  501    0  0.00000000000E+00  0.00000000000E+00  0.20865193224E+04  0.20865193224E+04  0.50400001928E-02 0.  1.
       -1   -1    0    0    0  501  0.00000000000E+00  0.00000000000E+00 -0.15526935525E+04  0.15526935525E+04  0.50400001928E-02 0. -1.
    10030    2    1    2    0    0  0.00000000000E+00  0.00000000000E+00  0.53382576991E+03  0.36392128749E+04  0.35998472740E+04 0.  0.
        2    1    3    3  502    0 -0.43067258774E+03  0.78756304060E+03  0.18440986173E+04  0.20509593197E+04  0.25500000920E-02 0.  1.
       -2    1    3    3    0  502  0.43067258774E+03 -0.78756304060E+03 -0.13102728474E+04  0.15882535551E+04  0.25500000920E-02 0. -1.
</event>
<event>
 5   0  0.2482243E-08  0.3610440E+04  0.7818609E-02  0.8088104E-01
        2   -1    0    0  501    0  0.00000000000E+00  0.00000000000E+00  0.14728484999E+04  0.14728484999E+04  0.25500000920E-02 0. -1.
       -2   -1    0    0    0  501  0.00000000000E+00  0.00000000000E+00 -0.22125969422E+04  0.22125969422E+04  0.25500000920E-02 0.  1.
    10030    2    1    2    0    0  0.00000000000E+00  0.00000000000E+00 -0.73974844237E+03  0.36854454421E+04  0.36104404647E+04 0.  0.
        5    1    3    3  502    0 -0.16387636248E+04  0.10771053446E+02 -0.11426589887E+04  0.19978373027E+04  0.46999998093E+01 0.  1.
       -5    1    3    3    0  502  0.16387636248E+04 -0.10771053446E+02  0.40291054636E+03  0.16876081394E+04  0.46999998093E+01 0. -1.
</event>
<event>
 5   0  0.8146881E-09  0.3600213E+04  0.7818609E-02  0.8090443E-01
       -1   -1    0    0    0  501  0.00000000000E+00  0.00000000000E+00  0.16319963055E+04  0.16319963055E+04  0.50400001928E-02 0.  1.
        1   -1    0    0  501    0  0.00000000000E+00  0.00000000000E+00 -0.19855340464E+04  0.19855340464E+04  0.50400001928E-02 0. -1.
    10030    2    1    2    0    0  0.00000000000E+00  0.00000000000E+00 -0.35353774087E+03  0.36175303519E+04  0.36002134537E+04 0.  0.
        4    1    3    3  502    0  0.61152074955E+03 -0.16400584272E+04 -0.59906808933E+03  0.18500360700E+04  0.12699999809E+01 0. -1.
       -4    1    3    3    0  502 -0.61152074955E+03  0.16400584272E+04  0.24553034846E+03  0.17674942819E+04  0.12699999809E+01 0.  1.
</event>
<event>
 5   0  0.2494592E-08  0.3600681E+04  0.7818609E-02  0.8090336E-01
       -2   -1    0    0    0  501  0.00000000000E+00  0.00000000000E+00  0.13695433736E+04  0.13695433736E+04  0.25500000920E-02 0.  1.
        2   -1    0    0  501    0  0.00000000000E+00  0.00000000000E+00 -0.23666465691E+04  0.23666465691E+04  0.25500000920E-02 0. -1.
    10030    2    1    2    0    0  0.00000000000E+00  0.00000000000E+00 -0.99710319553E+03  0.37361899427E+04  0.36006805615E+04 0.  0.
        1    1    3    3  502    0 -0.86591526897E+03  0.41349967696E+03 -0.20791769840E+04  0.22899275462E+04  0.50400001928E-02 0. -1.
       -1    1    3    3    0  502  0.86591526897E+03 -0.41349967696E+03  0.10820737885E+04  0.14462623965E+04  0.50400001928E-02 0.  1.
</event>
<event>
 5   0  0.2482243E-08  0.3599104E+04  0.7818609E-02  0.8090697E-01
       -2   -1    0    0    0  501  0.00000000000E+00  0.00000000000E+00  0.15292761994E+04  0.15292761994E+04  0.25500000920E-02 0.  1.
        2   -1    0    0  501    0  0.00000000000E+00  0.00000000000E+00 -0.21175942989E+04  0.21175942989E+04  0.25500000920E-02 0. -1.
    10030    2    1    2    0    0  0.00000000000E+00  0.00000000000E+00 -0.58831809947E+03  0.36468704984E+04  0.35991035336E+04 0.  0.
        5    1    3    3  502    0  0.72107405610E+03  0.12933860536E+04 -0.13302607611E+04  0.19905805838E+04  0.46999998093E+01 0. -1.
       -5    1    3    3    0  502 -0.72107405610E+03 -0.12933860536E+04  0.74194266162E+03  0.16562899146E+04  0.46999998093E+01 0.  1.
</event>
<event>
 5   0  0.2476968E-08  0.3603191E+04  0.7818609E-02  0.8089761E-01
        2   -1    0    0  501    0  0.00000000000E+00  0.00000000000E+00  0.99334035292E+03  0.99334035292E+03  0.25500000920E-02 0. -1.
       -2   -1    0    0    0  501  0.00000000000E+00  0.00000000000E+00 -0.32675066302E+04  0.32675066302E+04  0.25500000920E-02 0.  1.
    10030    2    1    2    0    0  0.00000000000E+00  0.00000000000E+00 -0.22741662773E+04  0.42608469831E+04  0.36031909132E+04 0.  0.
        2    1    3    3  502    0 -0.63016332692E+03 -0.14097904977E+04 -0.39737840062E+02  0.15447310970E+04  0.25500000920E-02 0. -1.
       -2    1    3    3    0  502  0.63016332692E+03  0.14097904977E+04 -0.22344284372E+04  0.27161158862E+04  0.25500000920E-02 0.  1.
</event>
<event>
 5   0  0.8024500E-09  0.3599222E+04  0.7818609E-02  0.8090670E-01
       -1   -1    0    0    0  501  0.00000000000E+00  0.00000000000E+00  0.15724413354E+04  0.15724413354E+04  0.50400001928E-02 0.  1.
        1   -1    0    0  501    0  0.00000000000E+00  0.00000000000E+00 -0.20595993714E+04  0.20595993714E+04  0.50400001928E-02 0. -1.
    10030    2    1    2    0    0  0.00000000000E+00  0.00000000000E+00 -0.48715803600E+03  0.36320407069E+04  0.35992216859E+04 0.  0.
        1    1    3    3  502    0 -0.63569469523E+03 -0.10929005526E+04  0.10487466052E+04  0.16426834161E+04  0.50400001928E-02 0.  1.
       -1    1    3    3    0  502  0.63569469523E+03  0.10929005526E+04 -0.15359046412E+04  0.19893572908E+04  0.50400001928E-02 0. -1.
</event>
<event>
 5   0  0.8146881E-09  0.3599058E+04  0.7818609E-02  0.8090707E-01
       -1   -1    0    0    0  501  0.00000000000E+00  0.00000000000E+00  0.19284135029E+04  0.19284135029E+04  0.50400001928E-02 0. -1.
        1   -1    0    0  501    0  0.00000000000E+00  0.00000000000E+00 -0.16792588067E+04  0.16792588068E+04  0.50400001928E-02 0.  1.
    10030    2    1    2    0    0  0.00000000000E+00  0.00000000000E+00  0.24915469613E+03  0.36076723096E+04  0.35990584090E+04 0.  0.
        4    1    3    3  502    0 -0.11956611202E+04  0.12125838564E+04  0.70763832509E+03  0.18441037756E+04  0.12699999809E+01 0.  1.
       -4    1    3    3    0  502  0.11956611202E+04 -0.12125838564E+04 -0.45848362896E+03  0.17635685340E+04  0.12699999809E+01 0. -1.
</event>
<event>
 5   0  0.2476968E-08  0.3597391E+04  0.7818609E-02  0.8091090E-01
        2   -1    0    0  501    0  0.00000000000E+00  0.00000000000E+00  0.16363027752E+04  0.16363027752E+04  0.25500000920E-02 0.  1.
       -2   -1    0    0    0  501  0.00000000000E+00  0.00000000000E+00 -0.19772041516E+04  0.19772041516E+04  0.25500000920E-02 0. -1.
    10030    2    1    2    0    0  0.00000000000E+00  0.00000000000E+00 -0.34090137635E+03  0.36135069268E+04  0.35973905212E+04 0.  0.
        2    1    3    3  502    0  0.16218570833E+04  0.38932856055E+03 -0.84674816085E+03  0.18705559533E+04  0.25500000920E-02 0. -1.
       -2    1    3    3    0  502 -0.16218570833E+04 -0.38932856055E+03  0.50584678450E+03  0.17429509735E+04  0.25500000920E-02 0.  1.
</event>
<event>
 5   0  0.2482243E-08  0.3600151E+04  0.7818609E-02  0.8090457E-01
        2   -1    0    0  501    0  0.00000000000E+00  0.00000000000E+00  0.32339054606E+04  0.32339054606E+04  0.25500000920E-02 0.  1.
       -2   -1    0    0    0  501  0.00000000000E+00  0.00000000000E+00 -0.10019684691E+04  0.10019684691E+04  0.25500000920E-02 0. -1.
    10030    2    1    2    0    0  0.00000000000E+00  0.00000000000E+00  0.22319369915E+04  0.42358739297E+04  0.36001507211E+04 0.  0.
        5    1    3    3  502    0  0.19698620220E+03  0.13763257511E+04  0.24611747881E+04  0.28267436326E+04  0.46999998093E+01 0.  1.
       -5    1    3    3    0  502 -0.19698620220E+03 -0.13763257511E+04 -0.22923779658E+03  0.14091302971E+04  0.46999998093E+01 0. -1.
</event>
<event>
 5   0  0.8024500E-09  0.3623926E+04  0.7818609E-02  0.8085033E-01
       -1   -1    0    0    0  501  0.00000000000E+00  0.00000000000E+00  0.12285743644E+04  0.12285743644E+04  0.50400001928E-02 0. -1.
        1   -1    0    0  501    0  0.00000000000E+00  0.00000000000E+00 -0.26723742517E+04  0.26723742517E+04  0.50400001928E-02 0.  1.
    10030    2    1    2    0    0  0.00000000000E+00  0.00000000000E+00 -0.14437998873E+04  0.39009486161E+04  0.36239263225E+04 0.  0.
        1    1    3    3  502    0  0.13963946147E+03  0.11423787999E+04  0.78461289083E+03  0.13928911982E+04  0.50400001928E-02 0. -1.
       -1    1    3    3    0  502 -0.13963946147E+03 -0.11423787999E+04 -0.22284127781E+04  0.25080574178E+04  0.50400001928E-02 0.  1.
</event>
<event>
 5   0  0.8063410E-09  0.3599601E+04  0.7818609E-02  0.8090583E-01
        1   -1    0    0  501    0  0.00000000000E+00  0.00000000000E+00  0.20341972708E+04  0.20341972708E+04  0.50400001928E-02 0. -1.
       -1   -1    0    0    0  501  0.00000000000E+00  0.00000000000E+00 -0.15924130444E+04  0.15924130444E+04  0.50400001928E-02 0.  1.
    10030    2    1    2    0    0  0.00000000000E+00  0.00000000000E+00  0.44178422646E+03  0.36266103152E+04  0.35996012384E+04 0.  0.
        2    1    3    3  502    0 -0.80616570707E+02  0.10338033277E+04 -0.12612113822E+04  0.16327591686E+04  0.25500000920E-02 0.  1.
       -2    1    3    3    0  502  0.80616570707E+02 -0.10338033277E+04  0.17029956087E+04  0.19938511467E+04  0.25500000920E-02 0. -1.
</event>
<event>
 5   0  0.2590795E-08  0.3600887E+04  0.7818609E-02  0.8090289E-01
       -2   -1    0    0    0  501  0.00000000000E+00  0.00000000000E+00  0.19106208291E+04  0.19106208291E+04  0.25500000920E-02 0.  1.
        2   -1    0    0  501    0  0.00000000000E+00  0.00000000000E+00 -0.16966194410E+04  0.16966194410E+04  0.25500000920E-02 0. -1.
    10030    2    1    2    0    0  0.00000000000E+00  0.00000000000E+00  0.21400138808E+03  0.36072402702E+04  0.36008868036E+04 0.  0.
        4    1    3    3  502    0 -0.40152144720E+03 -0.23974641960E+03  0.18487164359E+04  0.19069483191E+04  0.12699999809E+01 0.  1.
       -4    1    3    3    0  502  0.40152144720E+03  0.23974641960E+03 -0.16347150479E+04  0.17002919511E+04  0.12699999809E+01 0. -1.
</event>
<event>
 5   0  0.8024500E-09  0.3596534E+04  0.7818609E-02  0.8091286E-01
        3   -1    0    0  501    0  0.00000000000E+00  0.00000000000E+00  0.14834689683E+04  0.14834689717E+04  0.10100000352E+00 0.  1.
       -3   -1    0    0    0  501  0.00000000000E+00  0.00000000000E+00 -0.21798665342E+04  0.21798665365E+04  0.10100000352E+00 0. -1.
    10030    2    1    2    0    0  0.00000000000E+00  0.00000000000E+00 -0.69639756594E+03  0.36633355082E+04  0.35965340921E+04 0.  0.
        1    1    3    3  502    0  0.12959966796E+04  0.81276350160E+03  0.61464848671E+03  0.16486311490E+04  0.50400001928E-02 0.  1.
       -1    1    3    3    0  502 -0.12959966796E+04 -0.81276350160E+03 -0.13110460527E+04  0.20147043593E+04  0.50400001928E-02 0. -1.
</event>
<event>
 5   0  0.2590795E-08  0.3595876E+04  0.7818609E-02  0.8091437E-01
        2   -1    0    0  501    0  0.00000000000E+00  0.00000000000E+00  0.28783633709E+04  0.28783633709E+04  0.25500000920E-02 0.  1.
       -2   -1    0    0    0  501  0.00000000000E+00  0.00000000000E+00 -0.11230620363E+04  0.11230620363E+04  0.25500000920E-02 0. -1.
    10030    2    1    2    0    0  0.00000000000E+00  0.00000000000E+00  0.17553013346E+04  0.40014254071E+04  0.35958757645E+04 0.  0.
        4    1    3    3  502    0  0.26288994773E+03 -0.79782801138E+03 -0.89126598523E+03  0.12247437812E+04  0.12699999809E+01 0. -1.
       -4    1    3    3    0  502 -0.26288994773E+03  0.79782801138E+03  0.26465673198E+04  0.27766816259E+04  0.12699999809E+01 0.  1.
</event>
<event>
 5   0  0.2590795E-08  0.3599725E+04  0.7818609E-02  0.8090555E-01
       -2   -1    0    0    0  501  0.00000000000E+00  0.00000000000E+00  0.10152131153E+04  0.10152131153E+04  0.25500000920E-02 0.  1.
        2   -1    0    0  501    0  0.00000000000E+00  0.00000000000E+00 -0.31909596954E+04  0.31909596954E+04  0.25500000920E-02 0. -1.
    10030    2    1    2    0    0  0.00000000000E+00  0.00000000000E+00 -0.21757465801E+04  0.42061728107E+04  0.35997245079E+04 0.  0.
        4    1    3    3  502    0 -0.49311332953E+03 -0.29695943656E+03 -0.30805037306E+04  0.31338236245E+04  0.12699999809E+01 0. -1.
       -4    1    3    3    0  502  0.49311332953E+03  0.29695943656E+03  0.90475715053E+03  0.10723491862E+04  0.12699999809E+01 0.  1.
</event>
<event>
 5   0  0.2608070E-08  0.3600209E+04  0.7818609E-02  0.8090444E-01
        2   -1    0    0  501    0  0.00000000000E+00  0.00000000000E+00  0.11888612836E+04  0.11888612836E+04  0.25500000920E-02 0. -1.
       -2   -1    0    0    0  501  0.00000000000E+00  0.00000000000E+00 -0.27256130807E+04  0.27256130807E+04  0.25500000920E-02 0.  1.
    10030    2    1    2    0    0  0.00000000000E+00  0.00000000000E+00 -0.15367517971E+04  0.39144743643E+04  0.36002088083E+04 0.  0.
        3    1    3    3  502    0 -0.11424071066E+04 -0.72932557059E+03 -0.20564215308E+04  0.24629005882E+04  0.10100000352E+00 0.  1.
       -3    1    3    3    0  502  0.11424071066E+04  0.72932557059E+03  0.51966973367E+03  0.14515737761E+04  0.10100000352E+00 0. -1.
</event>
<event>
 5   0  0.8063410E-09  0.3600258E+04  0.7818609E-02  0.8090433E-01
       -1   -1    0    0    0  501  0.00000000000E+00  0.00000000000E+00  0.14028232879E+04  0.14028232879E+04  0.50400001928E-02 0. -1.
        1   -1    0    0  501    0  0.00000000000E+00  0.00000000000E+00 -0.23099585471E+04  0.23099585471E+04  0.50400001928E-02 0.  1.
    10030    2    1    2    0    0  0.00000000000E+00  0.00000000000E+00 -0.90713525920E+03  0.37127818351E+04  0.36002575709E+04 0.  0.
        2    1    3    3  502    0 -0.25948973986E+02 -0.28509000476E+03 -0.22863346455E+04  0.23041865748E+04  0.25500000920E-02 0.  1.
       -2    1    3    3    0  502  0.25948973986E+02  0.28509000476E+03  0.13791993863E+04  0.14085952603E+04  0.25500000920E-02 0. -1.
</event>
<event>
 5   0  0.8024500E-09  0.3599152E+04  0.7818609E-02  0.8090686E-01
        1   -1    0    0  501    0  0.00000000000E+00  0.00000000000E+00  0.26041019972E+04  0.26041019972E+04  0.50400001928E-02 0. -1.
       -1   -1    0    0    0  501  0.00000000000E+00  0.00000000000E+00 -0.12436050173E+04  0.12436050173E+04  0.50400001928E-02 0.  1.
    10030    2    1    2    0    0  0.00000000000E+00  0.00000000000E+00  0.13604969799E+04  0.38477070146E+04  0.35991522943E+04 0.  0.
        1    1    3    3  502    0 -0.14886574111E+04  0.41100733231E+03 -0.30737155370E+03  0.15746444637E+04  0.50400001928E-02 0.  1.
       -1    1    3    3    0  502  0.14886574111E+04 -0.41100733231E+03  0.16678685336E+04  0.22730625509E+04  0.50400001928E-02 0. -1.
</event>
<event>
 5   0  0.8024500E-09  0.3602582E+04  0.7818609E-02  0.8089901E-01
       -3   -1    0    0    0  501  0.00000000000E+00  0.00000000000E+00  0.18686742306E+04  0.18686742333E+04  0.10100000352E+00 0. -1.
        3   -1    0    0  501    0  0.00000000000E+00  0.00000000000E+00 -0.17363374955E+04  0.17363374984E+04  0.10100000352E+00 0.  1.
    10030    2    1    2    0    0  0.00000000000E+00  0.00000000000E+00  0.13233673507E+03  0.36050117318E+04  0.36025819317E+04 0.  0.
        2    1    3    3  502    0  0.11621197750E+04  0.10557647451E+04 -0.81731304002E+03  0.17700740588E+04  0.25500000920E-02 0.  1.
       -2    1    3    3    0  502 -0.11621197750E+04 -0.10557647451E+04  0.94964977509E+03  0.18349376730E+04  0.25500000920E-02 0. -1.
</event>
<event>
 5   0  0.2494592E-08  0.3601384E+04  0.7818609E-02  0.8090175E-01
       -2   -1    0    0    0  501  0.00000000000E+00  0.00000000000E+00  0.13407368995E+04  0.13407368995E+04  0.25500000920E-02 0. -1.
        2   -1    0    0  501    0  0.00000000000E+00  0.00000000000E+00 -0.24184394596E+04  0.24184394596E+04  0.25500000920E-02 0.  1.
    10030    2    1    2    0    0  0.00000000000E+00  0.00000000000E+00 -0.10777025600E+04  0.37591763591E+04  0.36013836356E+04 0.  0.
        1    1    3    3  502    0 -0.43676984647E+03 -0.15196256562E+04  0.36056373544E+03  0.16217386476E+04  0.50400001928E-02 0. -1.
       -1    1    3    3    0  502  0.43676984647E+03  0.15196256562E+04 -0.14382662955E+04  0.21374377115E+04  0.50400001928E-02 0.  1.
</event>
<event>
 5   0  0.2482243E-08  0.3602726E+04  0.7818609E-02  0.8089868E-01
        2   -1    0    0  501    0  0.00000000000E+00  0.00000000000E+00  0.11899206094E+04  0.11899206094E+04  0.25500000920E-02 0.  1.
       -2   -1    0    0    0  501  0.00000000000E+00  0.00000000000E+00 -0.27269961789E+04  0.27269961789E+04  0.25500000920E-02 0. -1.
    10030    2    1    2    0    0  0.00000000000E+00  0.00000000000E+00 -0.15370755695E+04  0.39169167883E+04  0.36027261651E+04 0.  0.
        5    1    3    3  502    0 -0.15534940143E+04 -0.90887226587E+03 -0.84912643782E+03  0.19900829746E+04  0.46999998093E+01 0. -1.
       -5    1    3    3    0  502  0.15534940143E+04  0.90887226587E+03 -0.68794913164E+03  0.19268338138E+04  0.46999998093E+01 0.  1.
</event>
<event>
 5   0  0.2590795E-08  0.3597859E+04  0.7818609E-02  0.8090982E-01
       -2   -1    0    0    0  501  0.00000000000E+00  0.00000000000E+00  0.22623822146E+04  0.22623822146E+04  0.25500000920E-02 0.  1.
        2   -1    0    0  501    0  0.00000000000E+00  0.00000000000E+00 -0.14304162060E+04  0.14304162060E+04  0.25500000920E-02 0. -1.
    10030    2    1    2    0    0  0.00000000000E+00  0.00000000000E+00  0.83196600861E+03  0.36927984206E+04  0.35978594658E+04 0.  0.
        4    1    3    3  502    0  0.10621552773E+04  0.14287056810E+04  0.15075996445E+03  0.17866460018E+04  0.12699999809E+01 0. -1.
       -4    1    3    3    0  502 -0.10621552773E+04 -0.14287056810E+04  0.68120604416E+03  0.19061524188E+04  0.12699999809E+01 0.  1.
</event>
<event>
 5   0  0.8024500E-09  0.3599371E+04  0.7818609E-02  0.8090636E-01
        1   -1    0    0  501    0  0.00000000000E+00  0.00000000000E+00  0.22673953579E+04  0.22673953579E+04  0.50400001928E-02 0.  1.
       -1   -1    0    0    0  501  0.00000000000E+00  0.00000000000E+00 -0.14284530235E+04  0.14284530235E+04  0.50400001928E-02 0. -1.
    10030    2    1    2    0    0  0.00000000000E+00  0.00000000000E+00  0.83894233444E+03  0.36958483814E+04  0.35993709197E+04 0.  0.
        5    1    3    3  502    0  0.17422963069E+04 -0.36362021386E+03  0.14581377929E+03  0.17858050927E+04  0.46999998093E+01 0. -1.
       -5    1    3    3    0  502 -0.17422963069E+04  0.36362021386E+03  0.69312855516E+03  0.19100432887E+04  0.46999998093E+01 0.  1.
</event>
<event>
 5   0  0.8247570E-09  0.3606205E+04  0.7818609E-02  0.8089072E-01
        1   -1    0    0  501    0  0.00000000000E+00  0.00000000000E+00  0.21143672042E+04  0.21143672042E+04  0.50400001928E-02 0. -1.
       -1   -1    0    0    0  501  0.00000000000E+00  0.00000000000E+00 -0.15376599879E+04  0.15376599879E+04  0.50400001928E-02 0.  1.
    10030    2    1    2    0    0  0.00000000000E+00  0.00000000000E+00  0.57670721627E+03  0.36520271921E+04  0.36062045697E+04 0.  0.
        3    1    3    3  502    0 -0.77368386110E+02 -0.87186216172E+02  0.21105475737E+04  0.21137640300E+04  0.10100000352E+00 0. -1.
       -3    1    3    3    0  502  0.77368386110E+02  0.87186216172E+02 -0.15338403574E+04  0.15382631621E+04  0.10100000352E+00 0.  1.
</event>
<event>
 5   0  0.8063410E-09  0.3599268E+04  0.7818609E-02  0.8090659E-01
       -1   -1    0    0    0  501  0.00000000000E+00  0.00000000000E+00  0.11508085416E+04  0.11508085416E+04  0.50400001928E-02 0. -1.
        1   -1    0    0  501    0  0.00000000000E+00  0.00000000000E+00 -0.28142667032E+04  0.28142667032E+04  0.50400001928E-02 0.  1.
    10030    2    1    2    0    0  0.00000000000E+00  0.00000000000E+00 -0.16634581616E+04  0.39650752448E+04  0.35992677924E+04 0.  0.
        2    1    3    3  502    0 -0.14586110170E+04 -0.10504153427E+04 -0.92879589639E+03  0.20232598223E+04  0.25500000920E-02 0. -1.
       -2    1    3    3    0  502  0.14586110170E+04  0.10504153427E+04 -0.73466226518E+03  0.19418154225E+04  0.25500000920E-02 0.  1.
</event>
<event>
 5   0  0.8063410E-09  0.3581286E+04  0.7818609E-02  0.8094792E-01
        1   -1    0    0  501    0  0.00000000000E+00  0.00000000000E+00  0.17176528364E+04  0.17176528364E+04  0.50400001928E-02 0. -1.
       -1   -1    0    0    0  501  0.00000000000E+00  0.00000000000E+00 -0.18667343136E+04  0.18667343136E+04  0.50400001928E-02 0.  1.
    10030    2    1    2    0    0  0.00000000000E+00  0.00000000000E+00 -0.14908147726E+03  0.35843871500E+04  0.35812855170E+04 0.  0.
        2    1    3    3  502    0 -0.13698650573E+03 -0.95245997774E+03  0.14368850593E+04  0.17293305021E+04  0.25500000920E-02 0. -1.
       -2    1    3    3    0  502  0.13698650573E+03  0.95245997774E+03 -0.15859665365E+04  0.18550566479E+04  0.25500000920E-02 0.  1.
</event>
<event>
 5   0  0.8024500E-09  0.3605960E+04  0.7818609E-02  0.8089128E-01
        1   -1    0    0  501    0  0.00000000000E+00  0.00000000000E+00  0.27833796722E+04  0.27833796722E+04  0.50400001928E-02 0. -1.
       -1   -1    0    0    0  501  0.00000000000E+00  0.00000000000E+00 -0.11679097594E+04  0.11679097594E+04  0.50400001928E-02 0.  1.
    10030    2    1    2    0    0  0.00000000000E+00  0.00000000000E+00  0.16154699129E+04  0.39512894316E+04  0.36059596688E+04 0.  0.
        5    1    3    3  502    0 -0.38573113982E+03 -0.17609118664E+04  0.84432567727E+03  0.19906046952E+04  0.46999998093E+01 0. -1.
       -5    1    3    3    0  502  0.38573113982E+03  0.17609118664E+04  0.77114423559E+03  0.19606847364E+04  0.46999998093E+01 0.  1.
</event>
<event>
 5   0  0.2494592E-08  0.3601113E+04  0.7818609E-02  0.8090237E-01
        2   -1    0    0  501    0  0.00000000000E+00  0.00000000000E+00  0.91703098710E+03  0.91703098710E+03  0.25500000920E-02 0.  1.
       -2   -1    0    0    0  501  0.00000000000E+00  0.00000000000E+00 -0.35353263169E+04  0.35353263169E+04  0.25500000920E-02 0. -1.
    10030    2    1    2    0    0  0.00000000000E+00  0.00000000000E+00 -0.26182953298E+04  0.44523573040E+04  0.36011130402E+04 0.  0.
        1    1    3    3  502    0 -0.57331989459E+03 -0.30623133617E+03  0.76692069519E+03  0.10053062645E+04  0.50400001928E-02 0.  1.
       -1    1    3    3    0  502  0.57331989459E+03  0.30623133617E+03 -0.33852160249E+04  0.34470510394E+04  0.50400001928E-02 0. -1.
</event>
<event>
 5   0  0.8146881E-09  0.3609150E+04  0.7818609E-02  0.8088399E-01
       -1   -1    0    0    0  501  0.00000000000E+00  0.00000000000E+00  0.14441482709E+04  0.14441482709E+04  0.50400001928E-02 0.  1.
        1   -1    0    0  501    0  0.00000000000E+00  0.00000000000E+00 -0.22549565080E+04  0.22549565080E+04  0.50400001928E-02 0. -1.
    10030    2    1    2    0    0  0.00000000000E+00  0.00000000000E+00 -0.81080823716E+03  0.36991047789E+04  0.36091503388E+04 0.  0.
        4    1    3    3  502    0  0.33469411398E+03  0.11852331956E+04  0.94644384054E+03  0.15532403015E+04  0.12699999809E+01 0.  1.
       -4    1    3    3    0  502 -0.33469411398E+03 -0.11852331956E+04 -0.17572520777E+04  0.21458644774E+04  0.12699999809E+01 0. -1.
</event>
<event>
 5   0  0.8024500E-09  0.3598572E+04  0.7818609E-02  0.8090819E-01
       -1   -1    0    0    0  501  0.00000000000E+00  0.00000000000E+00  0.12736947951E+04  0.12736947951E+04  0.50400001928E-02 0.  1.
        1   -1    0    0  501    0  0.00000000000E+00  0.00000000000E+00 -0.25417632988E+04  0.25417632988E+04  0.50400001928E-02 0. -1.
    10030    2    1    2    0    0  0.00000000000E+00  0.00000000000E+00 -0.12680685037E+04  0.38154580939E+04  0.35985723192E+04 0.  0.
        1    1    3    3  502    0  0.62125769273E+03  0.52361158016E+03  0.10681202588E+04  0.13420175464E+04  0.50400001928E-02 0.  1.
       -1    1    3    3    0  502 -0.62125769273E+03 -0.52361158016E+03 -0.23361887625E+04  0.24734405475E+04  0.50400001928E-02 0. -1.
</event>
<event>
 5   0  0.2590795E-08  0.3598703E+04  0.7818609E-02  0.8090789E-01
       -2   -1    0    0    0  501  0.00000000000E+00  0.00000000000E+00  0.13993027440E+04  0.13993027440E+04  0.25500000920E-02 0. -1.
        2   -1    0    0  501    0  0.00000000000E+00  0.00000000000E+00 -0.23137704658E+04  0.23137704658E+04  0.25500000920E-02 0.  1.
    10030    2    1    2    0    0  0.00000000000E+00  0.00000000000E+00 -0.91446772180E+03  0.37130732097E+04  0.35987027450E+04 0.  0.
        4    1    3    3  502    0 -0.46698571806E+03 -0.11316671208E+04  0.90335540557E+03  0.15214462642E+04  0.12699999809E+01 0. -1.
       -4    1    3    3    0  502  0.46698571806E+03  0.11316671208E+04 -0.18178231274E+04  0.21916269456E+04  0.12699999809E+01 0.  1.
</event>
<event>
 5   0  0.8024500E-09  0.3601409E+04  0.7818609E-02  0.8090169E-01
       -1   -1    0    0    0  501  0.00000000000E+00  0.00000000000E+00  0.19492400286E+04  0.19492400286E+04  0.50400001928E-02 0.  1.
        1   -1    0    0  501    0  0.00000000000E+00  0.00000000000E+00 -0.16634876916E+04  0.16634876916E+04  0.50400001928E-02 0. -1.
    10030    2    1    2    0    0  0.00000000000E+00  0.00000000000E+00  0.28575233699E+03  0.36127277202E+04  0.36014090551E+04 0.  0.
        5    1    3    3  502    0  0.48707501519E+03 -0.79270046803E+03  0.16894409171E+04  0.19286909563E+04  0.46999998093E+01 0.  1.
       -5    1    3    3    0  502 -0.48707501519E+03  0.79270046803E+03 -0.14036885801E+04  0.16840367639E+04  0.46999998093E+01 0. -1.
</event>
<event>
 5   0  0.8024500E-09  0.3600489E+04  0.7818609E-02  0.8090380E-01
       -3   -1    0    0    0  501  0.00000000000E+00  0.00000000000E+00  0.18424241462E+04  0.18424241490E+04  0.10100000352E+00 0.  1.
        3   -1    0    0  501    0  0.00000000000E+00  0.00000000000E+00 -0.17590302315E+04  0.17590302344E+04  0.10100000352E+00 0. -1.
    10030    2    1    2    0    0  0.00000000000E+00  0.00000000000E+00  0.83393914734E+02  0.36014543834E+04  0.36004887350E+04 0.  0.
        2    1    3    3  502    0 -0.17292499274E+04 -0.13360610787E+03 -0.44084706013E+03  0.17895535851E+04  0.25500000920E-02 0. -1.
       -2    1    3    3    0  502  0.17292499274E+04  0.13360610787E+03  0.52424097486E+03  0.18119007984E+04  0.25500000920E-02 0.  1.
</event>
<event>
 5   0  0.8146881E-09  0.3600489E+04  0.7818609E-02  0.8090380E-01
       -1   -1    0    0    0  501  0.00000000000E+00  0.00000000000E+00  0.12950293932E+04  0.12950293932E+04  0.50400001928E-02 0.  1.
        1   -1    0    0  501    0  0.00000000000E+00  0.00000000000E+00 -0.25025531264E+04  0.25025531264E+04  0.50400001928E-02 0. -1.
    10030    2    1    2    0    0  0.00000000000E+00  0.00000000000E+00 -0.12075237331E+04  0.37975825196E+04  0.36004887762E+04 0.  0.
        4    1    3    3  502    0 -0.88334682656E+03 -0.45330975431E+03  0.98013682029E+03  0.13951563170E+04  0.12699999809E+01 0.  1.
       -4    1    3    3    0  502  0.88334682656E+03  0.45330975431E+03 -0.21876605534E+04  0.24024262027E+04  0.12699999809E+01 0. -1.
</event>
<event>
 5   0  0.2494592E-08  0.3602390E+04  0.7818609E-02  0.8089944E-01
       -2   -1    0    0    0  501  0.00000000000E+00  0.00000000000E+00  0.11442678085E+04  0.11442678085E+04  0.25500000920E-02 0.  1.
        2   -1    0    0  501    0  0.00000000000E+00  0.00000000000E+00 -0.28352662411E+04  0.28352662411E+04  0.25500000920E-02 0. -1.
    10030    2    1    2    0    0  0.00000000000E+00  0.00000000000E+00 -0.16909984325E+04  0.39795340496E+04  0.36023902555E+04 0.  0.
        1    1    3    3  502    0  0.13851027529E+04 -0.54179842342E+03 -0.19678629946E+04  0.24666860224E+04  0.50400001928E-02 0. -1.
       -1    1    3    3    0  502 -0.13851027529E+04  0.54179842342E+03  0.27686456203E+03  0.15128480272E+04  0.50400001928E-02 0.  1.
</event>
<event>
 5   0  0.8146881E-09  0.3600447E+04  0.7818609E-02  0.8090389E-01
       -1   -1    0    0    0  501  0.00000000000E+00  0.00000000000E+00  0.16626402290E+04  0.16626402290E+04  0.50400001928E-02 0. -1.
        1   -1    0    0  501    0  0.00000000000E+00  0.00000000000E+00 -0.19491921030E+04  0.19491921030E+04  0.50400001928E-02 0.  1.
    10030    2    1    2    0    0  0.00000000000E+00  0.00000000000E+00 -0.28655187400E+03  0.36118323321E+04  0.36004473081E+04 0.  0.
        4    1    3    3  502    0  0.69740177770E+03  0.16591633969E+04 -0.18354230217E+03  0.18091107779E+04  0.12699999809E+01 0. -1.
       -4    1    3    3    0  502 -0.69740177770E+03 -0.16591633969E+04 -0.10300957183E+03  0.18027215542E+04  0.12699999809E+01 0.  1.
</event>
<event>
 5   0  0.2494592E-08  0.3603137E+04  0.7818609E-02  0.8089774E-01
       -2   -1    0    0    0  501  0.00000000000E+00  0.00000000000E+00  0.24476763498E+04  0.24476763498E+04  0.25500000920E-02 0.  1.
        2   -1    0    0  501    0  0.00000000000E+00  0.00000000000E+00 -0.13260120977E+04  0.13260120977E+04  0.25500000920E-02 0. -1.
    10030    2    1    2    0    0  0.00000000000E+00  0.00000000000E+00  0.11216642521E+04  0.37736884475E+04  0.36031366618E+04 0.  0.
        1    1    3    3  502    0  0.10069469543E+04  0.10128697381E+04  0.17108991717E+04  0.22286819537E+04  0.50400001928E-02 0.  1.
       -1    1    3    3    0  502 -0.10069469543E+04 -0.10128697381E+04 -0.58923491955E+03  0.15450064937E+04  0.50400001928E-02 0. -1.
</event>
<event>
 5   0  0.2608070E-08  0.3598027E+04  0.7818609E-02  0.8090944E-01
        2   -1    0    0  501    0  0.00000000000E+00  0.00000000000E+00  0.25253582710E+04  0.25253582710E+04  0.25500000920E-02 0.  1.
       -2   -1    0    0    0  501  0.00000000000E+00  0.00000000000E+00 -0.12815805191E+04  0.12815805191E+04  0.25500000920E-02 0. -1.
    10030    2    1    2    0    0  0.00000000000E+00  0.00000000000E+00  0.12437777519E+04  0.38069387901E+04  0.35980272172E+04 0.  0.
        3    1    3    3  502    0  0.26419023859E+03 -0.33901411570E+03  0.24702379668E+04  0.25073497314E+04  0.10100000352E+00 0.  1.
       -3    1    3    3    0  502 -0.26419023859E+03  0.33901411570E+03 -0.12264602148E+04  0.12995890587E+04  0.10100000352E+00 0. -1.
</event>
<event>
 5   0  0.2608070E-08  0.3600142E+04  0.7818609E-02  0.8090459E-01
        2   -1    0    0  501    0  0.00000000000E+00  0.00000000000E+00  0.25913877585E+04  0.25913877585E+04  0.25500000920E-02 0.  1.
       -2   -1    0    0    0  501  0.00000000000E+00  0.00000000000E+00 -0.12503936274E+04  0.12503936274E+04  0.25500000920E-02 0. -1.
    10030    2    1    2    0    0  0.00000000000E+00  0.00000000000E+00  0.13409941311E+04  0.38417813858E+04  0.36001415190E+04 0.  0.
        3    1    3    3  502    0 -0.87491344630E+03 -0.84217912546E+03 -0.74741351674E+03  0.14259614978E+04  0.10100000352E+00 0. -1.
       -3    1    3    3    0  502  0.87491344630E+03  0.84217912546E+03  0.20884076478E+04  0.24158198881E+04  0.10100000352E+00 0.  1.
</event>
<event>
 5   0  0.8024500E-09  0.3604138E+04  0.7818609E-02  0.8089545E-01
        1   -1    0    0  501    0  0.00000000000E+00  0.00000000000E+00  0.24249701537E+04  0.24249701537E+04  0.50400001928E-02 0. -1.
       -1   -1    0    0    0  501  0.00000000000E+00  0.00000000000E+00 -0.13391719007E+04  0.13391719007E+04  0.50400001928E-02 0.  1.
    10030    2    1    2    0    0  0.00000000000E+00  0.00000000000E+00  0.10857982530E+04  0.37641420545E+04  0.36041375612E+04 0.  0.
        1    1    3    3  502    0  0.40886864320E+03 -0.54723655088E+03  0.22845068500E+04  0.23844523392E+04  0.50400001928E-02 0. -1.
       -1    1    3    3    0  502 -0.40886864320E+03  0.54723655088E+03 -0.11987085970E+04  0.13796897153E+04  0.50400001928E-02 0.  1.
</event>
<event>
 5   0  0.8024500E-09  0.3598078E+04  0.7818609E-02  0.8090932E-01
        1   -1    0    0  501    0  0.00000000000E+00  0.00000000000E+00  0.22009708707E+04  0.22009708707E+04  0.50400001928E-02 0. -1.
       -1   -1    0    0    0  501  0.00000000000E+00  0.00000000000E+00 -0.14705059654E+04  0.14705059654E+04  0.50400001928E-02 0.  1.
    10030    2    1    2    0    0  0.00000000000E+00  0.00000000000E+00  0.73046490529E+03  0.36714768361E+04  0.35980777062E+04 0.  0.
        5    1    3    3  502    0  0.15740372395E+04 -0.86442036013E+03  0.25484562019E+03  0.18137762184E+04  0.46999998093E+01 0.  1.
       -5    1    3    3    0  502 -0.15740372395E+04  0.86442036013E+03  0.47561928510E+03  0.18577006176E+04  0.46999998093E+01 0. -1.
</event>
<event>
 5   0  0.2608070E-08  0.3599680E+04  0.7818609E-02  0.8090565E-01
        2   -1    0    0  501    0  0.00000000000E+00  0.00000000000E+00  0.19425088923E+04  0.19425088923E+04  0.25500000920E-02 0. -1.
       -2   -1    0    0    0  501  0.00000000000E+00  0.00000000000E+00 -0.16676496004E+04  0.16676496004E+04  0.25500000920E-02 0.  1.
    10030    2    1    2    0    0  0.00000000000E+00  0.00000000000E+00  0.27485929191E+03  0.36101584927E+04  0.35996800846E+04 0.  0.
        3    1    3    3  502    0  0.11419408224E+04  0.13082184414E+04 -0.33719188220E+03  0.17689439527E+04  0.10100000352E+00 0.  1.
       -3    1    3    3    0  502 -0.11419408224E+04 -0.13082184414E+04  0.61205117411E+03  0.18412145400E+04  0.10100000352E+00 0. -1.
</event>
<event>
 5   0  0.8024500E-09  0.3598243E+04  0.7818609E-02  0.8090894E-01
       -1   -1    0    0    0  501  0.00000000000E+00  0.00000000000E+00  0.31442542159E+04  0.31442542159E+04  0.50400001928E-02 0.  1.
        1   -1    0    0  501    0  0.00000000000E+00  0.00000000000E+00 -0.10294454251E+04  0.10294454251E+04  0.50400001928E-02 0. -1.
    10030    2    1    2    0    0  0.00000000000E+00  0.00000000000E+00  0.21148087908E+04  0.41736996411E+04  0.35982429701E+04 0.  0.
        5    1    3    3  502    0 -0.57795920189E+03  0.11413579615E+04 -0.40983749124E+03  0.13434000500E+04  0.46999998093E+01 0. -1.
       -5    1    3    3    0  502  0.57795920189E+03 -0.11413579615E+04  0.25246462821E+04  0.28302995910E+04  0.46999998093E+01 0.  1.
</event>
<event>
 5   0  0.2476968E-08  0.3607487E+04  0.7818609E-02  0.8088779E-01
       -2   -1    0    0    0  501  0.00000000000E+00  0.00000000000E+00  0.34227950933E+04  0.34227950933E+04  0.25500000920E-02 0.  1.
        2   -1    0    0  501    0  0.00000000000E+00  0.00000000000E+00 -0.95053611942E+03  0.95053611942E+03  0.25500000920E-02 0. -1.
    10030    2    1    2    0    0  0.00000000000E+00  0.00000000000E+00  0.24722589739E+04  0.43733312127E+04  0.36074868624E+04 0.  0.
        2    1    3    3  502    0  0.12898299670E+04  0.12584398995E+04  0.11409969888E+04  0.21328868824E+04  0.25500000920E-02 0. -1.
       -2    1    3    3    0  502 -0.12898299670E+04 -0.12584398995E+04  0.13312619851E+04  0.22404443304E+04  0.25500000920E-02 0.  1.
</event>
<event>
 5   0  0.8247570E-09  0.3600881E+04  0.7818609E-02  0.8090290E-01
        1   -1    0    0  501    0  0.00000000000E+00  0.00000000000E+00  0.20282403616E+04  0.20282403616E+04  0.50400001928E-02 0.  1.
       -1   -1    0    0    0  501  0.00000000000E+00  0.00000000000E+00 -0.15982256952E+04  0.15982256952E+04  0.50400001928E-02 0. -1.
    10030    2    1    2    0    0  0.00000000000E+00  0.00000000000E+00  0.43001466640E+03  0.36264660568E+04  0.36008809266E+04 0.  0.
        3    1    3    3  502    0 -0.82306979667E+03  0.26419876860E+03 -0.13755625929E+04  0.16246283688E+04  0.10100000352E+00 0. -1.
       -3    1    3    3    0  502  0.82306979667E+03 -0.26419876860E+03  0.18055772593E+04  0.20018376880E+04  0.10100000352E+00 0.  1.
</event>
<event>
 5   0  0.8024500E-09  0.3600126E+04  0.7818609E-02  0.8090463E-01
        1   -1    0    0  501    0  0.00000000000E+00  0.00000000000E+00  0.21086598482E+04  0.21086598482E+04  0.50400001928E-02 0. -1.
       -1   -1    0    0    0  501  0.00000000000E+00  0.00000000000E+00 -0.15366283192E+04  0.15366283192E+04  0.50400001928E-02 0.  1.
    10030    2    1    2    0    0  0.00000000000E+00  0.00000000000E+00  0.57203152897E+03  0.36452881674E+04  0.36001257968E+04 0.  0.
        1    1    3    3  502    0 -0.72168709570E+03 -0.92660005113E+03 -0.10952104079E+04  0.16058971811E+04  0.50400001928E-02 0.  1.
       -1    1    3    3    0  502  0.72168709570E+03  0.92660005113E+03  0.16672419368E+04  0.20393909862E+04  0.50400001928E-02 0. -1.
</event>
<event>
 5   0  0.8146881E-09  0.3602095E+04  0.7818609E-02  0.8090012E-01
       -1   -1    0    0    0  501  0.00000000000E+00  0.00000000000E+00  0.18916755904E+04  0.18916755904E+04  0.50400001928E-02 0. -1.
        1   -1    0    0  501    0  0.00000000000E+00  0.00000000000E+00 -0.17147615570E+04  0.17147615570E+04  0.50400001928E-02 0.  1.
    10030    2    1    2    0    0  0.00000000000E+00  0.00000000000E+00  0.17691403342E+03  0.36064371474E+04  0.36020952684E+04 0.  0.
        4    1    3    3  502    0  0.31622788418E+03  0.60608947112E+03 -0.15798126723E+04  0.17213814842E+04  0.12699999809E+01 0.  1.
       -4    1    3    3    0  502 -0.31622788418E+03 -0.60608947112E+03  0.17567267057E+04  0.18850556632E+04  0.12699999809E+01 0. -1.
</event>
<event>
 5   0  0.2590795E-08  0.3599870E+04  0.7818609E-02  0.8090521E-01
       -2   -1    0    0    0  501  0.00000000000E+00  0.00000000000E+00  0.18672805859E+04  0.18672805859E+04  0.25500000920E-02 0. -1.
        2   -1    0    0  501    0  0.00000000000E+00  0.00000000000E+00 -0.17350187414E+04  0.17350187414E+04  0.25500000920E-02 0.  1.
    10030    2    1    2    0    0  0.00000000000E+00  0.00000000000E+00  0.13226184457E+03  0.36022993273E+04  0.35998704488E+04 0.  0.
        4    1    3    3  502    0 -0.17648416986E+03 -0.14207320561E+04  0.11578018926E+04  0.18412314012E+04  0.12699999809E+01 0. -1.
       -4    1    3    3    0  502  0.17648416986E+03  0.14207320561E+04 -0.10255400480E+04  0.17610679261E+04  0.12699999809E+01 0.  1.
</event>
<event>
 5   0  0.8247570E-09  0.3594945E+04  0.7818609E-02  0.8091651E-01
       -1   -1    0    0    0  501  0.00000000000E+00  0.00000000000E+00  0.31905658270E+04  0.31905658270E+04  0.50400001928E-02 0.  1.
        1   -1    0    0  501    0  0.00000000000E+00  0.00000000000E+00 -0.10126437715E+04  0.10126437716E+04  0.50400001928E-02 0. -1.
    10030    2    1    2    0    0  0.00000000000E+00  0.00000000000E+00  0.21779220554E+04  0.42032095985E+04  0.35949445684E+04 0.  0.
        3    1    3    3  502    0 -0.28731825664E+03  0.17706201115E+04  0.95432905646E+03  0.20318443144E+04  0.10100000352E+00 0. -1.
       -3    1    3    3    0  502  0.28731825664E+03 -0.17706201115E+04  0.12235929990E+04  0.21713652841E+04  0.10100000352E+00 0.  1.
</event>
<event>
 5   0  0.8024500E-09  0.3598979E+04  0.7818609E-02  0.8090726E-01
        1   -1    0    0  501    0  0.00000000000E+00  0.00000000000E+00  0.18842365937E+04  0.18842365937E+04  0.50400001928E-02 0. -1.
       -1   -1    0    0    0  501  0.00000000000E+00  0.00000000000E+00 -0.17185545004E+04  0.17185545004E+04  0.50400001928E-02 0.  1.
    10030    2    1    2    0    0  0.00000000000E+00  0.00000000000E+00  0.16568209330E+03  0.36027910940E+04  0.35989794541E+04 0.  0.
        5    1    3    3  502    0  0.14061481910E+04  0.72949782637E+03 -0.77171483408E+03  0.17620969578E+04  0.46999998093E+01 0.  1.
       -5    1    3    3    0  502 -0.14061481910E+04 -0.72949782637E+03  0.93739692738E+03  0.18406941362E+04  0.46999998093E+01 0. -1.
</event>
<event>
 5   0  0.8146881E-09  0.3596131E+04  0.7818609E-02  0.8091378E-01
       -1   -1    0    0    0  501  0.00000000000E+00  0.00000000000E+00  0.23185068329E+04  0.23185068329E+04  0.50400001928E-02 0.  1.
        1   -1    0    0  501    0  0.00000000000E+00  0.00000000000E+00 -0.13944491997E+04  0.13944491997E+04  0.50400001928E-02 0. -1.
    10030    2    1    2    0    0  0.00000000000E+00  0.00000000000E+00  0.92405763314E+03  0.37129560326E+04  0.35961312533E+04 0.  0.
        4    1    3    3  502    0 -0.36042306726E+03 -0.98091575089E+03 -0.10486992787E+04  0.14804973110E+04  0.12699999809E+01 0. -1.
       -4    1    3    3    0  502  0.36042306726E+03  0.98091575089E+03  0.19727569118E+04  0.22324587216E+04  0.12699999809E+01 0.  1.
</event>
<event>
 5   0  0.2476968E-08  0.3592320E+04  0.7818609E-02  0.8092253E-01
       -2   -1    0    0    0  501  0.00000000000E+00  0.00000000000E+00  0.16149580879E+04  0.16149580879E+04  0.25500000920E-02 0. -1.
        2   -1    0    0  501    0  0.00000000000E+00  0.00000000000E+00 -0.19976930202E+04  0.19976930202E+04  0.25500000920E-02 0.  1.
    10030    2    1    2    0    0  0.00000000000E+00  0.00000000000E+00 -0.38273493233E+03  0.36126511081E+04  0.35923198633E+04 0.  0.
        2    1    3    3  502    0  0.14813601044E+04 -0.98773837873E+03  0.46903072676E+02  0.17810824692E+04  0.25500000920E-02 0.  1.
       -2    1    3    3    0  502 -0.14813601044E+04  0.98773837873E+03 -0.42963800500E+03  0.18315686389E+04  0.25500000920E-02 0. -1.
</event>
<event>
 5   0  0.2590795E-08  0.3601899E+04  0.7818609E-02  0.8090057E-01
       -2   -1    0    0    0  501  0.00000000000E+00  0.00000000000E+00  0.18085814948E+04  0.18085814948E+04  0.25500000920E-02 0. -1.
        2   -1    0    0  501    0  0.00000000000E+00  0.00000000000E+00 -0.17933497185E+04  0.17933497185E+04  0.25500000920E-02 0.  1.
    10030    2    1    2    0    0  0.00000000000E+00  0.00000000000E+00  0.15231776283E+02  0.36019312132E+04  0.36018990072E+04 0.  0.
        4    1    3    3  502    0 -0.13036593079E+04  0.52257981782E+02  0.12490612450E+04  0.18062154065E+04  0.12699999809E+01 0. -1.
       -4    1    3    3    0  502  0.13036593079E+04 -0.52257981782E+02 -0.12338294688E+04  0.17957158068E+04  0.12699999809E+01 0.  1.
</event>
<event>
 5   0  0.2590795E-08  0.3599509E+04  0.7818609E-02  0.8090604E-01
        2   -1    0    0  501    0  0.00000000000E+00  0.00000000000E+00  0.18801579331E+04  0.18801579331E+04  0.25500000920E-02 0.  1.
       -2   -1    0    0    0  501  0.00000000000E+00  0.00000000000E+00 -0.17227893560E+04  0.17227893560E+04  0.25500000920E-02 0. -1.
    10030    2    1    2    0    0  0.00000000000E+00  0.00000000000E+00  0.15736857708E+03  0.36029472891E+04  0.35995088969E+04 0.  0.
        4    1    3    3  502    0 -0.12855339596E+04 -0.58875029597E+03 -0.10358828490E+04  0.17527918764E+04  0.12699999809E+01 0. -1.
       -4    1    3    3    0  502  0.12855339596E+04  0.58875029597E+03  0.11932514261E+04  0.18501554127E+04  0.12699999809E+01 0.  1.
</event>
<event>
 5   0  0.8146881E-09  0.3599447E+04  0.7818609E-02  0.8090618E-01
       -1   -1    0    0    0  501  0.00000000000E+00  0.00000000000E+00  0.16437675696E+04  0.16437675696E+04  0.50400001928E-02 0.  1.
        1   -1    0    0  501    0  0.00000000000E+00  0.00000000000E+00 -0.19704760412E+04  0.19704760412E+04  0.50400001928E-02 0. -1.
    10030    2    1    2    0    0  0.00000000000E+00  0.00000000000E+00 -0.32670847160E+03  0.36142436109E+04  0.35994469649E+04 0.  0.
        4    1    3    3  502    0 -0.77104362274E+03 -0.15599340263E+04 -0.62469979188E+03  0.18488249992E+04  0.12699999809E+01 0. -1.
       -4    1    3    3    0  502  0.77104362274E+03  0.15599340263E+04  0.29799132028E+03  0.17654186117E+04  0.12699999809E+01 0.  1.
</event>
<event>
 5   0  0.2476968E-08  0.3601915E+04  0.7818609E-02  0.8090053E-01
       -2   -1    0    0    0  501  0.00000000000E+00  0.00000000000E+00  0.23367620292E+04  0.23367620292E+04  0.25500000920E-02 0.  1.
        2   -1    0    0  501    0  0.00000000000E+00  0.00000000000E+00 -0.13880095659E+04  0.13880095659E+04  0.25500000920E-02 0. -1.
    10030    2    1    2    0    0  0.00000000000E+00  0.00000000000E+00  0.94875246337E+03  0.37247715951E+04  0.36019150738E+04 0.  0.
        2    1    3    3  502    0  0.62364692134E+03  0.13105258822E+04  0.15770651121E+04  0.21432563865E+04  0.25500000920E-02 0.  1.
       -2    1    3    3    0  502 -0.62364692134E+03 -0.13105258822E+04 -0.62831264876E+03  0.15815152086E+04  0.25500000920E-02 0. -1.
</event>
<event>
 5   0  0.2590795E-08  0.3601960E+04  0.7818609E-02  0.8090043E-01
       -2   -1    0    0    0  501  0.00000000000E+00  0.00000000000E+00  0.15736275402E+04  0.15736275402E+04  0.25500000920E-02 0. -1.
        2   -1    0    0  501    0  0.00000000000E+00  0.00000000000E+00 -0.20611791878E+04  0.20611791878E+04  0.25500000920E-02 0.  1.
    10030    2    1    2    0    0  0.00000000000E+00  0.00000000000E+00 -0.48755164760E+03  0.36348067279E+04  0.36019596528E+04 0.  0.
        4    1    3    3  502    0  0.55075969500E+03  0.15373205251E+04 -0.10101991061E+04  0.19202068861E+04  0.12699999809E+01 0.  1.
       -4    1    3    3    0  502 -0.55075969500E+03 -0.15373205251E+04  0.52264745855E+03  0.17145998418E+04  0.12699999809E+01 0. -1.
</event>
<event>
 5   0  0.2482243E-08  0.3601882E+04  0.7818609E-02  0.8090061E-01
       -2   -1    0    0    0  501  0.00000000000E+00  0.00000000000E+00  0.34713369565E+04  0.34713369565E+04  0.25500000920E-02 0. -1.
        2   -1    0    0  501    0  0.00000000000E+00  0.00000000000E+00 -0.93433419474E+03  0.93433419474E+03  0.25500000920E-02 0.  1.
    10030    2    1    2    0    0  0.00000000000E+00  0.00000000000E+00  0.25370027618E+04  0.44056711513E+04  0.36018821857E+04 0.  0.
        5    1    3    3  502    0 -0.16310825955E+04 -0.39600480280E+03  0.47005318140E+03  0.17430497183E+04  0.46999998093E+01 0. -1.
       -5    1    3    3    0  502  0.16310825955E+04  0.39600480280E+03  0.20669495804E+04  0.26626214329E+04  0.46999998093E+01 0.  1.
</event>
<event>
 5   0  0.8063410E-09  0.3598225E+04  0.7818609E-02  0.8090898E-01
        1   -1    0    0  501    0  0.00000000000E+00  0.00000000000E+00  0.15913019587E+04  0.15913019587E+04  0.50400001928E-02 0.  1.
       -1   -1    0    0    0  501  0.00000000000E+00  0.00000000000E+00 -0.20340611750E+04  0.20340611750E+04  0.50400001928E-02 0. -1.
    10030    2    1    2    0    0  0.00000000000E+00  0.00000000000E+00 -0.44275921632E+03  0.36253631337E+04  0.35982248578E+04 0.  0.
        2    1    3    3  502    0 -0.27526117778E+03 -0.11422296281E+04  0.11513751132E+04  0.16450294498E+04  0.25500000920E-02 0.  1.
       -2    1    3    3    0  502  0.27526117778E+03  0.11422296281E+04 -0.15941343295E+04  0.19803336840E+04  0.25500000920E-02 0. -1.
</event>
<event>
 5   0  0.2482243E-08  0.3599887E+04  0.7818609E-02  0.8090518E-01
       -2   -1    0    0    0  501  0.00000000000E+00  0.00000000000E+00  0.14840031878E+04  0.14840031878E+04  0.25500000920E-02 0.  1.
        2   -1    0    0  501    0  0.00000000000E+00  0.00000000000E+00 -0.21831467567E+04  0.21831467567E+04  0.25500000920E-02 0. -1.
    10030    2    1    2    0    0  0.00000000000E+00  0.00000000000E+00 -0.69914356898E+03  0.36671499445E+04  0.35998870795E+04 0.  0.
        5    1    3    3  502    0 -0.43281831762E+03 -0.29300113215E+02  0.14299466341E+04  0.14943090908E+04  0.46999998093E+01 0.  1.
       -5    1    3    3    0  502  0.43281831762E+03  0.29300113215E+02 -0.21290902030E+04  0.21728408537E+04  0.46999998093E+01 0. -1.
</event>
<event>
 5   0  0.8024500E-09  0.3600199E+04  0.7818609E-02  0.8090446E-01
       -3   -1    0    0    0  501  0.00000000000E+00  0.00000000000E+00  0.17428631317E+04  0.17428631346E+04  0.10100000352E+00 0.  1.
        3   -1    0    0  501    0  0.00000000000E+00  0.00000000000E+00 -0.18592155390E+04  0.18592155417E+04  0.10100000352E+00 0. -1.
    10030    2    1    2    0    0  0.00000000000E+00  0.00000000000E+00 -0.11635240733E+03  0.36020786763E+04  0.36001990095E+04 0.  0.
        4    1    3    3  502    0  0.27197556833E+03  0.94155158093E+03  0.14525348165E+04  0.17522411636E+04  0.12699999809E+01 0.  1.
       -4    1    3    3    0  502 -0.27197556833E+03 -0.94155158093E+03 -0.15688872239E+04  0.18498375127E+04  0.12699999809E+01 0. -1.
</event>
<event>
 5   0  0.8063410E-09  0.3594151E+04  0.7818609E-02  0.8091833E-01
        1   -1    0    0  501    0  0.00000000000E+00  0.00000000000E+00  0.19677755729E+04  0.19677755729E+04  0.50400001928E-02 0.  1.
       -1   -1    0    0    0  501  0.00000000000E+00  0.00000000000E+00 -0.16411831342E+04  0.16411831342E+04  0.50400001928E-02 0. -1.
    10030    2    1    2    0    0  0.00000000000E+00  0.00000000000E+00  0.32659243866E+03  0.36089587072E+04  0.35941508495E+04 0.  0.
        2    1    3    3  502    0 -0.48507568859E+03  0.12282263920E+04 -0.10605944853E+04  0.16937234591E+04  0.25500000920E-02 0. -1.
       -2    1    3    3    0  502  0.48507568859E+03 -0.12282263920E+04  0.13871869239E+04  0.19152352481E+04  0.25500000920E-02 0.  1.
</event>
<event>
 5   0  0.2494592E-08  0.3596124E+04  0.7818609E-02  0.8091380E-01
        2   -1    0    0  501    0  0.00000000000E+00  0.00000000000E+00  0.25173304515E+04  0.25173304515E+04  0.25500000920E-02 0.  1.
       -2   -1    0    0    0  501  0.00000000000E+00  0.00000000000E+00 -0.12843078239E+04  0.12843078239E+04  0.25500000920E-02 0. -1.
    10030    2    1    2    0    0  0.00000000000E+00  0.00000000000E+00  0.12330226276E+04  0.38016382754E+04  0.35961241325E+04 0.  0.
        1    1    3    3  502    0  0.14191966095E+03  0.10584180809E+04  0.21457774954E+04  0.23968210371E+04  0.50400001928E-02 0.  1.
       -1    1    3    3    0  502 -0.14191966095E+03 -0.10584180809E+04 -0.91275486781E+03  0.14048172382E+04  0.50400001928E-02 0. -1.
</event>
<event>
 5   0  0.8146881E-09  0.3599260E+04  0.7818609E-02  0.8090661E-01
       -1   -1    0    0    0  501  0.00000000000E+00  0.00000000000E+00  0.33993563175E+04  0.33993563175E+04  0.50400001928E-02 0. -1.
        1   -1    0    0  501    0  0.00000000000E+00  0.00000000000E+00 -0.95272983696E+03  0.95272983698E+03  0.50400001928E-02 0.  1.
    10030    2    1    2    0    0  0.00000000000E+00  0.00000000000E+00  0.24466264805E+04  0.43520861545E+04  0.35992600296E+04 0.  0.
        4    1    3    3  502    0 -0.12081332467E+04  0.52343959516E+03  0.27067387063E+04  0.30099852140E+04  0.12699999809E+01 0. -1.
       -4    1    3    3    0  502  0.12081332467E+04 -0.52343959516E+03 -0.26011222571E+03  0.13421009405E+04  0.12699999809E+01 0.  1.
</event>
<event>
 5   0  0.2608070E-08  0.3613465E+04  0.7818609E-02  0.8087414E-01
        2   -1    0    0  501    0  0.00000000000E+00  0.00000000000E+00  0.19262246020E+04  0.19262246020E+04  0.25500000920E-02 0. -1.
       -2   -1    0    0    0  501  0.00000000000E+00  0.00000000000E+00 -0.16946534361E+04  0.16946534361E+04  0.25500000920E-02 0.  1.
    10030    2    1    2    0    0  0.00000000000E+00  0.00000000000E+00  0.23157116586E+03  0.36208780381E+04  0.36134654505E+04 0.  0.
        3    1    3    3  502    0 -0.72105383001E+03 -0.16504450156E+04 -0.27321089868E+02  0.18012867144E+04  0.10100000352E+00 0.  1.
       -3    1    3    3    0  502  0.72105383001E+03  0.16504450156E+04  0.25889225573E+03  0.18195913238E+04  0.10100000352E+00 0. -1.
</event>
<event>
 5   0  0.8024500E-09  0.3597897E+04  0.7818609E-02  0.8090973E-01
       -1   -1    0    0    0  501  0.00000000000E+00  0.00000000000E+00  0.23634430952E+04  0.23634430953E+04  0.50400001928E-02 0.  1.
        1   -1    0    0  501    0  0.00000000000E+00  0.00000000000E+00 -0.13692804076E+04  0.13692804076E+04  0.50400001928E-02 0. -1.
    10030    2    1    2    0    0  0.00000000000E+00  0.00000000000E+00  0.99416268766E+03  0.37327235028E+04  0.35978973442E+04 0.  0.
        5    1    3    3  502    0  0.14568989770E+04  0.97312662677E+03  0.92062499935E+03  0.19791671330E+04  0.46999998093E+01 0. -1.
       -5    1    3    3    0  502 -0.14568989770E+04 -0.97312662677E+03  0.73537688311E+02  0.17535563699E+04  0.46999998093E+01 0.  1.
</event>
<event>
 5   0  0.8247570E-09  0.3599210E+04  0.7818609E-02  0.8090673E-01
       -1   -1    0    0    0  501  0.00000000000E+00  0.00000000000E+00  0.21335228753E+04  0.21335228753E+04  0.50400001928E-02 0. -1.
        1   -1    0    0  501    0  0.00000000000E+00  0.00000000000E+00 -0.15179484650E+04  0.15179484650E+04  0.50400001928E-02 0.  1.
    10030    2    1    2    0    0  0.00000000000E+00  0.00000000000E+00  0.61557441028E+03  0.36514713403E+04  0.35992097875E+04 0.  0.
        3    1    3    3  502    0 -0.10904963504E+04 -0.43356643309E+03 -0.10763604211E+04  0.15923925108E+04  0.10100000352E+00 0.  1.
       -3    1    3    3    0  502  0.10904963504E+04  0.43356643309E+03  0.16919348314E+04  0.20590788295E+04  0.10100000352E+00 0. -1.
</event>
<event>
 5   0  0.2476968E-08  0.3607759E+04  0.7818609E-02  0.8088717E-01
        2   -1    0    0  501    0  0.00000000000E+00  0.00000000000E+00  0.27553252470E+04  0.27553252470E+04  0.25500000920E-02 0. -1.
       -2   -1    0    0    0  501  0.00000000000E+00  0.00000000000E+00 -0.11809788152E+04  0.11809788152E+04  0.25500000920E-02 0.  1.
    10030    2    1    2    0    0  0.00000000000E+00  0.00000000000E+00  0.15743464318E+04  0.39363040623E+04  0.36077587202E+04 0.  0.
        2    1    3    3  502    0 -0.53220997521E+03  0.14920374321E+04 -0.15428337617E+03  0.15916112957E+04  0.25500000920E-02 0.  1.
       -2    1    3    3    0  502  0.53220997521E+03 -0.14920374321E+04  0.17286298080E+04  0.23446927666E+04  0.25500000920E-02 0. -1.
</event>
<event>
 5   0  0.2482243E-08  0.3588137E+04  0.7818609E-02  0.8093214E-01
       -2   -1    0    0    0  501  0.00000000000E+00  0.00000000000E+00  0.20596764205E+04  0.20596764205E+04  0.25500000920E-02 0.  1.
        2   -1    0    0  501    0  0.00000000000E+00  0.00000000000E+00 -0.15627127550E+04  0.15627127550E+04  0.25500000920E-02 0. -1.
    10030    2    1    2    0    0  0.00000000000E+00  0.00000000000E+00  0.49696366547E+03  0.36223891755E+04  0.35881374631E+04 0.  0.
        5    1    3    3  502    0 -0.14674151567E+04 -0.86526343250E+03  0.81659020836E+03  0.18891346453E+04  0.46999998093E+01 0.  1.
       -5    1    3    3    0  502  0.14674151567E+04  0.86526343250E+03 -0.31962654289E+03  0.17332545302E+04  0.46999998093E+01 0. -1.
</event>
<event>
 5   0  0.8146881E-09  0.3599534E+04  0.7818609E-02  0.8090598E-01
        1   -1    0    0  501    0  0.00000000000E+00  0.00000000000E+00  0.15989232760E+04  0.15989232760E+04  0.50400001928E-02 0.  1.
       -1   -1    0    0    0  501  0.00000000000E+00  0.00000000000E+00 -0.20258396356E+04  0.20258396356E+04  0.50400001928E-02 0. -1.
    10030    2    1    2    0    0  0.00000000000E+00  0.00000000000E+00 -0.42691635957E+03  0.36247629116E+04  0.35995344959E+04 0.  0.
        4    1    3    3  502    0  0.27716762237E+03 -0.12286358831E+04 -0.15080785424E+04  0.19648589076E+04  0.12699999809E+01 0. -1.
       -4    1    3    3    0  502 -0.27716762237E+03  0.12286358831E+04  0.10811621828E+04  0.16599040040E+04  0.12699999809E+01 0.  1.
</event>
<event>
 5   0  0.2590795E-08  0.3594591E+04  0.7818609E-02  0.8091732E-01
        2   -1    0    0  501    0  0.00000000000E+00  0.00000000000E+00  0.15167983285E+04  0.15167983286E+04  0.25500000920E-02 0.  1.
       -2   -1    0    0    0  501  0.00000000000E+00  0.00000000000E+00 -0.21296640755E+04  0.21296640755E+04  0.25500000920E-02 0. -1.
    10030    2    1    2    0    0  0.00000000000E+00  0.00000000000E+00 -0.61286574694E+03  0.36464624040E+04  0.35945908864E+04 0.  0.
        4    1    3    3  502    0  0.10167380599E+04  0.38136947209E+03  0.11463895979E+04  0.15790534126E+04  0.12699999809E+01 0.  1.
       -4    1    3    3    0  502 -0.10167380599E+04 -0.38136947209E+03 -0.17592553448E+04  0.20674089915E+04  0.12699999809E+01 0. -1.
</event>
<event>
 5   0  0.8024500E-09  0.3599825E+04  0.7818609E-02  0.8090532E-01
       -1   -1    0    0    0  501  0.00000000000E+00  0.00000000000E+00  0.14142243161E+04  0.14142243161E+04  0.50400001928E-02 0.  1.
        1   -1    0    0  501    0  0.00000000000E+00  0.00000000000E+00 -0.22907854859E+04  0.22907854859E+04  0.50400001928E-02 0. -1.
    10030    2    1    2    0    0  0.00000000000E+00  0.00000000000E+00 -0.87656116976E+03  0.37050098020E+04  0.35998247386E+04 0.  0.
        5    1    3    3  502    0  0.13244481488E+03  0.12024263005E+04 -0.18099996058E+04  0.21770372758E+04  0.46999998093E+01 0. -1.
       -5    1    3    3    0  502 -0.13244481488E+03 -0.12024263005E+04  0.93343843605E+03  0.15279725263E+04  0.46999998093E+01 0.  1.
</event>
<event>
 5   0  0.2476968E-08  0.3598712E+04  0.7818609E-02  0.8090787E-01
       -2   -1    0    0    0  501  0.00000000000E+00  0.00000000000E+00  0.13479505123E+04  0.13479505123E+04  0.25500000920E-02 0.  1.
        2   -1    0    0  501    0  0.00000000000E+00  0.00000000000E+00 -0.24019292177E+04  0.24019292177E+04  0.25500000920E-02 0. -1.
    10030    2    1    2    0    0  0.00000000000E+00  0.00000000000E+00 -0.10539787054E+04  0.37498797300E+04  0.35987118360E+04 0.  0.
        2    1    3    3  502    0  0.15887915942E+04 -0.76586272919E+03 -0.15582848687E+03  0.17706176795E+04  0.25500000920E-02 0.  1.
       -2    1    3    3    0  502 -0.15887915942E+04  0.76586272919E+03 -0.89815021851E+03  0.19792620505E+04  0.25500000920E-02 0. -1.
</event>
<event>
 5   0  0.2608070E-08  0.3599757E+04  0.7818609E-02  0.8090547E-01
        2   -1    0    0  501    0  0.00000000000E+00  0.00000000000E+00  0.27047528018E+04  0.27047528018E+04  0.25500000920E-02 0. -1.
       -2   -1    0    0    0  501  0.00000000000E+00  0.00000000000E+00 -0.11977295377E+04  0.11977295377E+04  0.25500000920E-02 0.  1.
    10030    2    1    2    0    0  0.00000000000E+00  0.00000000000E+00  0.15070232642E+04  0.39024823395E+04  0.35997568378E+04 0.  0.
        3    1    3    3  502    0 -0.50153057491E+03  0.51739433889E+02  0.26266315625E+04  0.26745846896E+04  0.10100000352E+00 0. -1.
       -3    1    3    3    0  502  0.50153057491E+03 -0.51739433889E+02 -0.11196082984E+04  0.12278976499E+04  0.10100000352E+00 0.  1.
</event>
<event>
 5   0  0.8063410E-09  0.3597992E+04  0.7818609E-02  0.8090952E-01
       -1   -1    0    0    0  501  0.00000000000E+00  0.00000000000E+00  0.18696861830E+04  0.18696861830E+04  0.50400001928E-02 0.  1.
        1   -1    0    0  501    0  0.00000000000E+00  0.00000000000E+00 -0.17309785080E+04  0.17309785080E+04  0.50400001928E-02 0. -1.
    10030    2    1    2    0    0  0.00000000000E+00  0.00000000000E+00  0.13870767499E+03  0.36006646911E+04  0.35979919953E+04 0.  0.
        2    1    3    3  502    0 -0.16566937925E+04 -0.21231336697E+03  0.73818802153E+03  0.18260977090E+04  0.25500000920E-02 0. -1.
       -2    1    3    3    0  502  0.16566937925E+04  0.21231336697E+03 -0.59948034655E+03  0.17745669820E+04  0.25500000920E-02 0.  1.
</event>
<event>
 5   0  0.8024500E-09  0.3600691E+04  0.7818609E-02  0.8090333E-01
        1   -1    0    0  501    0  0.00000000000E+00  0.00000000000E+00  0.22002944369E+04  0.22002944370E+04  0.50400001928E-02 0. -1.
       -1   -1    0    0    0  501  0.00000000000E+00  0.00000000000E+00 -0.14730957413E+04  0.14730957414E+04  0.50400001928E-02 0.  1.
    10030    2    1    2    0    0  0.00000000000E+00  0.00000000000E+00  0.72719869560E+03  0.36733901783E+04  0.36006912474E+04 0.  0.
        5    1    3    3  502    0 -0.11638722072E+04 -0.13652756854E+04  0.51712379162E+03  0.18670873889E+04  0.46999998093E+01 0.  1.
       -5    1    3    3    0  502  0.11638722072E+04  0.13652756854E+04  0.21007490398E+03  0.18063027894E+04  0.46999998093E+01 0. -1.
</event>
<event>
 5   0  0.2608070E-08  0.3601009E+04  0.7818609E-02  0.8090261E-01
       -2   -1    0    0    0  501  0.00000000000E+00  0.00000000000E+00  0.28497054439E+04  0.28497054439E+04  0.25500000920E-02 0.  1.
        2   -1    0    0  501    0  0.00000000000E+00  0.00000000000E+00 -0.11375968029E+04  0.11375968029E+04  0.25500000920E-02 0. -1.
    10030    2    1    2    0    0  0.00000000000E+00  0.00000000000E+00  0.17121086411E+04  0.39873022468E+04  0.36010086377E+04 0.  0.
        3    1    3    3  502    0  0.33471016595E+02  0.10561656443E+03 -0.11338187300E+04  0.11392190704E+04  0.10100000352E+00 0. -1.
       -3    1    3    3    0  502 -0.33471016595E+02 -0.10561656443E+03  0.28459273711E+04  0.28480831764E+04  0.10100000352E+00 0.  1.
</event>
<event>
 5   0  0.2608070E-08  0.3599555E+04  0.7818609E-02  0.8090594E-01
        2   -1    0    0  501    0  0.00000000000E+00  0.00000000000E+00  0.22529140211E+04  0.22529140211E+04  0.25500000920E-02 0.  1.
       -2   -1    0    0    0  501  0.00000000000E+00  0.00000000000E+00 -0.14377820763E+04  0.14377820763E+04  0.25500000920E-02 0. -1.
    10030    2    1    2    0    0  0.00000000000E+00  0.00000000000E+00  0.81513194486E+03  0.36906960974E+04  0.35995551942E+04 0.  0.
        3    1    3    3  502    0  0.11633179363E+04 -0.20577540944E+03 -0.98458580021E+03  0.15378755958E+04  0.10100000352E+00 0. -1.
       -3    1    3    3    0  502 -0.11633179363E+04  0.20577540944E+03  0.17997177451E+04  0.21528205016E+04  0.10100000352E+00 0.  1.
</event>
<event>
 5   0  0.2476968E-08  0.3600253E+04  0.7818609E-02  0.8090434E-01
       -2   -1    0    0    0  501  0.00000000000E+00  0.00000000000E+00  0.13521997027E+04  0.13521997027E+04  0.25500000920E-02 0. -1.
        2   -1    0    0  501    0  0.00000000000E+00  0.00000000000E+00 -0.23964325269E+04  0.23964325269E+04  0.25500000920E-02 0.  1.
    10030    2    1    2    0    0  0.00000000000E+00  0.00000000000E+00 -0.10442328242E+04  0.37486322297E+04  0.36002529636E+04 0.  0.
        2    1    3    3  502    0  0.11267084244E+04  0.74892327553E+03 -0.17585317242E+04  0.22187365258E+04  0.25500000920E-02 0.  1.
       -2    1    3    3    0  502 -0.11267084244E+04 -0.74892327553E+03  0.71429889994E+03  0.15298957038E+04  0.25500000920E-02 0. -1.
</event>
<event>
 5   0  0.8024500E-09  0.3600246E+04  0.7818609E-02  0.8090435E-01
       -1   -1    0    0    0  501  0.00000000000E+00  0.00000000000E+00  0.16725440770E+04  0.16725440770E+04  0.50400001928E-02 0.  1.
        1   -1    0    0  501    0  0.00000000000E+00  0.00000000000E+00 -0.19374338059E+04  0.19374338059E+04  0.50400001928E-02 0. -1.
    10030    2    1    2    0    0  0.00000000000E+00  0.00000000000E+00 -0.26488972895E+03  0.36099778829E+04  0.36002463453E+04 0.  0.
        1    1    3    3  502    0 -0.14492237261E+04  0.10117444388E+04  0.20989741700E+03  0.17798688557E+04  0.50400001928E-02 0.  1.
       -1    1    3    3    0  502  0.14492237261E+04 -0.10117444388E+04 -0.47478714595E+03  0.18301090273E+04  0.50400001928E-02 0. -1.
</event>
<event>
 5   0  0.2590795E-08  0.3601314E+04  0.7818609E-02  0.8090191E-01
       -2   -1    0    0    0  501  0.00000000000E+00  0.00000000000E+00  0.22756900121E+04  0.22756900121E+04  0.25500000920E-02 0.  1.
        2   -1    0    0  501    0  0.00000000000E+00  0.00000000000E+00 -0.14247832586E+04  0.14247832586E+04  0.25500000920E-02 0. -1.
    10030    2    1    2    0    0  0.00000000000E+00  0.00000000000E+00  0.85090675350E+03  0.37004732708E+04  0.36013136665E+04 0.  0.
        4    1    3    3  502    0  0.14342445255E+04  0.10685737898E+04  0.63965451319E+03  0.18994911983E+04  0.12699999809E+01 0. -1.
       -4    1    3    3    0  502 -0.14342445255E+04 -0.10685737898E+04  0.21125224031E+03  0.18009820725E+04  0.12699999809E+01 0.  1.
</event>
<event>
 5   0  0.2608070E-08  0.3600141E+04  0.7818609E-02  0.8090459E-01
       -2   -1    0    0    0  501  0.00000000000E+00  0.00000000000E+00  0.13241598812E+04  0.13241598812E+04  0.25500000920E-02 0. -1.
        2   -1    0    0  501    0  0.00000000000E+00  0.00000000000E+00 -0.24470264660E+04  0.24470264660E+04  0.25500000920E-02 0.  1.
    10030    2    1    2    0    0  0.00000000000E+00  0.00000000000E+00 -0.11228665848E+04  0.37711863472E+04  0.36001412609E+04 0.  0.
        3    1    3    3  502    0  0.14895936776E+04  0.89096102267E+03 -0.61743920863E+02  0.17368112131E+04  0.10100000352E+00 0. -1.
       -3    1    3    3    0  502 -0.14895936776E+04 -0.89096102267E+03 -0.10611226639E+04  0.20343751341E+04  0.10100000352E+00 0.  1.
</event>
<event>
 5   0  0.8063410E-09  0.3600739E+04  0.7818609E-02  0.8090322E-01
        1   -1    0    0  501    0  0.00000000000E+00  0.00000000000E+00  0.22232032040E+04  0.22232032040E+04  0.50400001928E-02 0.  1.
       -1   -1    0    0    0  501  0.00000000000E+00  0.00000000000E+00 -0.14579549796E+04  0.14579549796E+04  0.50400001928E-02 0. -1.
    10030    2    1    2    0    0  0.00000000000E+00  0.00000000000E+00  0.76524822443E+03  0.36811581837E+04  0.36007389142E+04 0.  0.
        2    1    3    3  502    0  0.10640580656E+04  0.13266029547E+04 -0.22153574076E+03  0.17149848545E+04  0.25500000920E-02 0. -1.
       -2    1    3    3    0  502 -0.10640580656E+04 -0.13266029547E+04  0.98678396519E+03  0.19661733292E+04  0.25500000920E-02 0.  1.
</event>
<event>
 5   0  0.8024500E-09  0.3601285E+04  0.7818609E-02  0.8090197E-01
        1   -1    0    0  501    0  0.00000000000E+00  0.00000000000E+00  0.18734377487E+04  0.18734377487E+04  0.50400001928E-02 0. -1.
       -1   -1    0    0    0  501  0.00000000000E+00  0.00000000000E+00 -0.17306754531E+04  0.17306754531E+04  0.50400001928E-02 0.  1.
    10030    2    1    2    0    0  0.00000000000E+00  0.00000000000E+00  0.14276229557E+03  0.36041132018E+04  0.36012846178E+04 0.  0.
        1    1    3    3  502    0 -0.11737504115E+04 -0.51963815596E+03  0.13351472583E+04  0.18521155588E+04  0.50400001928E-02 0. -1.
       -1    1    3    3    0  502  0.11737504115E+04  0.51963815596E+03 -0.11923849627E+04  0.17519976430E+04  0.50400001928E-02 0.  1.
</event>
<event>
 5   0  0.2494592E-08  0.3600081E+04  0.7818609E-02  0.8090473E-01
        2   -1    0    0  501    0  0.00000000000E+00  0.00000000000E+00  0.24107046457E+04  0.24107046457E+04  0.25500000920E-02 0. -1.
       -2   -1    0    0    0  501  0.00000000000E+00  0.00000000000E+00 -0.13440658445E+04  0.13440658446E+04  0.25500000920E-02 0.  1.
    10030    2    1    2    0    0  0.00000000000E+00  0.00000000000E+00  0.10666388011E+04  0.37547704902E+04  0.36000809855E+04 0.  0.
        1    1    3    3  502    0  0.11787195855E+04 -0.13446068105E+04  0.31755236652E+03  0.18160910885E+04  0.50400001928E-02 0. -1.
       -1    1    3    3    0  502 -0.11787195855E+04  0.13446068105E+04  0.74908643459E+03  0.19386794017E+04  0.50400001928E-02 0.  1.
</event>
<event>
 5   0  0.8024500E-09  0.3600370E+04  0.7818609E-02  0.8090407E-01
       -1   -1    0    0    0  501  0.00000000000E+00  0.00000000000E+00  0.17499632572E+04  0.17499632573E+04  0.50400001928E-02 0.  1.
        1   -1    0    0  501    0  0.00000000000E+00  0.00000000000E+00 -0.18518477383E+04  0.18518477383E+04  0.50400001928E-02 0. -1.
    10030    2    1    2    0    0  0.00000000000E+00  0.00000000000E+00 -0.10188448106E+03  0.36018109956E+04  0.36003697033E+04 0.  0.
        5    1    3    3  502    0 -0.69916011787E+03  0.16418846136E+04 -0.28775086938E+03  0.18076041070E+04  0.46999998093E+01 0. -1.
       -5    1    3    3    0  502  0.69916011787E+03 -0.16418846136E+04  0.18586638832E+03  0.17942068886E+04  0.46999998093E+01 0.  1.
</event>
<event>
 5   0  0.8024500E-09  0.3598706E+04  0.7818609E-02  0.8090788E-01
       -1   -1    0    0    0  501  0.00000000000E+00  0.00000000000E+00  0.29914290051E+04  0.29914290051E+04  0.50400001928E-02 0. -1.
        1   -1    0    0  501    0  0.00000000000E+00  0.00000000000E+00 -0.10823158860E+04  0.10823158861E+04  0.50400001928E-02 0.  1.
    10030    2    1    2    0    0  0.00000000000E+00  0.00000000000E+00  0.19091131190E+04  0.40737448911E+04  0.35987059531E+04 0.  0.
        1    1    3    3  502    0 -0.12299284193E+04 -0.12670155921E+04  0.13460703086E+04  0.22203508063E+04  0.50400001928E-02 0. -1.
       -1    1    3    3    0  502  0.12299284193E+04  0.12670155921E+04  0.56304281040E+03  0.18533940848E+04  0.50400001928E-02 0.  1.
</event>
<event>
 5   0  0.2608070E-08  0.3598814E+04  0.7818609E-02  0.8090763E-01
        2   -1    0    0  501    0  0.00000000000E+00  0.00000000000E+00  0.28480618597E+04  0.28480618597E+04  0.25500000920E-02 0.  1.
       -2   -1    0    0    0  501  0.00000000000E+00  0.00000000000E+00 -0.11368663668E+04  0.11368663668E+04  0.25500000920E-02 0. -1.
    10030    2    1    2    0    0  0.00000000000E+00  0.00000000000E+00  0.17111954930E+04  0.39849282265E+04  0.35988141040E+04 0.  0.
        3    1    3    3  502    0 -0.16347722607E+04  0.73526762910E+03  0.10298574197E+04  0.20672941605E+04  0.10100000352E+00 0. -1.
       -3    1    3    3    0  502  0.16347722607E+04 -0.73526762910E+03  0.68133807330E+03  0.19176340660E+04  0.10100000352E+00 0.  1.
</event>
<event>
 5   0  0.8024500E-09  0.3600007E+04  0.7818609E-02  0.8090490E-01
        1   -1    0    0  501    0  0.00000000000E+00  0.00000000000E+00  0.10709793789E+04  0.10709793789E+04  0.50400001928E-02 0.  1.
       -1   -1    0    0    0  501  0.00000000000E+00  0.00000000000E+00 -0.30252793333E+04  0.30252793333E+04  0.50400001928E-02 0. -1.
    10030    2    1    2    0    0  0.00000000000E+00  0.00000000000E+00 -0.19542999543E+04  0.40962587122E+04  0.36000065452E+04 0.  0.
        1    1    3    3  502    0  0.17377528714E+04  0.86491717049E+02 -0.45232474090E+03  0.17977384488E+04  0.50400001928E-02 0. -1.
       -1    1    3    3    0  502 -0.17377528714E+04 -0.86491717049E+02 -0.15019752134E+04  0.22985202633E+04  0.50400001928E-02 0.  1.
</event>
<event>
 5   0  0.8024500E-09  0.3600221E+04  0.7818609E-02  0.8090441E-01
       -1   -1    0    0    0  501  0.00000000000E+00  0.00000000000E+00  0.30849665322E+04  0.30849665322E+04  0.50400001928E-02 0.  1.
        1   -1    0    0  501    0  0.00000000000E+00  0.00000000000E+00 -0.10503834791E+04  0.10503834791E+04  0.50400001928E-02 0. -1.
    10030    2    1    2    0    0  0.00000000000E+00  0.00000000000E+00  0.20345830531E+04  0.41353500113E+04  0.36002210371E+04 0.  0.
        1    1    3    3  502    0 -0.79212175928E+03 -0.62332284366E+03 -0.69583914879E+03  0.12248185049E+04  0.50400001928E-02 0. -1.
       -1    1    3    3    0  502  0.79212175928E+03  0.62332284366E+03  0.27304222019E+04  0.29105315064E+04  0.50400001928E-02 0.  1.
</event>
<event>
 5   0  0.8063410E-09  0.3599682E+04  0.7818609E-02  0.8090565E-01
       -1   -1    0    0    0  501  0.00000000000E+00  0.00000000000E+00  0.16231747016E+04  0.16231747017E+04  0.50400001928E-02 0. -1.
        1   -1    0    0  501    0  0.00000000000E+00  0.00000000000E+00 -0.19957352194E+04  0.19957352194E+04  0.50400001928E-02 0.  1.
    10030    2    1    2    0    0  0.00000000000E+00  0.00000000000E+00 -0.37256051776E+03  0.36189099211E+04  0.35996816078E+04 0.  0.
        2    1    3    3  502    0 -0.17202424204E+04  0.49426725110E+03  0.41857440995E+01  0.17898468149E+04  0.25500000920E-02 0. -1.
       -2    1    3    3    0  502  0.17202424204E+04 -0.49426725110E+03 -0.37674626185E+03  0.18290631061E+04  0.25500000920E-02 0.  1.
</event>
<event>
 5   0  0.2494592E-08  0.3599959E+04  0.7818609E-02  0.8090501E-01
        2   -1    0    0  501    0  0.00000000000E+00  0.00000000000E+00  0.22922789618E+04  0.22922789618E+04  0.25500000920E-02 0.  1.
       -2   -1    0    0    0  501  0.00000000000E+00  0.00000000000E+00 -0.14134080303E+04  0.14134080303E+04  0.25500000920E-02 0. -1.
    10030    2    1    2    0    0  0.00000000000E+00  0.00000000000E+00  0.87887093154E+03  0.37056869921E+04  0.35999586066E+04 0.  0.
        1    1    3    3  502    0  0.12657632514E+04  0.57206030223E+03  0.16178344844E+04  0.21323222123E+04  0.50400001928E-02 0.  1.
       -1    1    3    3    0  502 -0.12657632514E+04 -0.57206030223E+03 -0.73896355288E+03  0.15733647798E+04  0.50400001928E-02 0. -1.
</event>
<event>
 5   0  0.2608070E-08  0.3600218E+04  0.7818609E-02  0.8090442E-01
        2   -1    0    0  501    0  0.00000000000E+00  0.00000000000E+00  0.13745364352E+04  0.13745364352E+04  0.25500000920E-02 0.  1.
       -2   -1    0    0    0  501  0.00000000000E+00  0.00000000000E+00 -0.23574440044E+04  0.23574440044E+04  0.25500000920E-02 0. -1.
    10030    2    1    2    0    0  0.00000000000E+00  0.00000000000E+00 -0.98290756914E+03  0.37319804396E+04  0.36002181478E+04 0.  0.
        3    1    3    3  502    0 -0.17145177237E+04 -0.54668078460E+03 -0.53736658409E+03  0.18780824692E+04  0.10100000352E+00 0. -1.
       -3    1    3    3    0  502  0.17145177237E+04  0.54668078460E+03 -0.44554098505E+03  0.18538979704E+04  0.10100000352E+00 0.  1.
</event>
<event>
 5   0  0.2476968E-08  0.3595451E+04  0.7818609E-02  0.8091534E-01
       -2   -1    0    0    0  501  0.00000000000E+00  0.00000000000E+00  0.25184344929E+04  0.25184344929E+04  0.25500000920E-02 0.  1.
        2   -1    0    0  501    0  0.00000000000E+00  0.00000000000E+00 -0.12832646061E+04  0.12832646061E+04  0.25500000920E-02 0. -1.
    10030    2    1    2    0    0  0.00000000000E+00  0.00000000000E+00  0.12351698869E+04  0.38016990990E+04  0.35954514862E+04 0.  0.
        2    1    3    3  502    0  0.37207643117E+03  0.16911976190E+04  0.11282242824E+04  0.20667559819E+04  0.25500000920E-02 0.  1.
       -2    1    3    3    0  502 -0.37207643117E+03 -0.16911976190E+04  0.10694560446E+03  0.17349431171E+04  0.25500000920E-02 0. -1.
</event>
<event>
 5   0  0.2590795E-08  0.3599663E+04  0.7818609E-02  0.8090569E-01
        2   -1    0    0  501    0  0.00000000000E+00  0.00000000000E+00  0.18638784275E+04  0.18638784275E+04  0.25500000920E-02 0. -1.
       -2   -1    0    0    0  501  0.00000000000E+00  0.00000000000E+00 -0.17379849107E+04  0.17379849107E+04  0.25500000920E-02 0.  1.
    10030    2    1    2    0    0  0.00000000000E+00  0.00000000000E+00  0.12589351681E+03  0.36018633383E+04  0.35996625300E+04 0.  0.
        4    1    3    3  502    0  0.13944394193E+04 -0.63834885621E+03  0.10055632735E+04  0.18338783128E+04  0.12699999809E+01 0. -1.
       -4    1    3    3    0  502 -0.13944394193E+04  0.63834885621E+03 -0.87966975666E+03  0.17679850254E+04  0.12699999809E+01 0.  1.
</event>
<event>
 5   0  0.2608070E-08  0.3591153E+04  0.7818609E-02  0.8092521E-01
        2   -1    0    0  501    0  0.00000000000E+00  0.00000000000E+00  0.19294223307E+04  0.19294223307E+04  0.25500000920E-02 0. -1.
       -2   -1    0    0    0  501  0.00000000000E+00  0.00000000000E+00 -0.16710160260E+04  0.16710160260E+04  0.25500000920E-02 0.  1.
    10030    2    1    2    0    0  0.00000000000E+00  0.00000000000E+00  0.25840630467E+03  0.36004383567E+04  0.35911533722E+04 0.  0.
        3    1    3    3  502    0  0.76153113881E+02 -0.17938321624E+04  0.10764169404E+03  0.17986716955E+04  0.10100000352E+00 0. -1.
       -3    1    3    3    0  502 -0.76153113881E+02  0.17938321624E+04  0.15076461064E+03  0.18017666613E+04  0.10100000352E+00 0.  1.
</event>
<event>
 5   0  0.8024500E-09  0.3599283E+04  0.7818609E-02  0.8090656E-01
       -1   -1    0    0    0  501  0.00000000000E+00  0.00000000000E+00  0.12289217296E+04  0.12289217296E+04  0.50400001928E-02 0.  1.
        1   -1    0    0  501    0  0.00000000000E+00  0.00000000000E+00 -0.26354075174E+04  0.26354075174E+04  0.50400001928E-02 0. -1.
    10030    2    1    2    0    0  0.00000000000E+00  0.00000000000E+00 -0.14064857878E+04  0.38643292470E+04  0.35992830200E+04 0.  0.
        1    1    3    3  502    0  0.87518388566E+03  0.94082558949E+03  0.64954599998E+03  0.14397949957E+04  0.50400001928E-02 0.  1.
       -1    1    3    3    0  502 -0.87518388566E+03 -0.94082558949E+03 -0.20560317878E+04  0.24245342513E+04  0.50400001928E-02 0. -1.
</event>
<event>
 5   0  0.8024500E-09  0.3599473E+04  0.7818609E-02  0.8090612E-01
        3   -1    0    0  501    0  0.00000000000E+00  0.00000000000E+00  0.14161977505E+04  0.14161977541E+04  0.10100000352E+00 0.  1.
       -3   -1    0    0    0  501  0.00000000000E+00  0.00000000000E+00 -0.22871465428E+04  0.22871465451E+04  0.10100000352E+00 0. -1.
    10030    2    1    2    0    0  0.00000000000E+00  0.00000000000E+00 -0.87094879237E+03  0.37033442991E+04  0.35994731835E+04 0.  0.
        5    1    3    3  502    0  0.16656280662E+04  0.47547834373E+03  0.67123399989E+02  0.17334717047E+04  0.46999998093E+01 0.  1.
       -5    1    3    3    0  502 -0.16656280662E+04 -0.47547834373E+03 -0.93807219236E+03  0.19698725944E+04  0.46999998093E+01 0. -1.
</event>
<event>
 5   0  0.2590795E-08  0.3598852E+04  0.7818609E-02  0.8090755E-01
       -2   -1    0    0    0  501  0.00000000000E+00  0.00000000000E+00  0.14475849858E+04  0.14475849858E+04  0.25500000920E-02 0.  1.
        2   -1    0    0  501    0  0.00000000000E+00  0.00000000000E+00 -0.22367828250E+04  0.22367828250E+04  0.25500000920E-02 0. -1.
    10030    2    1    2    0    0  0.00000000000E+00  0.00000000000E+00 -0.78919783919E+03  0.36843678109E+04  0.35988516136E+04 0.  0.
        4    1    3    3  502    0  0.11670082410E+04 -0.57959692761E+03  0.87589385811E+03  0.15700421958E+04  0.12699999809E+01 0.  1.
       -4    1    3    3    0  502 -0.11670082410E+04  0.57959692761E+03 -0.16650916973E+04  0.21143256150E+04  0.12699999809E+01 0. -1.
</event>
<event>
 5   0  0.2476968E-08  0.3600432E+04  0.7818609E-02  0.8090393E-01
       -2   -1    0    0    0  501  0.00000000000E+00  0.00000000000E+00  0.26292100489E+04  0.26292100489E+04  0.25500000920E-02 0.  1.
        2   -1    0    0  501    0  0.00000000000E+00  0.00000000000E+00 -0.12326049237E+04  0.12326049237E+04  0.25500000920E-02 0. -1.
    10030    2    1    2    0    0  0.00000000000E+00  0.00000000000E+00  0.13966051252E+04  0.38618149727E+04  0.36004317807E+04 0.  0.
        2    1    3    3  502    0  0.27130656289E+03 -0.95576490652E+03 -0.91191045254E+03  0.13485823968E+04  0.25500000920E-02 0. -1.
       -2    1    3    3    0  502 -0.27130656289E+03  0.95576490652E+03  0.23085155777E+04  0.25132325758E+04  0.25500000920E-02 0.  1.
</event>
<event>
 5   0  0.8063410E-09  0.3598963E+04  0.7818609E-02  0.8090729E-01
       -1   -1    0    0    0  501  0.00000000000E+00  0.00000000000E+00  0.22018418390E+04  0.22018418390E+04  0.50400001928E-02 0. -1.
        1   -1    0    0  501    0  0.00000000000E+00  0.00000000000E+00 -0.14706473351E+04  0.14706473351E+04  0.50400001928E-02 0.  1.
    10030    2    1    2    0    0  0.00000000000E+00  0.00000000000E+00  0.73119450392E+03  0.36724891741E+04  0.35989625354E+04 0.  0.
        2    1    3    3  502    0  0.38616116985E+03 -0.16691424965E+04  0.92727485226E+03  0.19480748893E+04  0.25500000920E-02 0. -1.
       -2    1    3    3    0  502 -0.38616116985E+03  0.16691424965E+04 -0.19608034834E+03  0.17244142848E+04  0.25500000920E-02 0.  1.
</event>
<event>
 5   0  0.8063410E-09  0.3598655E+04  0.7818609E-02  0.8090800E-01
        1   -1    0    0  501    0  0.00000000000E+00  0.00000000000E+00  0.20989168870E+04  0.20989168870E+04  0.50400001928E-02 0. -1.
       -1   -1    0    0    0  501  0.00000000000E+00  0.00000000000E+00 -0.15425003980E+04  0.15425003980E+04  0.50400001928E-02 0.  1.
    10030    2    1    2    0    0  0.00000000000E+00  0.00000000000E+00  0.55641648901E+03  0.36414172851E+04  0.35986553787E+04 0.  0.
        2    1    3    3  502    0  0.69479766476E+03  0.16058444182E+04  0.70283750940E+03  0.18855929187E+04  0.25500000920E-02 0. -1.
       -2    1    3    3    0  502 -0.69479766476E+03 -0.16058444182E+04 -0.14642102039E+03  0.17558243664E+04  0.25500000920E-02 0.  1.
</event>
<event>
 5   0  0.2494592E-08  0.3600248E+04  0.7818609E-02  0.8090435E-01
       -2   -1    0    0    0  501  0.00000000000E+00  0.00000000000E+00  0.17951688481E+04  0.17951688481E+04  0.25500000920E-02 0.  1.
        2   -1    0    0  501    0  0.00000000000E+00  0.00000000000E+00 -0.18050929591E+04  0.18050929591E+04  0.25500000920E-02 0. -1.
    10030    2    1    2    0    0  0.00000000000E+00  0.00000000000E+00 -0.99241109974E+01  0.36002618071E+04  0.36002481292E+04 0.  0.
        1    1    3    3  502    0 -0.13683170148E+04  0.91096173472E+03 -0.73865681693E+03  0.18021533310E+04  0.50400001928E-02 0. -1.
       -1    1    3    3    0  502  0.13683170148E+04 -0.91096173472E+03  0.72873270593E+03  0.17981084761E+04  0.50400001928E-02 0.  1.
</event>
<event>
 5   0  0.8024500E-09  0.3600126E+04  0.7818609E-02  0.8090463E-01
        1   -1    0    0  501    0  0.00000000000E+00  0.00000000000E+00  0.16417979527E+04  0.16417979527E+04  0.50400001928E-02 0.  1.
       -1   -1    0    0    0  501  0.00000000000E+00  0.00000000000E+00 -0.19735844601E+04  0.19735844601E+04  0.50400001928E-02 0. -1.
    10030    2    1    2    0    0  0.00000000000E+00  0.00000000000E+00 -0.33178650737E+03  0.36153824129E+04  0.36001260679E+04 0.  0.
        1    1    3    3  502    0 -0.62344781324E+03 -0.14797028854E+04 -0.98298683476E+03  0.18826765315E+04  0.50400001928E-02 0. -1.
       -1    1    3    3    0  502  0.62344781324E+03  0.14797028854E+04  0.65120032739E+03  0.17327058814E+04  0.50400001928E-02 0.  1.
</event>
<event>
 5   0  0.8024500E-09  0.3599594E+04  0.7818609E-02  0.8090585E-01
        1   -1    0    0  501    0  0.00000000000E+00  0.00000000000E+00  0.18462780627E+04  0.18462780627E+04  0.50400001928E-02 0.  1.
       -1   -1    0    0    0  501  0.00000000000E+00  0.00000000000E+00 -0.17544860850E+04  0.17544860850E+04  0.50400001928E-02 0. -1.
    10030    2    1    2    0    0  0.00000000000E+00  0.00000000000E+00  0.91791977671E+02  0.36007641477E+04  0.35995939605E+04 0.  0.
        5    1    3    3  502    0 -0.12664044901E+03  0.10766115491E+04 -0.13912745331E+04  0.17637452048E+04  0.46999998093E+01 0. -1.
       -5    1    3    3    0  502  0.12664044901E+03 -0.10766115491E+04  0.14830665108E+04  0.18370189429E+04  0.46999998093E+01 0.  1.
</event>
<event>
 5   0  0.8024500E-09  0.3595309E+04  0.7818609E-02  0.8091567E-01
       -1   -1    0    0    0  501  0.00000000000E+00  0.00000000000E+00  0.26023455665E+04  0.26023455665E+04  0.50400001928E-02 0.  1.
        1   -1    0    0  501    0  0.00000000000E+00  0.00000000000E+00 -0.12417878415E+04  0.12417878415E+04  0.50400001928E-02 0. -1.
    10030    2    1    2    0    0  0.00000000000E+00  0.00000000000E+00  0.13605577250E+04  0.38441334080E+04  0.35953086564E+04 0.  0.
        1    1    3    3  502    0  0.16522967326E+04 -0.39497549164E+03  0.51832756914E+02  0.16996401873E+04  0.50400001928E-02 0. -1.
       -1    1    3    3    0  502 -0.16522967326E+04  0.39497549164E+03  0.13087249681E+04  0.21444932207E+04  0.50400001928E-02 0.  1.
</event>
<event>
 5   0  0.8247570E-09  0.3600348E+04  0.7818609E-02  0.8090412E-01
       -1   -1    0    0    0  501  0.00000000000E+00  0.00000000000E+00  0.11428996440E+04  0.11428996440E+04  0.50400001928E-02 0. -1.
        1   -1    0    0  501    0  0.00000000000E+00  0.00000000000E+00 -0.28354425875E+04  0.28354425875E+04  0.50400001928E-02 0.  1.
    10030    2    1    2    0    0  0.00000000000E+00  0.00000000000E+00 -0.16925429435E+04  0.39783422315E+04  0.36003479409E+04 0.  0.
        3    1    3    3  502    0  0.13708470742E+04 -0.10324220223E+04 -0.24559129137E+03  0.17336181891E+04  0.10100000352E+00 0. -1.
       -3    1    3    3    0  502 -0.13708470742E+04  0.10324220223E+04 -0.14469516521E+04  0.22447240424E+04  0.10100000352E+00 0.  1.
</event>
<event>
 5   0  0.2608070E-08  0.3600847E+04  0.7818609E-02  0.8090298E-01
        2   -1    0    0  501    0  0.00000000000E+00  0.00000000000E+00  0.21159002650E+04  0.21159002650E+04  0.25500000920E-02 0.  1.
       -2   -1    0    0    0  501  0.00000000000E+00  0.00000000000E+00 -0.15319837161E+04  0.15319837161E+04  0.25500000920E-02 0. -1.
    10030    2    1    2    0    0  0.00000000000E+00  0.00000000000E+00  0.58391654892E+03  0.36478839811E+04  0.36008469842E+04 0.  0.
        3    1    3    3  502    0 -0.13412304750E+04  0.11617582167E+04  0.60080686760E+03  0.18733793645E+04  0.10100000352E+00 0. -1.
       -3    1    3    3    0  502  0.13412304750E+04 -0.11617582167E+04 -0.16890318675E+02  0.17745046166E+04  0.10100000352E+00 0.  1.
</event>
<event>
 5   0  0.2494592E-08  0.3611149E+04  0.7818609E-02  0.8087943E-01
        2   -1    0    0  501    0  0.00000000000E+00  0.00000000000E+00  0.25939025796E+04  0.25939025796E+04  0.25500000920E-02 0.  1.
       -2   -1    0    0    0  501  0.00000000000E+00  0.00000000000E+00 -0.12568321276E+04  0.12568321276E+04  0.25500000920E-02 0. -1.
    10030    2    1    2    0    0  0.00000000000E+00  0.00000000000E+00  0.13370704520E+04  0.38507347072E+04  0.36111494558E+04 0.  0.
        1    1    3    3  502    0  0.55828002999E+03  0.92610489550E+03 -0.87334104319E+03  0.13899897291E+04  0.50400001928E-02 0. -1.
       -1    1    3    3    0  502 -0.55828002999E+03 -0.92610489550E+03  0.22104114951E+04  0.24607449781E+04  0.50400001928E-02 0.  1.
</event>
<event>
 5   0  0.2590795E-08  0.3600839E+04  0.7818609E-02  0.8090299E-01
        2   -1    0    0  501    0  0.00000000000E+00  0.00000000000E+00  0.21974403007E+04  0.21974403007E+04  0.25500000920E-02 0. -1.
       -2   -1    0    0    0  501  0.00000000000E+00  0.00000000000E+00 -0.14751303682E+04  0.14751303682E+04  0.25500000920E-02 0.  1.
    10030    2    1    2    0    0  0.00000000000E+00  0.00000000000E+00  0.72230993249E+03  0.36725706689E+04  0.36008393021E+04 0.  0.
        4    1    3    3  502    0  0.12176738068E+04 -0.72654318820E+03 -0.77041241127E+03  0.16137321341E+04  0.12699999809E+01 0.  1.
       -4    1    3    3    0  502 -0.12176738068E+04  0.72654318820E+03  0.14927223438E+04  0.20588385349E+04  0.12699999809E+01 0. -1.
</event>
<event>
 5   0  0.8063410E-09  0.3600276E+04  0.7818609E-02  0.8090428E-01
       -1   -1    0    0    0  501  0.00000000000E+00  0.00000000000E+00  0.11833734917E+04  0.11833734917E+04  0.50400001928E-02 0.  1.
        1   -1    0    0  501    0  0.00000000000E+00  0.00000000000E+00 -0.27383555311E+04  0.27383555311E+04  0.50400001928E-02 0. -1.
    10030    2    1    2    0    0  0.00000000000E+00  0.00000000000E+00 -0.15549820394E+04  0.39217290228E+04  0.36002762929E+04 0.  0.
        2    1    3    3  502    0 -0.63798740273E+03  0.16757144901E+04 -0.95126661435E+03  0.20297672650E+04  0.25500000920E-02 0. -1.
       -2    1    3    3    0  502  0.63798740273E+03 -0.16757144901E+04 -0.60371542505E+03  0.18919617578E+04  0.25500000920E-02 0.  1.
</event>
<event>
 5   0  0.2482243E-08  0.3600042E+04  0.7818609E-02  0.8090482E-01
        2   -1    0    0  501    0  0.00000000000E+00  0.00000000000E+00  0.21795448147E+04  0.21795448147E+04  0.25500000920E-02 0. -1.
       -2   -1    0    0    0  501  0.00000000000E+00  0.00000000000E+00 -0.14865834941E+04  0.14865834941E+04  0.25500000920E-02 0.  1.
    10030    2    1    2    0    0  0.00000000000E+00  0.00000000000E+00  0.69296132062E+03  0.36661283088E+04  0.36000418587E+04 0.  0.
        5    1    3    3  502    0 -0.91343796358E+03  0.12822881548E+04 -0.54213233090E+03  0.16651010118E+04  0.46999998093E+01 0.  1.
       -5    1    3    3    0  502  0.91343796358E+03 -0.12822881548E+04  0.12350936515E+04  0.20010272970E+04  0.46999998093E+01 0. -1.
</event>
<event>
 5   0  0.2482243E-08  0.3599399E+04  0.7818609E-02  0.8090629E-01
        2   -1    0    0  501    0  0.00000000000E+00  0.00000000000E+00  0.23758399041E+04  0.23758399041E+04  0.25500000920E-02 0. -1.
       -2   -1    0    0    0  501  0.00000000000E+00  0.00000000000E+00 -0.13632732635E+04  0.13632732635E+04  0.25500000920E-02 0.  1.
    10030    2    1    2    0    0  0.00000000000E+00  0.00000000000E+00  0.10125666406E+04  0.37391131676E+04  0.35993994053E+04 0.  0.
        5    1    3    3  502    0  0.40181726258E+03  0.95849057806E+03  0.20325776782E+04  0.22828831351E+04  0.46999998093E+01 0. -1.
       -5    1    3    3    0  502 -0.40181726258E+03 -0.95849057806E+03 -0.10200110376E+04  0.14562300325E+04  0.46999998093E+01 0.  1.
</event>
<event>
 5   0  0.2608070E-08  0.3597568E+04  0.7818609E-02  0.8091049E-01
        2   -1    0    0  501    0  0.00000000000E+00  0.00000000000E+00  0.27588094049E+04  0.27588094049E+04  0.25500000920E-02 0. -1.
       -2   -1    0    0    0  501  0.00000000000E+00  0.00000000000E+00 -0.11728336868E+04  0.11728336868E+04  0.25500000920E-02 0.  1.
    10030    2    1    2    0    0  0.00000000000E+00  0.00000000000E+00  0.15859757180E+04  0.39316430917E+04  0.35975684041E+04 0.  0.
        3    1    3    3  502    0 -0.96592150333E+03 -0.13284594844E+04 -0.84719361497E+01  0.16425226745E+04  0.10100000352E+00 0.  1.
       -3    1    3    3    0  502  0.96592150333E+03  0.13284594844E+04  0.15944476542E+04  0.22891204172E+04  0.10100000352E+00 0. -1.
</event>
<event>
 5   0  0.2482243E-08  0.3600769E+04  0.7818609E-02  0.8090316E-01
       -2   -1    0    0    0  501  0.00000000000E+00  0.00000000000E+00  0.28299542742E+04  0.28299542742E+04  0.25500000920E-02 0.  1.
        2   -1    0    0  501    0  0.00000000000E+00  0.00000000000E+00 -0.11453840790E+04  0.11453840790E+04  0.25500000920E-02 0. -1.
    10030    2    1    2    0    0  0.00000000000E+00  0.00000000000E+00  0.16845701952E+04  0.39753383532E+04  0.36007691234E+04 0.  0.
        5    1    3    3  502    0  0.69405058990E+03  0.12358707930E+03  0.26712321920E+04  0.27626949707E+04  0.46999998093E+01 0.  1.
       -5    1    3    3    0  502 -0.69405058990E+03 -0.12358707930E+03 -0.98666199673E+03  0.12126433826E+04  0.46999998093E+01 0. -1.
</event>
<event>
 5   0  0.2476968E-08  0.3595295E+04  0.7818609E-02  0.8091570E-01
       -2   -1    0    0    0  501  0.00000000000E+00  0.00000000000E+00  0.28175161708E+04  0.28175161708E+04  0.25500000920E-02 0. -1.
        2   -1    0    0  501    0  0.00000000000E+00  0.00000000000E+00 -0.11469452993E+04  0.11469452993E+04  0.25500000920E-02 0.  1.
    10030    2    1    2    0    0  0.00000000000E+00  0.00000000000E+00  0.16705708715E+04  0.39644614701E+04  0.35952952189E+04 0.  0.
        2    1    3    3  502    0 -0.62899269301E+03  0.81000897092E+03  0.24632952947E+04  0.26682522462E+04  0.25500000920E-02 0. -1.
       -2    1    3    3    0  502  0.62899269301E+03 -0.81000897092E+03 -0.79272442318E+03  0.12962092238E+04  0.25500000920E-02 0.  1.
</event>
<event>
 5   0  0.2482243E-08  0.3602313E+04  0.7818609E-02  0.8089962E-01
        2   -1    0    0  501    0  0.00000000000E+00  0.00000000000E+00  0.19836724188E+04  0.19836724188E+04  0.25500000920E-02 0. -1.
       -2   -1    0    0    0  501  0.00000000000E+00  0.00000000000E+00 -0.16354339371E+04  0.16354339371E+04  0.25500000920E-02 0.  1.
    10030    2    1    2    0    0  0.00000000000E+00  0.00000000000E+00  0.34823848170E+03  0.36191063559E+04  0.36023132534E+04 0.  0.
        5    1    3    3  502    0 -0.10205293372E+04 -0.12037546442E+04 -0.69805084562E+03  0.17256310279E+04  0.46999998093E+01 0.  1.
       -5    1    3    3    0  502  0.10205293372E+04  0.12037546442E+04  0.10462893273E+04  0.18934753280E+04  0.46999998093E+01 0. -1.
</event>
<event>
 5   0  0.2476968E-08  0.3600101E+04  0.7818609E-02  0.8090469E-01
        2   -1    0    0  501    0  0.00000000000E+00  0.00000000000E+00  0.23605004084E+04  0.23605004084E+04  0.25500000920E-02 0. -1.
       -2   -1    0    0    0  501  0.00000000000E+00  0.00000000000E+00 -0.13726669712E+04  0.13726669712E+04  0.25500000920E-02 0.  1.
    10030    2    1    2    0    0  0.00000000000E+00  0.00000000000E+00  0.98783343720E+03  0.37331673796E+04  0.36001005242E+04 0.  0.
        2    1    3    3  502    0  0.94444165857E+01  0.17641024244E+04  0.86496134389E+03  0.19647658098E+04  0.25500000920E-02 0. -1.
       -2    1    3    3    0  502 -0.94444165857E+01 -0.17641024244E+04  0.12287209330E+03  0.17684015698E+04  0.25500000920E-02 0.  1.
</event>
<event>
 5   0  0.2590795E-08  0.3600727E+04  0.7818609E-02  0.8090325E-01
        2   -1    0    0  501    0  0.00000000000E+00  0.00000000000E+00  0.16383254668E+04  0.16383254668E+04  0.25500000920E-02 0.  1.
       -2   -1    0    0    0  501  0.00000000000E+00  0.00000000000E+00 -0.19784278681E+04  0.19784278681E+04  0.25500000920E-02 0. -1.
    10030    2    1    2    0    0  0.00000000000E+00  0.00000000000E+00 -0.34010240137E+03  0.36167533349E+04  0.36007270157E+04 0.  0.
        4    1    3    3  502    0 -0.10589980304E+04 -0.11027225592E+04  0.78488170063E+03  0.17185792876E+04  0.12699999809E+01 0. -1.
       -4    1    3    3    0  502  0.10589980304E+04  0.11027225592E+04 -0.11249841020E+04  0.18981740472E+04  0.12699999809E+01 0.  1.
</event>
<event>
 5   0  0.2494592E-08  0.3600478E+04  0.7818609E-02  0.8090382E-01
        2   -1    0    0  501    0  0.00000000000E+00  0.00000000000E+00  0.25994260262E+04  0.25994260262E+04  0.25500000920E-02 0. -1.
       -2   -1    0    0    0  501  0.00000000000E+00  0.00000000000E+00 -0.12467597407E+04  0.12467597407E+04  0.25500000920E-02 0.  1.
    10030    2    1    2    0    0  0.00000000000E+00  0.00000000000E+00  0.13526662855E+04  0.38461857669E+04  0.36004775896E+04 0.  0.
        1    1    3    3  502    0  0.17321020792E+04 -0.26128454362E+03  0.23277096201E+03  0.17670963602E+04  0.50400001928E-02 0.  1.
       -1    1    3    3    0  502 -0.17321020792E+04  0.26128454362E+03  0.11198953235E+04  0.20790894067E+04  0.50400001928E-02 0. -1.
</event>
<event>
 5   0  0.8024500E-09  0.3600014E+04  0.7818609E-02  0.8090489E-01
       -1   -1    0    0    0  501  0.00000000000E+00  0.00000000000E+00  0.21596097213E+04  0.21596097213E+04  0.50400001928E-02 0.  1.
        1   -1    0    0  501    0  0.00000000000E+00  0.00000000000E+00 -0.15002823335E+04  0.15002823335E+04  0.50400001928E-02 0. -1.
    10030    2    1    2    0    0  0.00000000000E+00  0.00000000000E+00  0.65932738785E+03  0.36598920548E+04  0.36000135067E+04 0.  0.
        1    1    3    3  502    0 -0.10635414740E+04 -0.26225530491E+03 -0.11224233204E+04  0.15683534111E+04  0.50400001928E-02 0. -1.
       -1    1    3    3    0  502  0.10635414740E+04  0.26225530491E+03  0.17817507083E+04  0.20915386437E+04  0.50400001928E-02 0.  1.
</event>
<event>
 5   0  0.8024500E-09  0.3597201E+04  0.7818609E-02  0.8091133E-01
        1   -1    0    0  501    0  0.00000000000E+00  0.00000000000E+00  0.23267516704E+04  0.23267516704E+04  0.50400001928E-02 0.  1.
       -1   -1    0    0    0  501  0.00000000000E+00  0.00000000000E+00 -0.13903344213E+04  0.13903344213E+04  0.50400001928E-02 0. -1.
    10030    2    1    2    0    0  0.00000000000E+00  0.00000000000E+00  0.93641724905E+03  0.37170860917E+04  0.35972005433E+04 0.  0.
        5    1    3    3  502    0  0.12586709330E+04 -0.12801981023E+04  0.35605022951E+03  0.18302878338E+04  0.46999998093E+01 0. -1.
       -5    1    3    3    0  502 -0.12586709330E+04  0.12801981023E+04  0.58036701954E+03  0.18867982579E+04  0.46999998093E+01 0.  1.
</event>
<event>
 5   0  0.8063410E-09  0.3598517E+04  0.7818609E-02  0.8090831E-01
       -1   -1    0    0    0  501  0.00000000000E+00  0.00000000000E+00  0.17630882950E+04  0.17630882950E+04  0.50400001928E-02 0.  1.
        1   -1    0    0  501    0  0.00000000000E+00  0.00000000000E+00 -0.18361709263E+04  0.18361709263E+04  0.50400001928E-02 0. -1.
    10030    2    1    2    0    0  0.00000000000E+00  0.00000000000E+00 -0.73082631274E+02  0.35992592213E+04  0.35985171767E+04 0.  0.
        2    1    3    3  502    0 -0.11244290674E+04  0.80198460374E+03 -0.11899536134E+04  0.18230495425E+04  0.25500000920E-02 0. -1.
       -2    1    3    3    0  502  0.11244290674E+04 -0.80198460374E+03  0.11168709822E+04  0.17762096788E+04  0.25500000920E-02 0.  1.
</event>
<event>
 5   0  0.8024500E-09  0.3613655E+04  0.7818609E-02  0.8087371E-01
       -1   -1    0    0    0  501  0.00000000000E+00  0.00000000000E+00  0.22788769255E+04  0.22788769255E+04  0.50400001928E-02 0. -1.
        1   -1    0    0  501    0  0.00000000000E+00  0.00000000000E+00 -0.14325587989E+04  0.14325587989E+04  0.50400001928E-02 0.  1.
    10030    2    1    2    0    0  0.00000000000E+00  0.00000000000E+00  0.84631812667E+03  0.37114357244E+04  0.36136547656E+04 0.  0.
        5    1    3    3  502    0 -0.16678884908E+04 -0.66351670672E+03  0.21143379019E+03  0.18074381802E+04  0.46999998093E+01 0.  1.
       -5    1    3    3    0  502  0.16678884908E+04  0.66351670672E+03  0.63488433648E+03  0.19039975442E+04  0.46999998093E+01 0. -1.
</event>
<event>
 5   0  0.2494592E-08  0.3600250E+04  0.7818609E-02  0.8090434E-01
       -2   -1    0    0    0  501  0.00000000000E+00  0.00000000000E+00  0.18062600786E+04  0.18062600787E+04  0.25500000920E-02 0.  1.
        2   -1    0    0  501    0  0.00000000000E+00  0.00000000000E+00 -0.17940111390E+04  0.17940111390E+04  0.25500000920E-02 0. -1.
    10030    2    1    2    0    0  0.00000000000E+00  0.00000000000E+00  0.12248939660E+02  0.36002712176E+04  0.36002503807E+04 0.  0.
        1    1    3    3  502    0  0.20439711144E+03  0.47231597087E+03 -0.17188754110E+04  0.17942667678E+04  0.50400001928E-02 0. -1.
       -1    1    3    3    0  502 -0.20439711144E+03 -0.47231597087E+03  0.17311243506E+04  0.18060044499E+04  0.50400001928E-02 0.  1.
</event>
<event>
 5   0  0.2590795E-08  0.3606516E+04  0.7818609E-02  0.8089001E-01
       -2   -1    0    0    0  501  0.00000000000E+00  0.00000000000E+00  0.16679718498E+04  0.16679718498E+04  0.25500000920E-02 0. -1.
        2   -1    0    0  501    0  0.00000000000E+00  0.00000000000E+00 -0.19495165260E+04  0.19495165260E+04  0.25500000920E-02 0.  1.
    10030    2    1    2    0    0  0.00000000000E+00  0.00000000000E+00 -0.28154467620E+03  0.36174883759E+04  0.36065155961E+04 0.  0.
        4    1    3    3  502    0  0.14735787398E+03 -0.53372686057E+03 -0.18621400641E+04  0.19427161233E+04  0.12699999809E+01 0.  1.
       -4    1    3    3    0  502 -0.14735787398E+03  0.53372686057E+03  0.15805953879E+04  0.16747722525E+04  0.12699999809E+01 0. -1.
</event>
<event>
 5   0  0.8146881E-09  0.3600418E+04  0.7818609E-02  0.8090396E-01
        1   -1    0    0  501    0  0.00000000000E+00  0.00000000000E+00  0.16182613114E+04  0.16182613114E+04  0.50400001928E-02 0.  1.
       -1   -1    0    0    0  501  0.00000000000E+00  0.00000000000E+00 -0.20026133211E+04  0.20026133211E+04  0.50400001928E-02 0. -1.
    10030    2    1    2    0    0  0.00000000000E+00  0.00000000000E+00 -0.38435200971E+03  0.36208746326E+04  0.36004175643E+04 0.  0.
        4    1    3    3  502    0  0.81715158915E+03 -0.13643031204E+04 -0.10405867237E+04  0.19004952161E+04  0.12699999809E+01 0. -1.
       -4    1    3    3    0  502 -0.81715158915E+03  0.13643031204E+04  0.65623471403E+03  0.17203794165E+04  0.12699999809E+01 0.  1.
</event>
<event>
 5   0  0.8063410E-09  0.3601340E+04  0.7818609E-02  0.8090185E-01
        1   -1    0    0  501    0  0.00000000000E+00  0.00000000000E+00  0.21109072791E+04  0.21109072791E+04  0.50400001928E-02 0.  1.
       -1   -1    0    0    0  501  0.00000000000E+00  0.00000000000E+00 -0.15360278551E+04  0.15360278551E+04  0.50400001928E-02 0. -1.
    10030    2    1    2    0    0  0.00000000000E+00  0.00000000000E+00  0.57487942398E+03  0.36469351342E+04  0.36013399618E+04 0.  0.
        2    1    3    3  502    0  0.14122817298E+04 -0.81750129135E+03  0.10583693542E+04  0.19449919629E+04  0.25500000920E-02 0.  1.
       -2    1    3    3    0  502 -0.14122817298E+04  0.81750129135E+03 -0.48348993023E+03  0.17019431713E+04  0.25500000920E-02 0. -1.
</event>
<event>
 5   0  0.8063410E-09  0.3599871E+04  0.7818609E-02  0.8090521E-01
        1   -1    0    0  501    0  0.00000000000E+00  0.00000000000E+00  0.24613884629E+04  0.24613884629E+04  0.50400001928E-02 0.  1.
       -1   -1    0    0    0  501  0.00000000000E+00  0.00000000000E+00 -0.13162361564E+04  0.13162361565E+04  0.50400001928E-02 0. -1.
    10030    2    1    2    0    0  0.00000000000E+00  0.00000000000E+00  0.11451523065E+04  0.37776246194E+04  0.35998713810E+04 0.  0.
        2    1    3    3  502    0 -0.14221536903E+04  0.24055995487E+03  0.17024875672E+04  0.22313346067E+04  0.25500000920E-02 0.  1.
       -2    1    3    3    0  502  0.14221536903E+04 -0.24055995487E+03 -0.55733526070E+03  0.15462900127E+04  0.25500000920E-02 0. -1.
</event>
<event>
 5   0  0.2476968E-08  0.3598687E+04  0.7818609E-02  0.8090793E-01
        2   -1    0    0  501    0  0.00000000000E+00  0.00000000000E+00  0.16895656390E+04  0.16895656390E+04  0.25500000920E-02 0. -1.
       -2   -1    0    0    0  501  0.00000000000E+00  0.00000000000E+00 -0.19162539160E+04  0.19162539160E+04  0.25500000920E-02 0.  1.
    10030    2    1    2    0    0  0.00000000000E+00  0.00000000000E+00 -0.22668827703E+03  0.36058195550E+04  0.35986868561E+04 0.  0.
        2    1    3    3  502    0 -0.26343141402E+03 -0.12095845407E+04 -0.14217446484E+04  0.18851654347E+04  0.25500000920E-02 0.  1.
       -2    1    3    3    0  502  0.26343141402E+03  0.12095845407E+04  0.11950563714E+04  0.17206541203E+04  0.25500000920E-02 0. -1.
</event>
<event>
 5   0  0.8024500E-09  0.3599268E+04  0.7818609E-02  0.8090659E-01
       -1   -1    0    0    0  501  0.00000000000E+00  0.00000000000E+00  0.12552816502E+04  0.12552816502E+04  0.50400001928E-02 0.  1.
        1   -1    0    0  501    0  0.00000000000E+00  0.00000000000E+00 -0.25800446943E+04  0.25800446943E+04  0.50400001928E-02 0. -1.
    10030    2    1    2    0    0  0.00000000000E+00  0.00000000000E+00 -0.13247630441E+04  0.38353263446E+04  0.35992681264E+04 0.  0.
        1    1    3    3  502    0  0.73804091715E+03  0.15000053562E+04 -0.13723861314E+04  0.21629064145E+04  0.50400001928E-02 0. -1.
       -1    1    3    3    0  502 -0.73804091715E+03 -0.15000053562E+04  0.47623087216E+02  0.16724199301E+04  0.50400001928E-02 0.  1.
</event>
<event>
 5   0  0.8146881E-09  0.3609526E+04  0.7818609E-02  0.8088313E-01
        1   -1    0    0  501    0  0.00000000000E+00  0.00000000000E+00  0.11680956251E+04  0.11680956251E+04  0.50400001928E-02 0.  1.
       -1   -1    0    0    0  501  0.00000000000E+00  0.00000000000E+00 -0.27884443912E+04  0.27884443912E+04  0.50400001928E-02 0. -1.
    10030    2    1    2    0    0  0.00000000000E+00  0.00000000000E+00 -0.16203487661E+04  0.39565400162E+04  0.36095261152E+04 0.  0.
        4    1    3    3  502    0  0.11709022150E+04  0.34525990137E+03 -0.22672353074E+04  0.25749900871E+04  0.12699999809E+01 0. -1.
       -4    1    3    3    0  502 -0.11709022150E+04 -0.34525990137E+03  0.64688654130E+03  0.13815499291E+04  0.12699999809E+01 0.  1.
</event>
<event>
 5   0  0.8247570E-09  0.3601114E+04  0.7818609E-02  0.8090236E-01
       -1   -1    0    0    0  501  0.00000000000E+00  0.00000000000E+00  0.19553117263E+04  0.19553117264E+04  0.50400001928E-02 0.  1.
        1   -1    0    0  501    0  0.00000000000E+00  0.00000000000E+00 -0.16580508363E+04  0.16580508363E+04  0.50400001928E-02 0. -1.
    10030    2    1    2    0    0  0.00000000000E+00  0.00000000000E+00  0.29726089004E+03  0.36133625627E+04  0.36011144070E+04 0.  0.
        3    1    3    3  502    0  0.59708828934E+03 -0.83142859170E+03 -0.13376971412E+04  0.16844054085E+04  0.10100000352E+00 0. -1.
       -3    1    3    3    0  502 -0.59708828934E+03  0.83142859170E+03  0.16349580313E+04  0.19289571542E+04  0.10100000352E+00 0.  1.
</event>
<event>
 5   0  0.8146881E-09  0.3601744E+04  0.7818609E-02  0.8090092E-01
       -1   -1    0    0    0  501  0.00000000000E+00  0.00000000000E+00  0.14529073168E+04  0.14529073168E+04  0.50400001928E-02 0.  1.
        1   -1    0    0  501    0  0.00000000000E+00  0.00000000000E+00 -0.22321724467E+04  0.22321724467E+04  0.50400001928E-02 0. -1.
    10030    2    1    2    0    0  0.00000000000E+00  0.00000000000E+00 -0.77926512994E+03  0.36850797635E+04  0.36017438444E+04 0.  0.
        4    1    3    3  502    0 -0.89873410229E+03 -0.12085912085E+04  0.62049107943E+03  0.16289341572E+04  0.12699999809E+01 0.  1.
       -4    1    3    3    0  502  0.89873410229E+03  0.12085912085E+04 -0.13997562094E+04  0.20561456063E+04  0.12699999809E+01 0. -1.
</event>
<event>
 5   0  0.2590795E-08  0.3600048E+04  0.7818609E-02  0.8090481E-01
       -2   -1    0    0    0  501  0.00000000000E+00  0.00000000000E+00  0.21660760853E+04  0.21660760853E+04  0.25500000920E-02 0. -1.
        2   -1    0    0  501    0  0.00000000000E+00  0.00000000000E+00 -0.14958323904E+04  0.14958323904E+04  0.25500000920E-02 0.  1.
    10030    2    1    2    0    0  0.00000000000E+00  0.00000000000E+00  0.67024369494E+03  0.36619084757E+04  0.36000482044E+04 0.  0.
        4    1    3    3  502    0  0.16258898793E+04 -0.67665317598E+03  0.71395633634E+03  0.19002927889E+04  0.12699999809E+01 0. -1.
       -4    1    3    3    0  502 -0.16258898793E+04  0.67665317598E+03 -0.43712641395E+02  0.17616156869E+04  0.12699999809E+01 0.  1.
</event>
<event>
 5   0  0.2476968E-08  0.3602102E+04  0.7818609E-02  0.8090010E-01
       -2   -1    0    0    0  501  0.00000000000E+00  0.00000000000E+00  0.12087335196E+04  0.12087335196E+04  0.25500000920E-02 0. -1.
        2   -1    0    0  501    0  0.00000000000E+00  0.00000000000E+00 -0.26836230043E+04  0.26836230043E+04  0.25500000920E-02 0.  1.
    10030    2    1    2    0    0  0.00000000000E+00  0.00000000000E+00 -0.14748894847E+04  0.38923565239E+04  0.36021022081E+04 0.  0.
        2    1    3    3  502    0  0.39274722352E+03 -0.17249759490E+04 -0.11022785289E+04  0.20844208695E+04  0.25500000920E-02 0.  1.
       -2    1    3    3    0  502 -0.39274722352E+03  0.17249759490E+04 -0.37261095584E+03  0.18079356544E+04  0.25500000920E-02 0. -1.
</event>
<event>
 5   0  0.2482243E-08  0.3599584E+04  0.7818609E-02  0.8090587E-01
        2   -1    0    0  501    0  0.00000000000E+00  0.00000000000E+00  0.14193043039E+04  0.14193043039E+04  0.25500000920E-02 0.  1.
       -2   -1    0    0    0  501  0.00000000000E+00  0.00000000000E+00 -0.22822803729E+04  0.22822803729E+04  0.25500000920E-02 0. -1.
    10030    2    1    2    0    0  0.00000000000E+00  0.00000000000E+00 -0.86297606899E+03  0.37015846768E+04  0.35995835070E+04 0.  0.
        5    1    3    3  502    0  0.14158016285E+04  0.31540064242E+03  0.66418866052E+03  0.15953496430E+04  0.46999998093E+01 0.  1.
       -5    1    3    3    0  502 -0.14158016285E+04 -0.31540064242E+03 -0.15271647295E+04  0.21062350338E+04  0.46999998093E+01 0. -1.
</event>
<event>
 5   0  0.2608070E-08  0.3598497E+04  0.7818609E-02  0.8090836E-01
       -2   -1    0    0    0  501  0.00000000000E+00  0.00000000000E+00  0.11570214687E+04  0.11570214687E+04  0.25500000920E-02 0.  1.
        2   -1    0    0  501    0  0.00000000000E+00  0.00000000000E+00 -0.27979556649E+04  0.27979556649E+04  0.25500000920E-02 0. -1.
    10030    2    1    2    0    0  0.00000000000E+00  0.00000000000E+00 -0.16409341961E+04  0.39549771336E+04  0.35984967822E+04 0.  0.
        3    1    3    3  502    0 -0.88891169273E+02 -0.10851561311E+04 -0.23947887600E+04  0.26306802702E+04  0.10100000352E+00 0. -1.
       -3    1    3    3    0  502  0.88891169273E+02  0.10851561311E+04  0.75385456386E+03  0.13242968634E+04  0.10100000352E+00 0.  1.
</event>
<event>
 5   0  0.2494592E-08  0.3599507E+04  0.7818609E-02  0.8090605E-01
        2   -1    0    0  501    0  0.00000000000E+00  0.00000000000E+00  0.26591726636E+04  0.26591726636E+04  0.25500000920E-02 0.  1.
       -2   -1    0    0    0  501  0.00000000000E+00  0.00000000000E+00 -0.12180900737E+04  0.12180900737E+04  0.25500000920E-02 0. -1.
    10030    2    1    2    0    0  0.00000000000E+00  0.00000000000E+00  0.14410825899E+04  0.38772627374E+04  0.35995065361E+04 0.  0.
        1    1    3    3  502    0 -0.23374486287E+03  0.11936450438E+04 -0.70835245788E+03  0.14075469286E+04  0.50400001928E-02 0. -1.
       -1    1    3    3    0  502  0.23374486287E+03 -0.11936450438E+04  0.21494350478E+04  0.24697158088E+04  0.50400001928E-02 0.  1.
</event>
<event>
 5   0  0.8247570E-09  0.3597123E+04  0.7818609E-02  0.8091151E-01
        1   -1    0    0  501    0  0.00000000000E+00  0.00000000000E+00  0.12199042847E+04  0.12199042847E+04  0.50400001928E-02 0.  1.
       -1   -1    0    0    0  501  0.00000000000E+00  0.00000000000E+00 -0.26517028156E+04  0.26517028156E+04  0.50400001928E-02 0. -1.
    10030    2    1    2    0    0  0.00000000000E+00  0.00000000000E+00 -0.14317985309E+04  0.38716071002E+04  0.35971230873E+04 0.  0.
        3    1    3    3  502    0  0.13657270265E+04 -0.11022669241E+04 -0.29267542480E+03  0.17792868227E+04  0.10100000352E+00 0.  1.
       -3    1    3    3    0  502 -0.13657270265E+04  0.11022669241E+04 -0.11391231061E+04  0.20923202776E+04  0.10100000352E+00 0. -1.
</event>
<event>
 5   0  0.8247570E-09  0.3600128E+04  0.7818609E-02  0.8090462E-01
       -1   -1    0    0    0  501  0.00000000000E+00  0.00000000000E+00  0.14239709155E+04  0.14239709155E+04  0.50400001928E-02 0.  1.
        1   -1    0    0  501    0  0.00000000000E+00  0.00000000000E+00 -0.22754891211E+04  0.22754891212E+04  0.50400001928E-02 0. -1.
    10030    2    1    2    0    0  0.00000000000E+00  0.00000000000E+00 -0.85151820563E+03  0.36994600367E+04  0.36001279572E+04 0.  0.
        3    1    3    3  502    0 -0.17928344942E+04  0.12335924479E+03 -0.31918005296E+03  0.18251983298E+04  0.10100000352E+00 0. -1.
       -3    1    3    3    0  502  0.17928344942E+04 -0.12335924479E+03 -0.53233815267E+03  0.18742617069E+04  0.10100000352E+00 0.  1.
</event>
<event>
 5   0  0.2482243E-08  0.3587913E+04  0.7818609E-02  0.8093266E-01
       -2   -1    0    0    0  501  0.00000000000E+00  0.00000000000E+00  0.16073568403E+04  0.16073568404E+04  0.25500000920E-02 0.  1.
        2   -1    0    0  501    0  0.00000000000E+00  0.00000000000E+00 -0.20022186551E+04  0.20022186551E+04  0.25500000920E-02 0. -1.
    10030    2    1    2    0    0  0.00000000000E+00  0.00000000000E+00 -0.39486181475E+03  0.36095754954E+04  0.35879129595E+04 0.  0.
        5    1    3    3  502    0 -0.14520292905E+04  0.98843432586E+03  0.16927814052E+03  0.17646723934E+04  0.46999998093E+01 0.  1.
       -5    1    3    3    0  502  0.14520292905E+04 -0.98843432586E+03 -0.56413995527E+03  0.18449031021E+04  0.46999998093E+01 0. -1.
</event>
<event>
 5   0  0.8146881E-09  0.3600827E+04  0.7818609E-02  0.8090302E-01
        1   -1    0    0  501    0  0.00000000000E+00  0.00000000000E+00  0.24836081774E+04  0.24836081774E+04  0.50400001928E-02 0.  1.
       -1   -1    0    0    0  501  0.00000000000E+00  0.00000000000E+00 -0.13051528758E+04  0.13051528758E+04  0.50400001928E-02 0. -1.
    10030    2    1    2    0    0  0.00000000000E+00  0.00000000000E+00  0.11784553016E+04  0.37887610532E+04  0.36008267690E+04 0.  0.
        4    1    3    3  502    0  0.14880949121E+04  0.17042318618E+03 -0.46192014986E+03  0.15674317745E+04  0.12699999809E+01 0. -1.
       -4    1    3    3    0  502 -0.14880949121E+04 -0.17042318618E+03  0.16403754515E+04  0.22213292787E+04  0.12699999809E+01 0.  1.
</event>
<event>
 5   0  0.2494592E-08  0.3600909E+04  0.7818609E-02  0.8090284E-01
        2   -1    0    0  501    0  0.00000000000E+00  0.00000000000E+00  0.23761976028E+04  0.23761976028E+04  0.25500000920E-02 0.  1.
       -2   -1    0    0    0  501  0.00000000000E+00  0.00000000000E+00 -0.13642114772E+04  0.13642114772E+04  0.25500000920E-02 0. -1.
    10030    2    1    2    0    0  0.00000000000E+00  0.00000000000E+00  0.10119861256E+04  0.37404090800E+04  0.36009087974E+04 0.  0.
        1    1    3    3  502    0  0.81257592970E+03 -0.13050714244E+04  0.14793902605E+04  0.21335619530E+04  0.50400001928E-02 0.  1.
       -1    1    3    3    0  502 -0.81257592970E+03  0.13050714244E+04 -0.46740413489E+03  0.16068471270E+04  0.50400001928E-02 0. -1.
</event>
<event>
 5   0  0.2608070E-08  0.3600498E+04  0.7818609E-02  0.8090378E-01
        2   -1    0    0  501    0  0.00000000000E+00  0.00000000000E+00  0.19343012434E+04  0.19343012434E+04  0.25500000920E-02 0.  1.
       -2   -1    0    0    0  501  0.00000000000E+00  0.00000000000E+00 -0.16754870354E+04  0.16754870354E+04  0.25500000920E-02 0. -1.
    10030    2    1    2    0    0  0.00000000000E+00  0.00000000000E+00  0.25881420798E+03  0.36097882787E+04  0.36004981076E+04 0.  0.
        3    1    3    3  502    0  0.51375326095E+03  0.13401195309E+04 -0.96015081291E+03  0.17267751342E+04  0.10100000352E+00 0. -1.
       -3    1    3    3    0  502 -0.51375326095E+03 -0.13401195309E+04  0.12189650209E+04  0.18830131446E+04  0.10100000352E+00 0.  1.
</event>
<event>
 5   0  0.8247570E-09  0.3598592E+04  0.7818609E-02  0.8090814E-01
       -1   -1    0    0    0  501  0.00000000000E+00  0.00000000000E+00  0.18001989417E+04  0.18001989417E+04  0.50400001928E-02 0.  1.
        1   -1    0    0  501    0  0.00000000000E+00  0.00000000000E+00 -0.17983937235E+04  0.17983937236E+04  0.50400001928E-02 0. -1.
    10030    2    1    2    0    0  0.00000000000E+00  0.00000000000E+00  0.18052181176E+01  0.35985926652E+04  0.35985922124E+04 0.  0.
        3    1    3    3  502    0  0.17531916810E+04 -0.31814825677E+03 -0.24923155467E+03  0.17991708539E+04  0.10100000352E+00 0. -1.
       -3    1    3    3    0  502 -0.17531916810E+04  0.31814825677E+03  0.25103677279E+03  0.17994218113E+04  0.10100000352E+00 0.  1.
</event>
<event>
 5   0  0.2608070E-08  0.3599919E+04  0.7818609E-02  0.8090510E-01
       -2   -1    0    0    0  501  0.00000000000E+00  0.00000000000E+00  0.14715590616E+04  0.14715590616E+04  0.25500000920E-02 0.  1.
        2   -1    0    0  501    0  0.00000000000E+00  0.00000000000E+00 -0.22016476936E+04  0.22016476936E+04  0.25500000920E-02 0. -1.
    10030    2    1    2    0    0  0.00000000000E+00  0.00000000000E+00 -0.73008863207E+03  0.36732067552E+04  0.35999192291E+04 0.  0.
        3    1    3    3  502    0  0.97045385833E+03  0.14121156827E+04  0.19754528884E+03  0.17247827526E+04  0.10100000352E+00 0.  1.
       -3    1    3    3    0  502 -0.97045385833E+03 -0.14121156827E+04 -0.92763392091E+03  0.19484240026E+04  0.10100000352E+00 0. -1.
</event>
<event>
 5   0  0.2494592E-08  0.3600462E+04  0.7818609E-02  0.8090386E-01
       -2   -1    0    0    0  501  0.00000000000E+00  0.00000000000E+00  0.16455887414E+04  0.16455887414E+04  0.25500000920E-02 0.  1.
        2   -1    0    0  501    0  0.00000000000E+00  0.00000000000E+00 -0.19694051302E+04  0.19694051302E+04  0.25500000920E-02 0. -1.
    10030    2    1    2    0    0  0.00000000000E+00  0.00000000000E+00 -0.32381638882E+03  0.36149938717E+04  0.36004615869E+04 0.  0.
        1    1    3    3  502    0  0.16623647454E+04  0.57722135607E+03  0.21934786695E+03  0.17733455748E+04  0.50400001928E-02 0.  1.
       -1    1    3    3    0  502 -0.16623647454E+04 -0.57722135607E+03 -0.54316425578E+03  0.18416482969E+04  0.50400001928E-02 0. -1.
</event>
<event>
 5   0  0.8063410E-09  0.3607707E+04  0.7818609E-02  0.8088729E-01
        1   -1    0    0  501    0  0.00000000000E+00  0.00000000000E+00  0.30855210853E+04  0.30855210853E+04  0.50400001928E-02 0.  1.
       -1   -1    0    0    0  501  0.00000000000E+00  0.00000000000E+00 -0.10545666227E+04  0.10545666227E+04  0.50400001928E-02 0. -1.
    10030    2    1    2    0    0  0.00000000000E+00  0.00000000000E+00  0.20309544625E+04  0.41400877080E+04  0.36077070559E+04 0.  0.
        2    1    3    3  502    0  0.78723054566E+03 -0.15699523784E+03  0.28692547103E+04  0.29794298161E+04  0.25500000920E-02 0.  1.
       -2    1    3    3    0  502 -0.78723054566E+03  0.15699523784E+03 -0.83830024773E+03  0.11606578919E+04  0.25500000920E-02 0. -1.
</event>
<event>
 5   0  0.2590795E-08  0.3601220E+04  0.7818609E-02  0.8090212E-01
       -2   -1    0    0    0  501  0.00000000000E+00  0.00000000000E+00  0.16254882032E+04  0.16254882032E+04  0.25500000920E-02 0. -1.
        2   -1    0    0  501    0  0.00000000000E+00  0.00000000000E+00 -0.19945981449E+04  0.19945981449E+04  0.25500000920E-02 0.  1.
    10030    2    1    2    0    0  0.00000000000E+00  0.00000000000E+00 -0.36910994167E+03  0.36200863481E+04  0.36012196571E+04 0.  0.
        4    1    3    3  502    0 -0.91847139985E+02  0.42318350913E+02  0.16226308210E+04  0.16257795466E+04  0.12699999809E+01 0. -1.
       -4    1    3    3    0  502  0.91847139985E+02 -0.42318350913E+02 -0.19917407627E+04  0.19943068015E+04  0.12699999809E+01 0.  1.
</event>
<event>
 5   0  0.2476968E-08  0.3599360E+04  0.7818609E-02  0.8090638E-01
        2   -1    0    0  501    0  0.00000000000E+00  0.00000000000E+00  0.16410903919E+04  0.16410903919E+04  0.25500000920E-02 0.  1.
       -2   -1    0    0    0  501  0.00000000000E+00  0.00000000000E+00 -0.19735956290E+04  0.19735956290E+04  0.25500000920E-02 0. -1.
    10030    2    1    2    0    0  0.00000000000E+00  0.00000000000E+00 -0.33250523710E+03  0.36146860208E+04  0.35993604010E+04 0.  0.
        2    1    3    3  502    0  0.99990569855E+03  0.12849813724E+04  0.60373245750E+03  0.17365141559E+04  0.25500000920E-02 0.  1.
       -2    1    3    3    0  502 -0.99990569855E+03 -0.12849813724E+04 -0.93623769460E+03  0.18781718649E+04  0.25500000920E-02 0. -1.
</event>
<event>
 5   0  0.8247570E-09  0.3599998E+04  0.7818609E-02  0.8090492E-01
       -1   -1    0    0    0  501  0.00000000000E+00  0.00000000000E+00  0.15962101605E+04  0.15962101605E+04  0.50400001928E-02 0.  1.
        1   -1    0    0  501    0  0.00000000000E+00  0.00000000000E+00 -0.20298056779E+04  0.20298056779E+04  0.50400001928E-02 0. -1.
    10030    2    1    2    0    0  0.00000000000E+00  0.00000000000E+00 -0.43359551738E+03  0.36260158384E+04  0.35999980261E+04 0.  0.
        3    1    3    3  502    0  0.35549180061E+03 -0.55837893311E+03  0.14691678481E+04  0.16114017591E+04  0.10100000352E+00 0.  1.
       -3    1    3    3    0  502 -0.35549180061E+03  0.55837893311E+03 -0.19027633655E+04  0.20146140793E+04  0.10100000352E+00 0. -1.
</event>
<event>
 5   0  0.8146881E-09  0.3599775E+04  0.7818609E-02  0.8090543E-01
        1   -1    0    0  501    0  0.00000000000E+00  0.00000000000E+00  0.11998946509E+04  0.11998946509E+04  0.50400001928E-02 0. -1.
       -1   -1    0    0    0  501  0.00000000000E+00  0.00000000000E+00 -0.26998989396E+04  0.26998989396E+04  0.50400001928E-02 0.  1.
    10030    2    1    2    0    0  0.00000000000E+00  0.00000000000E+00 -0.15000042887E+04  0.38997935905E+04  0.35997746016E+04 0.  0.
        4    1    3    3  502    0  0.16066555127E+04 -0.72024219968E+03 -0.11546305847E+04  0.21055318005E+04  0.12699999809E+01 0. -1.
       -4    1    3    3    0  502 -0.16066555127E+04  0.72024219968E+03 -0.34537370397E+03  0.17942617900E+04  0.12699999809E+01 0.  1.
</event>
<event>
 5   0  0.8024500E-09  0.3600118E+04  0.7818609E-02  0.8090465E-01
       -1   -1    0    0    0  501  0.00000000000E+00  0.00000000000E+00  0.21896104303E+04  0.21896104303E+04  0.50400001928E-02 0.  1.
        1   -1    0    0  501    0  0.00000000000E+00  0.00000000000E+00 -0.14798120400E+04  0.14798120400E+04  0.50400001928E-02 0. -1.
    10030    2    1    2    0    0  0.00000000000E+00  0.00000000000E+00  0.70979839039E+03  0.36694224703E+04  0.36001177079E+04 0.  0.
        5    1    3    3  502    0  0.11465026609E+04  0.39368103637E+03  0.17112062075E+04  0.20970698330E+04  0.46999998093E+01 0.  1.
       -5    1    3    3    0  502 -0.11465026609E+04 -0.39368103637E+03 -0.10014078171E+04  0.15723526373E+04  0.46999998093E+01 0. -1.
</event>
<event>
 5   0  0.8146881E-09  0.3599806E+04  0.7818609E-02  0.8090536E-01
       -1   -1    0    0    0  501  0.00000000000E+00  0.00000000000E+00  0.11013259813E+04  0.11013259813E+04  0.50400001928E-02 0. -1.
        1   -1    0    0  501    0  0.00000000000E+00  0.00000000000E+00 -0.29415912521E+04  0.29415912521E+04  0.50400001928E-02 0.  1.
    10030    2    1    2    0    0  0.00000000000E+00  0.00000000000E+00 -0.18402652708E+04  0.40429172334E+04  0.35998060349E+04 0.  0.
        4    1    3    3  502    0 -0.79541470613E+03  0.16144334444E+04 -0.94693101542E+03  0.20336567710E+04  0.12699999809E+01 0.  1.
       -4    1    3    3    0  502  0.79541470613E+03 -0.16144334444E+04 -0.89333425536E+03  0.20092604624E+04  0.12699999809E+01 0. -1.
</event>
<event>
 5   0  0.8024500E-09  0.3599470E+04  0.7818609E-02  0.8090613E-01
        1   -1    0    0  501    0  0.00000000000E+00  0.00000000000E+00  0.24419190309E+04  0.24419190309E+04  0.50400001928E-02 0.  1.
       -1   -1    0    0    0  501  0.00000000000E+00  0.00000000000E+00 -0.13264349151E+04  0.13264349151E+04  0.50400001928E-02 0. -1.
    10030    2    1    2    0    0  0.00000000000E+00  0.00000000000E+00  0.11154841158E+04  0.37683539459E+04  0.35994703290E+04 0.  0.
        1    1    3    3  502    0 -0.80767513494E+03 -0.82547410188E+03 -0.88734755209E+03  0.14564107575E+04  0.50400001928E-02 0. -1.
       -1    1    3    3    0  502  0.80767513494E+03  0.82547410188E+03  0.20028316679E+04  0.23119431884E+04  0.50400001928E-02 0.  1.
</event>
<event>
 5   0  0.2482243E-08  0.3599671E+04  0.7818609E-02  0.8090567E-01
        2   -1    0    0  501    0  0.00000000000E+00  0.00000000000E+00  0.20844435655E+04  0.20844435655E+04  0.25500000920E-02 0.  1.
       -2   -1    0    0    0  501  0.00000000000E+00  0.00000000000E+00 -0.15540874413E+04  0.15540874413E+04  0.25500000920E-02 0. -1.
    10030    2    1    2    0    0  0.00000000000E+00  0.00000000000E+00  0.53035612421E+03  0.36385310068E+04  0.35996708556E+04 0.  0.
        5    1    3    3  502    0  0.25443205421E+03 -0.12989691066E+04 -0.96754869051E+03  0.16395819494E+04  0.46999998093E+01 0. -1.
       -5    1    3    3    0  502 -0.25443205421E+03  0.12989691066E+04  0.14979048147E+04  0.19989490574E+04  0.46999998093E+01 0.  1.
</event>
<event>
 5   0  0.8146881E-09  0.3601174E+04  0.7818609E-02  0.8090223E-01
       -1   -1    0    0    0  501  0.00000000000E+00  0.00000000000E+00  0.13404818794E+04  0.13404818795E+04  0.50400001928E-02 0. -1.
        1   -1    0    0  501    0  0.00000000000E+00  0.00000000000E+00 -0.24186185656E+04  0.24186185656E+04  0.50400001928E-02 0.  1.
    10030    2    1    2    0    0  0.00000000000E+00  0.00000000000E+00 -0.10781366862E+04  0.37591004451E+04  0.36011744532E+04 0.  0.
        4    1    3    3  502    0  0.50452724062E+03 -0.13122071220E+04  0.63529178137E+03  0.15427354044E+04  0.12699999809E+01 0. -1.
       -4    1    3    3    0  502 -0.50452724062E+03  0.13122071220E+04 -0.17134284675E+04  0.22163650407E+04  0.12699999809E+01 0.  1.
</event>
<event>
 5   0  0.8024500E-09  0.3596294E+04  0.7818609E-02  0.8091341E-01
       -4   -1    0    0    0  501  0.00000000000E+00  0.00000000000E+00  0.17729626694E+04  0.17729631242E+04  0.12699999809E+01 0.  1.
        4   -1    0    0  501    0  0.00000000000E+00  0.00000000000E+00 -0.18236886351E+04  0.18236890773E+04  0.12699999809E+01 0. -1.
    10030    2    1    2    0    0  0.00000000000E+00  0.00000000000E+00 -0.50725965746E+02  0.35966522015E+04  0.35962944728E+04 0.  0.
        3    1    3    3  502    0  0.23601450785E+03 -0.13961592549E+04 -0.11337917574E+04  0.18139590052E+04  0.10100000352E+00 0. -1.
       -3    1    3    3    0  502 -0.23601450785E+03  0.13961592549E+04  0.10830657917E+04  0.17826931964E+04  0.10100000352E+00 0.  1.
</event>
<event>
 5   0  0.2608070E-08  0.3589304E+04  0.7818609E-02  0.8092946E-01
       -2   -1    0    0    0  501  0.00000000000E+00  0.00000000000E+00  0.13256154740E+04  0.13256154740E+04  0.25500000920E-02 0.  1.
        2   -1    0    0  501    0  0.00000000000E+00  0.00000000000E+00 -0.24296460130E+04  0.24296460130E+04  0.25500000920E-02 0. -1.
    10030    2    1    2    0    0  0.00000000000E+00  0.00000000000E+00 -0.11040305390E+04  0.37552614870E+04  0.35893043065E+04 0.  0.
        3    1    3    3  502    0  0.92803815004E+03 -0.67594264038E+03  0.89111748399E+03  0.14533559927E+04  0.10100000352E+00 0.  1.
       -3    1    3    3    0  502 -0.92803815004E+03  0.67594264038E+03 -0.19951480230E+04  0.23019054943E+04  0.10100000352E+00 0. -1.
</event>
<event>
 5   0  0.2608070E-08  0.3599825E+04  0.7818609E-02  0.8090532E-01
        2   -1    0    0  501    0  0.00000000000E+00  0.00000000000E+00  0.20632850263E+04  0.20632850263E+04  0.25500000920E-02 0.  1.
       -2   -1    0    0    0  501  0.00000000000E+00  0.00000000000E+00 -0.15701583073E+04  0.15701583073E+04  0.25500000920E-02 0. -1.
    10030    2    1    2    0    0  0.00000000000E+00  0.00000000000E+00  0.49312671903E+03  0.36334433335E+04  0.35998245092E+04 0.  0.
        3    1    3    3  502    0  0.15202943028E+04 -0.95772693409E+03  0.35313573151E+03  0.18311855456E+04  0.10100000352E+00 0.  1.
       -3    1    3    3    0  502 -0.15202943028E+04  0.95772693409E+03  0.13999098751E+03  0.18022577879E+04  0.10100000352E+00 0. -1.
</event>
<event>
 5   0  0.8024500E-09  0.3601735E+04  0.7818609E-02  0.8090094E-01
       -1   -1    0    0    0  501  0.00000000000E+00  0.00000000000E+00  0.15444209785E+04  0.15444209785E+04  0.50400001928E-02 0. -1.
        1   -1    0    0  501    0  0.00000000000E+00  0.00000000000E+00 -0.20998965145E+04  0.20998965145E+04  0.50400001928E-02 0.  1.
    10030    2    1    2    0    0  0.00000000000E+00  0.00000000000E+00 -0.55547553600E+03  0.36443174930E+04  0.36017352649E+04 0.  0.
        5    1    3    3  502    0  0.45565032402E+03 -0.12320190992E+04 -0.15242170369E+04  0.20121500799E+04  0.46999998093E+01 0.  1.
       -5    1    3    3    0  502 -0.45565032402E+03  0.12320190992E+04  0.96874150094E+03  0.16321674130E+04  0.46999998093E+01 0. -1.
</event>
<event>
 5   0  0.2482243E-08  0.3601356E+04  0.7818609E-02  0.8090181E-01
       -2   -1    0    0    0  501  0.00000000000E+00  0.00000000000E+00  0.19265863582E+04  0.19265863582E+04  0.25500000920E-02 0. -1.
        2   -1    0    0  501    0  0.00000000000E+00  0.00000000000E+00 -0.16829984674E+04  0.16829984674E+04  0.25500000920E-02 0.  1.
    10030    2    1    2    0    0  0.00000000000E+00  0.00000000000E+00  0.24358789085E+03  0.36095848256E+04  0.36013563490E+04 0.  0.
        5    1    3    3  502    0  0.82782038411E+03 -0.14242659024E+04 -0.60691596048E+03  0.17556164223E+04  0.46999998093E+01 0.  1.
       -5    1    3    3    0  502 -0.82782038411E+03  0.14242659024E+04  0.85050385134E+03  0.18539684033E+04  0.46999998093E+01 0. -1.
</event>
<event>
 5   0  0.2608070E-08  0.3600244E+04  0.7818609E-02  0.8090436E-01
        2   -1    0    0  501    0  0.00000000000E+00  0.00000000000E+00  0.20326695061E+04  0.20326695061E+04  0.25500000920E-02 0.  1.
       -2   -1    0    0    0  501  0.00000000000E+00  0.00000000000E+00 -0.15941786447E+04  0.15941786447E+04  0.25500000920E-02 0. -1.
    10030    2    1    2    0    0  0.00000000000E+00  0.00000000000E+00  0.43849086139E+03  0.36268481509E+04  0.36002435021E+04 0.  0.
        3    1    3    3  502    0  0.62054879713E+02 -0.15637995339E+04 -0.67677574374E+03  0.17050939000E+04  0.10100000352E+00 0. -1.
       -3    1    3    3    0  502 -0.62054879713E+02  0.15637995339E+04  0.11152666051E+04  0.19217542509E+04  0.10100000352E+00 0.  1.
</event>
<event>
 5   0  0.8247570E-09  0.3599399E+04  0.7818609E-02  0.8090629E-01
        1   -1    0    0  501    0  0.00000000000E+00  0.00000000000E+00  0.25536919950E+04  0.25536919950E+04  0.50400001928E-02 0. -1.
       -1   -1    0    0    0  501  0.00000000000E+00  0.00000000000E+00 -0.12683274438E+04  0.12683274438E+04  0.50400001928E-02 0.  1.
    10030    2    1    2    0    0  0.00000000000E+00  0.00000000000E+00  0.12853645512E+04  0.38220194387E+04  0.35993986387E+04 0.  0.
        3    1    3    3  502    0  0.73285086628E+03 -0.66265701284E+03 -0.95459234542E+03  0.13738381509E+04  0.10100000352E+00 0.  1.
       -3    1    3    3    0  502 -0.73285086628E+03  0.66265701284E+03  0.22399568966E+04  0.24481812878E+04  0.10100000352E+00 0. -1.
</event>
<event>
 5   0  0.8247570E-09  0.3600750E+04  0.7818609E-02  0.8090320E-01
       -1   -1    0    0    0  501  0.00000000000E+00  0.00000000000E+00  0.14588044150E+04  0.14588044150E+04  0.50400001928E-02 0. -1.
        1   -1    0    0  501    0  0.00000000000E+00  0.00000000000E+00 -0.22219229468E+04  0.22219229468E+04  0.50400001928E-02 0.  1.
    10030    2    1    2    0    0  0.00000000000E+00  0.00000000000E+00 -0.76311853182E+03  0.36807273618E+04  0.36007504799E+04 0.  0.
        3    1    3    3  502    0 -0.41449927401E+02  0.15037890326E+04 -0.13925935228E+04  0.20499795807E+04  0.10100000352E+00 0.  1.
       -3    1    3    3    0  502  0.41449927401E+02 -0.15037890326E+04  0.62947499100E+03  0.16307477811E+04  0.10100000352E+00 0. -1.
</event>
<event>
 5   0  0.8146881E-09  0.3600311E+04  0.7818609E-02  0.8090420E-01
        1   -1    0    0  501    0  0.00000000000E+00  0.00000000000E+00  0.23771310149E+04  0.23771310149E+04  0.50400001928E-02 0.  1.
       -1   -1    0    0    0  501  0.00000000000E+00  0.00000000000E+00 -0.13632231826E+04  0.13632231826E+04  0.50400001928E-02 0. -1.
    10030    2    1    2    0    0  0.00000000000E+00  0.00000000000E+00  0.10139078323E+04  0.37403541974E+04  0.36003111574E+04 0.  0.
        4    1    3    3  502    0 -0.90553103438E+03 -0.15486899745E+04  0.66150682007E+03  0.19120721684E+04  0.12699999809E+01 0. -1.
       -4    1    3    3    0  502  0.90553103438E+03  0.15486899745E+04  0.35240101223E+03  0.18282820290E+04  0.12699999809E+01 0.  1.
</event>
<event>
 5   0  0.2494592E-08  0.3600190E+04  0.7818609E-02  0.8090448E-01
        2   -1    0    0  501    0  0.00000000000E+00  0.00000000000E+00  0.11714692261E+04  0.11714692261E+04  0.25500000920E-02 0. -1.
       -2   -1    0    0    0  501  0.00000000000E+00  0.00000000000E+00 -0.27660502892E+04  0.27660502892E+04  0.25500000920E-02 0.  1.
    10030    2    1    2    0    0  0.00000000000E+00  0.00000000000E+00 -0.15945810631E+04  0.39375195153E+04  0.36001904348E+04 0.  0.
        1    1    3    3  502    0 -0.69499849363E+03  0.13696927743E+04 -0.18240049626E+04  0.23845492878E+04  0.50400001928E-02 0.  1.
       -1    1    3    3    0  502  0.69499849363E+03 -0.13696927743E+04  0.22942389950E+03  0.15529702276E+04  0.50400001928E-02 0. -1.
</event>
<event>
 5   0  0.2482243E-08  0.3599878E+04  0.7818609E-02  0.8090520E-01
       -2   -1    0    0    0  501  0.00000000000E+00  0.00000000000E+00  0.15426318049E+04  0.15426318049E+04  0.25500000920E-02 0.  1.
        2   -1    0    0  501    0  0.00000000000E+00  0.00000000000E+00 -0.21001643112E+04  0.21001643112E+04  0.25500000920E-02 0. -1.
    10030    2    1    2    0    0  0.00000000000E+00  0.00000000000E+00 -0.55753250635E+03  0.36427961161E+04  0.35998779212E+04 0.  0.
        5    1    3    3  502    0  0.73234786790E+03 -0.16213093120E+04 -0.20450749772E+01  0.17790456872E+04  0.46999998093E+01 0.  1.
       -5    1    3    3    0  502 -0.73234786790E+03  0.16213093120E+04 -0.55548743137E+03  0.18637504289E+04  0.46999998093E+01 0. -1.
</event>
<event>
 5   0  0.2476968E-08  0.3603920E+04  0.7818609E-02  0.8089594E-01
       -2   -1    0    0    0  501  0.00000000000E+00  0.00000000000E+00  0.18901881003E+04  0.18901881003E+04  0.25500000920E-02 0. -1.
        2   -1    0    0  501    0  0.00000000000E+00  0.00000000000E+00 -0.17178496930E+04  0.17178496930E+04  0.25500000920E-02 0.  1.
    10030    2    1    2    0    0  0.00000000000E+00  0.00000000000E+00  0.17233840723E+03  0.36080377933E+04  0.36039195595E+04 0.  0.
        2    1    3    3  502    0  0.17124098207E+04 -0.29667093980E+03 -0.39050301439E+03  0.17812505845E+04  0.25500000920E-02 0.  1.
       -2    1    3    3    0  502 -0.17124098207E+04  0.29667093980E+03  0.56284142161E+03  0.18267872088E+04  0.25500000920E-02 0. -1.
</event>
<event>
 5   0  0.2608070E-08  0.3601061E+04  0.7818609E-02  0.8090249E-01
       -2   -1    0    0    0  501  0.00000000000E+00  0.00000000000E+00  0.10032903280E+04  0.10032903280E+04  0.25500000920E-02 0.  1.
        2   -1    0    0  501    0  0.00000000000E+00  0.00000000000E+00 -0.32312775105E+04  0.32312775105E+04  0.25500000920E-02 0. -1.
    10030    2    1    2    0    0  0.00000000000E+00  0.00000000000E+00 -0.22279871825E+04  0.42345678385E+04  0.36010606622E+04 0.  0.
        3    1    3    3  502    0 -0.10586305152E+04  0.14396552826E+04 -0.13732399760E+04  0.22536845259E+04  0.10100000352E+00 0. -1.
       -3    1    3    3    0  502  0.10586305152E+04 -0.14396552826E+04 -0.85474720649E+03  0.19808833125E+04  0.10100000352E+00 0.  1.
</event>
<event>
 5   0  0.8146881E-09  0.3602555E+04  0.7818609E-02  0.8089907E-01
       -1   -1    0    0    0  501  0.00000000000E+00  0.00000000000E+00  0.13139201812E+04  0.13139201812E+04  0.50400001928E-02 0.  1.
        1   -1    0    0  501    0  0.00000000000E+00  0.00000000000E+00 -0.24694048536E+04  0.24694048536E+04  0.50400001928E-02 0. -1.
    10030    2    1    2    0    0  0.00000000000E+00  0.00000000000E+00 -0.11554846724E+04  0.37833250348E+04  0.36025551336E+04 0.  0.
        4    1    3    3  502    0 -0.17111441170E+04  0.39147652623E+03 -0.15332062218E+03  0.17620377084E+04  0.12699999809E+01 0. -1.
       -4    1    3    3    0  502  0.17111441170E+04 -0.39147652623E+03 -0.10021640503E+04  0.20212873265E+04  0.12699999809E+01 0.  1.
</event>
<event>
 5   0  0.8024500E-09  0.3600658E+04  0.7818609E-02  0.8090341E-01
       -1   -1    0    0    0  501  0.00000000000E+00  0.00000000000E+00  0.28226141610E+04  0.28226141610E+04  0.50400001928E-02 0. -1.
        1   -1    0    0  501    0  0.00000000000E+00  0.00000000000E+00 -0.11482917856E+04  0.11482917856E+04  0.50400001928E-02 0.  1.
    10030    2    1    2    0    0  0.00000000000E+00  0.00000000000E+00  0.16743223754E+04  0.39709059466E+04  0.36006580815E+04 0.  0.
        1    1    3    3  502    0 -0.13194497344E+04 -0.49432248379E+03  0.20730579482E+04  0.25065656936E+04  0.50400001928E-02 0. -1.
       -1    1    3    3    0  502  0.13194497344E+04  0.49432248379E+03 -0.39873557279E+03  0.14643402530E+04  0.50400001928E-02 0.  1.
</event>
<event>
 5   0  0.2608070E-08  0.3599313E+04  0.7818609E-02  0.8090649E-01
        2   -1    0    0  501    0  0.00000000000E+00  0.00000000000E+00  0.16371343913E+04  0.16371343913E+04  0.25500000920E-02 0.  1.
       -2   -1    0    0    0  501  0.00000000000E+00  0.00000000000E+00 -0.19783130357E+04  0.19783130357E+04  0.25500000920E-02 0. -1.
    10030    2    1    2    0    0  0.00000000000E+00  0.00000000000E+00 -0.34117864431E+03  0.36154474270E+04  0.35993134387E+04 0.  0.
        3    1    3    3  502    0 -0.16959107227E+04 -0.27825070543E+03 -0.70705038358E+03  0.18583478925E+04  0.10100000352E+00 0. -1.
       -3    1    3    3    0  502  0.16959107227E+04  0.27825070543E+03  0.36587173926E+03  0.17570995345E+04  0.10100000352E+00 0.  1.
</event>
<event>
 5   0  0.2482243E-08  0.3600617E+04  0.7818609E-02  0.8090350E-01
        2   -1    0    0  501    0  0.00000000000E+00  0.00000000000E+00  0.14036563280E+04  0.14036563280E+04  0.25500000920E-02 0. -1.
       -2   -1    0    0    0  501  0.00000000000E+00  0.00000000000E+00 -0.23090483992E+04  0.23090483992E+04  0.25500000920E-02 0.  1.
    10030    2    1    2    0    0  0.00000000000E+00  0.00000000000E+00 -0.90539207126E+03  0.37127047272E+04  0.36006168345E+04 0.  0.
        5    1    3    3  502    0  0.17895716104E+04 -0.79512049672E+02 -0.26766750951E+03  0.18112307143E+04  0.46999998093E+01 0. -1.
       -5    1    3    3    0  502 -0.17895716104E+04  0.79512049672E+02 -0.63772456175E+03  0.19014740129E+04  0.46999998093E+01 0.  1.
</event>
<event>
 5   0  0.8247570E-09  0.3599529E+04  0.7818609E-02  0.8090600E-01
       -1   -1    0    0    0  501  0.00000000000E+00  0.00000000000E+00  0.22858504885E+04  0.22858504885E+04  0.50400001928E-02 0. -1.
        1   -1    0    0  501    0  0.00000000000E+00  0.00000000000E+00 -0.14170447638E+04  0.14170447638E+04  0.50400001928E-02 0.  1.
    10030    2    1    2    0    0  0.00000000000E+00  0.00000000000E+00  0.86880572465E+03  0.37028952523E+04  0.35995291168E+04 0.  0.
        3    1    3    3  502    0  0.85142945830E+02 -0.54209272461E+03  0.21976958706E+04  0.22651668797E+04  0.10100000352E+00 0. -1.
       -3    1    3    3    0  502 -0.85142945830E+02  0.54209272461E+03 -0.13288901459E+04  0.14377283726E+04  0.10100000352E+00 0.  1.
</event>
<event>
 5   0  0.8146881E-09  0.3599611E+04  0.7818609E-02  0.8090581E-01
        1   -1    0    0  501    0  0.00000000000E+00  0.00000000000E+00  0.15657053629E+04  0.15657053629E+04  0.50400001928E-02 0.  1.
       -1   -1    0    0    0  501  0.00000000000E+00  0.00000000000E+00 -0.20689075282E+04  0.20689075282E+04  0.50400001928E-02 0. -1.
    10030    2    1    2    0    0  0.00000000000E+00  0.00000000000E+00 -0.50320216534E+03  0.36346128912E+04  0.35996108747E+04 0.  0.
        4    1    3    3  502    0 -0.16522956990E+04 -0.21680971504E+03 -0.93807255946E+03  0.19123465348E+04  0.12699999809E+01 0. -1.
       -4    1    3    3    0  502  0.16522956990E+04  0.21680971504E+03  0.43487039412E+03  0.17222663563E+04  0.12699999809E+01 0.  1.
</event>
<event>
 5   0  0.8063410E-09  0.3597348E+04  0.7818609E-02  0.8091099E-01
       -1   -1    0    0    0  501  0.00000000000E+00  0.00000000000E+00  0.16624821541E+04  0.16624821541E+04  0.50400001928E-02 0.  1.
        1   -1    0    0  501    0  0.00000000000E+00  0.00000000000E+00 -0.19460230875E+04  0.19460230875E+04  0.50400001928E-02 0. -1.
    10030    2    1    2    0    0  0.00000000000E+00  0.00000000000E+00 -0.28354093334E+03  0.36085052416E+04  0.35973482758E+04 0.  0.
        2    1    3    3  502    0  0.10947306551E+04  0.39122892398E+03  0.12349779032E+04  0.16960736127E+04  0.25500000920E-02 0.  1.
       -2    1    3    3    0  502 -0.10947306551E+04 -0.39122892398E+03 -0.15185188366E+04  0.19124316289E+04  0.25500000920E-02 0. -1.
</event>
<event>
 5   0  0.2590795E-08  0.3598545E+04  0.7818609E-02  0.8090825E-01
        2   -1    0    0  501    0  0.00000000000E+00  0.00000000000E+00  0.21291867366E+04  0.21291867366E+04  0.25500000920E-02 0.  1.
       -2   -1    0    0    0  501  0.00000000000E+00  0.00000000000E+00 -0.15204780885E+04  0.15204780885E+04  0.25500000920E-02 0. -1.
    10030    2    1    2    0    0  0.00000000000E+00  0.00000000000E+00  0.60870864814E+03  0.36496648251E+04  0.35985451390E+04 0.  0.
        4    1    3    3  502    0  0.10299702940E+04  0.22566462020E+03 -0.11743063345E+04  0.15782142781E+04  0.12699999809E+01 0. -1.
       -4    1    3    3    0  502 -0.10299702940E+04 -0.22566462020E+03  0.17830149827E+04  0.20714505470E+04  0.12699999809E+01 0.  1.
</event>
<event>
 5   0  0.8024500E-09  0.3624911E+04  0.7818609E-02  0.8084809E-01
       -1   -1    0    0    0  501  0.00000000000E+00  0.00000000000E+00  0.15106549984E+04  0.15106549984E+04  0.50400001928E-02 0. -1.
        1   -1    0    0  501    0  0.00000000000E+00  0.00000000000E+00 -0.21745501759E+04  0.21745501759E+04  0.50400001928E-02 0.  1.
    10030    2    1    2    0    0  0.00000000000E+00  0.00000000000E+00 -0.66389517750E+03  0.36852051743E+04  0.36249110844E+04 0.  0.
        5    1    3    3  502    0  0.45362737288E+02  0.14339961931E+04  0.79398012358E+03  0.16397650400E+04  0.46999998093E+01 0. -1.
       -5    1    3    3    0  502 -0.45362737288E+02 -0.14339961931E+04 -0.14578753011E+04  0.20454401343E+04  0.46999998093E+01 0.  1.
</event>
<event>
 5   0  0.2482243E-08  0.3598545E+04  0.7818609E-02  0.8090825E-01
       -2   -1    0    0    0  501  0.00000000000E+00  0.00000000000E+00  0.16686483590E+04  0.16686483590E+04  0.25500000920E-02 0.  1.
        2   -1    0    0  501    0  0.00000000000E+00  0.00000000000E+00 -0.19401219634E+04  0.19401219634E+04  0.25500000920E-02 0. -1.
    10030    2    1    2    0    0  0.00000000000E+00  0.00000000000E+00 -0.27147360438E+03  0.36087703225E+04  0.35985448896E+04 0.  0.
        5    1    3    3  502    0  0.99749986394E+03  0.12904116808E+04 -0.89762645736E+03  0.18616991248E+04  0.46999998093E+01 0. -1.
       -5    1    3    3    0  502 -0.99749986394E+03 -0.12904116808E+04  0.62615285298E+03  0.17470711977E+04  0.46999998093E+01 0.  1.
</event>
<event>
 5   0  0.8063410E-09  0.3600285E+04  0.7818609E-02  0.8090426E-01
       -1   -1    0    0    0  501  0.00000000000E+00  0.00000000000E+00  0.19229899710E+04  0.19229899710E+04  0.50400001928E-02 0. -1.
        1   -1    0    0  501    0  0.00000000000E+00  0.00000000000E+00 -0.16851426711E+04  0.16851426711E+04  0.50400001928E-02 0.  1.
    10030    2    1    2    0    0  0.00000000000E+00  0.00000000000E+00  0.23784729985E+03  0.36081326421E+04  0.36002846867E+04 0.  0.
        2    1    3    3  502    0 -0.10356475568E+04  0.67205163993E+03  0.14318531023E+04  0.18906143380E+04  0.25500000920E-02 0. -1.
       -2    1    3    3    0  502  0.10356475568E+04 -0.67205163993E+03 -0.11940058024E+04  0.17175183041E+04  0.25500000920E-02 0.  1.
</event>
<event>
 5   0  0.2494592E-08  0.3601525E+04  0.7818609E-02  0.8090142E-01
       -2   -1    0    0    0  501  0.00000000000E+00  0.00000000000E+00  0.21108751518E+04  0.21108751518E+04  0.25500000920E-02 0. -1.
        2   -1    0    0  501    0  0.00000000000E+00  0.00000000000E+00 -0.15362093906E+04  0.15362093906E+04  0.25500000920E-02 0.  1.
    10030    2    1    2    0    0  0.00000000000E+00  0.00000000000E+00  0.57466576115E+03  0.36470845424E+04  0.36015253606E+04 0.  0.
        1    1    3    3  502    0 -0.13645019182E+04 -0.55272403768E+03 -0.76278898608E+03  0.16580761092E+04  0.50400001928E-02 0.  1.
       -1    1    3    3    0  502  0.13645019182E+04  0.55272403768E+03  0.13374547472E+04  0.19890084332E+04  0.50400001928E-02 0. -1.
</event>
<event>
 5   0  0.8024500E-09  0.3600468E+04  0.7818609E-02  0.8090385E-01
       -1   -1    0    0    0  501  0.00000000000E+00  0.00000000000E+00  0.13883337317E+04  0.13883337317E+04  0.50400001928E-02 0. -1.
        1   -1    0    0  501    0  0.00000000000E+00  0.00000000000E+00 -0.23343390110E+04  0.23343390110E+04  0.50400001928E-02 0.  1.
    10030    2    1    2    0    0  0.00000000000E+00  0.00000000000E+00 -0.94600527931E+03  0.37226727427E+04  0.36004675198E+04 0.  0.
        5    1    3    3  502    0  0.14713813868E+04  0.26760466529E+03 -0.15091358579E+04  0.21246384563E+04  0.46999998093E+01 0.  1.
       -5    1    3    3    0  502 -0.14713813868E+04 -0.26760466529E+03  0.56313057861E+03  0.15980342865E+04  0.46999998093E+01 0. -1.
</event>
<event>
 5   0  0.8063410E-09  0.3602106E+04  0.7818609E-02  0.8090010E-01
       -1   -1    0    0    0  501  0.00000000000E+00  0.00000000000E+00  0.18936924667E+04  0.18936924667E+04  0.50400001928E-02 0.  1.
        1   -1    0    0  501    0  0.00000000000E+00  0.00000000000E+00 -0.17129452012E+04  0.17129452013E+04  0.50400001928E-02 0. -1.
    10030    2    1    2    0    0  0.00000000000E+00  0.00000000000E+00  0.18074726545E+03  0.36066376680E+04  0.36021057305E+04 0.  0.
        2    1    3    3  502    0 -0.14394672743E+04  0.97079235662E+03  0.56981591585E+03  0.18273461662E+04  0.25500000920E-02 0.  1.
       -2    1    3    3    0  502  0.14394672743E+04 -0.97079235662E+03 -0.38906865040E+03  0.17792915017E+04  0.25500000920E-02 0. -1.
</event>
<event>
 5   0  0.2476968E-08  0.3595786E+04  0.7818609E-02  0.8091458E-01
       -2   -1    0    0    0  501  0.00000000000E+00  0.00000000000E+00  0.15159649469E+04  0.15159649469E+04  0.25500000920E-02 0.  1.
        2   -1    0    0  501    0  0.00000000000E+00  0.00000000000E+00 -0.21322520845E+04  0.21322520845E+04  0.25500000920E-02 0. -1.
    10030    2    1    2    0    0  0.00000000000E+00  0.00000000000E+00 -0.61628713754E+03  0.36482170314E+04  0.35957860993E+04 0.  0.
        2    1    3    3  502    0  0.31788920547E+03 -0.13791819282E+04 -0.14330131437E+04  0.20141308319E+04  0.25500000920E-02 0. -1.
       -2    1    3    3    0  502 -0.31788920547E+03  0.13791819282E+04  0.81672600619E+03  0.16340861994E+04  0.25500000920E-02 0.  1.
</event>
<event>
 5   0  0.2476968E-08  0.3600452E+04  0.7818609E-02  0.8090388E-01
        2   -1    0    0  501    0  0.00000000000E+00  0.00000000000E+00  0.22804663147E+04  0.22804663147E+04  0.25500000920E-02 0. -1.
       -2   -1    0    0    0  501  0.00000000000E+00  0.00000000000E+00 -0.14211188827E+04  0.14211188827E+04  0.25500000920E-02 0.  1.
    10030    2    1    2    0    0  0.00000000000E+00  0.00000000000E+00  0.85934743200E+03  0.37015851974E+04  0.36004520501E+04 0.  0.
        2    1    3    3  502    0 -0.13441838541E+04  0.11629224984E+04  0.72334526928E+03  0.19189703879E+04  0.25500000920E-02 0. -1.
       -2    1    3    3    0  502  0.13441838541E+04 -0.11629224984E+04  0.13600216271E+03  0.17826148096E+04  0.25500000920E-02 0.  1.
</event>
<event>
 5   0  0.2590795E-08  0.3585912E+04  0.7818609E-02  0.8093726E-01
        2   -1    0    0  501    0  0.00000000000E+00  0.00000000000E+00  0.23658506977E+04  0.23658506977E+04  0.25500000920E-02 0. -1.
       -2   -1    0    0    0  501  0.00000000000E+00  0.00000000000E+00 -0.13587888768E+04  0.13587888768E+04  0.25500000920E-02 0.  1.
    10030    2    1    2    0    0  0.00000000000E+00  0.00000000000E+00  0.10070618208E+04  0.37246395745E+04  0.35859122199E+04 0.  0.
        4    1    3    3  502    0 -0.58571203150E+02 -0.57204394852E+03 -0.12604103528E+04  0.13853882977E+04  0.12699999809E+01 0.  1.
       -4    1    3    3    0  502  0.58571203150E+02  0.57204394852E+03  0.22674721737E+04  0.23392512768E+04  0.12699999809E+01 0. -1.
</event>
<event>
 5   0  0.2476968E-08  0.3600137E+04  0.7818609E-02  0.8090460E-01
        2   -1    0    0  501    0  0.00000000000E+00  0.00000000000E+00  0.23606988777E+04  0.23606988777E+04  0.25500000920E-02 0. -1.
       -2   -1    0    0    0  501  0.00000000000E+00  0.00000000000E+00 -0.13725791449E+04  0.13725791449E+04  0.25500000920E-02 0.  1.
    10030    2    1    2    0    0  0.00000000000E+00  0.00000000000E+00  0.98811973282E+03  0.37332780227E+04  0.36001366902E+04 0.  0.
        2    1    3    3  502    0  0.46403841193E+03 -0.14917567953E+04 -0.43319951360E+03  0.16212130652E+04  0.25500000920E-02 0.  1.
       -2    1    3    3    0  502 -0.46403841193E+03  0.14917567953E+04  0.14213192464E+04  0.21120649574E+04  0.25500000920E-02 0. -1.
</event>
<event>
 5   0  0.2476968E-08  0.3600181E+04  0.7818609E-02  0.8090450E-01
       -2   -1    0    0    0  501  0.00000000000E+00  0.00000000000E+00  0.14544486494E+04  0.14544486494E+04  0.25500000920E-02 0.  1.
        2   -1    0    0  501    0  0.00000000000E+00  0.00000000000E+00 -0.22278722166E+04  0.22278722166E+04  0.25500000920E-02 0. -1.
    10030    2    1    2    0    0  0.00000000000E+00  0.00000000000E+00 -0.77342356725E+03  0.36823208660E+04  0.36001809601E+04 0.  0.
        2    1    3    3  502    0  0.43482239946E+03  0.17097527082E+04 -0.75264665708E+03  0.19180202900E+04  0.25500000920E-02 0. -1.
       -2    1    3    3    0  502 -0.43482239946E+03 -0.17097527082E+04 -0.20776910172E+02  0.17643005760E+04  0.25500000920E-02 0.  1.
</event>
<event>
 5   0  0.2608070E-08  0.3599841E+04  0.7818609E-02  0.8090528E-01
       -2   -1    0    0    0  501  0.00000000000E+00  0.00000000000E+00  0.25970601476E+04  0.25970601476E+04  0.25500000920E-02 0.  1.
        2   -1    0    0  501    0  0.00000000000E+00  0.00000000000E+00 -0.12474545840E+04  0.12474545840E+04  0.25500000920E-02 0. -1.
    10030    2    1    2    0    0  0.00000000000E+00  0.00000000000E+00  0.13496055636E+04  0.38445147316E+04  0.35998414332E+04 0.  0.
        3    1    3    3  502    0  0.63164743805E+03  0.12930720896E+04  0.18293449589E+04  0.23275559937E+04  0.10100000352E+00 0.  1.
       -3    1    3    3    0  502 -0.63164743805E+03 -0.12930720896E+04 -0.47973939532E+03  0.15169587379E+04  0.10100000352E+00 0. -1.
</event>
<event>
 5   0  0.8146881E-09  0.3590005E+04  0.7818609E-02  0.8092785E-01
        1   -1    0    0  501    0  0.00000000000E+00  0.00000000000E+00  0.98306154614E+03  0.98306154615E+03  0.50400001928E-02 0.  1.
       -1   -1    0    0    0  501  0.00000000000E+00  0.00000000000E+00 -0.32775513078E+04  0.32775513078E+04  0.50400001928E-02 0. -1.
    10030    2    1    2    0    0  0.00000000000E+00  0.00000000000E+00 -0.22944897617E+04  0.42606128539E+04  0.35900053795E+04 0.  0.
        4    1    3    3  502    0 -0.98564020835E+03  0.14768306722E+04 -0.14601583976E+04  0.22988213531E+04  0.12699999809E+01 0.  1.
       -4    1    3    3    0  502  0.98564020835E+03 -0.14768306722E+04 -0.83433136405E+03  0.19617915008E+04  0.12699999809E+01 0. -1.
</event>
<event>
 5   0  0.8024500E-09  0.3600040E+04  0.7818609E-02  0.8090483E-01
        1   -1    0    0  501    0  0.00000000000E+00  0.00000000000E+00  0.20705200684E+04  0.20705200684E+04  0.50400001928E-02 0. -1.
       -1   -1    0    0    0  501  0.00000000000E+00  0.00000000000E+00 -0.15648589876E+04  0.15648589877E+04  0.50400001928E-02 0.  1.
    10030    2    1    2    0    0  0.00000000000E+00  0.00000000000E+00  0.50566108075E+03  0.36353790560E+04  0.36000399654E+04 0.  0.
        1    1    3    3  502    0  0.42905810500E+02  0.25310045960E+03 -0.15462787712E+04  0.15674433928E+04  0.50400001928E-02 0.  1.
       -1    1    3    3    0  502 -0.42905810500E+02 -0.25310045960E+03  0.20519398520E+04  0.20679356633E+04  0.50400001928E-02 0. -1.
</event>
<event>
 5   0  0.8247570E-09  0.3599420E+04  0.7818609E-02  0.8090625E-01
        1   -1    0    0  501    0  0.00000000000E+00  0.00000000000E+00  0.18767215652E+04  0.18767215652E+04  0.50400001928E-02 0. -1.
       -1   -1    0    0    0  501  0.00000000000E+00  0.00000000000E+00 -0.17258585444E+04  0.17258585444E+04  0.50400001928E-02 0.  1.
    10030    2    1    2    0    0  0.00000000000E+00  0.00000000000E+00  0.15086302079E+03  0.36025801096E+04  0.35994199248E+04 0.  0.
        3    1    3    3  502    0 -0.82281292089E+03 -0.15486640854E+04  0.48022990396E+03  0.18182415470E+04  0.10100000352E+00 0. -1.
       -3    1    3    3    0  502  0.82281292089E+03  0.15486640854E+04 -0.32936688317E+03  0.17843385626E+04  0.10100000352E+00 0.  1.
</event>
<event>
 5   0  0.8063410E-09  0.3601588E+04  0.7818609E-02  0.8090128E-01
        1   -1    0    0  501    0  0.00000000000E+00  0.00000000000E+00  0.23605368399E+04  0.23605368400E+04  0.50400001928E-02 0.  1.
       -1   -1    0    0    0  501  0.00000000000E+00  0.00000000000E+00 -0.13737799738E+04  0.13737799738E+04  0.50400001928E-02 0. -1.
    10030    2    1    2    0    0  0.00000000000E+00  0.00000000000E+00  0.98675686614E+03  0.37343168138E+04  0.36015875601E+04 0.  0.
        2    1    3    3  502    0  0.30311909160E+03 -0.17628508024E+04  0.27753835547E+03  0.18101247675E+04  0.25500000920E-02 0. -1.
       -2    1    3    3    0  502 -0.30311909160E+03  0.17628508024E+04  0.70921851067E+03  0.19241920463E+04  0.25500000920E-02 0.  1.
</event>
<event>
 5   0  0.8247570E-09  0.3600607E+04  0.7818609E-02  0.8090353E-01
        1   -1    0    0  501    0  0.00000000000E+00  0.00000000000E+00  0.11281807426E+04  0.11281807426E+04  0.50400001928E-02 0. -1.
       -1   -1    0    0    0  501  0.00000000000E+00  0.00000000000E+00 -0.28728487178E+04  0.28728487178E+04  0.50400001928E-02 0.  1.
    10030    2    1    2    0    0  0.00000000000E+00  0.00000000000E+00 -0.17446679752E+04  0.40010294604E+04  0.36006069487E+04 0.  0.
        3    1    3    3  502    0  0.94829736957E+03 -0.23310183336E+03  0.80830899851E+03  0.12676623419E+04  0.10100000352E+00 0. -1.
       -3    1    3    3    0  502 -0.94829736957E+03  0.23310183336E+03 -0.25529769737E+04  0.27333671185E+04  0.10100000352E+00 0.  1.
</event>
<event>
 5   0  0.2590795E-08  0.3597671E+04  0.7818609E-02  0.8091025E-01
       -2   -1    0    0    0  501  0.00000000000E+00  0.00000000000E+00  0.17014063698E+04  0.17014063698E+04  0.25500000920E-02 0. -1.
        2   -1    0    0  501    0  0.00000000000E+00  0.00000000000E+00 -0.19018441883E+04  0.19018441883E+04  0.25500000920E-02 0.  1.
    10030    2    1    2    0    0  0.00000000000E+00  0.00000000000E+00 -0.20043781849E+03  0.36032505581E+04  0.35976713671E+04 0.  0.
        4    1    3    3  502    0  0.75113250637E+02 -0.12682155065E+04 -0.13756912232E+04  0.18725759066E+04  0.12699999809E+01 0.  1.
       -4    1    3    3    0  502 -0.75113250637E+02  0.12682155065E+04  0.11752534047E+04  0.17306746516E+04  0.12699999809E+01 0. -1.
</event>
<event>
 5   0  0.2590795E-08  0.3601449E+04  0.7818609E-02  0.8090160E-01
       -2   -1    0    0    0  501  0.00000000000E+00  0.00000000000E+00  0.18039144335E+04  0.18039144335E+04  0.25500000920E-02 0. -1.
        2   -1    0    0  501    0  0.00000000000E+00  0.00000000000E+00 -0.17975404705E+04  0.17975404705E+04  0.25500000920E-02 0.  1.
    10030    2    1    2    0    0  0.00000000000E+00  0.00000000000E+00  0.63739629159E+01  0.36014549040E+04  0.36014492636E+04 0.  0.
        4    1    3    3  502    0  0.11471491842E+03 -0.83553109463E+03  0.15942067151E+04  0.18035432865E+04  0.12699999809E+01 0. -1.
       -4    1    3    3    0  502 -0.11471491842E+03  0.83553109463E+03 -0.15878327522E+04  0.17979116176E+04  0.12699999809E+01 0.  1.
</event>
<event>
 5   0  0.2476968E-08  0.3602090E+04  0.7818609E-02  0.8090013E-01
        2   -1    0    0  501    0  0.00000000000E+00  0.00000000000E+00  0.17017302398E+04  0.17017302398E+04  0.25500000920E-02 0. -1.
       -2   -1    0    0    0  501  0.00000000000E+00  0.00000000000E+00 -0.19061556083E+04  0.19061556083E+04  0.25500000920E-02 0.  1.
    10030    2    1    2    0    0  0.00000000000E+00  0.00000000000E+00 -0.20442536851E+03  0.36078858481E+04  0.36020897493E+04 0.  0.
        2    1    3    3  502    0  0.11119600121E+04 -0.50176604548E+03 -0.14293120037E+04  0.18791373118E+04  0.25500000920E-02 0.  1.
       -2    1    3    3    0  502 -0.11119600121E+04  0.50176604548E+03  0.12248866352E+04  0.17287485363E+04  0.25500000920E-02 0. -1.
</event>
<event>
 5   0  0.8024500E-09  0.3599809E+04  0.7818609E-02  0.8090536E-01
        3   -1    0    0  501    0  0.00000000000E+00  0.00000000000E+00  0.21122215412E+04  0.21122215436E+04  0.10100000352E+00 0. -1.
       -3   -1    0    0    0  501  0.00000000000E+00  0.00000000000E+00 -0.15337668811E+04  0.15337668844E+04  0.10100000352E+00 0.  1.
    10030    2    1    2    0    0  0.00000000000E+00  0.00000000000E+00  0.57845466012E+03  0.36459884280E+04  0.35998085815E+04 0.  0.
        5    1    3    3  502    0  0.16252177886E+04  0.48719899403E+03 -0.31926060089E+03  0.17264545002E+04  0.46999998093E+01 0.  1.
       -5    1    3    3    0  502 -0.16252177886E+04 -0.48719899403E+03  0.89771526100E+03  0.19195339278E+04  0.46999998093E+01 0. -1.
</event>
<event>
 5   0  0.8146881E-09  0.3601369E+04  0.7818609E-02  0.8090178E-01
       -1   -1    0    0    0  501  0.00000000000E+00  0.00000000000E+00  0.29227220588E+04  0.29227220588E+04  0.50400001928E-02 0.  1.
        1   -1    0    0  501    0  0.00000000000E+00  0.00000000000E+00 -0.11093990982E+04  0.11093990982E+04  0.50400001928E-02 0. -1.
    10030    2    1    2    0    0  0.00000000000E+00  0.00000000000E+00  0.18133229607E+04  0.40321211570E+04  0.36013693042E+04 0.  0.
        4    1    3    3  502    0 -0.10495253477E+04 -0.47195332624E+03  0.24573163430E+04  0.27134200965E+04  0.12699999809E+01 0.  1.
       -4    1    3    3    0  502  0.10495253477E+04  0.47195332624E+03 -0.64399338231E+03  0.13187010605E+04  0.12699999809E+01 0. -1.
</event>
<event>
 5   0  0.8247570E-09  0.3601406E+04  0.7818609E-02  0.8090170E-01
        1   -1    0    0  501    0  0.00000000000E+00  0.00000000000E+00  0.24061885476E+04  0.24061885476E+04  0.50400001928E-02 0.  1.
       -1   -1    0    0    0  501  0.00000000000E+00  0.00000000000E+00 -0.13475801278E+04  0.13475801278E+04  0.50400001928E-02 0. -1.
    10030    2    1    2    0    0  0.00000000000E+00  0.00000000000E+00  0.10586084198E+04  0.37537686754E+04  0.36014063200E+04 0.  0.
        3    1    3    3  502    0  0.11375899544E+04 -0.30365513731E+03 -0.89076485095E+03  0.14764075917E+04  0.10100000352E+00 0. -1.
       -3    1    3    3    0  502 -0.11375899544E+04  0.30365513731E+03  0.19493732708E+04  0.22773610838E+04  0.10100000352E+00 0.  1.
</event>
<event>
 5   0  0.8146881E-09  0.3599753E+04  0.7818609E-02  0.8090548E-01
        1   -1    0    0  501    0  0.00000000000E+00  0.00000000000E+00  0.91038040788E+03  0.91038040789E+03  0.50400001928E-02 0.  1.
       -1   -1    0    0    0  501  0.00000000000E+00  0.00000000000E+00 -0.35584630153E+04  0.35584630153E+04  0.50400001928E-02 0. -1.
    10030    2    1    2    0    0  0.00000000000E+00  0.00000000000E+00 -0.26480826074E+04  0.44688434232E+04  0.35997527756E+04 0.  0.
        4    1    3    3  502    0  0.18776218198E+03  0.14899618627E+04 -0.25556959322E+04  0.29642577992E+04  0.12699999809E+01 0. -1.
       -4    1    3    3    0  502 -0.18776218198E+03 -0.14899618627E+04 -0.92386675277E+02  0.15045856240E+04  0.12699999809E+01 0.  1.
</event>
<event>
 5   0  0.8146881E-09  0.3597115E+04  0.7818609E-02  0.8091153E-01
       -1   -1    0    0    0  501  0.00000000000E+00  0.00000000000E+00  0.11567744961E+04  0.11567744961E+04  0.50400001928E-02 0. -1.
        1   -1    0    0  501    0  0.00000000000E+00  0.00000000000E+00 -0.27964049830E+04  0.27964049830E+04  0.50400001928E-02 0.  1.
    10030    2    1    2    0    0  0.00000000000E+00  0.00000000000E+00 -0.16396304869E+04  0.39531794791E+04  0.35971154917E+04 0.  0.
        4    1    3    3  502    0  0.81323763975E+03  0.15302526475E+03  0.93513706988E+03  0.12487013825E+04  0.12699999809E+01 0. -1.
       -4    1    3    3    0  502 -0.81323763975E+03 -0.15302526475E+03 -0.25747675568E+04  0.27044780966E+04  0.12699999809E+01 0.  1.
</event>
<event>
 5   0  0.2494592E-08  0.3594129E+04  0.7818609E-02  0.8091838E-01
        2   -1    0    0  501    0  0.00000000000E+00  0.00000000000E+00  0.20191072745E+04  0.20191072745E+04  0.25500000920E-02 0. -1.
       -2   -1    0    0    0  501  0.00000000000E+00  0.00000000000E+00 -0.15994397375E+04  0.15994397375E+04  0.25500000920E-02 0.  1.
    10030    2    1    2    0    0  0.00000000000E+00  0.00000000000E+00  0.41966753698E+03  0.36185470121E+04  0.35941287730E+04 0.  0.
        1    1    3    3  502    0  0.54692611175E+03  0.17091333746E+03 -0.15049998956E+04  0.16103925691E+04  0.50400001928E-02 0.  1.
       -1    1    3    3    0  502 -0.54692611175E+03 -0.17091333746E+03  0.19246674326E+04  0.20081544430E+04  0.50400001928E-02 0. -1.
</event>
<event>
 5   0  0.2476968E-08  0.3603173E+04  0.7818609E-02  0.8089765E-01
       -2   -1    0    0    0  501  0.00000000000E+00  0.00000000000E+00  0.17608302559E+04  0.17608302559E+04  0.25500000920E-02 0.  1.
        2   -1    0    0  501    0  0.00000000000E+00  0.00000000000E+00 -0.18432860567E+04  0.18432860567E+04  0.25500000920E-02 0. -1.
    10030    2    1    2    0    0  0.00000000000E+00  0.00000000000E+00 -0.82455800782E+02  0.36041163126E+04  0.36031729678E+04 0.  0.
        2    1    3    3  502    0 -0.17199387319E+04 -0.46889253077E+03 -0.30141984320E+03  0.18080108873E+04  0.25500000920E-02 0. -1.
       -2    1    3    3    0  502  0.17199387319E+04  0.46889253077E+03  0.21896404242E+03  0.17961054253E+04  0.25500000920E-02 0.  1.
</event>
<event>
 5   0  0.2608070E-08  0.3600798E+04  0.7818609E-02  0.8090309E-01
       -2   -1    0    0    0  501  0.00000000000E+00  0.00000000000E+00  0.14508573878E+04  0.14508573878E+04  0.25500000920E-02 0. -1.
        2   -1    0    0  501    0  0.00000000000E+00  0.00000000000E+00 -0.22341522602E+04  0.22341522602E+04  0.25500000920E-02 0.  1.
    10030    2    1    2    0    0  0.00000000000E+00  0.00000000000E+00 -0.78329487235E+03  0.36850096480E+04  0.36007978628E+04 0.  0.
        3    1    3    3  502    0 -0.17414155826E+03  0.17108410367E+04 -0.93715586375E+03  0.19584594605E+04  0.10100000352E+00 0.  1.
       -3    1    3    3    0  502  0.17414155826E+03 -0.17108410367E+04  0.15386099141E+03  0.17265501875E+04  0.10100000352E+00 0. -1.
</event>
<event>
 5   0  0.2482243E-08  0.3599452E+04  0.7818609E-02  0.8090617E-01
       -2   -1    0    0    0  501  0.00000000000E+00  0.00000000000E+00  0.17920851471E+04  0.17920851471E+04  0.25500000920E-02 0.  1.
        2   -1    0    0  501    0  0.00000000000E+00  0.00000000000E+00 -0.18073991908E+04  0.18073991908E+04  0.25500000920E-02 0. -1.
    10030    2    1    2    0    0  0.00000000000E+00  0.00000000000E+00 -0.15314043677E+02  0.35994843378E+04  0.35994517608E+04 0.  0.
        5    1    3    3  502    0  0.58469158176E+03  0.85045002502E+02 -0.17076413061E+04  0.18069747698E+04  0.46999998093E+01 0. -1.
       -5    1    3    3    0  502 -0.58469158176E+03 -0.85045002502E+02  0.16923272625E+04  0.17925095680E+04  0.46999998093E+01 0.  1.
</event>
<event>
 5   0  0.8024500E-09  0.3600294E+04  0.7818609E-02  0.8090424E-01
        1   -1    0    0  501    0  0.00000000000E+00  0.00000000000E+00  0.17118270045E+04  0.17118270045E+04  0.50400001928E-02 0. -1.
       -1   -1    0    0    0  501  0.00000000000E+00  0.00000000000E+00 -0.18930239586E+04  0.18930239586E+04  0.50400001928E-02 0.  1.
    10030    2    1    2    0    0  0.00000000000E+00  0.00000000000E+00 -0.18119695412E+03  0.36048509631E+04  0.36002941727E+04 0.  0.
        5    1    3    3  502    0  0.35864535167E+03 -0.16504474315E+04 -0.71420634277E+03  0.18337709788E+04  0.46999998093E+01 0. -1.
       -5    1    3    3    0  502 -0.35864535167E+03  0.16504474315E+04  0.53300938865E+03  0.17710799843E+04  0.46999998093E+01 0.  1.
</event>
<event>
 5   0  0.8063410E-09  0.3600552E+04  0.7818609E-02  0.8090365E-01
        1   -1    0    0  501    0  0.00000000000E+00  0.00000000000E+00  0.16472546162E+04  0.16472546162E+04  0.50400001928E-02 0.  1.
       -1   -1    0    0    0  501  0.00000000000E+00  0.00000000000E+00 -0.19675119468E+04  0.19675119468E+04  0.50400001928E-02 0. -1.
    10030    2    1    2    0    0  0.00000000000E+00  0.00000000000E+00 -0.32025733068E+03  0.36147665630E+04  0.36005517004E+04 0.  0.
        2    1    3    3  502    0 -0.77642522212E+02  0.33425314491E+03 -0.19343747561E+04  0.19645760925E+04  0.25500000920E-02 0. -1.
       -2    1    3    3    0  502  0.77642522212E+02 -0.33425314491E+03  0.16141174254E+04  0.16501904706E+04  0.25500000920E-02 0.  1.
</event>
<event>
 5   0  0.8024500E-09  0.3600746E+04  0.7818609E-02  0.8090321E-01
        1   -1    0    0  501    0  0.00000000000E+00  0.00000000000E+00  0.21136705185E+04  0.21136705185E+04  0.50400001928E-02 0. -1.
       -1   -1    0    0    0  501  0.00000000000E+00  0.00000000000E+00 -0.15335139184E+04  0.15335139184E+04  0.50400001928E-02 0.  1.
    10030    2    1    2    0    0  0.00000000000E+00  0.00000000000E+00  0.58015660008E+03  0.36471844369E+04  0.36007461221E+04 0.  0.
        5    1    3    3  502    0 -0.14407563593E+04  0.73550642852E+03 -0.51041305308E+03  0.16962582846E+04  0.46999998093E+01 0.  1.
       -5    1    3    3    0  502  0.14407563593E+04 -0.73550642852E+03  0.10905696532E+04  0.19509261523E+04  0.46999998093E+01 0. -1.
</event>
<event>
 5   0  0.2476968E-08  0.3601802E+04  0.7818609E-02  0.8090079E-01
        2   -1    0    0  501    0  0.00000000000E+00  0.00000000000E+00  0.16415239659E+04  0.16415239659E+04  0.25500000920E-02 0.  1.
       -2   -1    0    0    0  501  0.00000000000E+00  0.00000000000E+00 -0.19757521867E+04  0.19757521867E+04  0.25500000920E-02 0. -1.
    10030    2    1    2    0    0  0.00000000000E+00  0.00000000000E+00 -0.33422822078E+03  0.36172761526E+04  0.36018020851E+04 0.  0.
        2    1    3    3  502    0 -0.84805220797E+02  0.40281481456E+03  0.15936416551E+04  0.16459481842E+04  0.25500000920E-02 0.  1.
       -2    1    3    3    0  502  0.84805220797E+02 -0.40281481456E+03 -0.19278698759E+04  0.19713279683E+04  0.25500000920E-02 0. -1.
</event>
<event>
 5   0  0.2494592E-08  0.3609329E+04  0.7818609E-02  0.8088358E-01
       -2   -1    0    0    0  501  0.00000000000E+00  0.00000000000E+00  0.10158454679E+04  0.10158454679E+04  0.25500000920E-02 0. -1.
        2   -1    0    0  501    0  0.00000000000E+00  0.00000000000E+00 -0.32060131896E+04  0.32060131896E+04  0.25500000920E-02 0.  1.
    10030    2    1    2    0    0  0.00000000000E+00  0.00000000000E+00 -0.21901677218E+04  0.42218586575E+04  0.36093290061E+04 0.  0.
        1    1    3    3  502    0 -0.67719274909E+03 -0.15917854440E+04 -0.16965944763E+04  0.24229741510E+04  0.50400001928E-02 0.  1.
       -1    1    3    3    0  502  0.67719274909E+03  0.15917854440E+04 -0.49357324547E+03  0.17988845065E+04  0.50400001928E-02 0. -1.
</event>
<event>
 5   0  0.2494592E-08  0.3599194E+04  0.7818609E-02  0.8090676E-01
        2   -1    0    0  501    0  0.00000000000E+00  0.00000000000E+00  0.18669114867E+04  0.18669114867E+04  0.25500000920E-02 0.  1.
       -2   -1    0    0    0  501  0.00000000000E+00  0.00000000000E+00 -0.17347098781E+04  0.17347098781E+04  0.25500000920E-02 0. -1.
    10030    2    1    2    0    0  0.00000000000E+00  0.00000000000E+00  0.13220160866E+03  0.36016213648E+04  0.35991942418E+04 0.  0.
        1    1    3    3  502    0  0.12685787597E+04  0.31691670883E+03  0.13033898368E+04  0.18462267836E+04  0.50400001928E-02 0.  1.
       -1    1    3    3    0  502 -0.12685787597E+04 -0.31691670883E+03 -0.11711882282E+04  0.17553945812E+04  0.50400001928E-02 0. -1.
</event>
<event>
 5   0  0.2608070E-08  0.3600963E+04  0.7818609E-02  0.8090271E-01
       -2   -1    0    0    0  501  0.00000000000E+00  0.00000000000E+00  0.10153861703E+04  0.10153861703E+04  0.25500000920E-02 0. -1.
        2   -1    0    0  501    0  0.00000000000E+00  0.00000000000E+00 -0.31926121652E+04  0.31926121652E+04  0.25500000920E-02 0.  1.
    10030    2    1    2    0    0  0.00000000000E+00  0.00000000000E+00 -0.21772259949E+04  0.42079983355E+04  0.36009633376E+04 0.  0.
        3    1    3    3  502    0 -0.17756302514E+04 -0.24070999013E+03 -0.12941300228E+04  0.22103340506E+04  0.10100000352E+00 0.  1.
       -3    1    3    3    0  502  0.17756302514E+04  0.24070999013E+03 -0.88309597209E+03  0.19976642849E+04  0.10100000352E+00 0. -1.
</event>
<event>
 5   0  0.8146881E-09  0.3598324E+04  0.7818609E-02  0.8090876E-01
        1   -1    0    0  501    0  0.00000000000E+00  0.00000000000E+00  0.27212806371E+04  0.27212806372E+04  0.50400001928E-02 0. -1.
       -1   -1    0    0    0  501  0.00000000000E+00  0.00000000000E+00 -0.11895073791E+04  0.11895073792E+04  0.50400001928E-02 0.  1.
    10030    2    1    2    0    0  0.00000000000E+00  0.00000000000E+00  0.15317732580E+04  0.39107880163E+04  0.35983237201E+04 0.  0.
        4    1    3    3  502    0 -0.70146001697E+03  0.90343976390E+03  0.22752715680E+04  0.25465882830E+04  0.12699999809E+01 0. -1.
       -4    1    3    3    0  502  0.70146001697E+03 -0.90343976390E+03 -0.74349830997E+03  0.13641997333E+04  0.12699999809E+01 0.  1.
</event>
<event>
 5   0  0.2608070E-08  0.3599723E+04  0.7818609E-02  0.8090555E-01
       -2   -1    0    0    0  501  0.00000000000E+00  0.00000000000E+00  0.11987066417E+04  0.11987066417E+04  0.25500000920E-02 0. -1.
        2   -1    0    0  501    0  0.00000000000E+00  0.00000000000E+00 -0.27024970321E+04  0.27024970321E+04  0.25500000920E-02 0.  1.
    10030    2    1    2    0    0  0.00000000000E+00  0.00000000000E+00 -0.15037903904E+04  0.39012036738E+04  0.35997228457E+04 0.  0.
        3    1    3    3  502    0  0.13700135826E+04 -0.31824035047E+03  0.46523354879E+03  0.14814372758E+04  0.10100000352E+00 0. -1.
       -3    1    3    3    0  502 -0.13700135826E+04  0.31824035047E+03 -0.19690239392E+04  0.24197663979E+04  0.10100000352E+00 0.  1.
</event>
<event>
 5   0  0.8063410E-09  0.3599695E+04  0.7818609E-02  0.8090562E-01
       -1   -1    0    0    0  501  0.00000000000E+00  0.00000000000E+00  0.15984457664E+04  0.15984457664E+04  0.50400001928E-02 0.  1.
        1   -1    0    0  501    0  0.00000000000E+00  0.00000000000E+00 -0.20266255576E+04  0.20266255576E+04  0.50400001928E-02 0. -1.
    10030    2    1    2    0    0  0.00000000000E+00  0.00000000000E+00 -0.42817979119E+03  0.36250713240E+04  0.35996950108E+04 0.  0.
        2    1    3    3  502    0 -0.57138215725E+03 -0.10715758443E+04  0.11236945142E+04  0.16545215988E+04  0.25500000920E-02 0.  1.
       -2    1    3    3    0  502  0.57138215725E+03  0.10715758443E+04 -0.15518743054E+04  0.19705497252E+04  0.25500000920E-02 0. -1.
</event>
<event>
 5   0  0.2482243E-08  0.3597397E+04  0.7818609E-02  0.8091088E-01
       -2   -1    0    0    0  501  0.00000000000E+00  0.00000000000E+00  0.23112647934E+04  0.23112647934E+04  0.25500000920E-02 0. -1.
        2   -1    0    0  501    0  0.00000000000E+00  0.00000000000E+00 -0.13998033107E+04  0.13998033107E+04  0.25500000920E-02 0.  1.
    10030    2    1    2    0    0  0.00000000000E+00  0.00000000000E+00  0.91146148276E+03  0.37110681041E+04  0.35973968976E+04 0.  0.
        5    1    3    3  502    0  0.44605704415E+03  0.14680854926E+04 -0.51257246246E+03  0.16177127432E+04  0.46999998093E+01 0.  1.
       -5    1    3    3    0  502 -0.44605704415E+03 -0.14680854926E+04  0.14240339452E+04  0.20933553610E+04  0.46999998093E+01 0. -1.
</event>
<event>
 5   0  0.2608070E-08  0.3600813E+04  0.7818609E-02  0.8090306E-01
       -2   -1    0    0    0  501  0.00000000000E+00  0.00000000000E+00  0.11336903770E+04  0.11336903770E+04  0.25500000920E-02 0.  1.
        2   -1    0    0  501    0  0.00000000000E+00  0.00000000000E+00 -0.28592134333E+04  0.28592134333E+04  0.25500000920E-02 0. -1.
    10030    2    1    2    0    0  0.00000000000E+00  0.00000000000E+00 -0.17255230563E+04  0.39929038104E+04  0.36008125501E+04 0.  0.
        3    1    3    3  502    0  0.64852518004E+03  0.16756057005E+04 -0.99027599092E+03  0.20515569505E+04  0.10100000352E+00 0.  1.
       -3    1    3    3    0  502 -0.64852518004E+03 -0.16756057005E+04 -0.73524706540E+03  0.19413468598E+04  0.10100000352E+00 0. -1.
</event>
<event>
 5   0  0.8063410E-09  0.3599719E+04  0.7818609E-02  0.8090556E-01
        1   -1    0    0  501    0  0.00000000000E+00  0.00000000000E+00  0.15010120746E+04  0.15010120746E+04  0.50400001928E-02 0.  1.
       -1   -1    0    0    0  501  0.00000000000E+00  0.00000000000E+00 -0.21582067726E+04  0.21582067726E+04  0.50400001928E-02 0. -1.
    10030    2    1    2    0    0  0.00000000000E+00  0.00000000000E+00 -0.65719469798E+03  0.36592188472E+04  0.35997191142E+04 0.  0.
        2    1    3    3  502    0  0.54283099035E+03 -0.48361515200E+03  0.13451124141E+04  0.15290116108E+04  0.25500000920E-02 0.  1.
       -2    1    3    3    0  502 -0.54283099035E+03  0.48361515200E+03 -0.20023071121E+04  0.21302072365E+04  0.25500000920E-02 0. -1.
</event>
<event>
 5   0  0.8063410E-09  0.3599042E+04  0.7818609E-02  0.8090711E-01
       -1   -1    0    0    0  501  0.00000000000E+00  0.00000000000E+00  0.23731278954E+04  0.23731278954E+04  0.50400001928E-02 0. -1.
        1   -1    0    0  501    0  0.00000000000E+00  0.00000000000E+00 -0.13645603847E+04  0.13645603847E+04  0.50400001928E-02 0.  1.
    10030    2    1    2    0    0  0.00000000000E+00  0.00000000000E+00  0.10085675107E+04  0.37376882801E+04  0.35990422692E+04 0.  0.
        2    1    3    3  502    0  0.17739146291E+04 -0.80080035171E+02  0.20134391661E+03  0.17870996884E+04  0.25500000920E-02 0. -1.
       -2    1    3    3    0  502 -0.17739146291E+04  0.80080035171E+02  0.80722359408E+03  0.19505885917E+04  0.25500000920E-02 0.  1.
</event>
<event>
 5   0  0.8024500E-09  0.3584927E+04  0.7818609E-02  0.8093953E-01
       -3   -1    0    0    0  501  0.00000000000E+00  0.00000000000E+00  0.18626154694E+04  0.18626154721E+04  0.10100000352E+00 0.  1.
        3   -1    0    0  501    0  0.00000000000E+00  0.00000000000E+00 -0.17249533651E+04  0.17249533680E+04  0.10100000352E+00 0. -1.
    10030    2    1    2    0    0  0.00000000000E+00  0.00000000000E+00  0.13766210433E+03  0.35875688402E+04  0.35849266838E+04 0.  0.
        4    1    3    3  502    0 -0.17532230815E+04 -0.35982500184E+03 -0.29516571996E+02  0.17900106274E+04  0.12699999809E+01 0. -1.
       -4    1    3    3    0  502  0.17532230815E+04  0.35982500184E+03  0.16717867632E+03  0.17975582127E+04  0.12699999809E+01 0.  1.
</event>
<event>
 5   0  0.2476968E-08  0.3598274E+04  0.7818609E-02  0.8090887E-01
        2   -1    0    0  501    0  0.00000000000E+00  0.00000000000E+00  0.31601399802E+04  0.31601399802E+04  0.25500000920E-02 0.  1.
       -2   -1    0    0    0  501  0.00000000000E+00  0.00000000000E+00 -0.10242883193E+04  0.10242883193E+04  0.25500000920E-02 0. -1.
    10030    2    1    2    0    0  0.00000000000E+00  0.00000000000E+00  0.21358516609E+04  0.41844282995E+04  0.35982742914E+04 0.  0.
        2    1    3    3  502    0 -0.95846617887E+03 -0.15224443260E+04  0.10911933103E+04  0.21040905357E+04  0.25500000920E-02 0. -1.
       -2    1    3    3    0  502  0.95846617887E+03  0.15224443260E+04  0.10446583506E+04  0.20803377638E+04  0.25500000920E-02 0.  1.
</event>
<event>
 5   0  0.2476968E-08  0.3601023E+04  0.7818609E-02  0.8090257E-01
        2   -1    0    0  501    0  0.00000000000E+00  0.00000000000E+00  0.20693923791E+04  0.20693923791E+04  0.25500000920E-02 0. -1.
       -2   -1    0    0    0  501  0.00000000000E+00  0.00000000000E+00 -0.15665673600E+04  0.15665673600E+04  0.25500000920E-02 0.  1.
    10030    2    1    2    0    0  0.00000000000E+00  0.00000000000E+00  0.50282501910E+03  0.36359597391E+04  0.36010234968E+04 0.  0.
        2    1    3    3  502    0  0.13690137765E+04 -0.39140158242E+03  0.13641242911E+04  0.19718592750E+04  0.25500000920E-02 0. -1.
       -2    1    3    3    0  502 -0.13690137765E+04  0.39140158242E+03 -0.86129927197E+03  0.16641004641E+04  0.25500000920E-02 0.  1.
</event>
<event>
 5   0  0.8247570E-09  0.3600207E+04  0.7818609E-02  0.8090444E-01
       -1   -1    0    0    0  501  0.00000000000E+00  0.00000000000E+00  0.24529996727E+04  0.24529996727E+04  0.50400001928E-02 0.  1.
        1   -1    0    0  501    0  0.00000000000E+00  0.00000000000E+00 -0.13209839123E+04  0.13209839124E+04  0.50400001928E-02 0. -1.
    10030    2    1    2    0    0  0.00000000000E+00  0.00000000000E+00  0.11320157604E+04  0.37739835851E+04  0.36002072744E+04 0.  0.
        3    1    3    3  502    0 -0.17712958153E+04 -0.30027761466E+03  0.68422348255E+03  0.19224508564E+04  0.10100000352E+00 0.  1.
       -3    1    3    3    0  502  0.17712958153E+04  0.30027761466E+03  0.44779227782E+03  0.18515327287E+04  0.10100000352E+00 0. -1.
</event>
<event>
 5   0  0.2590795E-08  0.3599746E+04  0.7818609E-02  0.8090550E-01
       -2   -1    0    0    0  501  0.00000000000E+00  0.00000000000E+00  0.26692083545E+04  0.26692083545E+04  0.25500000920E-02 0.  1.
        2   -1    0    0  501    0  0.00000000000E+00  0.00000000000E+00 -0.12136714471E+04  0.12136714471E+04  0.25500000920E-02 0. -1.
    10030    2    1    2    0    0  0.00000000000E+00  0.00000000000E+00  0.14555369074E+04  0.38828798016E+04  0.35997455278E+04 0.  0.
        4    1    3    3  502    0 -0.85003527746E+03 -0.11605091499E+04  0.18946102776E+04  0.23788424027E+04  0.12699999809E+01 0.  1.
       -4    1    3    3    0  502  0.85003527746E+03  0.11605091499E+04 -0.43907337024E+03  0.15040373989E+04  0.12699999809E+01 0. -1.
</event>
<event>
 5   0  0.8024500E-09  0.3597965E+04  0.7818609E-02  0.8090958E-01
        1   -1    0    0  501    0  0.00000000000E+00  0.00000000000E+00  0.15524181071E+04  0.15524181071E+04  0.50400001928E-02 0.  1.
       -1   -1    0    0    0  501  0.00000000000E+00  0.00000000000E+00 -0.20847079606E+04  0.20847079606E+04  0.50400001928E-02 0. -1.
    10030    2    1    2    0    0  0.00000000000E+00  0.00000000000E+00 -0.53228985349E+03  0.36371260677E+04  0.35979651950E+04 0.  0.
        1    1    3    3  502    0 -0.53651991274E+03  0.12665334639E+04  0.90594802779E+03  0.16470283728E+04  0.50400001928E-02 0.  1.
       -1    1    3    3    0  502  0.53651991274E+03 -0.12665334639E+04 -0.14382378813E+04  0.19900976948E+04  0.50400001928E-02 0. -1.
</event>
<event>
 5   0  0.2476968E-08  0.3600207E+04  0.7818609E-02  0.8090444E-01
       -2   -1    0    0    0  501  0.00000000000E+00  0.00000000000E+00  0.13822188965E+04  0.13822188965E+04  0.25500000920E-02 0.  1.
        2   -1    0    0  501    0  0.00000000000E+00  0.00000000000E+00 -0.23443262009E+04  0.23443262009E+04  0.25500000920E-02 0. -1.
    10030    2    1    2    0    0  0.00000000000E+00  0.00000000000E+00 -0.96210730432E+03  0.37265450974E+04  0.36002066466E+04 0.  0.
        2    1    3    3  502    0 -0.65503696026E+02  0.10276000710E+04  0.10472831999E+04  0.14686915064E+04  0.25500000920E-02 0.  1.
       -2    1    3    3    0  502  0.65503696026E+02 -0.10276000710E+04 -0.20093905042E+04  0.22578535910E+04  0.25500000920E-02 0. -1.
</event>
<event>
 5   0  0.8024500E-09  0.3602504E+04  0.7818609E-02  0.8089918E-01
        1   -1    0    0  501    0  0.00000000000E+00  0.00000000000E+00  0.14438751055E+04  0.14438751055E+04  0.50400001928E-02 0. -1.
       -1   -1    0    0    0  501  0.00000000000E+00  0.00000000000E+00 -0.22470845605E+04  0.22470845605E+04  0.50400001928E-02 0.  1.
    10030    2    1    2    0    0  0.00000000000E+00  0.00000000000E+00 -0.80320945497E+03  0.36909596659E+04  0.36025043827E+04 0.  0.
        5    1    3    3  502    0 -0.36095364976E+03  0.30057725313E+03 -0.21832249323E+04  0.22331877256E+04  0.46999998093E+01 0.  1.
       -5    1    3    3    0  502  0.36095364976E+03 -0.30057725313E+03  0.13800154774E+04  0.14577719404E+04  0.46999998093E+01 0. -1.
</event>
<event>
 5   0  0.2494592E-08  0.3597996E+04  0.7818609E-02  0.8090951E-01
        2   -1    0    0  501    0  0.00000000000E+00  0.00000000000E+00  0.23905508110E+04  0.23905508110E+04  0.25500000920E-02 0. -1.
       -2   -1    0    0    0  501  0.00000000000E+00  0.00000000000E+00 -0.13538276557E+04  0.13538276557E+04  0.25500000920E-02 0.  1.
    10030    2    1    2    0    0  0.00000000000E+00  0.00000000000E+00  0.10367231553E+04  0.37443784667E+04  0.35979959979E+04 0.  0.
        1    1    3    3  502    0 -0.69888711199E+03  0.98910801021E+03 -0.86602880948E+03  0.14888867486E+04  0.50400001928E-02 0.  1.
       -1    1    3    3    0  502  0.69888711199E+03 -0.98910801021E+03  0.19027519648E+04  0.22554917181E+04  0.50400001928E-02 0. -1.
</event>
<event>
 5   0  0.2482243E-08  0.3589857E+04  0.7818609E-02  0.8092819E-01
        2   -1    0    0  501    0  0.00000000000E+00  0.00000000000E+00  0.21677469336E+04  0.21677469336E+04  0.25500000920E-02 0. -1.
       -2   -1    0    0    0  501  0.00000000000E+00  0.00000000000E+00 -0.14862290802E+04  0.14862290802E+04  0.25500000920E-02 0.  1.
    10030    2    1    2    0    0  0.00000000000E+00  0.00000000000E+00  0.68151785338E+03  0.36539760137E+04  0.35898571176E+04 0.  0.
        5    1    3    3  502    0 -0.15536253807E+04  0.29408761309E+03  0.12053461861E+04  0.19882456755E+04  0.46999998093E+01 0. -1.
       -5    1    3    3    0  502  0.15536253807E+04 -0.29408761309E+03 -0.52382833270E+03  0.16657303383E+04  0.46999998093E+01 0.  1.
</event>
<event>
 5   0  0.8024500E-09  0.3599676E+04  0.7818609E-02  0.8090566E-01
       -1   -1    0    0    0  501  0.00000000000E+00  0.00000000000E+00  0.14742982638E+04  0.14742982638E+04  0.50400001928E-02 0. -1.
        1   -1    0    0  501    0  0.00000000000E+00  0.00000000000E+00 -0.21972604945E+04  0.21972604945E+04  0.50400001928E-02 0.  1.
    10030    2    1    2    0    0  0.00000000000E+00  0.00000000000E+00 -0.72296223070E+03  0.36715587582E+04  0.35996762810E+04 0.  0.
        1    1    3    3  502    0 -0.20832443338E+03 -0.88470500724E+03 -0.19459877818E+04  0.21477826860E+04  0.50400001928E-02 0.  1.
       -1    1    3    3    0  502  0.20832443338E+03  0.88470500724E+03  0.12230255511E+04  0.15237760722E+04  0.50400001928E-02 0. -1.
</event>
<event>
 5   0  0.8146881E-09  0.3603456E+04  0.7818609E-02  0.8089700E-01
        1   -1    0    0  501    0  0.00000000000E+00  0.00000000000E+00  0.22250196457E+04  0.22250196457E+04  0.50400001928E-02 0.  1.
       -1   -1    0    0    0  501  0.00000000000E+00  0.00000000000E+00 -0.14589642053E+04  0.14589642053E+04  0.50400001928E-02 0. -1.
    10030    2    1    2    0    0  0.00000000000E+00  0.00000000000E+00  0.76605544041E+03  0.36839838511E+04  0.36034561295E+04 0.  0.
        4    1    3    3  502    0 -0.76921734862E+03  0.42747072112E+03 -0.12243012740E+04  0.15077605146E+04  0.12699999809E+01 0. -1.
       -4    1    3    3    0  502  0.76921734862E+03 -0.42747072112E+03  0.19903567144E+04  0.21762233365E+04  0.12699999809E+01 0.  1.
</event>
<event>
 5   0  0.8146881E-09  0.3599785E+04  0.7818609E-02  0.8090541E-01
       -1   -1    0    0    0  501  0.00000000000E+00  0.00000000000E+00  0.14884356321E+04  0.14884356321E+04  0.50400001928E-02 0. -1.
        1   -1    0    0  501    0  0.00000000000E+00  0.00000000000E+00 -0.21765218136E+04  0.21765218136E+04  0.50400001928E-02 0.  1.
    10030    2    1    2    0    0  0.00000000000E+00  0.00000000000E+00 -0.68808618156E+03  0.36649574457E+04  0.35997847832E+04 0.  0.
        4    1    3    3  502    0  0.13052968176E+04 -0.12384480347E+04 -0.39022613659E+03  0.18411494690E+04  0.12699999809E+01 0.  1.
       -4    1    3    3    0  502 -0.13052968176E+04  0.12384480347E+04 -0.29786004497E+03  0.18238079767E+04  0.12699999809E+01 0. -1.
</event>
<event>
 5   0  0.2476968E-08  0.3599067E+04  0.7818609E-02  0.8090705E-01
        2   -1    0    0  501    0  0.00000000000E+00  0.00000000000E+00  0.13336893299E+04  0.13336893299E+04  0.25500000920E-02 0.  1.
       -2   -1    0    0    0  501  0.00000000000E+00  0.00000000000E+00 -0.24280925316E+04  0.24280925316E+04  0.25500000920E-02 0. -1.
    10030    2    1    2    0    0  0.00000000000E+00  0.00000000000E+00 -0.10944032018E+04  0.37617818615E+04  0.35990671577E+04 0.  0.
        2    1    3    3  502    0  0.28209389908E+03 -0.83575686982E+03  0.10922314367E+04  0.14039359048E+04  0.25500000920E-02 0.  1.
       -2    1    3    3    0  502 -0.28209389908E+03  0.83575686982E+03 -0.21866346385E+04  0.23578459567E+04  0.25500000920E-02 0. -1.
</event>
<event>
 5   0  0.2476968E-08  0.3599815E+04  0.7818609E-02  0.8090534E-01
        2   -1    0    0  501    0  0.00000000000E+00  0.00000000000E+00  0.24245658429E+04  0.24245658429E+04  0.25500000920E-02 0. -1.
       -2   -1    0    0    0  501  0.00000000000E+00  0.00000000000E+00 -0.13361846973E+04  0.13361846973E+04  0.25500000920E-02 0.  1.
    10030    2    1    2    0    0  0.00000000000E+00  0.00000000000E+00  0.10883811456E+04  0.37607505402E+04  0.35998154269E+04 0.  0.
        2    1    3    3  502    0  0.14629914792E+04 -0.56407514381E+03  0.14675261058E+04  0.21475934688E+04  0.25500000920E-02 0. -1.
       -2    1    3    3    0  502 -0.14629914792E+04  0.56407514381E+03 -0.37914496027E+03  0.16131570714E+04  0.25500000920E-02 0.  1.
</event>
<event>
 5   0  0.2590795E-08  0.3600499E+04  0.7818609E-02  0.8090377E-01
        2   -1    0    0  501    0  0.00000000000E+00  0.00000000000E+00  0.24806505225E+04  0.24806505225E+04  0.25500000920E-02 0.  1.
       -2   -1    0    0    0  501  0.00000000000E+00  0.00000000000E+00 -0.13064708336E+04  0.13064708336E+04  0.25500000920E-02 0. -1.
    10030    2    1    2    0    0  0.00000000000E+00  0.00000000000E+00  0.11741796889E+04  0.37871213561E+04  0.36004986077E+04 0.  0.
        4    1    3    3  502    0 -0.15378386510E+04  0.82289030745E+03  0.10560700493E+04  0.20389658497E+04  0.12699999809E+01 0. -1.
       -4    1    3    3    0  502  0.15378386510E+04 -0.82289030745E+03  0.11810963963E+03  0.17481555064E+04  0.12699999809E+01 0.  1.
</event>
<event>
 5   0  0.2482243E-08  0.3599734E+04  0.7818609E-02  0.8090553E-01
       -2   -1    0    0    0  501  0.00000000000E+00  0.00000000000E+00  0.16166989768E+04  0.16166989768E+04  0.25500000920E-02 0. -1.
        2   -1    0    0  501    0  0.00000000000E+00  0.00000000000E+00 -0.20037873739E+04  0.20037873739E+04  0.25500000920E-02 0.  1.
    10030    2    1    2    0    0  0.00000000000E+00  0.00000000000E+00 -0.38708839709E+03  0.36204863506E+04  0.35997338774E+04 0.  0.
        5    1    3    3  502    0  0.39561798700E+03  0.17455628522E+04 -0.27252511437E+01  0.17898415515E+04  0.46999998093E+01 0. -1.
       -5    1    3    3    0  502 -0.39561798700E+03 -0.17455628522E+04 -0.38436314595E+03  0.18306447991E+04  0.46999998093E+01 0.  1.
</event>
<event>
 5   0  0.2476968E-08  0.3599980E+04  0.7818609E-02  0.8090496E-01
        2   -1    0    0  501    0  0.00000000000E+00  0.00000000000E+00  0.24850457265E+04  0.24850457265E+04  0.25500000920E-02 0. -1.
       -2   -1    0    0    0  501  0.00000000000E+00  0.00000000000E+00 -0.13037846516E+04  0.13037846516E+04  0.25500000920E-02 0.  1.
    10030    2    1    2    0    0  0.00000000000E+00  0.00000000000E+00  0.11812610749E+04  0.37888303781E+04  0.35999802648E+04 0.  0.
        2    1    3    3  502    0 -0.11981954555E+04 -0.84101465780E+03  0.16929454402E+04  0.22380889767E+04  0.25500000920E-02 0. -1.
       -2    1    3    3    0  502  0.11981954555E+04  0.84101465780E+03 -0.51168436525E+03  0.15507414014E+04  0.25500000920E-02 0.  1.
</event>
<event>
 5   0  0.2494592E-08  0.3600130E+04  0.7818609E-02  0.8090462E-01
       -2   -1    0    0    0  501  0.00000000000E+00  0.00000000000E+00  0.20199418142E+04  0.20199418142E+04  0.25500000920E-02 0.  1.
        2   -1    0    0  501    0  0.00000000000E+00  0.00000000000E+00 -0.16041220844E+04  0.16041220844E+04  0.25500000920E-02 0. -1.
    10030    2    1    2    0    0  0.00000000000E+00  0.00000000000E+00  0.41581972985E+03  0.36240638986E+04  0.36001295940E+04 0.  0.
        1    1    3    3  502    0  0.32836659500E+03 -0.17656407201E+04  0.84944174137E+02  0.17979230479E+04  0.50400001928E-02 0. -1.
       -1    1    3    3    0  502 -0.32836659500E+03  0.17656407201E+04  0.33087555571E+03  0.18261408507E+04  0.50400001928E-02 0.  1.
</event>
<event>
 5   0  0.2590795E-08  0.3600632E+04  0.7818609E-02  0.8090347E-01
       -2   -1    0    0    0  501  0.00000000000E+00  0.00000000000E+00  0.12958621787E+04  0.12958621787E+04  0.25500000920E-02 0.  1.
        2   -1    0    0  501    0  0.00000000000E+00  0.00000000000E+00 -0.25011442706E+04  0.25011442706E+04  0.25500000920E-02 0. -1.
    10030    2    1    2    0    0  0.00000000000E+00  0.00000000000E+00 -0.12052820918E+04  0.37970064493E+04  0.36006323133E+04 0.  0.
        4    1    3    3  502    0  0.14550505117E+04 -0.12222230667E+03  0.50789713884E+03  0.15459855758E+04  0.12699999809E+01 0.  1.
       -4    1    3    3    0  502 -0.14550505117E+04  0.12222230667E+03 -0.17131792307E+04  0.22510208735E+04  0.12699999809E+01 0. -1.
</event>
<event>
 5   0  0.2590795E-08  0.3600243E+04  0.7818609E-02  0.8090436E-01
        2   -1    0    0  501    0  0.00000000000E+00  0.00000000000E+00  0.24697905527E+04  0.24697905527E+04  0.25500000920E-02 0. -1.
       -2   -1    0    0    0  501  0.00000000000E+00  0.00000000000E+00 -0.13120295190E+04  0.13120295190E+04  0.25500000920E-02 0.  1.
    10030    2    1    2    0    0  0.00000000000E+00  0.00000000000E+00  0.11577610337E+04  0.37818200717E+04  0.36002433868E+04 0.  0.
        4    1    3    3  502    0 -0.80667859903E+02 -0.13762498966E+04 -0.63702433103E+03  0.15186746500E+04  0.12699999809E+01 0.  1.
       -4    1    3    3    0  502  0.80667859903E+02  0.13762498966E+04  0.17947853647E+04  0.22631454217E+04  0.12699999809E+01 0. -1.
</event>
<event>
 5   0  0.2482243E-08  0.3599938E+04  0.7818609E-02  0.8090506E-01
        2   -1    0    0  501    0  0.00000000000E+00  0.00000000000E+00  0.21756327185E+04  0.21756327185E+04  0.25500000920E-02 0.  1.
       -2   -1    0    0    0  501  0.00000000000E+00  0.00000000000E+00 -0.14891703358E+04  0.14891703358E+04  0.25500000920E-02 0. -1.
    10030    2    1    2    0    0  0.00000000000E+00  0.00000000000E+00  0.68646238271E+03  0.36648030542E+04  0.35999376138E+04 0.  0.
        5    1    3    3  502    0  0.10225802101E+03  0.46715513210E+03  0.21097719567E+04  0.21632961932E+04  0.46999998093E+01 0.  1.
       -5    1    3    3    0  502 -0.10225802101E+03 -0.46715513210E+03 -0.14233095740E+04  0.15015068610E+04  0.46999998093E+01 0. -1.
</event>
<event>
 5   0  0.8146881E-09  0.3600030E+04  0.7818609E-02  0.8090485E-01
        1   -1    0    0  501    0  0.00000000000E+00  0.00000000000E+00  0.16265901574E+04  0.16265901574E+04  0.50400001928E-02 0. -1.
       -1   -1    0    0    0  501  0.00000000000E+00  0.00000000000E+00 -0.19919302340E+04  0.19919302340E+04  0.50400001928E-02 0.  1.
    10030    2    1    2    0    0  0.00000000000E+00  0.00000000000E+00 -0.36534007667E+03  0.36185203914E+04  0.36000300626E+04 0.  0.
        4    1    3    3  502    0 -0.52877607194E+02 -0.42646178051E+03  0.15742742745E+04  0.16318721751E+04  0.12699999809E+01 0. -1.
       -4    1    3    3    0  502  0.52877607194E+02  0.42646178051E+03 -0.19396143511E+04  0.19866482164E+04  0.12699999809E+01 0.  1.
</event>
<event>
 5   0  0.2482243E-08  0.3598916E+04  0.7818609E-02  0.8090740E-01
        2   -1    0    0  501    0  0.00000000000E+00  0.00000000000E+00  0.22220327305E+04  0.22220327305E+04  0.25500000920E-02 0.  1.
       -2   -1    0    0    0  501  0.00000000000E+00  0.00000000000E+00 -0.14572466222E+04  0.14572466222E+04  0.25500000920E-02 0. -1.
    10030    2    1    2    0    0  0.00000000000E+00  0.00000000000E+00  0.76478610827E+03  0.36792793527E+04  0.35989163319E+04 0.  0.
        5    1    3    3  502    0  0.10851728895E+03 -0.41828668493E+03  0.21681921666E+04  0.22108412684E+04  0.46999998093E+01 0.  1.
       -5    1    3    3    0  502 -0.10851728895E+03  0.41828668493E+03 -0.14034060584E+04  0.14684380843E+04  0.46999998093E+01 0. -1.
</event>
<event>
 5   0  0.2608070E-08  0.3599671E+04  0.7818609E-02  0.8090567E-01
        2   -1    0    0  501    0  0.00000000000E+00  0.00000000000E+00  0.24579772900E+04  0.24579772900E+04  0.25500000920E-02 0. -1.
       -2   -1    0    0    0  501  0.00000000000E+00  0.00000000000E+00 -0.13179160707E+04  0.13179160707E+04  0.25500000920E-02 0.  1.
    10030    2    1    2    0    0  0.00000000000E+00  0.00000000000E+00  0.11400612193E+04  0.37758933607E+04  0.35996709694E+04 0.  0.
        3    1    3    3  502    0  0.17988214444E+04 -0.25797105878E+02  0.62732778347E+03  0.19052465031E+04  0.10100000352E+00 0.  1.
       -3    1    3    3    0  502 -0.17988214444E+04  0.25797105878E+02  0.51273343579E+03  0.18706468576E+04  0.10100000352E+00 0. -1.
</event>
<event>
 5   0  0.8063410E-09  0.3600397E+04  0.7818609E-02  0.8090401E-01
       -1   -1    0    0    0  501  0.00000000000E+00  0.00000000000E+00  0.13868676212E+04  0.13868676212E+04  0.50400001928E-02 0.  1.
        1   -1    0    0  501    0  0.00000000000E+00  0.00000000000E+00 -0.23367146747E+04  0.23367146747E+04  0.50400001928E-02 0. -1.
    10030    2    1    2    0    0  0.00000000000E+00  0.00000000000E+00 -0.94984705355E+03  0.37235822959E+04  0.36003966016E+04 0.  0.
        2    1    3    3  502    0 -0.16690793783E+04 -0.52780054802E+03 -0.90918836738E+03  0.19725675849E+04  0.25500000920E-02 0.  1.
       -2    1    3    3    0  502  0.16690793783E+04  0.52780054802E+03 -0.40658686176E+02  0.17510147110E+04  0.25500000920E-02 0. -1.
</event>
<event>
 5   0  0.8024500E-09  0.3601783E+04  0.7818609E-02  0.8090083E-01
        1   -1    0    0  501    0  0.00000000000E+00  0.00000000000E+00  0.17763758056E+04  0.17763758056E+04  0.50400001928E-02 0. -1.
       -1   -1    0    0    0  501  0.00000000000E+00  0.00000000000E+00 -0.18257453439E+04  0.18257453439E+04  0.50400001928E-02 0.  1.
    10030    2    1    2    0    0  0.00000000000E+00  0.00000000000E+00 -0.49369538287E+02  0.36021211496E+04  0.36017828120E+04 0.  0.
        1    1    3    3  502    0 -0.14072488225E+03 -0.10861084491E+04 -0.14544255803E+04  0.18206561522E+04  0.50400001928E-02 0.  1.
       -1    1    3    3    0  502  0.14072488225E+03  0.10861084491E+04  0.14050560420E+04  0.17814649974E+04  0.50400001928E-02 0. -1.
</event>
<event>
 5   0  0.8024500E-09  0.3600483E+04  0.7818609E-02  0.8090381E-01
       -1   -1    0    0    0  501  0.00000000000E+00  0.00000000000E+00  0.10981970527E+04  0.10981970527E+04  0.50400001928E-02 0.  1.
        1   -1    0    0  501    0  0.00000000000E+00  0.00000000000E+00 -0.29510821726E+04  0.29510821726E+04  0.50400001928E-02 0. -1.
    10030    2    1    2    0    0  0.00000000000E+00  0.00000000000E+00 -0.18528851199E+04  0.40492792254E+04  0.36004831589E+04 0.  0.
        5    1    3    3  502    0  0.95178781678E+03  0.10223039467E+04  0.35083487632E+03  0.14401779779E+04  0.46999998093E+01 0. -1.
       -5    1    3    3    0  502 -0.95178781678E+03 -0.10223039467E+04 -0.22037199962E+04  0.26091012474E+04  0.46999998093E+01 0.  1.
</event>
<event>
 5   0  0.8024500E-09  0.3606638E+04  0.7818609E-02  0.8088973E-01
       -1   -1    0    0    0  501  0.00000000000E+00  0.00000000000E+00  0.14715836459E+04  0.14715836459E+04  0.50400001928E-02 0.  1.
        1   -1    0    0  501    0  0.00000000000E+00  0.00000000000E+00 -0.22098360358E+04  0.22098360358E+04  0.50400001928E-02 0. -1.
    10030    2    1    2    0    0  0.00000000000E+00  0.00000000000E+00 -0.73825238994E+03  0.36814196817E+04  0.36066375312E+04 0.  0.
        5    1    3    3  502    0 -0.10129612356E+04 -0.14915314985E+04 -0.33406571563E+03  0.18336789981E+04  0.46999998093E+01 0.  1.
       -5    1    3    3    0  502  0.10129612356E+04  0.14915314985E+04 -0.40418667432E+03  0.18477406835E+04  0.46999998093E+01 0. -1.
</event>
<event>
 5   0  0.2494592E-08  0.3600696E+04  0.7818609E-02  0.8090332E-01
        2   -1    0    0  501    0  0.00000000000E+00  0.00000000000E+00  0.16643931234E+04  0.16643931234E+04  0.25500000920E-02 0.  1.
       -2   -1    0    0    0  501  0.00000000000E+00  0.00000000000E+00 -0.19474083216E+04  0.19474083216E+04  0.25500000920E-02 0. -1.
    10030    2    1    2    0    0  0.00000000000E+00  0.00000000000E+00 -0.28301519821E+03  0.36118014450E+04  0.36006960543E+04 0.  0.
        1    1    3    3  502    0  0.75957243560E+03 -0.37735851652E+03 -0.17344556696E+04  0.19307216798E+04  0.50400001928E-02 0. -1.
       -1    1    3    3    0  502 -0.75957243560E+03  0.37735851652E+03  0.14514404714E+04  0.16810797652E+04  0.50400001928E-02 0.  1.
</event>
<event>
 5   0  0.2494592E-08  0.3602243E+04  0.7818609E-02  0.8089978E-01
        2   -1    0    0  501    0  0.00000000000E+00  0.00000000000E+00  0.14068084413E+04  0.14068084413E+04  0.25500000920E-02 0.  1.
       -2   -1    0    0    0  501  0.00000000000E+00  0.00000000000E+00 -0.23059567744E+04  0.23059567744E+04  0.25500000920E-02 0. -1.
    10030    2    1    2    0    0  0.00000000000E+00  0.00000000000E+00 -0.89914833309E+03  0.37127652158E+04  0.36022434430E+04 0.  0.
        1    1    3    3  502    0 -0.11550553834E+04 -0.34363392649E+03 -0.18292258807E+04  0.21905032611E+04  0.50400001928E-02 0. -1.
       -1    1    3    3    0  502  0.11550553834E+04  0.34363392649E+03  0.93007754759E+03  0.15222619547E+04  0.50400001928E-02 0.  1.
</event>
<event>
 5   0  0.8146881E-09  0.3602106E+04  0.7818609E-02  0.8090009E-01
       -1   -1    0    0    0  501  0.00000000000E+00  0.00000000000E+00  0.15740633352E+04  0.15740633352E+04  0.50400001928E-02 0. -1.
        1   -1    0    0  501    0  0.00000000000E+00  0.00000000000E+00 -0.20607761511E+04  0.20607761511E+04  0.50400001928E-02 0.  1.
    10030    2    1    2    0    0  0.00000000000E+00  0.00000000000E+00 -0.48671281589E+03  0.36348394863E+04  0.36021061514E+04 0.  0.
        4    1    3    3  502    0  0.17893713522E+04 -0.85193853299E+02 -0.55431031034E+02  0.17922561315E+04  0.12699999809E+01 0. -1.
       -4    1    3    3    0  502 -0.17893713522E+04  0.85193853299E+02 -0.43128178486E+03  0.18425833548E+04  0.12699999809E+01 0.  1.
</event>
<event>
 5   0  0.2476968E-08  0.3600590E+04  0.7818609E-02  0.8090357E-01
        2   -1    0    0  501    0  0.00000000000E+00  0.00000000000E+00  0.12643726152E+04  0.12643726152E+04  0.25500000920E-02 0. -1.
       -2   -1    0    0    0  501  0.00000000000E+00  0.00000000000E+00 -0.25633759043E+04  0.25633759043E+04  0.25500000920E-02 0.  1.
    10030    2    1    2    0    0  0.00000000000E+00  0.00000000000E+00 -0.12990032891E+04  0.38277485195E+04  0.36005901160E+04 0.  0.
        2    1    3    3  502    0  0.60212425935E+03  0.10493968126E+04 -0.20667534810E+04  0.23948397118E+04  0.25500000920E-02 0.  1.
       -2    1    3    3    0  502 -0.60212425935E+03 -0.10493968126E+04  0.76775019188E+03  0.14329088077E+04  0.25500000920E-02 0. -1.
</event>
<event>
 5   0  0.2482243E-08  0.3600008E+04  0.7818609E-02  0.8090490E-01
        2   -1    0    0  501    0  0.00000000000E+00  0.00000000000E+00  0.25452071092E+04  0.25452071092E+04  0.25500000920E-02 0.  1.
       -2   -1    0    0    0  501  0.00000000000E+00  0.00000000000E+00 -0.12729867391E+04  0.12729867391E+04  0.25500000920E-02 0. -1.
    10030    2    1    2    0    0  0.00000000000E+00  0.00000000000E+00  0.12722203702E+04  0.38181938483E+04  0.36000082768E+04 0.  0.
        5    1    3    3  502    0  0.13628338701E+04 -0.38522011289E+03  0.18144259613E+04  0.23017111791E+04  0.46999998093E+01 0.  1.
       -5    1    3    3    0  502 -0.13628338701E+04  0.38522011289E+03 -0.54220559109E+03  0.15164826692E+04  0.46999998093E+01 0. -1.
</event>
<event>
 5   0  0.2482243E-08  0.3598606E+04  0.7818609E-02  0.8090811E-01
        2   -1    0    0  501    0  0.00000000000E+00  0.00000000000E+00  0.12774325589E+04  0.12774325589E+04  0.25500000920E-02 0.  1.
       -2   -1    0    0    0  501  0.00000000000E+00  0.00000000000E+00 -0.25343737024E+04  0.25343737024E+04  0.25500000920E-02 0. -1.
    10030    2    1    2    0    0  0.00000000000E+00  0.00000000000E+00 -0.12569411435E+04  0.38118062613E+04  0.35986061101E+04 0.  0.
        5    1    3    3  502    0 -0.14310804185E+03 -0.11154266529E+04  0.85931194762E+03  0.14153076143E+04  0.46999998093E+01 0.  1.
       -5    1    3    3    0  502  0.14310804185E+03  0.11154266529E+04 -0.21162530911E+04  0.23964986471E+04  0.46999998093E+01 0. -1.
</event>
<event>
 5   0  0.8024500E-09  0.3601291E+04  0.7818609E-02  0.8090196E-01
        1   -1    0    0  501    0  0.00000000000E+00  0.00000000000E+00  0.24600365222E+04  0.24600365222E+04  0.50400001928E-02 0. -1.
       -1   -1    0    0    0  501  0.00000000000E+00  0.00000000000E+00 -0.13179984156E+04  0.13179984156E+04  0.50400001928E-02 0.  1.
    10030    2    1    2    0    0  0.00000000000E+00  0.00000000000E+00  0.11420381066E+04  0.37780349378E+04  0.36012910122E+04 0.  0.
        1    1    3    3  502    0 -0.57359886578E+03 -0.46017822741E+02  0.23609781142E+04  0.24300927873E+04  0.50400001928E-02 0. -1.
       -1    1    3    3    0  502  0.57359886578E+03  0.46017822741E+02 -0.12189400076E+04  0.13479421505E+04  0.50400001928E-02 0.  1.
</event>
<event>
 5   0  0.8146881E-09  0.3599643E+04  0.7818609E-02  0.8090574E-01
       -1   -1    0    0    0  501  0.00000000000E+00  0.00000000000E+00  0.25053896716E+04  0.25053896716E+04  0.50400001928E-02 0.  1.
        1   -1    0    0  501    0  0.00000000000E+00  0.00000000000E+00 -0.12929553550E+04  0.12929553550E+04  0.50400001928E-02 0. -1.
    10030    2    1    2    0    0  0.00000000000E+00  0.00000000000E+00  0.12124343166E+04  0.37983450265E+04  0.35996427557E+04 0.  0.
        4    1    3    3  502    0  0.16568948401E+03  0.54129262004E+03 -0.11965721182E+04  0.13237209497E+04  0.12699999809E+01 0. -1.
       -4    1    3    3    0  502 -0.16568948401E+03 -0.54129262004E+03  0.24090064348E+04  0.24746240768E+04  0.12699999809E+01 0.  1.
</event>
<event>
 5   0  0.2608070E-08  0.3599300E+04  0.7818609E-02  0.8090652E-01
        2   -1    0    0  501    0  0.00000000000E+00  0.00000000000E+00  0.16483772506E+04  0.16483772506E+04  0.25500000920E-02 0. -1.
       -2   -1    0    0    0  501  0.00000000000E+00  0.00000000000E+00 -0.19648047369E+04  0.19648047369E+04  0.25500000920E-02 0.  1.
    10030    2    1    2    0    0  0.00000000000E+00  0.00000000000E+00 -0.31642748624E+03  0.36131819875E+04  0.35992996153E+04 0.  0.
        3    1    3    3  502    0  0.17809697359E+04  0.21646656980E+03 -0.30028147308E+03  0.18190326961E+04  0.10100000352E+00 0.  1.
       -3    1    3    3    0  502 -0.17809697359E+04 -0.21646656980E+03 -0.16146013153E+02  0.17941492914E+04  0.10100000352E+00 0. -1.
</event>
<event>
 5   0  0.2494592E-08  0.3599332E+04  0.7818609E-02  0.8090645E-01
        2   -1    0    0  501    0  0.00000000000E+00  0.00000000000E+00  0.19321847154E+04  0.19321847154E+04  0.25500000920E-02 0.  1.
       -2   -1    0    0    0  501  0.00000000000E+00  0.00000000000E+00 -0.16762356627E+04  0.16762356627E+04  0.25500000920E-02 0. -1.
    10030    2    1    2    0    0  0.00000000000E+00  0.00000000000E+00  0.25594905272E+03  0.36084203781E+04  0.35993315640E+04 0.  0.
        1    1    3    3  502    0  0.16606857821E+04  0.51884592926E+03 -0.33331621640E+03  0.17714903515E+04  0.50400001928E-02 0. -1.
       -1    1    3    3    0  502 -0.16606857821E+04 -0.51884592926E+03  0.58926526912E+03  0.18369300266E+04  0.50400001928E-02 0.  1.
</event>
<event>
 5   0  0.2482243E-08  0.3598973E+04  0.7818609E-02  0.8090727E-01
        2   -1    0    0  501    0  0.00000000000E+00  0.00000000000E+00  0.17762619844E+04  0.17762619844E+04  0.25500000920E-02 0. -1.
       -2   -1    0    0    0  501  0.00000000000E+00  0.00000000000E+00 -0.18230148041E+04  0.18230148041E+04  0.25500000920E-02 0.  1.
    10030    2    1    2    0    0  0.00000000000E+00  0.00000000000E+00 -0.46752819693E+02  0.35992767885E+04  0.35989731277E+04 0.  0.
        5    1    3    3  502    0 -0.17524195648E+04 -0.31930611322E+03 -0.27873905626E+03  0.18029554283E+04  0.46999998093E+01 0. -1.
       -5    1    3    3    0  502  0.17524195648E+04  0.31930611322E+03  0.23198623657E+03  0.17963213602E+04  0.46999998093E+01 0.  1.
</event>
<event>
 5   0  0.8063410E-09  0.3599570E+04  0.7818609E-02  0.8090590E-01
       -1   -1    0    0    0  501  0.00000000000E+00  0.00000000000E+00  0.15156633856E+04  0.15156633856E+04  0.50400001928E-02 0. -1.
        1   -1    0    0  501    0  0.00000000000E+00  0.00000000000E+00 -0.21371666358E+04  0.21371666358E+04  0.50400001928E-02 0.  1.
    10030    2    1    2    0    0  0.00000000000E+00  0.00000000000E+00 -0.62150325016E+03  0.36528300214E+04  0.35995695402E+04 0.  0.
        2    1    3    3  502    0 -0.14044477909E+04  0.43920368812E+03 -0.13623527894E+04  0.20053375277E+04  0.25500000920E-02 0.  1.
       -2    1    3    3    0  502  0.14044477909E+04 -0.43920368812E+03  0.74084953927E+03  0.16474924937E+04  0.25500000920E-02 0. -1.
</event>
<event>
 5   0  0.2608070E-08  0.3600315E+04  0.7818609E-02  0.8090420E-01
        2   -1    0    0  501    0  0.00000000000E+00  0.00000000000E+00  0.15084582833E+04  0.15084582833E+04  0.25500000920E-02 0.  1.
       -2   -1    0    0    0  501  0.00000000000E+00  0.00000000000E+00 -0.21482642673E+04  0.21482642673E+04  0.25500000920E-02 0. -1.
    10030    2    1    2    0    0  0.00000000000E+00  0.00000000000E+00 -0.63980598393E+03  0.36567225506E+04  0.36003150022E+04 0.  0.
        3    1    3    3  502    0  0.50419562843E+03  0.15302135678E+03  0.14283843381E+04  0.15224685859E+04  0.10100000352E+00 0.  1.
       -3    1    3    3    0  502 -0.50419562843E+03 -0.15302135678E+03 -0.20681903221E+04  0.21342539647E+04  0.10100000352E+00 0. -1.
</event>
<event>
 5   0  0.2590795E-08  0.3600000E+04  0.7818609E-02  0.8090492E-01
       -2   -1    0    0    0  501  0.00000000000E+00  0.00000000000E+00  0.10497382246E+04  0.10497382246E+04  0.25500000920E-02 0. -1.
        2   -1    0    0  501    0  0.00000000000E+00  0.00000000000E+00 -0.30864830395E+04  0.30864830395E+04  0.25500000920E-02 0.  1.
    10030    2    1    2    0    0  0.00000000000E+00  0.00000000000E+00 -0.20367448149E+04  0.41362212640E+04  0.35999995700E+04 0.  0.
        4    1    3    3  502    0 -0.81290464102E+03 -0.14349833446E+04 -0.18984728249E+03  0.16601309461E+04  0.12699999809E+01 0.  1.
       -4    1    3    3    0  502  0.81290464102E+03  0.14349833446E+04 -0.18468975324E+04  0.24760903180E+04  0.12699999809E+01 0. -1.
</event>
<event>
 5   0  0.8024500E-09  0.3600673E+04  0.7818609E-02  0.8090337E-01
       -3   -1    0    0    0  501  0.00000000000E+00  0.00000000000E+00  0.14423765552E+04  0.14423765587E+04  0.10100000352E+00 0.  1.
        3   -1    0    0  501    0  0.00000000000E+00  0.00000000000E+00 -0.22471330849E+04  0.22471330872E+04  0.10100000352E+00 0. -1.
    10030    2    1    2    0    0  0.00000000000E+00  0.00000000000E+00 -0.80475652972E+03  0.36895096459E+04  0.36006733197E+04 0.  0.
        5    1    3    3  502    0 -0.13093255554E+04  0.12356594390E+04 -0.40394554317E+03  0.18450966780E+04  0.46999998093E+01 0.  1.
       -5    1    3    3    0  502  0.13093255554E+04 -0.12356594390E+04 -0.40081098654E+03  0.18444129679E+04  0.46999998093E+01 0. -1.
</event>
<event>
 5   0  0.2608070E-08  0.3601047E+04  0.7818609E-02  0.8090252E-01
        2   -1    0    0  501    0  0.00000000000E+00  0.00000000000E+00  0.21524582814E+04  0.21524582814E+04  0.25500000920E-02 0.  1.
       -2   -1    0    0    0  501  0.00000000000E+00  0.00000000000E+00 -0.15061310131E+04  0.15061310131E+04  0.25500000920E-02 0. -1.
    10030    2    1    2    0    0  0.00000000000E+00  0.00000000000E+00  0.64632726833E+03  0.36585892946E+04  0.36010466101E+04 0.  0.
        3    1    3    3  502    0  0.18777050320E+03 -0.44936271023E+03  0.20842694159E+04  0.21404120200E+04  0.10100000352E+00 0.  1.
       -3    1    3    3    0  502 -0.18777050320E+03  0.44936271023E+03 -0.14379421475E+04  0.15181772746E+04  0.10100000352E+00 0. -1.
</event>
<event>
 5   0  0.2590795E-08  0.3602002E+04  0.7818609E-02  0.8090033E-01
        2   -1    0    0  501    0  0.00000000000E+00  0.00000000000E+00  0.22063186442E+04  0.22063186442E+04  0.25500000920E-02 0. -1.
       -2   -1    0    0    0  501  0.00000000000E+00  0.00000000000E+00 -0.14701429676E+04  0.14701429676E+04  0.25500000920E-02 0.  1.
    10030    2    1    2    0    0  0.00000000000E+00  0.00000000000E+00  0.73617567656E+03  0.36764616117E+04  0.36020015763E+04 0.  0.
        4    1    3    3  502    0 -0.75979552564E+03 -0.28331582477E+02  0.20344765697E+04  0.21719089403E+04  0.12699999809E+01 0. -1.
       -4    1    3    3    0  502  0.75979552564E+03  0.28331582477E+02 -0.12983008931E+04  0.15045526715E+04  0.12699999809E+01 0.  1.
</event>
<event>
 5   0  0.2494592E-08  0.3600926E+04  0.7818609E-02  0.8090280E-01
        2   -1    0    0  501    0  0.00000000000E+00  0.00000000000E+00  0.21197202563E+04  0.21197202563E+04  0.25500000920E-02 0. -1.
       -2   -1    0    0    0  501  0.00000000000E+00  0.00000000000E+00 -0.15292898137E+04  0.15292898137E+04  0.25500000920E-02 0.  1.
    10030    2    1    2    0    0  0.00000000000E+00  0.00000000000E+00  0.59043044253E+03  0.36490100700E+04  0.36009257675E+04 0.  0.
        1    1    3    3  502    0  0.43559481289E+03 -0.19560962930E+03 -0.14639558127E+04  0.15398612242E+04  0.50400001928E-02 0.  1.
       -1    1    3    3    0  502 -0.43559481289E+03  0.19560962930E+03  0.20543862552E+04  0.21091488458E+04  0.50400001928E-02 0. -1.
</event>
<event>
 5   0  0.8146881E-09  0.3598883E+04  0.7818609E-02  0.8090748E-01
       -1   -1    0    0    0  501  0.00000000000E+00  0.00000000000E+00  0.31452021932E+04  0.31452021932E+04  0.50400001928E-02 0.  1.
        1   -1    0    0  501    0  0.00000000000E+00  0.00000000000E+00 -0.10295010121E+04  0.10295010121E+04  0.50400001928E-02 0. -1.
    10030    2    1    2    0    0  0.00000000000E+00  0.00000000000E+00  0.21157011811E+04  0.41747032054E+04  0.35988825162E+04 0.  0.
        4    1    3    3  502    0  0.13110467320E+04  0.12197592162E+04  0.12631776084E+04  0.21914094465E+04  0.12699999809E+01 0.  1.
       -4    1    3    3    0  502 -0.13110467320E+04 -0.12197592162E+04  0.85252357265E+03  0.19832937588E+04  0.12699999809E+01 0. -1.
</event>
<event>
 5   0  0.2608070E-08  0.3602142E+04  0.7818609E-02  0.8090001E-01
       -2   -1    0    0    0  501  0.00000000000E+00  0.00000000000E+00  0.11893640540E+04  0.11893640540E+04  0.25500000920E-02 0. -1.
        2   -1    0    0  501    0  0.00000000000E+00  0.00000000000E+00 -0.27273878580E+04  0.27273878580E+04  0.25500000920E-02 0.  1.
    10030    2    1    2    0    0  0.00000000000E+00  0.00000000000E+00 -0.15380238040E+04  0.39167519120E+04  0.36021421847E+04 0.  0.
        3    1    3    3  502    0  0.56630961278E+02 -0.16045346767E+04 -0.16564558912E+04  0.23068560259E+04  0.10100000352E+00 0. -1.
       -3    1    3    3    0  502 -0.56630961278E+02  0.16045346767E+04  0.11843208728E+03  0.16098958861E+04  0.10100000352E+00 0.  1.
</event>
<event>
 5   0  0.2482243E-08  0.3598985E+04  0.7818609E-02  0.8090724E-01
       -2   -1    0    0    0  501  0.00000000000E+00  0.00000000000E+00  0.13776065088E+04  0.13776065088E+04  0.25500000920E-02 0.  1.
        2   -1    0    0  501    0  0.00000000000E+00  0.00000000000E+00 -0.23505787947E+04  0.23505787947E+04  0.25500000920E-02 0. -1.
    10030    2    1    2    0    0  0.00000000000E+00  0.00000000000E+00 -0.97297228595E+03  0.37281853035E+04  0.35989846607E+04 0.  0.
        5    1    3    3  502    0  0.22057415944E+03 -0.37594852564E+03 -0.22950606127E+04  0.23360898013E+04  0.46999998093E+01 0. -1.
       -5    1    3    3    0  502 -0.22057415944E+03  0.37594852564E+03  0.13220883267E+04  0.13920955023E+04  0.46999998093E+01 0.  1.
</event>
<event>
 5   0  0.8247570E-09  0.3600080E+04  0.7818609E-02  0.8090473E-01
       -1   -1    0    0    0  501  0.00000000000E+00  0.00000000000E+00  0.13503241410E+04  0.13503241410E+04  0.50400001928E-02 0. -1.
        1   -1    0    0  501    0  0.00000000000E+00  0.00000000000E+00 -0.23995311774E+04  0.23995311774E+04  0.50400001928E-02 0.  1.
    10030    2    1    2    0    0  0.00000000000E+00  0.00000000000E+00 -0.10492070364E+04  0.37498553184E+04  0.36000804858E+04 0.  0.
        3    1    3    3  502    0  0.19346776294E+02  0.16015743555E+03  0.13427792891E+04  0.13524351856E+04  0.10100000352E+00 0. -1.
       -3    1    3    3    0  502 -0.19346776294E+02 -0.16015743555E+03 -0.23919863254E+04  0.23974201328E+04  0.10100000352E+00 0.  1.
</event>
<event>
 5   0  0.8146881E-09  0.3599256E+04  0.7818609E-02  0.8090662E-01
       -1   -1    0    0    0  501  0.00000000000E+00  0.00000000000E+00  0.30344752782E+04  0.30344752782E+04  0.50400001928E-02 0.  1.
        1   -1    0    0  501    0  0.00000000000E+00  0.00000000000E+00 -0.10672887159E+04  0.10672887159E+04  0.50400001928E-02 0. -1.
    10030    2    1    2    0    0  0.00000000000E+00  0.00000000000E+00  0.19671865623E+04  0.41017639941E+04  0.35992561582E+04 0.  0.
        4    1    3    3  502    0 -0.11337239726E+04  0.75136642974E+03  0.23265880911E+04  0.26949759398E+04  0.12699999809E+01 0.  1.
       -4    1    3    3    0  502  0.11337239726E+04 -0.75136642974E+03 -0.35940152875E+03  0.14067880543E+04  0.12699999809E+01 0. -1.
</event>
<event>
 5   0  0.2590795E-08  0.3599942E+04  0.7818609E-02  0.8090505E-01
       -2   -1    0    0    0  501  0.00000000000E+00  0.00000000000E+00  0.11365754499E+04  0.11365754499E+04  0.25500000920E-02 0.  1.
        2   -1    0    0  501    0  0.00000000000E+00  0.00000000000E+00 -0.28505763442E+04  0.28505763442E+04  0.25500000920E-02 0. -1.
    10030    2    1    2    0    0  0.00000000000E+00  0.00000000000E+00 -0.17140008943E+04  0.39871517942E+04  0.35999417167E+04 0.  0.
        4    1    3    3  502    0  0.68259030701E+03  0.15986918045E+04 -0.33969937197E+03  0.17711979814E+04  0.12699999809E+01 0. -1.
       -4    1    3    3    0  502 -0.68259030701E+03 -0.15986918045E+04 -0.13743015223E+04  0.22159538128E+04  0.12699999809E+01 0.  1.
</event>
<event>
 5   0  0.8247570E-09  0.3600103E+04  0.7818609E-02  0.8090468E-01
        1   -1    0    0  501    0  0.00000000000E+00  0.00000000000E+00  0.23752045206E+04  0.23752045206E+04  0.50400001928E-02 0. -1.
       -1   -1    0    0    0  501  0.00000000000E+00  0.00000000000E+00 -0.13641712190E+04  0.13641712190E+04  0.50400001928E-02 0.  1.
    10030    2    1    2    0    0  0.00000000000E+00  0.00000000000E+00  0.10110333016E+04  0.37393757397E+04  0.36001031354E+04 0.  0.
        3    1    3    3  502    0 -0.12127674063E+04 -0.56445083115E+02 -0.87487862804E+03  0.14964636492E+04  0.10100000352E+00 0.  1.
       -3    1    3    3    0  502  0.12127674063E+04  0.56445083115E+02  0.18859119296E+04  0.22429120905E+04  0.10100000352E+00 0. -1.
</event>
<event>
 5   0  0.2482243E-08  0.3600520E+04  0.7818609E-02  0.8090373E-01
        2   -1    0    0  501    0  0.00000000000E+00  0.00000000000E+00  0.21951644337E+04  0.21951644337E+04  0.25500000920E-02 0.  1.
       -2   -1    0    0    0  501  0.00000000000E+00  0.00000000000E+00 -0.14763979143E+04  0.14763979143E+04  0.25500000920E-02 0. -1.
    10030    2    1    2    0    0  0.00000000000E+00  0.00000000000E+00  0.71876651946E+03  0.36715623480E+04  0.36005200688E+04 0.  0.
        5    1    3    3  502    0 -0.50205050302E+03 -0.51066076445E+03 -0.13248980083E+04  0.15060564220E+04  0.46999998093E+01 0. -1.
       -5    1    3    3    0  502  0.50205050302E+03  0.51066076445E+03  0.20436645277E+04  0.21655059261E+04  0.46999998093E+01 0.  1.
</event>
<event>
 5   0  0.2476968E-08  0.3601041E+04  0.7818609E-02  0.8090253E-01
        2   -1    0    0  501    0  0.00000000000E+00  0.00000000000E+00  0.21704791771E+04  0.21704791771E+04  0.25500000920E-02 0.  1.
       -2   -1    0    0    0  501  0.00000000000E+00  0.00000000000E+00 -0.14936215964E+04  0.14936215964E+04  0.25500000920E-02 0. -1.
    10030    2    1    2    0    0  0.00000000000E+00  0.00000000000E+00  0.67685758064E+03  0.36641007735E+04  0.36010412791E+04 0.  0.
        2    1    3    3  502    0 -0.21443424510E+03 -0.31170751101E+03  0.21295758526E+04  0.21629232372E+04  0.25500000920E-02 0.  1.
       -2    1    3    3    0  502  0.21443424510E+03  0.31170751101E+03 -0.14527182720E+04  0.15011775363E+04  0.25500000920E-02 0. -1.
</event>
<event>
 5   0  0.2482243E-08  0.3593252E+04  0.7818609E-02  0.8092039E-01
       -2   -1    0    0    0  501  0.00000000000E+00  0.00000000000E+00  0.13597379856E+04  0.13597379856E+04  0.25500000920E-02 0. -1.
        2   -1    0    0  501    0  0.00000000000E+00  0.00000000000E+00 -0.23738870627E+04  0.23738870627E+04  0.25500000920E-02 0.  1.
    10030    2    1    2    0    0  0.00000000000E+00  0.00000000000E+00 -0.10141490771E+04  0.37336250483E+04  0.35932516821E+04 0.  0.
        5    1    3    3  502    0 -0.28491703142E+02  0.64318948487E+03  0.12357513687E+04  0.13934159558E+04  0.46999998093E+01 0. -1.
       -5    1    3    3    0  502  0.28491703142E+02 -0.64318948487E+03 -0.22499004458E+04  0.23402090925E+04  0.46999998093E+01 0.  1.
</event>
<event>
 5   0  0.8024500E-09  0.3600141E+04  0.7818609E-02  0.8090459E-01
        1   -1    0    0  501    0  0.00000000000E+00  0.00000000000E+00  0.12737632969E+04  0.12737632969E+04  0.50400001928E-02 0.  1.
       -1   -1    0    0    0  501  0.00000000000E+00  0.00000000000E+00 -0.25438423402E+04  0.25438423402E+04  0.50400001928E-02 0. -1.
    10030    2    1    2    0    0  0.00000000000E+00  0.00000000000E+00 -0.12700790433E+04  0.38176056371E+04  0.36001405562E+04 0.  0.
        5    1    3    3  502    0  0.78697989303E+03  0.51191585637E+03  0.99358306811E+03  0.13669764443E+04  0.46999998093E+01 0.  1.
       -5    1    3    3    0  502 -0.78697989303E+03 -0.51191585637E+03 -0.22636621114E+04  0.24506291928E+04  0.46999998093E+01 0. -1.
</event>
<event>
 5   0  0.8146881E-09  0.3589163E+04  0.7818609E-02  0.8092979E-01
       -1   -1    0    0    0  501  0.00000000000E+00  0.00000000000E+00  0.13917714959E+04  0.13917714959E+04  0.50400001928E-02 0.  1.
        1   -1    0    0  501    0  0.00000000000E+00  0.00000000000E+00 -0.23139731879E+04  0.23139731879E+04  0.50400001928E-02 0. -1.
    10030    2    1    2    0    0  0.00000000000E+00  0.00000000000E+00 -0.92220169202E+03  0.37057446838E+04  0.35891625348E+04 0.  0.
        4    1    3    3  502    0  0.73685650191E+03 -0.10553878073E+04  0.83000479434E+03  0.15315712519E+04  0.12699999809E+01 0.  1.
       -4    1    3    3    0  502 -0.73685650191E+03  0.10553878073E+04 -0.17522064864E+04  0.21741734319E+04  0.12699999809E+01 0. -1.
</event>
<event>
 5   0  0.2608070E-08  0.3600284E+04  0.7818609E-02  0.8090427E-01
       -2   -1    0    0    0  501  0.00000000000E+00  0.00000000000E+00  0.30680295246E+04  0.30680295246E+04  0.25500000920E-02 0. -1.
        2   -1    0    0  501    0  0.00000000000E+00  0.00000000000E+00 -0.10562191079E+04  0.10562191080E+04  0.25500000920E-02 0.  1.
    10030    2    1    2    0    0  0.00000000000E+00  0.00000000000E+00  0.20118104167E+04  0.41242486326E+04  0.36002841042E+04 0.  0.
        3    1    3    3  502    0 -0.11992876209E+03  0.64324761008E+03  0.29269770203E+04  0.29992240469E+04  0.10100000352E+00 0. -1.
       -3    1    3    3    0  502  0.11992876209E+03 -0.64324761008E+03 -0.91516660362E+03  0.11250245857E+04  0.10100000352E+00 0.  1.
</event>
<event>
 5   0  0.8063410E-09  0.3599017E+04  0.7818609E-02  0.8090717E-01
        1   -1    0    0  501    0  0.00000000000E+00  0.00000000000E+00  0.22402052884E+04  0.22402052884E+04  0.50400001928E-02 0. -1.
       -1   -1    0    0    0  501  0.00000000000E+00  0.00000000000E+00 -0.14455062765E+04  0.14455062765E+04  0.50400001928E-02 0.  1.
    10030    2    1    2    0    0  0.00000000000E+00  0.00000000000E+00  0.79469901189E+03  0.36857115648E+04  0.35990169796E+04 0.  0.
        2    1    3    3  502    0  0.35160017339E+03  0.14429828658E+04 -0.64320120591E+03  0.16184962231E+04  0.25500000920E-02 0. -1.
       -2    1    3    3    0  502 -0.35160017339E+03 -0.14429828658E+04  0.14379002178E+04  0.20672153418E+04  0.25500000920E-02 0.  1.
</event>
<event>
 5   0  0.2590795E-08  0.3599629E+04  0.7818609E-02  0.8090577E-01
        2   -1    0    0  501    0  0.00000000000E+00  0.00000000000E+00  0.20793052230E+04  0.20793052230E+04  0.25500000920E-02 0. -1.
       -2   -1    0    0    0  501  0.00000000000E+00  0.00000000000E+00 -0.15578916354E+04  0.15578916354E+04  0.25500000920E-02 0.  1.
    10030    2    1    2    0    0  0.00000000000E+00  0.00000000000E+00  0.52141358764E+03  0.36371968584E+04  0.35996289889E+04 0.  0.
        4    1    3    3  502    0 -0.11541382073E+04  0.10387936020E+04  0.11802615286E+04  0.19504220153E+04  0.12699999809E+01 0. -1.
       -4    1    3    3    0  502  0.11541382073E+04 -0.10387936020E+04 -0.65884794098E+03  0.16867748431E+04  0.12699999809E+01 0.  1.
</event>
<event>
 5   0  0.8146881E-09  0.3599602E+04  0.7818609E-02  0.8090583E-01
       -1   -1    0    0    0  501  0.00000000000E+00  0.00000000000E+00  0.15007661835E+04  0.15007661835E+04  0.50400001928E-02 0. -1.
        1   -1    0    0  501    0  0.00000000000E+00  0.00000000000E+00 -0.21584197371E+04  0.21584197372E+04  0.50400001928E-02 0.  1.
    10030    2    1    2    0    0  0.00000000000E+00  0.00000000000E+00 -0.65765355364E+03  0.36591859207E+04  0.35996018398E+04 0.  0.
        4    1    3    3  502    0  0.45475364506E+02 -0.17992114635E+04 -0.33614589938E+03  0.18309084024E+04  0.12699999809E+01 0.  1.
       -4    1    3    3    0  502 -0.45475364506E+02  0.17992114635E+04 -0.32150765426E+03  0.18282775183E+04  0.12699999809E+01 0. -1.
</event>
<event>
 5   0  0.8024500E-09  0.3602059E+04  0.7818609E-02  0.8090020E-01
       -1   -1    0    0    0  501  0.00000000000E+00  0.00000000000E+00  0.12088660068E+04  0.12088660068E+04  0.50400001928E-02 0.  1.
        1   -1    0    0  501    0  0.00000000000E+00  0.00000000000E+00 -0.26832647092E+04  0.26832647092E+04  0.50400001928E-02 0. -1.
    10030    2    1    2    0    0  0.00000000000E+00  0.00000000000E+00 -0.14743987024E+04  0.38921307160E+04  0.36020591302E+04 0.  0.
        1    1    3    3  502    0 -0.21525324744E+03  0.74760050929E+03 -0.24923419784E+04  0.26109402558E+04  0.50400001928E-02 0. -1.
       -1    1    3    3    0  502  0.21525324744E+03 -0.74760050929E+03  0.10179432761E+04  0.12811904602E+04  0.50400001928E-02 0.  1.
</event>
<event>
 5   0  0.8024500E-09  0.3599270E+04  0.7818609E-02  0.8090659E-01
       -1   -1    0    0    0  501  0.00000000000E+00  0.00000000000E+00  0.14960342126E+04  0.14960342126E+04  0.50400001928E-02 0. -1.
        1   -1    0    0  501    0  0.00000000000E+00  0.00000000000E+00 -0.21648473421E+04  0.21648473421E+04  0.50400001928E-02 0.  1.
    10030    2    1    2    0    0  0.00000000000E+00  0.00000000000E+00 -0.66881312949E+03  0.36608815547E+04  0.35992697531E+04 0.  0.
        5    1    3    3  502    0  0.62607286576E+03  0.11494573362E+02  0.13816506982E+04  0.15169311455E+04  0.46999998093E+01 0. -1.
       -5    1    3    3    0  502 -0.62607286576E+03 -0.11494573362E+02 -0.20504638277E+04  0.21439504092E+04  0.46999998093E+01 0.  1.
</event>
<event>
 5   0  0.8247570E-09  0.3599331E+04  0.7818609E-02  0.8090645E-01
        1   -1    0    0  501    0  0.00000000000E+00  0.00000000000E+00  0.21234953749E+04  0.21234953749E+04  0.50400001928E-02 0. -1.
       -1   -1    0    0    0  501  0.00000000000E+00  0.00000000000E+00 -0.15252187880E+04  0.15252187880E+04  0.50400001928E-02 0.  1.
    10030    2    1    2    0    0  0.00000000000E+00  0.00000000000E+00  0.59827658686E+03  0.36487141629E+04  0.35993305166E+04 0.  0.
        3    1    3    3  502    0 -0.23940011152E+03  0.16585914299E+03  0.20994475914E+04  0.21195522801E+04  0.10100000352E+00 0. -1.
       -3    1    3    3    0  502  0.23940011152E+03 -0.16585914299E+03 -0.15011710045E+04  0.15291618828E+04  0.10100000352E+00 0.  1.
</event>
<event>
 5   0  0.2476968E-08  0.3601438E+04  0.7818609E-02  0.8090162E-01
       -2   -1    0    0    0  501  0.00000000000E+00  0.00000000000E+00  0.18025721623E+04  0.18025721623E+04  0.25500000920E-02 0. -1.
        2   -1    0    0  501    0  0.00000000000E+00  0.00000000000E+00 -0.17988679994E+04  0.17988679994E+04  0.25500000920E-02 0.  1.
    10030    2    1    2    0    0  0.00000000000E+00  0.00000000000E+00  0.37041628917E+01  0.36014401616E+04  0.36014382567E+04 0.  0.
        2    1    3    3  502    0 -0.14667097160E+04  0.18418429350E+03 -0.10264617096E+04  0.17996624368E+04  0.25500000920E-02 0.  1.
       -2    1    3    3    0  502  0.14667097160E+04 -0.18418429350E+03  0.10301658725E+04  0.18017777249E+04  0.25500000920E-02 0. -1.
</event>
<event>
 5   0  0.8146881E-09  0.3598442E+04  0.7818609E-02  0.8090849E-01
       -1   -1    0    0    0  501  0.00000000000E+00  0.00000000000E+00  0.24036457825E+04  0.24036457825E+04  0.50400001928E-02 0. -1.
        1   -1    0    0  501    0  0.00000000000E+00  0.00000000000E+00 -0.13467858243E+04  0.13467858244E+04  0.50400001928E-02 0.  1.
    10030    2    1    2    0    0  0.00000000000E+00  0.00000000000E+00  0.10568599581E+04  0.37504316068E+04  0.35984419221E+04 0.  0.
        4    1    3    3  502    0 -0.49109741380E+03  0.11205210374E+04 -0.84655380558E+03  0.14877496509E+04  0.12699999809E+01 0.  1.
       -4    1    3    3    0  502  0.49109741380E+03 -0.11205210374E+04  0.19034137637E+04  0.22626819560E+04  0.12699999809E+01 0. -1.
</event>
<event>
 5   0  0.2482243E-08  0.3598737E+04  0.7818609E-02  0.8090781E-01
       -2   -1    0    0    0  501  0.00000000000E+00  0.00000000000E+00  0.21527873183E+04  0.21527873183E+04  0.25500000920E-02 0. -1.
        2   -1    0    0  501    0  0.00000000000E+00  0.00000000000E+00 -0.15039697612E+04  0.15039697612E+04  0.25500000920E-02 0.  1.
    10030    2    1    2    0    0  0.00000000000E+00  0.00000000000E+00  0.64881755709E+03  0.36567570795E+04  0.35987370168E+04 0.  0.
        5    1    3    3  502    0 -0.72147240077E+03  0.78225944931E+03  0.17987503555E+04  0.20899706224E+04  0.46999998093E+01 0. -1.
       -5    1    3    3    0  502  0.72147240077E+03 -0.78225944931E+03 -0.11499327984E+04  0.15667864571E+04  0.46999998093E+01 0.  1.
</event>
<event>
 5   0  0.2590795E-08  0.3598712E+04  0.7818609E-02  0.8090787E-01
        2   -1    0    0  501    0  0.00000000000E+00  0.00000000000E+00  0.20349436322E+04  0.20349436322E+04  0.25500000920E-02 0.  1.
       -2   -1    0    0    0  501  0.00000000000E+00  0.00000000000E+00 -0.15910428319E+04  0.15910428319E+04  0.25500000920E-02 0. -1.
    10030    2    1    2    0    0  0.00000000000E+00  0.00000000000E+00  0.44390080027E+03  0.36259864641E+04  0.35987122582E+04 0.  0.
        4    1    3    3  502    0  0.94369152642E+03  0.54449937688E+03  0.16648116573E+04  0.19896313064E+04  0.12699999809E+01 0.  1.
       -4    1    3    3    0  502 -0.94369152642E+03 -0.54449937688E+03 -0.12209108570E+04  0.16363551577E+04  0.12699999809E+01 0. -1.
</event>
<event>
 5   0  0.8024500E-09  0.3600325E+04  0.7818609E-02  0.8090417E-01
        1   -1    0    0  501    0  0.00000000000E+00  0.00000000000E+00  0.10459111082E+04  0.10459111082E+04  0.50400001928E-02 0. -1.
       -1   -1    0    0    0  501  0.00000000000E+00  0.00000000000E+00 -0.30983369089E+04  0.30983369089E+04  0.50400001928E-02 0.  1.
    10030    2    1    2    0    0  0.00000000000E+00  0.00000000000E+00 -0.20524258007E+04  0.41442480172E+04  0.36003249798E+04 0.  0.
        1    1    3    3  502    0 -0.10849309350E+04 -0.98333029683E+03 -0.22315887580E+04  0.26690826123E+04  0.50400001928E-02 0.  1.
       -1    1    3    3    0  502  0.10849309350E+04  0.98333029683E+03  0.17916295728E+03  0.14751654049E+04  0.50400001928E-02 0. -1.
</event>
<event>
 5   0  0.2482243E-08  0.3600897E+04  0.7818609E-02  0.8090286E-01
        2   -1    0    0  501    0  0.00000000000E+00  0.00000000000E+00  0.16187825423E+04  0.16187825423E+04  0.25500000920E-02 0.  1.
       -2   -1    0    0    0  501  0.00000000000E+00  0.00000000000E+00 -0.20025020270E+04  0.20025020270E+04  0.25500000920E-02 0. -1.
    10030    2    1    2    0    0  0.00000000000E+00  0.00000000000E+00 -0.38371948478E+03  0.36212845693E+04  0.36008972894E+04 0.  0.
        5    1    3    3  502    0 -0.48388866323E+03 -0.17146256005E+04 -0.45314614894E+03  0.18383287819E+04  0.46999998093E+01 0.  1.
       -5    1    3    3    0  502  0.48388866323E+03  0.17146256005E+04  0.69426664164E+02  0.17829557874E+04  0.46999998093E+01 0. -1.
</event>
<event>
 5   0  0.2494592E-08  0.3600223E+04  0.7818609E-02  0.8090441E-01
        2   -1    0    0  501    0  0.00000000000E+00  0.00000000000E+00  0.16623812841E+04  0.16623812841E+04  0.25500000920E-02 0.  1.
       -2   -1    0    0    0  501  0.00000000000E+00  0.00000000000E+00 -0.19492529125E+04  0.19492529125E+04  0.25500000920E-02 0. -1.
    10030    2    1    2    0    0  0.00000000000E+00  0.00000000000E+00 -0.28687162841E+03  0.36116341967E+04  0.36002230819E+04 0.  0.
        1    1    3    3  502    0 -0.13212236615E+04  0.12153613267E+04 -0.27677226313E+03  0.18164079949E+04  0.50400001928E-02 0.  1.
       -1    1    3    3    0  502  0.13212236615E+04 -0.12153613267E+04 -0.10099365275E+02  0.17952262018E+04  0.50400001928E-02 0. -1.
</event>
<event>
 5   0  0.2608070E-08  0.3599014E+04  0.7818609E-02  0.8090718E-01
       -2   -1    0    0    0  501  0.00000000000E+00  0.00000000000E+00  0.26346854793E+04  0.26346854793E+04  0.25500000920E-02 0.  1.
        2   -1    0    0  501    0  0.00000000000E+00  0.00000000000E+00 -0.12290746390E+04  0.12290746390E+04  0.25500000920E-02 0. -1.
    10030    2    1    2    0    0  0.00000000000E+00  0.00000000000E+00  0.14056108403E+04  0.38637601183E+04  0.35990138117E+04 0.  0.
        3    1    3    3  502    0 -0.13642651834E+04 -0.45665797912E+03  0.18632789984E+04  0.23540528109E+04  0.10100000352E+00 0.  1.
       -3    1    3    3    0  502  0.13642651834E+04  0.45665797912E+03 -0.45766815809E+03  0.15097073073E+04  0.10100000352E+00 0. -1.
</event>
<event>
 5   0  0.8024500E-09  0.3599860E+04  0.7818609E-02  0.8090524E-01
       -1   -1    0    0    0  501  0.00000000000E+00  0.00000000000E+00  0.27140050525E+04  0.27140050525E+04  0.50400001928E-02 0.  1.
        1   -1    0    0  501    0  0.00000000000E+00  0.00000000000E+00 -0.11937146249E+04  0.11937146249E+04  0.50400001928E-02 0. -1.
    10030    2    1    2    0    0  0.00000000000E+00  0.00000000000E+00  0.15202904276E+04  0.39077196774E+04  0.35998597324E+04 0.  0.
        1    1    3    3  502    0 -0.13259288479E+04 -0.40602672194E+03 -0.48551084989E+03  0.14692398695E+04  0.50400001928E-02 0. -1.
       -1    1    3    3    0  502  0.13259288479E+04  0.40602672194E+03  0.20058012775E+04  0.24384798079E+04  0.50400001928E-02 0.  1.
</event>
<event>
 5   0  0.8063410E-09  0.3611685E+04  0.7818609E-02  0.8087820E-01
        1   -1    0    0  501    0  0.00000000000E+00  0.00000000000E+00  0.21980239072E+04  0.21980239072E+04  0.50400001928E-02 0. -1.
       -1   -1    0    0    0  501  0.00000000000E+00  0.00000000000E+00 -0.14836354774E+04  0.14836354774E+04  0.50400001928E-02 0.  1.
    10030    2    1    2    0    0  0.00000000000E+00  0.00000000000E+00  0.71438842983E+03  0.36816593847E+04  0.36116845095E+04 0.  0.
        2    1    3    3  502    0 -0.14824176727E+04  0.10701228135E+03  0.14027627349E+04  0.20437115929E+04  0.25500000920E-02 0. -1.
       -2    1    3    3    0  502  0.14824176727E+04 -0.10701228135E+03 -0.68837430503E+03  0.16379477918E+04  0.25500000920E-02 0.  1.
</event>
<event>
 5   0  0.2494592E-08  0.3600479E+04  0.7818609E-02  0.8090382E-01
        2   -1    0    0  501    0  0.00000000000E+00  0.00000000000E+00  0.19121711722E+04  0.19121711722E+04  0.25500000920E-02 0.  1.
       -2   -1    0    0    0  501  0.00000000000E+00  0.00000000000E+00 -0.16948602766E+04  0.16948602766E+04  0.25500000920E-02 0. -1.
    10030    2    1    2    0    0  0.00000000000E+00  0.00000000000E+00  0.21731089556E+03  0.36070314488E+04  0.36004793913E+04 0.  0.
        1    1    3    3  502    0  0.14545435999E+04  0.66336664446E+03  0.93787576465E+03  0.18534733176E+04  0.50400001928E-02 0.  1.
       -1    1    3    3    0  502 -0.14545435999E+04 -0.66336664446E+03 -0.72056486908E+03  0.17535581312E+04  0.50400001928E-02 0. -1.
</event>
<event>
 5   0  0.2608070E-08  0.3600051E+04  0.7818609E-02  0.8090480E-01
        2   -1    0    0  501    0  0.00000000000E+00  0.00000000000E+00  0.23577017517E+04  0.23577017517E+04  0.25500000920E-02 0. -1.
       -2   -1    0    0    0  501  0.00000000000E+00  0.00000000000E+00 -0.13742588201E+04  0.13742588201E+04  0.25500000920E-02 0.  1.
    10030    2    1    2    0    0  0.00000000000E+00  0.00000000000E+00  0.98344293161E+03  0.37319605718E+04  0.36000513482E+04 0.  0.
        3    1    3    3  502    0 -0.73377584506E+03 -0.10311164372E+04 -0.83520496760E+03  0.15163098120E+04  0.10100000352E+00 0.  1.
       -3    1    3    3    0  502  0.73377584506E+03  0.10311164372E+04  0.18186478992E+04  0.22156507598E+04  0.10100000352E+00 0. -1.
</event>
<event>
 5   0  0.8024500E-09  0.3600031E+04  0.7818609E-02  0.8090485E-01
       -1   -1    0    0    0  501  0.00000000000E+00  0.00000000000E+00  0.18922353576E+04  0.18922353576E+04  0.50400001928E-02 0.  1.
        1   -1    0    0  501    0  0.00000000000E+00  0.00000000000E+00 -0.17122900415E+04  0.17122900415E+04  0.50400001928E-02 0. -1.
    10030    2    1    2    0    0  0.00000000000E+00  0.00000000000E+00  0.17994531615E+03  0.36045253992E+04  0.36000309771E+04 0.  0.
        5    1    3    3  502    0  0.55010718186E+03 -0.13420474905E+04 -0.97734328711E+03  0.17489800940E+04  0.46999998093E+01 0. -1.
       -5    1    3    3    0  502 -0.55010718186E+03  0.13420474905E+04  0.11572886033E+04  0.18555453052E+04  0.46999998093E+01 0.  1.
</event>
<event>
 5   0  0.2608070E-08  0.3599792E+04  0.7818609E-02  0.8090539E-01
       -2   -1    0    0    0  501  0.00000000000E+00  0.00000000000E+00  0.17956176368E+04  0.17956176368E+04  0.25500000920E-02 0. -1.
        2   -1    0    0  501    0  0.00000000000E+00  0.00000000000E+00 -0.18041850527E+04  0.18041850527E+04  0.25500000920E-02 0.  1.
    10030    2    1    2    0    0  0.00000000000E+00  0.00000000000E+00 -0.85674158418E+01  0.35998026895E+04  0.35997924944E+04 0.  0.
        3    1    3    3  502    0  0.14428693424E+04  0.90788931918E+02 -0.10764396817E+04  0.18024530418E+04  0.10100000352E+00 0.  1.
       -3    1    3    3    0  502 -0.14428693424E+04 -0.90788931918E+02  0.10678722659E+04  0.17973496476E+04  0.10100000352E+00 0. -1.
</event>
<event>
 5   0  0.8146881E-09  0.3601823E+04  0.7818609E-02  0.8090074E-01
       -1   -1    0    0    0  501  0.00000000000E+00  0.00000000000E+00  0.33053869944E+04  0.33053869944E+04  0.50400001928E-02 0.  1.
        1   -1    0    0  501    0  0.00000000000E+00  0.00000000000E+00 -0.98121094245E+03  0.98121094246E+03  0.50400001928E-02 0. -1.
    10030    2    1    2    0    0  0.00000000000E+00  0.00000000000E+00  0.23241760520E+04  0.42865979369E+04  0.36018228096E+04 0.  0.
        4    1    3    3  502    0 -0.10288303642E+04  0.11621867055E+04  0.75156515163E+02  0.15539691025E+04  0.12699999809E+01 0. -1.
       -4    1    3    3    0  502  0.10288303642E+04 -0.11621867055E+04  0.22490195368E+04  0.27326288344E+04  0.12699999809E+01 0.  1.
</event>
<event>
 5   0  0.8146881E-09  0.3599571E+04  0.7818609E-02  0.8090590E-01
        1   -1    0    0  501    0  0.00000000000E+00  0.00000000000E+00  0.25273560678E+04  0.25273560678E+04  0.50400001928E-02 0. -1.
       -1   -1    0    0    0  501  0.00000000000E+00  0.00000000000E+00 -0.12816666747E+04  0.12816666747E+04  0.50400001928E-02 0.  1.
    10030    2    1    2    0    0  0.00000000000E+00  0.00000000000E+00  0.12456893932E+04  0.38090227425E+04  0.35995711117E+04 0.  0.
        4    1    3    3  502    0  0.15555868659E+04  0.69789872550E+03  0.12328543016E+04  0.21040067658E+04  0.12699999809E+01 0. -1.
       -4    1    3    3    0  502 -0.15555868659E+04 -0.69789872550E+03  0.12835091543E+02  0.17050159767E+04  0.12699999809E+01 0.  1.
</event>
<event>
 5   0  0.2608070E-08  0.3597134E+04  0.7818609E-02  0.8091149E-01
       -2   -1    0    0    0  501  0.00000000000E+00  0.00000000000E+00  0.30147229683E+04  0.30147229683E+04  0.25500000920E-02 0. -1.
        2   -1    0    0  501    0  0.00000000000E+00  0.00000000000E+00 -0.10730150818E+04  0.10730150818E+04  0.25500000920E-02 0.  1.
    10030    2    1    2    0    0  0.00000000000E+00  0.00000000000E+00  0.19417078865E+04  0.40877380501E+04  0.35971339771E+04 0.  0.
        3    1    3    3  502    0  0.90946488770E+03  0.14606695266E+04  0.37583668508E+03  0.17612311239E+04  0.10100000352E+00 0.  1.
       -3    1    3    3    0  502 -0.90946488770E+03 -0.14606695266E+04  0.15658712014E+04  0.23265069262E+04  0.10100000352E+00 0. -1.
</event>
<event>
 5   0  0.8024500E-09  0.3601430E+04  0.7818609E-02  0.8090164E-01
       -1   -1    0    0    0  501  0.00000000000E+00  0.00000000000E+00  0.28628942802E+04  0.28628942802E+04  0.50400001928E-02 0. -1.
        1   -1    0    0  501    0  0.00000000000E+00  0.00000000000E+00 -0.11326212750E+04  0.11326212750E+04  0.50400001928E-02 0.  1.
    10030    2    1    2    0    0  0.00000000000E+00  0.00000000000E+00  0.17302730052E+04  0.39955155552E+04  0.36014302547E+04 0.  0.
        5    1    3    3  502    0 -0.37940585288E+03 -0.80187329446E+03 -0.87337240875E+03  0.12448899694E+04  0.46999998093E+01 0.  1.
       -5    1    3    3    0  502  0.37940585288E+03  0.80187329446E+03  0.26036454140E+04  0.27506255858E+04  0.46999998093E+01 0. -1.
</event>
<event>
 5   0  0.8024500E-09  0.3598575E+04  0.7818609E-02  0.8090818E-01
       -1   -1    0    0    0  501  0.00000000000E+00  0.00000000000E+00  0.25688331300E+04  0.25688331300E+04  0.50400001928E-02 0.  1.
        1   -1    0    0  501    0  0.00000000000E+00  0.00000000000E+00 -0.12602745327E+04  0.12602745327E+04  0.50400001928E-02 0. -1.
    10030    2    1    2    0    0  0.00000000000E+00  0.00000000000E+00  0.13085585973E+04  0.38291076627E+04  0.35985747026E+04 0.  0.
        1    1    3    3  502    0  0.99076615862E+03 -0.14011005232E+04  0.12299898237E+04  0.21112970477E+04  0.50400001928E-02 0.  1.
       -1    1    3    3    0  502 -0.99076615862E+03  0.14011005232E+04  0.78568773552E+02  0.17178106151E+04  0.50400001928E-02 0. -1.
</event>
<event>
 5   0  0.8146881E-09  0.3610035E+04  0.7818609E-02  0.8088197E-01
        1   -1    0    0  501    0  0.00000000000E+00  0.00000000000E+00  0.12529944010E+04  0.12529944010E+04  0.50400001928E-02 0.  1.
       -1   -1    0    0    0  501  0.00000000000E+00  0.00000000000E+00 -0.26002417033E+04  0.26002417033E+04  0.50400001928E-02 0. -1.
    10030    2    1    2    0    0  0.00000000000E+00  0.00000000000E+00 -0.13472473023E+04  0.38532361043E+04  0.36100350666E+04 0.  0.
        4    1    3    3  502    0  0.66822925248E+03  0.87797564662E+03  0.85115004294E+03  0.13934954533E+04  0.12699999809E+01 0.  1.
       -4    1    3    3    0  502 -0.66822925248E+03 -0.87797564662E+03 -0.21983973452E+04  0.24597406510E+04  0.12699999809E+01 0. -1.
</event>
<event>
 5   0  0.2476968E-08  0.3598513E+04  0.7818609E-02  0.8090832E-01
       -2   -1    0    0    0  501  0.00000000000E+00  0.00000000000E+00  0.21432418764E+04  0.21432418765E+04  0.25500000920E-02 0. -1.
        2   -1    0    0  501    0  0.00000000000E+00  0.00000000000E+00 -0.15104802435E+04  0.15104802435E+04  0.25500000920E-02 0.  1.
    10030    2    1    2    0    0  0.00000000000E+00  0.00000000000E+00  0.63276163300E+03  0.36537221199E+04  0.35985133104E+04 0.  0.
        2    1    3    3  502    0  0.11227534132E+04 -0.14012413984E+04  0.19940993275E+03  0.18066037210E+04  0.25500000920E-02 0. -1.
       -2    1    3    3    0  502 -0.11227534132E+04  0.14012413984E+04  0.43335170025E+03  0.18471183989E+04  0.25500000920E-02 0.  1.
</event>
<event>
 5   0  0.2476968E-08  0.3600076E+04  0.7818609E-02  0.8090474E-01
        2   -1    0    0  501    0  0.00000000000E+00  0.00000000000E+00  0.28762744883E+04  0.28762744883E+04  0.25500000920E-02 0. -1.
       -2   -1    0    0    0  501  0.00000000000E+00  0.00000000000E+00 -0.11265047277E+04  0.11265047277E+04  0.25500000920E-02 0.  1.
    10030    2    1    2    0    0  0.00000000000E+00  0.00000000000E+00  0.17497697606E+04  0.40027792160E+04  0.36000760043E+04 0.  0.
        2    1    3    3  502    0  0.13775894510E+04  0.11130210389E+04  0.12327038408E+04  0.21578061284E+04  0.25500000920E-02 0. -1.
       -2    1    3    3    0  502 -0.13775894510E+04 -0.11130210389E+04  0.51706591984E+03  0.18449730876E+04  0.25500000920E-02 0.  1.
</event>
<event>
 5   0  0.2476968E-08  0.3602297E+04  0.7818609E-02  0.8089966E-01
        2   -1    0    0  501    0  0.00000000000E+00  0.00000000000E+00  0.14053044039E+04  0.14053044039E+04  0.25500000920E-02 0. -1.
       -2   -1    0    0    0  501  0.00000000000E+00  0.00000000000E+00 -0.23084931291E+04  0.23084931291E+04  0.25500000920E-02 0.  1.
    10030    2    1    2    0    0  0.00000000000E+00  0.00000000000E+00 -0.90318872520E+03  0.37137975329E+04  0.36022968010E+04 0.  0.
        2    1    3    3  502    0  0.67024258451E+03  0.45541333054E+02 -0.21744999564E+04  0.22759062361E+04  0.25500000920E-02 0.  1.
       -2    1    3    3    0  502 -0.67024258451E+03 -0.45541333054E+02  0.12713112312E+04  0.14378912969E+04  0.25500000920E-02 0. -1.
</event>
<event>
 5   0  0.8063410E-09  0.3599725E+04  0.7818609E-02  0.8090555E-01
       -1   -1    0    0    0  501  0.00000000000E+00  0.00000000000E+00  0.19767645159E+04  0.19767645159E+04  0.50400001928E-02 0.  1.
        1   -1    0    0  501    0  0.00000000000E+00  0.00000000000E+00 -0.16387912896E+04  0.16387912896E+04  0.50400001928E-02 0. -1.
    10030    2    1    2    0    0  0.00000000000E+00  0.00000000000E+00  0.33797322628E+03  0.36155558055E+04  0.35997246952E+04 0.  0.
        2    1    3    3  502    0  0.14277761865E+04 -0.30206186773E+03 -0.88907789782E+03  0.17088726457E+04  0.25500000920E-02 0. -1.
       -2    1    3    3    0  502 -0.14277761865E+04  0.30206186773E+03  0.12270511241E+04  0.19066831598E+04  0.25500000920E-02 0.  1.
</event>
<event>
 5   0  0.8146881E-09  0.3600132E+04  0.7818609E-02  0.8090461E-01
       -1   -1    0    0    0  501  0.00000000000E+00  0.00000000000E+00  0.13162338287E+04  0.13162338287E+04  0.50400001928E-02 0. -1.
        1   -1    0    0  501    0  0.00000000000E+00  0.00000000000E+00 -0.24617491219E+04  0.24617491219E+04  0.50400001928E-02 0.  1.
    10030    2    1    2    0    0  0.00000000000E+00  0.00000000000E+00 -0.11455152932E+04  0.37779829507E+04  0.36001319266E+04 0.  0.
        4    1    3    3  502    0 -0.29675430781E+03  0.10829522016E+04 -0.20491675996E+04  0.23366510340E+04  0.12699999809E+01 0.  1.
       -4    1    3    3    0  502  0.29675430781E+03 -0.10829522016E+04  0.90365230645E+03  0.14413319167E+04  0.12699999809E+01 0. -1.
</event>
<event>
 5   0  0.8247570E-09  0.3601213E+04  0.7818609E-02  0.8090214E-01
        1   -1    0    0  501    0  0.00000000000E+00  0.00000000000E+00  0.21777661266E+04  0.21777661266E+04  0.50400001928E-02 0. -1.
       -1   -1    0    0    0  501  0.00000000000E+00  0.00000000000E+00 -0.14887657594E+04  0.14887657594E+04  0.50400001928E-02 0.  1.
    10030    2    1    2    0    0  0.00000000000E+00  0.00000000000E+00  0.68900036717E+03  0.36665318860E+04  0.36012129297E+04 0.  0.
        3    1    3    3  502    0 -0.97904146698E+02 -0.48480448481E+03  0.21072506029E+04  0.21645151245E+04  0.10100000352E+00 0. -1.
       -3    1    3    3    0  502  0.97904146698E+02  0.48480448481E+03 -0.14182502357E+04  0.15020167615E+04  0.10100000352E+00 0.  1.
</event>
<event>
 5   0  0.2482243E-08  0.3599916E+04  0.7818609E-02  0.8090511E-01
       -2   -1    0    0    0  501  0.00000000000E+00  0.00000000000E+00  0.13147454572E+04  0.13147454572E+04  0.25500000920E-02 0. -1.
        2   -1    0    0  501    0  0.00000000000E+00  0.00000000000E+00 -0.24642399255E+04  0.24642399255E+04  0.25500000920E-02 0.  1.
    10030    2    1    2    0    0  0.00000000000E+00  0.00000000000E+00 -0.11494944683E+04  0.37789853826E+04  0.35999156920E+04 0.  0.
        5    1    3    3  502    0  0.81640932457E+02 -0.76006647012E+03 -0.22853641169E+04  0.24098293545E+04  0.46999998093E+01 0.  1.
       -5    1    3    3    0  502 -0.81640932457E+02  0.76006647012E+03  0.11358696486E+04  0.13691560282E+04  0.46999998093E+01 0. -1.
</event>
<event>
 5   0  0.8146881E-09  0.3599865E+04  0.7818609E-02  0.8090523E-01
        1   -1    0    0  501    0  0.00000000000E+00  0.00000000000E+00  0.24015157701E+04  0.24015157701E+04  0.50400001928E-02 0.  1.
       -1   -1    0    0    0  501  0.00000000000E+00  0.00000000000E+00 -0.13490464043E+04  0.13490464043E+04  0.50400001928E-02 0. -1.
    10030    2    1    2    0    0  0.00000000000E+00  0.00000000000E+00  0.10524693658E+04  0.37505621744E+04  0.35998645610E+04 0.  0.
        4    1    3    3  502    0 -0.43424810060E+03 -0.11356149050E+04 -0.85656468238E+03  0.14872448667E+04  0.12699999809E+01 0. -1.
       -4    1    3    3    0  502  0.43424810060E+03  0.11356149050E+04  0.19090340482E+04  0.22633173077E+04  0.12699999809E+01 0.  1.
</event>
<event>
 5   0  0.2482243E-08  0.3602954E+04  0.7818609E-02  0.8089815E-01
       -2   -1    0    0    0  501  0.00000000000E+00  0.00000000000E+00  0.16960373353E+04  0.16960373353E+04  0.25500000920E-02 0. -1.
        2   -1    0    0  501    0  0.00000000000E+00  0.00000000000E+00 -0.19134718518E+04  0.19134718518E+04  0.25500000920E-02 0.  1.
    10030    2    1    2    0    0  0.00000000000E+00  0.00000000000E+00 -0.21743451653E+03  0.36095091871E+04  0.36029541772E+04 0.  0.
        5    1    3    3  502    0  0.13990998897E+03 -0.68972327081E+03 -0.17700480868E+04  0.19048320963E+04  0.46999998093E+01 0.  1.
       -5    1    3    3    0  502 -0.13990998897E+03  0.68972327081E+03  0.15526135703E+04  0.17046770908E+04  0.46999998093E+01 0. -1.
</event>
<event>
 5   0  0.8146881E-09  0.3600414E+04  0.7818609E-02  0.8090397E-01
        1   -1    0    0  501    0  0.00000000000E+00  0.00000000000E+00  0.18123506582E+04  0.18123506582E+04  0.50400001928E-02 0. -1.
       -1   -1    0    0    0  501  0.00000000000E+00  0.00000000000E+00 -0.17881442799E+04  0.17881442799E+04  0.50400001928E-02 0.  1.
    10030    2    1    2    0    0  0.00000000000E+00  0.00000000000E+00  0.24206378314E+02  0.36004949380E+04  0.36004135665E+04 0.  0.
        4    1    3    3  502    0 -0.83969559315E+03  0.15902237266E+04  0.94825430329E+02  0.18008036164E+04  0.12699999809E+01 0. -1.
       -4    1    3    3    0  502  0.83969559315E+03 -0.15902237266E+04 -0.70619052015E+02  0.17996913216E+04  0.12699999809E+01 0.  1.
</event>
<event>
 5   0  0.8024500E-09  0.3599956E+04  0.7818609E-02  0.8090502E-01
        3   -1    0    0  501    0  0.00000000000E+00  0.00000000000E+00  0.16720315522E+04  0.16720315553E+04  0.10100000352E+00 0. -1.
       -3   -1    0    0    0  501  0.00000000000E+00  0.00000000000E+00 -0.19377154652E+04  0.19377154678E+04  0.10100000352E+00 0.  1.
    10030    2    1    2    0    0  0.00000000000E+00  0.00000000000E+00 -0.26568391296E+03  0.36097470231E+04  0.35999563371E+04 0.  0.
        4    1    3    3  502    0  0.11004565869E+04 -0.14157435146E+04 -0.29006570036E+03  0.18164454636E+04  0.12699999809E+01 0.  1.
       -4    1    3    3    0  502 -0.11004565869E+04  0.14157435146E+04  0.24381787400E+02  0.17933015595E+04  0.12699999809E+01 0. -1.
</event>
<event>
 5   0  0.8247570E-09  0.3603619E+04  0.7818609E-02  0.8089663E-01
        1   -1    0    0  501    0  0.00000000000E+00  0.00000000000E+00  0.12936761491E+04  0.12936761491E+04  0.50400001928E-02 0. -1.
       -1   -1    0    0    0  501  0.00000000000E+00  0.00000000000E+00 -0.25095285311E+04  0.25095285311E+04  0.50400001928E-02 0.  1.
    10030    2    1    2    0    0  0.00000000000E+00  0.00000000000E+00 -0.12158523821E+04  0.38032046802E+04  0.36036188512E+04 0.  0.
        3    1    3    3  502    0  0.42421799501E+03  0.90139789257E+03 -0.21924233970E+04  0.24081527007E+04  0.10100000352E+00 0.  1.
       -3    1    3    3    0  502 -0.42421799501E+03 -0.90139789257E+03  0.97657101496E+03  0.13950519795E+04  0.10100000352E+00 0. -1.
</event>
<event>
 5   0  0.8247570E-09  0.3601582E+04  0.7818609E-02  0.8090129E-01
       -1   -1    0    0    0  501  0.00000000000E+00  0.00000000000E+00  0.14095432032E+04  0.14095432032E+04  0.50400001928E-02 0.  1.
        1   -1    0    0  501    0  0.00000000000E+00  0.00000000000E+00 -0.23006375411E+04  0.23006375411E+04  0.50400001928E-02 0. -1.
    10030    2    1    2    0    0  0.00000000000E+00  0.00000000000E+00 -0.89109433797E+03  0.37101807443E+04  0.36015818797E+04 0.  0.
        3    1    3    3  502    0 -0.49853341730E+03 -0.32249534222E+03 -0.21969011181E+04  0.22757225988E+04  0.10100000352E+00 0. -1.
       -3    1    3    3    0  502  0.49853341730E+03  0.32249534222E+03  0.13058067801E+04  0.14344581455E+04  0.10100000352E+00 0.  1.
</event>
<event>
 5   0  0.2590795E-08  0.3599010E+04  0.7818609E-02  0.8090718E-01
       -2   -1    0    0    0  501  0.00000000000E+00  0.00000000000E+00  0.15101780740E+04  0.15101780740E+04  0.25500000920E-02 0. -1.
        2   -1    0    0  501    0  0.00000000000E+00  0.00000000000E+00 -0.21442625699E+04  0.21442625699E+04  0.25500000920E-02 0.  1.
    10030    2    1    2    0    0  0.00000000000E+00  0.00000000000E+00 -0.63408449586E+03  0.36544406439E+04  0.35990100405E+04 0.  0.
        4    1    3    3  502    0 -0.22064059194E+03  0.15470620649E+04  0.58896313210E+03  0.16700187087E+04  0.12699999809E+01 0. -1.
       -4    1    3    3    0  502  0.22064059194E+03 -0.15470620649E+04 -0.12230476280E+04  0.19844219352E+04  0.12699999809E+01 0.  1.
</event>
<event>
 5   0  0.2476968E-08  0.3598107E+04  0.7818609E-02  0.8090925E-01
        2   -1    0    0  501    0  0.00000000000E+00  0.00000000000E+00  0.13431945248E+04  0.13431945248E+04  0.25500000920E-02 0.  1.
       -2   -1    0    0    0  501  0.00000000000E+00  0.00000000000E+00 -0.24096242186E+04  0.24096242186E+04  0.25500000920E-02 0. -1.
    10030    2    1    2    0    0  0.00000000000E+00  0.00000000000E+00 -0.10664296937E+04  0.37528187434E+04  0.35981073121E+04 0.  0.
        2    1    3    3  502    0  0.45853089950E+03  0.13492602344E+04 -0.16785388768E+04  0.22018734130E+04  0.25500000920E-02 0. -1.
       -2    1    3    3    0  502 -0.45853089950E+03 -0.13492602344E+04  0.61210918304E+03  0.15509453304E+04  0.25500000920E-02 0.  1.
</event>
<event>
 5   0  0.8247570E-09  0.3596109E+04  0.7818609E-02  0.8091383E-01
       -1   -1    0    0    0  501  0.00000000000E+00  0.00000000000E+00  0.13748190095E+04  0.13748190095E+04  0.50400001928E-02 0. -1.
        1   -1    0    0  501    0  0.00000000000E+00  0.00000000000E+00 -0.23515827482E+04  0.23515827482E+04  0.50400001928E-02 0.  1.
    10030    2    1    2    0    0  0.00000000000E+00  0.00000000000E+00 -0.97676373867E+03  0.37264017577E+04  0.35961093780E+04 0.  0.
        3    1    3    3  502    0 -0.17820307143E+04 -0.13451770348E+02 -0.24058115989E+03  0.17982474028E+04  0.10100000352E+00 0. -1.
       -3    1    3    3    0  502  0.17820307143E+04  0.13451770348E+02 -0.73618257878E+03  0.19281543549E+04  0.10100000352E+00 0.  1.
</event>
<event>
 5   0  0.2608070E-08  0.3600590E+04  0.7818609E-02  0.8090357E-01
       -2   -1    0    0    0  501  0.00000000000E+00  0.00000000000E+00  0.12197969274E+04  0.12197969274E+04  0.25500000920E-02 0.  1.
        2   -1    0    0  501    0  0.00000000000E+00  0.00000000000E+00 -0.26570502544E+04  0.26570502544E+04  0.25500000920E-02 0. -1.
    10030    2    1    2    0    0  0.00000000000E+00  0.00000000000E+00 -0.14372533270E+04  0.38768471818E+04  0.36005898052E+04 0.  0.
        3    1    3    3  502    0  0.46829183871E+03 -0.89246232893E+03  0.88756336424E+03  0.13429649997E+04  0.10100000352E+00 0.  1.
       -3    1    3    3    0  502 -0.46829183871E+03  0.89246232893E+03 -0.23248166912E+04  0.25338821821E+04  0.10100000352E+00 0. -1.
</event>
<event>
 5   0  0.8024500E-09  0.3601857E+04  0.7818609E-02  0.8090067E-01
       -1   -1    0    0    0  501  0.00000000000E+00  0.00000000000E+00  0.23091815669E+04  0.23091815669E+04  0.50400001928E-02 0.  1.
        1   -1    0    0  501    0  0.00000000000E+00  0.00000000000E+00 -0.14045420316E+04  0.14045420316E+04  0.50400001928E-02 0. -1.
    10030    2    1    2    0    0  0.00000000000E+00  0.00000000000E+00  0.90463953527E+03  0.37137235986E+04  0.36018565043E+04 0.  0.
        1    1    3    3  502    0  0.57363400204E+03 -0.10508894691E+04  0.18394352243E+04  0.21947543346E+04  0.50400001928E-02 0.  1.
       -1    1    3    3    0  502 -0.57363400204E+03  0.10508894691E+04 -0.93479568907E+03  0.15189692640E+04  0.50400001928E-02 0. -1.
</event>
<event>
 5   0  0.8146881E-09  0.3599135E+04  0.7818609E-02  0.8090690E-01
       -1   -1    0    0    0  501  0.00000000000E+00  0.00000000000E+00  0.19398278667E+04  0.19398278667E+04  0.50400001928E-02 0. -1.
        1   -1    0    0  501    0  0.00000000000E+00  0.00000000000E+00 -0.16694485812E+04  0.16694485812E+04  0.50400001928E-02 0.  1.
    10030    2    1    2    0    0  0.00000000000E+00  0.00000000000E+00  0.27037928557E+03  0.36092764479E+04  0.35991348293E+04 0.  0.
        4    1    3    3  502    0  0.74164472338E+03 -0.15726636899E+04  0.60032123720E+03  0.18394823125E+04  0.12699999809E+01 0. -1.
       -4    1    3    3    0  502 -0.74164472338E+03  0.15726636899E+04 -0.32994195163E+03  0.17697941354E+04  0.12699999809E+01 0.  1.
</event>
<event>
 5   0  0.8024500E-09  0.3599926E+04  0.7818609E-02  0.8090509E-01
        1   -1    0    0  501    0  0.00000000000E+00  0.00000000000E+00  0.15654762968E+04  0.15654762968E+04  0.50400001928E-02 0.  1.
       -1   -1    0    0    0  501  0.00000000000E+00  0.00000000000E+00 -0.20695721733E+04  0.20695721733E+04  0.50400001928E-02 0. -1.
    10030    2    1    2    0    0  0.00000000000E+00  0.00000000000E+00 -0.50409587655E+03  0.36350484701E+04  0.35999256558E+04 0.  0.
        5    1    3    3  502    0  0.16779339236E+04  0.65081463666E+03 -0.28100082188E+03  0.18215393202E+04  0.46999998093E+01 0.  1.
       -5    1    3    3    0  502 -0.16779339236E+04 -0.65081463666E+03 -0.22309505467E+03  0.18135091499E+04  0.46999998093E+01 0. -1.
</event>
<event>
 5   0  0.2608070E-08  0.3603358E+04  0.7818609E-02  0.8089723E-01
        2   -1    0    0  501    0  0.00000000000E+00  0.00000000000E+00  0.23724746897E+04  0.23724746897E+04  0.25500000920E-02 0.  1.
       -2   -1    0    0    0  501  0.00000000000E+00  0.00000000000E+00 -0.13682115199E+04  0.13682115199E+04  0.25500000920E-02 0. -1.
    10030    2    1    2    0    0  0.00000000000E+00  0.00000000000E+00  0.10042631698E+04  0.37406862096E+04  0.36033579900E+04 0.  0.
        3    1    3    3  502    0 -0.36534181333E+03  0.79523368354E+03 -0.11327455224E+04  0.14314271482E+04  0.10100000352E+00 0. -1.
       -3    1    3    3    0  502  0.36534181333E+03 -0.79523368354E+03  0.21370086921E+04  0.23092590614E+04  0.10100000352E+00 0.  1.
</event>
<event>
 5   0  0.8024500E-09  0.3600990E+04  0.7818609E-02  0.8090265E-01
       -1   -1    0    0    0  501  0.00000000000E+00  0.00000000000E+00  0.11324209761E+04  0.11324209761E+04  0.50400001928E-02 0. -1.
        1   -1    0    0  501    0  0.00000000000E+00  0.00000000000E+00 -0.28627004270E+04  0.28627004270E+04  0.50400001928E-02 0.  1.
    10030    2    1    2    0    0  0.00000000000E+00  0.00000000000E+00 -0.17302794509E+04  0.39951214031E+04  0.36009898704E+04 0.  0.
        1    1    3    3  502    0 -0.11074284412E+04  0.10330671953E+04  0.21516948443E+03  0.15296808456E+04  0.50400001928E-02 0. -1.
       -1    1    3    3    0  502  0.11074284412E+04 -0.10330671953E+04 -0.19454489354E+04  0.24654405575E+04  0.50400001928E-02 0.  1.
</event>
<event>
 5   0  0.2494592E-08  0.3599499E+04  0.7818609E-02  0.8090607E-01
       -2   -1    0    0    0  501  0.00000000000E+00  0.00000000000E+00  0.17200910617E+04  0.17200910617E+04  0.25500000920E-02 0. -1.
        2   -1    0    0  501    0  0.00000000000E+00  0.00000000000E+00 -0.18830966557E+04  0.18830966557E+04  0.25500000920E-02 0.  1.
    10030    2    1    2    0    0  0.00000000000E+00  0.00000000000E+00 -0.16300559399E+03  0.36031877174E+04  0.35994987017E+04 0.  0.
        1    1    3    3  502    0 -0.18200033892E+03  0.14667642116E+04 -0.11094809405E+04  0.18480988429E+04  0.50400001928E-02 0.  1.
       -1    1    3    3    0  502  0.18200033892E+03 -0.14667642116E+04  0.94647534655E+03  0.17550888745E+04  0.50400001928E-02 0. -1.
</event>
<event>
 5   0  0.8146881E-09  0.3591833E+04  0.7818609E-02  0.8092365E-01
        1   -1    0    0  501    0  0.00000000000E+00  0.00000000000E+00  0.14917387687E+04  0.14917387687E+04  0.50400001928E-02 0. -1.
       -1   -1    0    0    0  501  0.00000000000E+00  0.00000000000E+00 -0.21621185936E+04  0.21621185936E+04  0.50400001928E-02 0.  1.
    10030    2    1    2    0    0  0.00000000000E+00  0.00000000000E+00 -0.67037982488E+03  0.36538573623E+04  0.35918330298E+04 0.  0.
        4    1    3    3  502    0  0.15937612339E+04  0.63063876939E+03  0.21029198874E+03  0.17268481292E+04  0.12699999809E+01 0. -1.
       -4    1    3    3    0  502 -0.15937612339E+04 -0.63063876939E+03 -0.88067181362E+03  0.19270092330E+04  0.12699999809E+01 0.  1.
</event>
<event>
 5   0  0.8024500E-09  0.3600033E+04  0.7818609E-02  0.8090484E-01
        1   -1    0    0  501    0  0.00000000000E+00  0.00000000000E+00  0.20661760771E+04  0.20661760771E+04  0.50400001928E-02 0. -1.
       -1   -1    0    0    0  501  0.00000000000E+00  0.00000000000E+00 -0.15681430382E+04  0.15681430382E+04  0.50400001928E-02 0.  1.
    10030    2    1    2    0    0  0.00000000000E+00  0.00000000000E+00  0.49803303887E+03  0.36343191153E+04  0.36000331282E+04 0.  0.
        5    1    3    3  502    0  0.98652272750E+03 -0.10435841083E+04 -0.84655759857E+03  0.16670263168E+04  0.46999998093E+01 0.  1.
       -5    1    3    3    0  502 -0.98652272750E+03  0.10435841083E+04  0.13445906374E+04  0.19672927986E+04  0.46999998093E+01 0. -1.
</event>
<event>
 5   0  0.8063410E-09  0.3601328E+04  0.7818609E-02  0.8090187E-01
       -1   -1    0    0    0  501  0.00000000000E+00  0.00000000000E+00  0.15438594677E+04  0.15438594677E+04  0.50400001928E-02 0. -1.
        1   -1    0    0  501    0  0.00000000000E+00  0.00000000000E+00 -0.21001856600E+04  0.21001856600E+04  0.50400001928E-02 0.  1.
    10030    2    1    2    0    0  0.00000000000E+00  0.00000000000E+00 -0.55632619233E+03  0.36440451277E+04  0.36013283744E+04 0.  0.
        2    1    3    3  502    0 -0.14867823867E+04 -0.66171784976E+03 -0.10580182217E+04  0.19410808678E+04  0.25500000920E-02 0.  1.
       -2    1    3    3    0  502  0.14867823867E+04  0.66171784976E+03  0.50169202936E+03  0.17029642599E+04  0.25500000920E-02 0. -1.
</event>
<event>
 5   0  0.8146881E-09  0.3600391E+04  0.7818609E-02  0.8090402E-01
       -1   -1    0    0    0  501  0.00000000000E+00  0.00000000000E+00  0.15843603694E+04  0.15843603694E+04  0.50400001928E-02 0.  1.
        1   -1    0    0  501    0  0.00000000000E+00  0.00000000000E+00 -0.20454334542E+04  0.20454334542E+04  0.50400001928E-02 0. -1.
    10030    2    1    2    0    0  0.00000000000E+00  0.00000000000E+00 -0.46107308481E+03  0.36297938236E+04  0.36003909249E+04 0.  0.
        4    1    3    3  502    0 -0.12600603382E+04 -0.12855656693E+04 -0.24713135008E+03  0.18170048605E+04  0.12699999809E+01 0. -1.
       -4    1    3    3    0  502  0.12600603382E+04  0.12855656693E+04 -0.21394173473E+03  0.18127889631E+04  0.12699999809E+01 0.  1.
</event>
<event>
 5   0  0.8024500E-09  0.3600442E+04  0.7818609E-02  0.8090391E-01
       -1   -1    0    0    0  501  0.00000000000E+00  0.00000000000E+00  0.14632769235E+04  0.14632769235E+04  0.50400001928E-02 0.  1.
        1   -1    0    0  501    0  0.00000000000E+00  0.00000000000E+00 -0.22147518582E+04  0.22147518582E+04  0.50400001928E-02 0. -1.
    10030    2    1    2    0    0  0.00000000000E+00  0.00000000000E+00 -0.75147493466E+03  0.36780287817E+04  0.36004417981E+04 0.  0.
        5    1    3    3  502    0  0.62221874447E+03 -0.75231018399E+03 -0.19208274557E+04  0.21546988150E+04  0.46999998093E+01 0. -1.
       -5    1    3    3    0  502 -0.62221874447E+03  0.75231018399E+03  0.11693525210E+04  0.15233299667E+04  0.46999998093E+01 0.  1.
</event>
<event>
 5   0  0.2476968E-08  0.3598810E+04  0.7818609E-02  0.8090764E-01
       -2   -1    0    0    0  501  0.00000000000E+00  0.00000000000E+00  0.14812119631E+04  0.14812119631E+04  0.25500000920E-02 0. -1.
        2   -1    0    0  501    0  0.00000000000E+00  0.00000000000E+00 -0.21859524107E+04  0.21859524107E+04  0.25500000920E-02 0.  1.
    10030    2    1    2    0    0  0.00000000000E+00  0.00000000000E+00 -0.70474044768E+03  0.36671643738E+04  0.35988102820E+04 0.  0.
        2    1    3    3  502    0 -0.42621941299E+03  0.72250704762E+03 -0.19745168431E+04  0.21453195998E+04  0.25500000920E-02 0.  1.
       -2    1    3    3    0  502  0.42621941299E+03 -0.72250704762E+03  0.12697763954E+04  0.15218447740E+04  0.25500000920E-02 0. -1.
</event>
<event>
 5   0  0.8024500E-09  0.3601191E+04  0.7818609E-02  0.8090219E-01
        1   -1    0    0  501    0  0.00000000000E+00  0.00000000000E+00  0.18199482780E+04  0.18199482780E+04  0.50400001928E-02 0. -1.
       -1   -1    0    0    0  501  0.00000000000E+00  0.00000000000E+00 -0.17814482936E+04  0.17814482936E+04  0.50400001928E-02 0.  1.
    10030    2    1    2    0    0  0.00000000000E+00  0.00000000000E+00  0.38499984362E+02  0.36013965717E+04  0.36011907777E+04 0.  0.
        1    1    3    3  502    0 -0.27625676651E+03 -0.12293231237E+04  0.13056324093E+04  0.18144500907E+04  0.50400001928E-02 0. -1.
       -1    1    3    3    0  502  0.27625676651E+03  0.12293231237E+04 -0.12671324249E+04  0.17869464810E+04  0.50400001928E-02 0.  1.
</event>
<event>
 5   0  0.8024500E-09  0.3600548E+04  0.7818609E-02  0.8090366E-01
        1   -1    0    0  501    0  0.00000000000E+00  0.00000000000E+00  0.13927648533E+04  0.13927648533E+04  0.50400001928E-02 0. -1.
       -1   -1    0    0    0  501  0.00000000000E+00  0.00000000000E+00 -0.23270160294E+04  0.23270160294E+04  0.50400001928E-02 0.  1.
    10030    2    1    2    0    0  0.00000000000E+00  0.00000000000E+00 -0.93425117611E+03  0.37197808827E+04  0.36005478133E+04 0.  0.
        1    1    3    3  502    0  0.11202823018E+04  0.10589127097E+04 -0.14277881171E+04  0.21011681203E+04  0.50400001928E-02 0.  1.
       -1    1    3    3    0  502 -0.11202823018E+04 -0.10589127097E+04  0.49353694101E+03  0.16186127624E+04  0.50400001928E-02 0. -1.
</event>
<event>
 5   0  0.8024500E-09  0.3581767E+04  0.7818609E-02  0.8094681E-01
       -1   -1    0    0    0  501  0.00000000000E+00  0.00000000000E+00  0.33085002858E+04  0.33085002859E+04  0.50400001928E-02 0.  1.
        1   -1    0    0  501    0  0.00000000000E+00  0.00000000000E+00 -0.96940091930E+03  0.96940091931E+03  0.50400001928E-02 0. -1.
    10030    2    1    2    0    0  0.00000000000E+00  0.00000000000E+00  0.23390993665E+04  0.42779012052E+04  0.35817667253E+04 0.  0.
        1    1    3    3  502    0 -0.32879469967E+03 -0.38483842517E+03 -0.88218984919E+03  0.10170867702E+04  0.50400001928E-02 0. -1.
       -1    1    3    3    0  502  0.32879469967E+03  0.38483842517E+03  0.32212892157E+04  0.32608144350E+04  0.50400001928E-02 0.  1.
</event>
<event>
 5   0  0.2590795E-08  0.3600596E+04  0.7818609E-02  0.8090355E-01
        2   -1    0    0  501    0  0.00000000000E+00  0.00000000000E+00  0.28934332361E+04  0.28934332361E+04  0.25500000920E-02 0. -1.
       -2   -1    0    0    0  501  0.00000000000E+00  0.00000000000E+00 -0.11201475416E+04  0.11201475416E+04  0.25500000920E-02 0.  1.
    10030    2    1    2    0    0  0.00000000000E+00  0.00000000000E+00  0.17732856945E+04  0.40135807777E+04  0.36005955764E+04 0.  0.
        4    1    3    3  502    0  0.17343903306E+04 -0.17971658595E+02  0.14242904642E+04  0.22443345871E+04  0.12699999809E+01 0. -1.
       -4    1    3    3    0  502 -0.17343903306E+04  0.17971658595E+02  0.34899523026E+03  0.17692461906E+04  0.12699999809E+01 0.  1.
</event>
<event>
 5   0  0.8247570E-09  0.3598583E+04  0.7818609E-02  0.8090816E-01
       -1   -1    0    0    0  501  0.00000000000E+00  0.00000000000E+00  0.13157392506E+04  0.13157392506E+04  0.50400001928E-02 0.  1.
        1   -1    0    0  501    0  0.00000000000E+00  0.00000000000E+00 -0.24605556369E+04  0.24605556369E+04  0.50400001928E-02 0. -1.
    10030    2    1    2    0    0  0.00000000000E+00  0.00000000000E+00 -0.11448163862E+04  0.37762948875E+04  0.35985828488E+04 0.  0.
        3    1    3    3  502    0  0.61401898530E+02 -0.13388050901E+04 -0.18322285707E+04  0.22700728640E+04  0.10100000352E+00 0. -1.
       -3    1    3    3    0  502 -0.61401898530E+02  0.13388050901E+04  0.68741218448E+03  0.15062220235E+04  0.10100000352E+00 0.  1.
</event>
<event>
 5   0  0.2590795E-08  0.3603080E+04  0.7818609E-02  0.8089787E-01
        2   -1    0    0  501    0  0.00000000000E+00  0.00000000000E+00  0.14373493372E+04  0.14373493372E+04  0.25500000920E-02 0.  1.
       -2   -1    0    0    0  501  0.00000000000E+00  0.00000000000E+00 -0.22580078427E+04  0.22580078427E+04  0.25500000920E-02 0. -1.
    10030    2    1    2    0    0  0.00000000000E+00  0.00000000000E+00 -0.82065850551E+03  0.36953571798E+04  0.36030798359E+04 0.  0.
        4    1    3    3  502    0 -0.16610090474E+04 -0.56672065087E+03 -0.82746557133E+03  0.19403154992E+04  0.12699999809E+01 0. -1.
       -4    1    3    3    0  502  0.16610090474E+04  0.56672065087E+03  0.68070658163E+01  0.17550416806E+04  0.12699999809E+01 0.  1.
</event>
<event>
 5   0  0.2608070E-08  0.3600162E+04  0.7818609E-02  0.8090455E-01
        2   -1    0    0  501    0  0.00000000000E+00  0.00000000000E+00  0.25444459407E+04  0.25444459407E+04  0.25500000920E-02 0. -1.
       -2   -1    0    0    0  501  0.00000000000E+00  0.00000000000E+00 -0.12734761592E+04  0.12734761592E+04  0.25500000920E-02 0.  1.
    10030    2    1    2    0    0  0.00000000000E+00  0.00000000000E+00  0.12709697815E+04  0.38179220999E+04  0.36001617985E+04 0.  0.
        3    1    3    3  502    0  0.13099080321E+04 -0.11903267901E+04  0.98327638859E+03  0.20247393379E+04  0.10100000352E+00 0.  1.
       -3    1    3    3    0  502 -0.13099080321E+04  0.11903267901E+04  0.28769339292E+03  0.17931827621E+04  0.10100000352E+00 0. -1.
</event>
<event>
 5   0  0.2494592E-08  0.3599205E+04  0.7818609E-02  0.8090674E-01
        2   -1    0    0  501    0  0.00000000000E+00  0.00000000000E+00  0.22531412523E+04  0.22531412523E+04  0.25500000920E-02 0. -1.
       -2   -1    0    0    0  501  0.00000000000E+00  0.00000000000E+00 -0.14373571078E+04  0.14373571078E+04  0.25500000920E-02 0.  1.
    10030    2    1    2    0    0  0.00000000000E+00  0.00000000000E+00  0.81578414451E+03  0.36904983601E+04  0.35992046865E+04 0.  0.
        1    1    3    3  502    0 -0.62795938834E+03  0.15109683296E+04 -0.36024953613E+03  0.16754515853E+04  0.50400001928E-02 0.  1.
       -1    1    3    3    0  502  0.62795938834E+03 -0.15109683296E+04  0.11760336806E+04  0.20150467748E+04  0.50400001928E-02 0. -1.
</event>
<event>
 5   0  0.2590795E-08  0.3599463E+04  0.7818609E-02  0.8090615E-01
       -2   -1    0    0    0  501  0.00000000000E+00  0.00000000000E+00  0.13445898124E+04  0.13445898124E+04  0.25500000920E-02 0. -1.
        2   -1    0    0  501    0  0.00000000000E+00  0.00000000000E+00 -0.24089379441E+04  0.24089379441E+04  0.25500000920E-02 0.  1.
    10030    2    1    2    0    0  0.00000000000E+00  0.00000000000E+00 -0.10643481317E+04  0.37535277566E+04  0.35994629702E+04 0.  0.
        4    1    3    3  502    0  0.52827061831E+02  0.17552052797E+04 -0.94338142734E+03  0.19933655968E+04  0.12699999809E+01 0.  1.
       -4    1    3    3    0  502 -0.52827061831E+02 -0.17552052797E+04 -0.12096670437E+03  0.17601621598E+04  0.12699999809E+01 0. -1.
</event>
<event>
 5   0  0.8247570E-09  0.3600072E+04  0.7818609E-02  0.8090475E-01
        1   -1    0    0  501    0  0.00000000000E+00  0.00000000000E+00  0.16605949752E+04  0.16605949752E+04  0.50400001928E-02 0. -1.
       -1   -1    0    0    0  501  0.00000000000E+00  0.00000000000E+00 -0.19511861265E+04  0.19511861265E+04  0.50400001928E-02 0.  1.
    10030    2    1    2    0    0  0.00000000000E+00  0.00000000000E+00 -0.29059115128E+03  0.36117811018E+04  0.36000721534E+04 0.  0.
        3    1    3    3  502    0 -0.10866187704E+03 -0.66114202280E+03  0.15308307969E+04  0.16710353427E+04  0.10100000352E+00 0. -1.
       -3    1    3    3    0  502  0.10866187704E+03  0.66114202280E+03 -0.18214219482E+04  0.19407457590E+04  0.10100000352E+00 0.  1.
</event>
<event>
 5   0  0.2608070E-08  0.3600713E+04  0.7818609E-02  0.8090328E-01
        2   -1    0    0  501    0  0.00000000000E+00  0.00000000000E+00  0.19775879247E+04  0.19775879247E+04  0.25500000920E-02 0. -1.
       -2   -1    0    0    0  501  0.00000000000E+00  0.00000000000E+00 -0.16390081525E+04  0.16390081525E+04  0.25500000920E-02 0.  1.
    10030    2    1    2    0    0  0.00000000000E+00  0.00000000000E+00  0.33857977224E+03  0.36165960772E+04  0.36007125577E+04 0.  0.
        3    1    3    3  502    0 -0.11699381500E+04  0.42775013976E+03  0.14748534209E+04  0.19305227479E+04  0.10100000352E+00 0. -1.
       -3    1    3    3    0  502  0.11699381500E+04 -0.42775013976E+03 -0.11362736487E+04  0.16860733293E+04  0.10100000352E+00 0.  1.
</event>
<event>
 5   0  0.8247570E-09  0.3600440E+04  0.7818609E-02  0.8090391E-01
        1   -1    0    0  501    0  0.00000000000E+00  0.00000000000E+00  0.26862441447E+04  0.26862441447E+04  0.50400001928E-02 0.  1.
       -1   -1    0    0    0  501  0.00000000000E+00  0.00000000000E+00 -0.12064401673E+04  0.12064401673E+04  0.50400001928E-02 0. -1.
    10030    2    1    2    0    0  0.00000000000E+00  0.00000000000E+00  0.14798039774E+04  0.38926843120E+04  0.36004404372E+04 0.  0.
        3    1    3    3  502    0  0.10499311528E+04  0.13422320796E+04  0.13673996569E+04  0.21848854004E+04  0.10100000352E+00 0.  1.
       -3    1    3    3    0  502 -0.10499311528E+04 -0.13422320796E+04  0.11240432044E+03  0.17077989116E+04  0.10100000352E+00 0. -1.
</event>
<event>
 5   0  0.2590795E-08  0.3598947E+04  0.7818609E-02  0.8090733E-01
        2   -1    0    0  501    0  0.00000000000E+00  0.00000000000E+00  0.27386185675E+04  0.27386185675E+04  0.25500000920E-02 0. -1.
       -2   -1    0    0    0  501  0.00000000000E+00  0.00000000000E+00 -0.11823862404E+04  0.11823862405E+04  0.25500000920E-02 0.  1.
    10030    2    1    2    0    0  0.00000000000E+00  0.00000000000E+00  0.15562323270E+04  0.39210048079E+04  0.35989470193E+04 0.  0.
        4    1    3    3  502    0 -0.56978701509E+03  0.76152277732E+03  0.24424043616E+04  0.26210522431E+04  0.12699999809E+01 0. -1.
       -4    1    3    3    0  502  0.56978701509E+03 -0.76152277732E+03 -0.88617203455E+03  0.12999525648E+04  0.12699999809E+01 0.  1.
</event>
<event>
 5   0  0.2476968E-08  0.3600087E+04  0.7818609E-02  0.8090472E-01
       -2   -1    0    0    0  501  0.00000000000E+00  0.00000000000E+00  0.14478607036E+04  0.14478607036E+04  0.25500000920E-02 0.  1.
        2   -1    0    0  501    0  0.00000000000E+00  0.00000000000E+00 -0.22378920131E+04  0.22378920132E+04  0.25500000920E-02 0. -1.
    10030    2    1    2    0    0  0.00000000000E+00  0.00000000000E+00 -0.79003130953E+03  0.36857527168E+04  0.36000866127E+04 0.  0.
        2    1    3    3  502    0 -0.68081321550E+03  0.42607602796E+02  0.13104058612E+04  0.14773237842E+04  0.25500000920E-02 0.  1.
       -2    1    3    3    0  502  0.68081321550E+03 -0.42607602796E+02 -0.21004371707E+04  0.22084289326E+04  0.25500000920E-02 0. -1.
</event>
<event>
 5   0  0.2494592E-08  0.3599528E+04  0.7818609E-02  0.8090600E-01
       -2   -1    0    0    0  501  0.00000000000E+00  0.00000000000E+00  0.19422023915E+04  0.19422023915E+04  0.25500000920E-02 0.  1.
        2   -1    0    0  501    0  0.00000000000E+00  0.00000000000E+00 -0.16677723022E+04  0.16677723022E+04  0.25500000920E-02 0. -1.
    10030    2    1    2    0    0  0.00000000000E+00  0.00000000000E+00  0.27443008926E+03  0.36099746938E+04  0.35995284991E+04 0.  0.
        1    1    3    3  502    0  0.96781254072E+03  0.79653072119E+03 -0.11580550722E+04  0.17065209797E+04  0.50400001928E-02 0. -1.
       -1    1    3    3    0  502 -0.96781254072E+03 -0.79653072119E+03  0.14324851615E+04  0.19034537141E+04  0.50400001928E-02 0.  1.
</event>
<event>
 5   0  0.2608070E-08  0.3599033E+04  0.7818609E-02  0.8090713E-01
       -2   -1    0    0    0  501  0.00000000000E+00  0.00000000000E+00  0.24979974978E+04  0.24979974978E+04  0.25500000920E-02 0. -1.
        2   -1    0    0  501    0  0.00000000000E+00  0.00000000000E+00 -0.12963419879E+04  0.12963419879E+04  0.25500000920E-02 0.  1.
    10030    2    1    2    0    0  0.00000000000E+00  0.00000000000E+00  0.12016555098E+04  0.37943394857E+04  0.35990326712E+04 0.  0.
        3    1    3    3  502    0  0.22409910775E+03  0.17845577273E+04  0.66223223763E+03  0.19166163515E+04  0.10100000352E+00 0.  1.
       -3    1    3    3    0  502 -0.22409910775E+03 -0.17845577273E+04  0.53942327220E+03  0.18777231342E+04  0.10100000352E+00 0. -1.
</event>
<event>
 5   0  0.2476968E-08  0.3601192E+04  0.7818609E-02  0.8090219E-01
        2   -1    0    0  501    0  0.00000000000E+00  0.00000000000E+00  0.21468935716E+04  0.21468935716E+04  0.25500000920E-02 0.  1.
       -2   -1    0    0    0  501  0.00000000000E+00  0.00000000000E+00 -0.15101568600E+04  0.15101568600E+04  0.25500000920E-02 0. -1.
    10030    2    1    2    0    0  0.00000000000E+00  0.00000000000E+00  0.63673671160E+03  0.36570504317E+04  0.36011920554E+04 0.  0.
        2    1    3    3  502    0 -0.10824211754E+03  0.17654821975E+04 -0.23758380665E+02  0.17689568130E+04  0.25500000920E-02 0.  1.
       -2    1    3    3    0  502  0.10824211754E+03 -0.17654821975E+04  0.66049509226E+03  0.18880936186E+04  0.25500000920E-02 0. -1.
</event>
<event>
 5   0  0.8063410E-09  0.3600404E+04  0.7818609E-02  0.8090399E-01
        1   -1    0    0  501    0  0.00000000000E+00  0.00000000000E+00  0.33083433932E+04  0.33083433932E+04  0.50400001928E-02 0. -1.
       -1   -1    0    0    0  501  0.00000000000E+00  0.00000000000E+00 -0.97956182973E+03  0.97956182974E+03  0.50400001928E-02 0.  1.
    10030    2    1    2    0    0  0.00000000000E+00  0.00000000000E+00  0.23287815635E+04  0.42879052230E+04  0.36004038150E+04 0.  0.
        2    1    3    3  502    0 -0.33630283705E+03 -0.59499924855E+03 -0.81903580023E+03  0.10667442740E+04  0.25500000920E-02 0.  1.
       -2    1    3    3    0  502  0.33630283705E+03  0.59499924855E+03  0.31478173637E+04  0.32211609490E+04  0.25500000920E-02 0. -1.
</event>
<event>
 5   0  0.8063410E-09  0.3596988E+04  0.7818609E-02  0.8091182E-01
       -1   -1    0    0    0  501  0.00000000000E+00  0.00000000000E+00  0.12071978303E+04  0.12071978303E+04  0.50400001928E-02 0.  1.
        1   -1    0    0  501    0  0.00000000000E+00  0.00000000000E+00 -0.26794129042E+04  0.26794129042E+04  0.50400001928E-02 0. -1.
    10030    2    1    2    0    0  0.00000000000E+00  0.00000000000E+00 -0.14722150739E+04  0.38866107345E+04  0.35969884317E+04 0.  0.
        2    1    3    3  502    0  0.20146719504E+03  0.17782882022E+04 -0.92843817396E+03  0.20161585760E+04  0.25500000920E-02 0. -1.
       -2    1    3    3    0  502 -0.20146719504E+03 -0.17782882022E+04 -0.54377689991E+03  0.18704521586E+04  0.25500000920E-02 0.  1.
</event>
<event>
 5   0  0.8146881E-09  0.3599220E+04  0.7818609E-02  0.8090670E-01
        1   -1    0    0  501    0  0.00000000000E+00  0.00000000000E+00  0.15990480020E+04  0.15990480020E+04  0.50400001928E-02 0.  1.
       -1   -1    0    0    0  501  0.00000000000E+00  0.00000000000E+00 -0.20253273713E+04  0.20253273713E+04  0.50400001928E-02 0. -1.
    10030    2    1    2    0    0  0.00000000000E+00  0.00000000000E+00 -0.42627936934E+03  0.36243753733E+04  0.35992197412E+04 0.  0.
        4    1    3    3  502    0  0.91418858543E+03  0.54467729677E+03 -0.16745512680E+04  0.19840709890E+04  0.12699999809E+01 0. -1.
       -4    1    3    3    0  502 -0.91418858543E+03 -0.54467729677E+03  0.12482718986E+04  0.16403043843E+04  0.12699999809E+01 0.  1.
</event>
<event>
 5   0  0.8024500E-09  0.3600165E+04  0.7818609E-02  0.8090454E-01
       -1   -1    0    0    0  501  0.00000000000E+00  0.00000000000E+00  0.18536746606E+04  0.18536746606E+04  0.50400001928E-02 0. -1.
        1   -1    0    0  501    0  0.00000000000E+00  0.00000000000E+00 -0.17480402202E+04  0.17480402202E+04  0.50400001928E-02 0.  1.
    10030    2    1    2    0    0  0.00000000000E+00  0.00000000000E+00  0.10563444036E+03  0.36017148808E+04  0.36001654751E+04 0.  0.
        5    1    3    3  502    0  0.93325632014E+03 -0.15380813570E+04  0.11296091107E+03  0.18026213905E+04  0.46999998093E+01 0.  1.
       -5    1    3    3    0  502 -0.93325632014E+03  0.15380813570E+04 -0.73264707122E+01  0.17990934904E+04  0.46999998093E+01 0. -1.
</event>
<event>
 5   0  0.8024500E-09  0.3600324E+04  0.7818609E-02  0.8090417E-01
        1   -1    0    0  501    0  0.00000000000E+00  0.00000000000E+00  0.27765149019E+04  0.27765149019E+04  0.50400001928E-02 0. -1.
       -1   -1    0    0    0  501  0.00000000000E+00  0.00000000000E+00 -0.11671407173E+04  0.11671407173E+04  0.50400001928E-02 0.  1.
    10030    2    1    2    0    0  0.00000000000E+00  0.00000000000E+00  0.16093741846E+04  0.39436556192E+04  0.36003242044E+04 0.  0.
        5    1    3    3  502    0 -0.11122908137E+03  0.12955010073E+04  0.21683422251E+04  0.25283245171E+04  0.46999998093E+01 0. -1.
       -5    1    3    3    0  502  0.11122908137E+03 -0.12955010073E+04 -0.55896804049E+03  0.14153311021E+04  0.46999998093E+01 0.  1.
</event>
<event>
 5   0  0.2608070E-08  0.3595389E+04  0.7818609E-02  0.8091549E-01
       -2   -1    0    0    0  501  0.00000000000E+00  0.00000000000E+00  0.97903816632E+03  0.97903816633E+03  0.25500000920E-02 0.  1.
        2   -1    0    0  501    0  0.00000000000E+00  0.00000000000E+00 -0.33008977617E+04  0.33008977617E+04  0.25500000920E-02 0. -1.
    10030    2    1    2    0    0  0.00000000000E+00  0.00000000000E+00 -0.23218595954E+04  0.42799359280E+04  0.35953886532E+04 0.  0.
        3    1    3    3  502    0  0.43533382045E+03  0.13526329983E+04 -0.24717569476E+04  0.28510899637E+04  0.10100000352E+00 0. -1.
       -3    1    3    3    0  502 -0.43533382045E+03 -0.13526329983E+04  0.14989735219E+03  0.14288459643E+04  0.10100000352E+00 0.  1.
</event>
<event>
 5   0  0.2608070E-08  0.3599576E+04  0.7818609E-02  0.8090589E-01
        2   -1    0    0  501    0  0.00000000000E+00  0.00000000000E+00  0.16179980014E+04  0.16179980014E+04  0.25500000920E-02 0.  1.
       -2   -1    0    0    0  501  0.00000000000E+00  0.00000000000E+00 -0.20020029063E+04  0.20020029063E+04  0.25500000920E-02 0. -1.
    10030    2    1    2    0    0  0.00000000000E+00  0.00000000000E+00 -0.38400490494E+03  0.36200009077E+04  0.35995759202E+04 0.  0.
        3    1    3    3  502    0 -0.10781783798E+04  0.14348202930E+04 -0.56856894231E+02  0.17956643919E+04  0.10100000352E+00 0.  1.
       -3    1    3    3    0  502  0.10781783798E+04 -0.14348202930E+04 -0.32714801071E+03  0.18243365158E+04  0.10100000352E+00 0. -1.
</event>
<event>
 5   0  0.8024500E-09  0.3599676E+04  0.7818609E-02  0.8090566E-01
        3   -1    0    0  501    0  0.00000000000E+00  0.00000000000E+00  0.20118006341E+04  0.20118006366E+04  0.10100000352E+00 0. -1.
       -3   -1    0    0    0  501  0.00000000000E+00  0.00000000000E+00 -0.16102072824E+04  0.16102072856E+04  0.10100000352E+00 0.  1.
    10030    2    1    2    0    0  0.00000000000E+00  0.00000000000E+00  0.40159335172E+03  0.36220079222E+04  0.35996755643E+04 0.  0.
        4    1    3    3  502    0  0.10129126256E+04  0.10495540170E+04  0.12617856148E+04  0.19286420539E+04  0.12699999809E+01 0. -1.
       -4    1    3    3    0  502 -0.10129126256E+04 -0.10495540170E+04 -0.86019226307E+03  0.16933658683E+04  0.12699999809E+01 0.  1.
</event>
<event>
 5   0  0.2494592E-08  0.3599531E+04  0.7818609E-02  0.8090599E-01
        2   -1    0    0  501    0  0.00000000000E+00  0.00000000000E+00  0.23085982329E+04  0.23085982329E+04  0.25500000920E-02 0.  1.
       -2   -1    0    0    0  501  0.00000000000E+00  0.00000000000E+00 -0.14030836259E+04  0.14030836259E+04  0.25500000920E-02 0. -1.
    10030    2    1    2    0    0  0.00000000000E+00  0.00000000000E+00  0.90551460705E+03  0.37116818588E+04  0.35995312913E+04 0.  0.
        1    1    3    3  502    0  0.84334013308E+03  0.12532982094E+04 -0.55607971124E+03  0.16097215992E+04  0.50400001928E-02 0. -1.
       -1    1    3    3    0  502 -0.84334013308E+03 -0.12532982094E+04  0.14615943183E+04  0.21019602596E+04  0.50400001928E-02 0.  1.
</event>
<event>
 5   0  0.8063410E-09  0.3599425E+04  0.7818609E-02  0.8090623E-01
        1   -1    0    0  501    0  0.00000000000E+00  0.00000000000E+00  0.18970646841E+04  0.18970646841E+04  0.50400001928E-02 0. -1.
       -1   -1    0    0    0  501  0.00000000000E+00  0.00000000000E+00 -0.17073559838E+04  0.17073559838E+04  0.50400001928E-02 0.  1.
    10030    2    1    2    0    0  0.00000000000E+00  0.00000000000E+00  0.18970870030E+03  0.36044206679E+04  0.35994248096E+04 0.  0.
        2    1    3    3  502    0 -0.23594441316E+03 -0.18915902249E+03  0.18714401627E+04  0.18957160084E+04  0.25500000920E-02 0. -1.
       -2    1    3    3    0  502  0.23594441316E+03  0.18915902249E+03 -0.16817314624E+04  0.17087046595E+04  0.25500000920E-02 0.  1.
</event>
<event>
 5   0  0.2608070E-08  0.3598829E+04  0.7818609E-02  0.8090760E-01
        2   -1    0    0  501    0  0.00000000000E+00  0.00000000000E+00  0.14908904980E+04  0.14908904980E+04  0.25500000920E-02 0. -1.
       -2   -1    0    0    0  501  0.00000000000E+00  0.00000000000E+00 -0.21717848338E+04  0.21717848338E+04  0.25500000920E-02 0.  1.
    10030    2    1    2    0    0  0.00000000000E+00  0.00000000000E+00 -0.68089433582E+03  0.36626753319E+04  0.35988294611E+04 0.  0.
        3    1    3    3  502    0 -0.34038515884E+03  0.50009005167E+03 -0.20651923158E+04  0.21519691977E+04  0.10100000352E+00 0.  1.
       -3    1    3    3    0  502  0.34038515884E+03 -0.50009005167E+03  0.13842979800E+04  0.15107061342E+04  0.10100000352E+00 0. -1.
</event>
<event>
 5   0  0.2590795E-08  0.3599566E+04  0.7818609E-02  0.8090591E-01
        2   -1    0    0  501    0  0.00000000000E+00  0.00000000000E+00  0.33394754074E+04  0.33394754074E+04  0.25500000920E-02 0. -1.
       -2   -1    0    0    0  501  0.00000000000E+00  0.00000000000E+00 -0.96997821128E+03  0.96997821129E+03  0.25500000920E-02 0.  1.
    10030    2    1    2    0    0  0.00000000000E+00  0.00000000000E+00  0.23694971961E+04  0.43094536187E+04  0.35995657418E+04 0.  0.
        4    1    3    3  502    0  0.16140624118E+04  0.72676076479E+02  0.23544138901E+03  0.16327625491E+04  0.12699999809E+01 0.  1.
       -4    1    3    3    0  502 -0.16140624118E+04 -0.72676076479E+02  0.21340558071E+04  0.26766910696E+04  0.12699999809E+01 0. -1.
</event>
<event>
 5   0  0.2482243E-08  0.3600024E+04  0.7818609E-02  0.8090486E-01
       -2   -1    0    0    0  501  0.00000000000E+00  0.00000000000E+00  0.13559171936E+04  0.13559171936E+04  0.25500000920E-02 0. -1.
        2   -1    0    0  501    0  0.00000000000E+00  0.00000000000E+00 -0.23895582985E+04  0.23895582985E+04  0.25500000920E-02 0.  1.
    10030    2    1    2    0    0  0.00000000000E+00  0.00000000000E+00 -0.10336411049E+04  0.37454754922E+04  0.36000239900E+04 0.  0.
        5    1    3    3  502    0 -0.91815495685E+03 -0.14286955906E+04 -0.11374463856E+04  0.20440122273E+04  0.46999998093E+01 0.  1.
       -5    1    3    3    0  502  0.91815495685E+03  0.14286955906E+04  0.10380528067E+03  0.17014632649E+04  0.46999998093E+01 0. -1.
</event>
<event>
 5   0  0.8024500E-09  0.3601195E+04  0.7818609E-02  0.8090218E-01
       -1   -1    0    0    0  501  0.00000000000E+00  0.00000000000E+00  0.20839679239E+04  0.20839679239E+04  0.50400001928E-02 0.  1.
        1   -1    0    0  501    0  0.00000000000E+00  0.00000000000E+00 -0.15557583374E+04  0.15557583374E+04  0.50400001928E-02 0. -1.
    10030    2    1    2    0    0  0.00000000000E+00  0.00000000000E+00  0.52820958651E+03  0.36397262613E+04  0.36011945088E+04 0.  0.
        1    1    3    3  502    0 -0.14103179344E+04  0.10905894386E+04  0.51933093256E+03  0.18569024253E+04  0.50400001928E-02 0. -1.
       -1    1    3    3    0  502  0.14103179344E+04 -0.10905894386E+04  0.88786539489E+01  0.17828238360E+04  0.50400001928E-02 0.  1.
</event>
<event>
 5   0  0.8247570E-09  0.3599601E+04  0.7818609E-02  0.8090583E-01
        1   -1    0    0  501    0  0.00000000000E+00  0.00000000000E+00  0.24157174825E+04  0.24157174825E+04  0.50400001928E-02 0. -1.
       -1   -1    0    0    0  501  0.00000000000E+00  0.00000000000E+00 -0.13409190061E+04  0.13409190061E+04  0.50400001928E-02 0.  1.
    10030    2    1    2    0    0  0.00000000000E+00  0.00000000000E+00  0.10747984764E+04  0.37566364887E+04  0.35996008033E+04 0.  0.
        3    1    3    3  502    0 -0.16391692830E+03  0.13004136936E+04  0.18246333439E+04  0.22466044119E+04  0.10100000352E+00 0. -1.
       -3    1    3    3    0  502  0.16391692830E+03 -0.13004136936E+04 -0.74983486750E+03  0.15100320767E+04  0.10100000352E+00 0.  1.
</event>
<event>
 5   0  0.8146881E-09  0.3595989E+04  0.7818609E-02  0.8091411E-01
       -1   -1    0    0    0  501  0.00000000000E+00  0.00000000000E+00  0.11680817211E+04  0.11680817211E+04  0.50400001928E-02 0. -1.
        1   -1    0    0  501    0  0.00000000000E+00  0.00000000000E+00 -0.27676011127E+04  0.27676011127E+04  0.50400001928E-02 0.  1.
    10030    2    1    2    0    0  0.00000000000E+00  0.00000000000E+00 -0.15995193916E+04  0.39356828339E+04  0.35959890273E+04 0.  0.
        4    1    3    3  502    0  0.83637450705E+02  0.11902705539E+04 -0.22718221398E+04  0.25661092460E+04  0.12699999809E+01 0.  1.
       -4    1    3    3    0  502 -0.83637450705E+02 -0.11902705539E+04  0.67230274813E+03  0.13695735879E+04  0.12699999809E+01 0. -1.
</event>
<event>
 5   0  0.8024500E-09  0.3601314E+04  0.7818609E-02  0.8090191E-01
       -1   -1    0    0    0  501  0.00000000000E+00  0.00000000000E+00  0.16715959289E+04  0.16715959289E+04  0.50400001928E-02 0. -1.
        1   -1    0    0  501    0  0.00000000000E+00  0.00000000000E+00 -0.19396826641E+04  0.19396826641E+04  0.50400001928E-02 0.  1.
    10030    2    1    2    0    0  0.00000000000E+00  0.00000000000E+00 -0.26808673516E+03  0.36112785931E+04  0.36013140073E+04 0.  0.
        5    1    3    3  502    0  0.12891447347E+04  0.10155546313E+04 -0.87710530023E+03  0.18608012128E+04  0.46999998093E+01 0. -1.
       -5    1    3    3    0  502 -0.12891447347E+04 -0.10155546313E+04  0.60901856507E+03  0.17504773802E+04  0.46999998093E+01 0.  1.
</event>
<event>
 5   0  0.2608070E-08  0.3600390E+04  0.7818609E-02  0.8090402E-01
       -2   -1    0    0    0  501  0.00000000000E+00  0.00000000000E+00  0.23889663420E+04  0.23889663420E+04  0.25500000920E-02 0. -1.
        2   -1    0    0  501    0  0.00000000000E+00  0.00000000000E+00 -0.13565291836E+04  0.13565291836E+04  0.25500000920E-02 0.  1.
    10030    2    1    2    0    0  0.00000000000E+00  0.00000000000E+00  0.10324371584E+04  0.37454955256E+04  0.36003902908E+04 0.  0.
        3    1    3    3  502    0 -0.68785365259E+03  0.16240734043E+04  0.14121078689E+03  0.17693777342E+04  0.10100000352E+00 0. -1.
       -3    1    3    3    0  502  0.68785365259E+03 -0.16240734043E+04  0.89122637149E+03  0.19761177913E+04  0.10100000352E+00 0.  1.
</event>
<event>
 5   0  0.8063410E-09  0.3599510E+04  0.7818609E-02  0.8090604E-01
        1   -1    0    0  501    0  0.00000000000E+00  0.00000000000E+00  0.19875089026E+04  0.19875089026E+04  0.50400001928E-02 0. -1.
       -1   -1    0    0    0  501  0.00000000000E+00  0.00000000000E+00 -0.16297379529E+04  0.16297379529E+04  0.50400001928E-02 0.  1.
    10030    2    1    2    0    0  0.00000000000E+00  0.00000000000E+00  0.35777094967E+03  0.36172468555E+04  0.35995103502E+04 0.  0.
        2    1    3    3  502    0 -0.15946136252E+04  0.83221753910E+03  0.11742823038E+03  0.18025448775E+04  0.25500000920E-02 0. -1.
       -2    1    3    3    0  502  0.15946136252E+04 -0.83221753910E+03  0.24034271929E+03  0.18147019780E+04  0.25500000920E-02 0.  1.
</event>
<event>
 5   0  0.8146881E-09  0.3599268E+04  0.7818609E-02  0.8090659E-01
        1   -1    0    0  501    0  0.00000000000E+00  0.00000000000E+00  0.12242238013E+04  0.12242238013E+04  0.50400001928E-02 0.  1.
       -1   -1    0    0    0  501  0.00000000000E+00  0.00000000000E+00 -0.26454986115E+04  0.26454986115E+04  0.50400001928E-02 0. -1.
    10030    2    1    2    0    0  0.00000000000E+00  0.00000000000E+00 -0.14212748103E+04  0.38697224128E+04  0.35992679070E+04 0.  0.
        4    1    3    3  502    0  0.40087867027E+03 -0.17124277899E+04 -0.30043447307E+03  0.17842015383E+04  0.12699999809E+01 0.  1.
       -4    1    3    3    0  502 -0.40087867027E+03  0.17124277899E+04 -0.11208403372E+04  0.20855208745E+04  0.12699999809E+01 0. -1.
</event>
<event>
 5   0  0.8247570E-09  0.3599642E+04  0.7818609E-02  0.8090574E-01
       -1   -1    0    0    0  501  0.00000000000E+00  0.00000000000E+00  0.28290210574E+04  0.28290210574E+04  0.50400001928E-02 0.  1.
        1   -1    0    0  501    0  0.00000000000E+00  0.00000000000E+00 -0.11450449984E+04  0.11450449984E+04  0.50400001928E-02 0. -1.
    10030    2    1    2    0    0  0.00000000000E+00  0.00000000000E+00  0.16839760589E+04  0.39740660558E+04  0.35996424335E+04 0.  0.
        3    1    3    3  502    0  0.42366591611E+03 -0.11303234654E+04 -0.63187760631E+03  0.13624952346E+04  0.10100000352E+00 0. -1.
       -3    1    3    3    0  502 -0.42366591611E+03  0.11303234654E+04  0.23158536652E+04  0.26115708211E+04  0.10100000352E+00 0.  1.
</event>
<event>
 5   0  0.8146881E-09  0.3601239E+04  0.7818609E-02  0.8090208E-01
        1   -1    0    0  501    0  0.00000000000E+00  0.00000000000E+00  0.27279154606E+04  0.27279154606E+04  0.50400001928E-02 0.  1.
       -1   -1    0    0    0  501  0.00000000000E+00  0.00000000000E+00 -0.11885378991E+04  0.11885378991E+04  0.50400001928E-02 0. -1.
    10030    2    1    2    0    0  0.00000000000E+00  0.00000000000E+00  0.15393775615E+04  0.39164533597E+04  0.36012391815E+04 0.  0.
        4    1    3    3  502    0 -0.22039878747E+03 -0.16761114307E+04  0.14438729121E+04  0.22232174327E+04  0.12699999809E+01 0.  1.
       -4    1    3    3    0  502  0.22039878747E+03  0.16761114307E+04  0.95504649365E+02  0.16932359271E+04  0.12699999809E+01 0. -1.
</event>
<event>
 5   0  0.2476968E-08  0.3599996E+04  0.7818609E-02  0.8090493E-01
       -2   -1    0    0    0  501  0.00000000000E+00  0.00000000000E+00  0.22554612814E+04  0.22554612814E+04  0.25500000920E-02 0.  1.
        2   -1    0    0  501    0  0.00000000000E+00  0.00000000000E+00 -0.14365096922E+04  0.14365096922E+04  0.25500000920E-02 0. -1.
    10030    2    1    2    0    0  0.00000000000E+00  0.00000000000E+00  0.81895158917E+03  0.36919709736E+04  0.35999955506E+04 0.  0.
        2    1    3    3  502    0 -0.98307537618E+03 -0.10317490693E+04  0.15371358655E+04  0.20961226124E+04  0.25500000920E-02 0.  1.
       -2    1    3    3    0  502  0.98307537618E+03  0.10317490693E+04 -0.71818427632E+03  0.15958483612E+04  0.25500000920E-02 0. -1.
</event>
<event>
 5   0  0.2482243E-08  0.3601043E+04  0.7818609E-02  0.8090253E-01
       -2   -1    0    0    0  501  0.00000000000E+00  0.00000000000E+00  0.12124728923E+04  0.12124728923E+04  0.25500000920E-02 0. -1.
        2   -1    0    0  501    0  0.00000000000E+00  0.00000000000E+00 -0.26737735857E+04  0.26737735857E+04  0.25500000920E-02 0.  1.
    10030    2    1    2    0    0  0.00000000000E+00  0.00000000000E+00 -0.14613006934E+04  0.38862464779E+04  0.36010431781E+04 0.  0.
        5    1    3    3  502    0 -0.68511288591E+03 -0.16623460229E+04 -0.83349725508E+03  0.19817955824E+04  0.46999998093E+01 0.  1.
       -5    1    3    3    0  502  0.68511288591E+03  0.16623460229E+04 -0.62780343832E+03  0.19044508955E+04  0.46999998093E+01 0. -1.
</event>
<event>
 5   0  0.2608070E-08  0.3600016E+04  0.7818609E-02  0.8090488E-01
        2   -1    0    0  501    0  0.00000000000E+00  0.00000000000E+00  0.21336685974E+04  0.21336685974E+04  0.25500000920E-02 0. -1.
       -2   -1    0    0    0  501  0.00000000000E+00  0.00000000000E+00 -0.15185247458E+04  0.15185247458E+04  0.25500000920E-02 0.  1.
    10030    2    1    2    0    0  0.00000000000E+00  0.00000000000E+00  0.61514385161E+03  0.36521933432E+04  0.36000158692E+04 0.  0.
        3    1    3    3  502    0 -0.17718869774E+04 -0.31414065717E+03  0.35014128413E+03  0.18332666861E+04  0.10100000352E+00 0.  1.
       -3    1    3    3    0  502  0.17718869774E+04  0.31414065717E+03  0.26500256748E+03  0.18189266572E+04  0.10100000352E+00 0. -1.
</event>
<event>
 5   0  0.2482243E-08  0.3600624E+04  0.7818609E-02  0.8090349E-01
        2   -1    0    0  501    0  0.00000000000E+00  0.00000000000E+00  0.25236587194E+04  0.25236587194E+04  0.25500000920E-02 0. -1.
       -2   -1    0    0    0  501  0.00000000000E+00  0.00000000000E+00 -0.12842951691E+04  0.12842951691E+04  0.25500000920E-02 0.  1.
    10030    2    1    2    0    0  0.00000000000E+00  0.00000000000E+00  0.12393635503E+04  0.38079538885E+04  0.36006236692E+04 0.  0.
        5    1    3    3  502    0  0.17074450034E+04  0.54568905127E+03  0.79650878446E+03  0.19615283108E+04  0.46999998093E+01 0. -1.
       -5    1    3    3    0  502 -0.17074450034E+04 -0.54568905127E+03  0.44285476579E+03  0.18464255777E+04  0.46999998093E+01 0.  1.
</event>
<event>
 5   0  0.8146881E-09  0.3600596E+04  0.7818609E-02  0.8090355E-01
        1   -1    0    0  501    0  0.00000000000E+00  0.00000000000E+00  0.19130817332E+04  0.19130817332E+04  0.50400001928E-02 0. -1.
       -1   -1    0    0    0  501  0.00000000000E+00  0.00000000000E+00 -0.16941631135E+04  0.16941631135E+04  0.50400001928E-02 0.  1.
    10030    2    1    2    0    0  0.00000000000E+00  0.00000000000E+00  0.21891861974E+03  0.36072448467E+04  0.36005957871E+04 0.  0.
        4    1    3    3  502    0 -0.36798058736E+03  0.21231452995E+03 -0.16432237317E+04  0.16972545530E+04  0.12699999809E+01 0.  1.
       -4    1    3    3    0  502  0.36798058736E+03 -0.21231452995E+03  0.18621423514E+04  0.19099902937E+04  0.12699999809E+01 0. -1.
</event>
<event>
 5   0  0.8024500E-09  0.3597990E+04  0.7818609E-02  0.8090952E-01
        1   -1    0    0  501    0  0.00000000000E+00  0.00000000000E+00  0.19816780114E+04  0.19816780114E+04  0.50400001928E-02 0.  1.
       -1   -1    0    0    0  501  0.00000000000E+00  0.00000000000E+00 -0.16331525997E+04  0.16331525997E+04  0.50400001928E-02 0. -1.
    10030    2    1    2    0    0  0.00000000000E+00  0.00000000000E+00  0.34852541171E+03  0.36148306110E+04  0.35979897698E+04 0.  0.
        5    1    3    3  502    0  0.13119486802E+03  0.26133612804E+03 -0.16091096004E+04  0.16354707155E+04  0.46999998093E+01 0. -1.
       -5    1    3    3    0  502 -0.13119486802E+03 -0.26133612804E+03  0.19576350121E+04  0.19793598955E+04  0.46999998093E+01 0.  1.
</event>
<event>
 5   0  0.8247570E-09  0.3600476E+04  0.7818609E-02  0.8090383E-01
        1   -1    0    0  501    0  0.00000000000E+00  0.00000000000E+00  0.10747882555E+04  0.10747882555E+04  0.50400001928E-02 0.  1.
       -1   -1    0    0    0  501  0.00000000000E+00  0.00000000000E+00 -0.30153437494E+04  0.30153437494E+04  0.50400001928E-02 0. -1.
    10030    2    1    2    0    0  0.00000000000E+00  0.00000000000E+00 -0.19405554939E+04  0.40901320048E+04  0.36004755508E+04 0.  0.
        3    1    3    3  502    0 -0.37279425413E+03  0.14806588383E+03  0.10233762301E+04  0.10991805950E+04  0.10100000352E+00 0.  1.
       -3    1    3    3    0  502  0.37279425413E+03 -0.14806588383E+03 -0.29639317239E+04  0.29909514099E+04  0.10100000352E+00 0. -1.
</event>
<event>
 5   0  0.8024500E-09  0.3599661E+04  0.7818609E-02  0.8090569E-01
       -1   -1    0    0    0  501  0.00000000000E+00  0.00000000000E+00  0.21643093881E+04  0.21643093881E+04  0.50400001928E-02 0.  1.
        1   -1    0    0  501    0  0.00000000000E+00  0.00000000000E+00 -0.14967311041E+04  0.14967311041E+04  0.50400001928E-02 0. -1.
    10030    2    1    2    0    0  0.00000000000E+00  0.00000000000E+00  0.66757828400E+03  0.36610404922E+04  0.35996606396E+04 0.  0.
        5    1    3    3  502    0 -0.15203610359E+03  0.55863599789E+03  0.20670127018E+04  0.21465676682E+04  0.46999998093E+01 0.  1.
       -5    1    3    3    0  502  0.15203610359E+03 -0.55863599789E+03 -0.13994344178E+04  0.15144728240E+04  0.46999998093E+01 0. -1.
</event>
<event>
 5   0  0.2476968E-08  0.3599362E+04  0.7818609E-02  0.8090638E-01
       -2   -1    0    0    0  501  0.00000000000E+00  0.00000000000E+00  0.24698313863E+04  0.24698313863E+04  0.25500000920E-02 0. -1.
        2   -1    0    0  501    0  0.00000000000E+00  0.00000000000E+00 -0.13113657391E+04  0.13113657391E+04  0.25500000920E-02 0.  1.
    10030    2    1    2    0    0  0.00000000000E+00  0.00000000000E+00  0.11584656472E+04  0.37811971255E+04  0.35993623110E+04 0.  0.
        2    1    3    3  502    0 -0.14751033314E+04 -0.97509875099E+03  0.22749752593E+03  0.17828355327E+04  0.25500000920E-02 0.  1.
       -2    1    3    3    0  502  0.14751033314E+04  0.97509875099E+03  0.93096812129E+03  0.19983615927E+04  0.25500000920E-02 0. -1.
</event>
<event>
 5   0  0.2608070E-08  0.3600077E+04  0.7818609E-02  0.8090474E-01
       -2   -1    0    0    0  501  0.00000000000E+00  0.00000000000E+00  0.16712047190E+04  0.16712047190E+04  0.25500000920E-02 0. -1.
        2   -1    0    0  501    0  0.00000000000E+00  0.00000000000E+00 -0.19388041105E+04  0.19388041105E+04  0.25500000920E-02 0.  1.
    10030    2    1    2    0    0  0.00000000000E+00  0.00000000000E+00 -0.26759939143E+03  0.36100088295E+04  0.36000769873E+04 0.  0.
        3    1    3    3  502    0  0.53884804816E+03 -0.13050085721E+04  0.98585311194E+03  0.17220078283E+04  0.10100000352E+00 0. -1.
       -3    1    3    3    0  502 -0.53884804816E+03  0.13050085721E+04 -0.12534525034E+04  0.18880010012E+04  0.10100000352E+00 0.  1.
</event>
<event>
 5   0  0.2608070E-08  0.3599292E+04  0.7818609E-02  0.8090654E-01
       -2   -1    0    0    0  501  0.00000000000E+00  0.00000000000E+00  0.11978436906E+04  0.11978436906E+04  0.25500000920E-02 0.  1.
        2   -1    0    0  501    0  0.00000000000E+00  0.00000000000E+00 -0.27037968853E+04  0.27037968853E+04  0.25500000920E-02 0. -1.
    10030    2    1    2    0    0  0.00000000000E+00  0.00000000000E+00 -0.15059531947E+04  0.39016405760E+04  0.35992921748E+04 0.  0.
        3    1    3    3  502    0  0.75413734081E+03 -0.12041772972E+04  0.44432328952E+03  0.14886871020E+04  0.10100000352E+00 0.  1.
       -3    1    3    3    0  502 -0.75413734081E+03  0.12041772972E+04 -0.19502764843E+04  0.24129534739E+04  0.10100000352E+00 0. -1.
</event>
<event>
 5   0  0.8063410E-09  0.3600447E+04  0.7818609E-02  0.8090389E-01
       -1   -1    0    0    0  501  0.00000000000E+00  0.00000000000E+00  0.15909591285E+04  0.15909591285E+04  0.50400001928E-02 0. -1.
        1   -1    0    0  501    0  0.00000000000E+00  0.00000000000E+00 -0.20370136841E+04  0.20370136841E+04  0.50400001928E-02 0.  1.
    10030    2    1    2    0    0  0.00000000000E+00  0.00000000000E+00 -0.44605455560E+03  0.36279728126E+04  0.36004474809E+04 0.  0.
        2    1    3    3  502    0 -0.86633483750E+03  0.10048361599E+04 -0.14491178899E+04  0.19647326581E+04  0.25500000920E-02 0.  1.
       -2    1    3    3    0  502  0.86633483750E+03 -0.10048361599E+04  0.10030633343E+04  0.16632401545E+04  0.25500000920E-02 0. -1.
</event>
<event>
 5   0  0.2590795E-08  0.3600927E+04  0.7818609E-02  0.8090279E-01
       -2   -1    0    0    0  501  0.00000000000E+00  0.00000000000E+00  0.15787288253E+04  0.15787288253E+04  0.25500000920E-02 0.  1.
        2   -1    0    0  501    0  0.00000000000E+00  0.00000000000E+00 -0.20533414140E+04  0.20533414140E+04  0.25500000920E-02 0. -1.
    10030    2    1    2    0    0  0.00000000000E+00  0.00000000000E+00 -0.47461258867E+03  0.36320702393E+04  0.36009272576E+04 0.  0.
        4    1    3    3  502    0 -0.42328813405E+03  0.14567274456E+04 -0.12154562282E+04  0.19438526567E+04  0.12699999809E+01 0. -1.
       -4    1    3    3    0  502  0.42328813405E+03 -0.14567274456E+04  0.74084363953E+03  0.16882175827E+04  0.12699999809E+01 0.  1.
</event>
<event>
 5   0  0.2608070E-08  0.3596933E+04  0.7818609E-02  0.8091195E-01
        2   -1    0    0  501    0  0.00000000000E+00  0.00000000000E+00  0.23781713775E+04  0.23781713775E+04  0.25500000920E-02 0.  1.
       -2   -1    0    0    0  501  0.00000000000E+00  0.00000000000E+00 -0.13600705580E+04  0.13600705580E+04  0.25500000920E-02 0. -1.
    10030    2    1    2    0    0  0.00000000000E+00  0.00000000000E+00  0.10181008195E+04  0.37382419355E+04  0.35969325112E+04 0.  0.
        3    1    3    3  502    0  0.17929496176E+03  0.14155920197E+04  0.16467879032E+04  0.21789809218E+04  0.10100000352E+00 0.  1.
       -3    1    3    3    0  502 -0.17929496176E+03 -0.14155920197E+04 -0.62868708368E+03  0.15592610137E+04  0.10100000352E+00 0. -1.
</event>
<event>
 5   0  0.2608070E-08  0.3600990E+04  0.7818609E-02  0.8090265E-01
        2   -1    0    0  501    0  0.00000000000E+00  0.00000000000E+00  0.19692095490E+04  0.19692095490E+04  0.25500000920E-02 0. -1.
       -2   -1    0    0    0  501  0.00000000000E+00  0.00000000000E+00 -0.16462348438E+04  0.16462348438E+04  0.25500000920E-02 0.  1.
    10030    2    1    2    0    0  0.00000000000E+00  0.00000000000E+00  0.32297470523E+03  0.36154443928E+04  0.36009895164E+04 0.  0.
        3    1    3    3  502    0 -0.10039102236E+04 -0.45664028137E+03  0.15903745415E+04  0.19353674783E+04  0.10100000352E+00 0. -1.
       -3    1    3    3    0  502  0.10039102236E+04  0.45664028137E+03 -0.12673998362E+04  0.16800769145E+04  0.10100000352E+00 0.  1.
</event>
<event>
 5   0  0.2608070E-08  0.3604188E+04  0.7818609E-02  0.8089533E-01
       -2   -1    0    0    0  501  0.00000000000E+00  0.00000000000E+00  0.15480633239E+04  0.15480633239E+04  0.25500000920E-02 0.  1.
        2   -1    0    0  501    0  0.00000000000E+00  0.00000000000E+00 -0.20978098811E+04  0.20978098811E+04  0.25500000920E-02 0. -1.
    10030    2    1    2    0    0  0.00000000000E+00  0.00000000000E+00 -0.54974655720E+03  0.36458732050E+04  0.36041878627E+04 0.  0.
        3    1    3    3  502    0 -0.62188864125E+03 -0.33088182649E+03 -0.19527661955E+04  0.20759393271E+04  0.10100000352E+00 0. -1.
       -3    1    3    3    0  502  0.62188864125E+03  0.33088182649E+03  0.14030196383E+04  0.15699338779E+04  0.10100000352E+00 0.  1.
</event>
<event>
 5   0  0.2482243E-08  0.3596811E+04  0.7818609E-02  0.8091222E-01
        2   -1    0    0  501    0  0.00000000000E+00  0.00000000000E+00  0.19914563228E+04  0.19914563228E+04  0.25500000920E-02 0.  1.
       -2   -1    0    0    0  501  0.00000000000E+00  0.00000000000E+00 -0.16240691903E+04  0.16240691903E+04  0.25500000920E-02 0. -1.
    10030    2    1    2    0    0  0.00000000000E+00  0.00000000000E+00  0.36738713248E+03  0.36155255130E+04  0.35968112865E+04 0.  0.
        5    1    3    3  502    0 -0.76633563037E+03 -0.14090354659E+04  0.10013071315E+04  0.18908435430E+04  0.46999998093E+01 0.  1.
       -5    1    3    3    0  502  0.76633563037E+03  0.14090354659E+04 -0.63391999904E+03  0.17246819700E+04  0.46999998093E+01 0. -1.
</event>
<event>
 5   0  0.8247570E-09  0.3598304E+04  0.7818609E-02  0.8090880E-01
       -1   -1    0    0    0  501  0.00000000000E+00  0.00000000000E+00  0.11566295414E+04  0.11566295414E+04  0.50400001928E-02 0. -1.
        1   -1    0    0  501    0  0.00000000000E+00  0.00000000000E+00 -0.27986044857E+04  0.27986044857E+04  0.50400001928E-02 0.  1.
    10030    2    1    2    0    0  0.00000000000E+00  0.00000000000E+00 -0.16419749443E+04  0.39552340272E+04  0.35983043912E+04 0.  0.
        3    1    3    3  502    0  0.86411376646E+03  0.60213883256E+03  0.78236105025E+03  0.13120032768E+04  0.10100000352E+00 0. -1.
       -3    1    3    3    0  502 -0.86411376646E+03 -0.60213883256E+03 -0.24243359946E+04  0.26432307504E+04  0.10100000352E+00 0.  1.
</event>
<event>
 5   0  0.8063410E-09  0.3601145E+04  0.7818609E-02  0.8090229E-01
        1   -1    0    0  501    0  0.00000000000E+00  0.00000000000E+00  0.15139496634E+04  0.15139496634E+04  0.50400001928E-02 0.  1.
       -1   -1    0    0    0  501  0.00000000000E+00  0.00000000000E+00 -0.21414594628E+04  0.21414594628E+04  0.50400001928E-02 0. -1.
    10030    2    1    2    0    0  0.00000000000E+00  0.00000000000E+00 -0.62750979935E+03  0.36554091262E+04  0.36011452806E+04 0.  0.
        2    1    3    3  502    0 -0.72705886791E+03 -0.14935600496E+04  0.39149904042E+03  0.17066363754E+04  0.25500000920E-02 0.  1.
       -2    1    3    3    0  502  0.72705886791E+03  0.14935600496E+04 -0.10190088398E+04  0.19487727509E+04  0.25500000920E-02 0. -1.
</event>
<event>
 5   0  0.8146881E-09  0.3597785E+04  0.7818609E-02  0.8090999E-01
        1   -1    0    0  501    0  0.00000000000E+00  0.00000000000E+00  0.23729063896E+04  0.23729063896E+04  0.50400001928E-02 0.  1.
       -1   -1    0    0    0  501  0.00000000000E+00  0.00000000000E+00 -0.13637346500E+04  0.13637346500E+04  0.50400001928E-02 0. -1.
    10030    2    1    2    0    0  0.00000000000E+00  0.00000000000E+00  0.10091717396E+04  0.37366410395E+04  0.35977852435E+04 0.  0.
        4    1    3    3  502    0 -0.41001992311E+03  0.34004591142E+03  0.22891158492E+04  0.23502766950E+04  0.12699999809E+01 0.  1.
       -4    1    3    3    0  502  0.41001992311E+03 -0.34004591142E+03 -0.12799441096E+04  0.13863643445E+04  0.12699999809E+01 0. -1.
</event>
<event>
 5   0  0.2608070E-08  0.3596545E+04  0.7818609E-02  0.8091283E-01
       -2   -1    0    0    0  501  0.00000000000E+00  0.00000000000E+00  0.17549267349E+04  0.17549267349E+04  0.25500000920E-02 0. -1.
        2   -1    0    0  501    0  0.00000000000E+00  0.00000000000E+00 -0.18426893517E+04  0.18426893517E+04  0.25500000920E-02 0.  1.
    10030    2    1    2    0    0  0.00000000000E+00  0.00000000000E+00 -0.87762616823E+02  0.35976160866E+04  0.35965454578E+04 0.  0.
        3    1    3    3  502    0  0.40605239335E+03 -0.12082513778E+04  0.12249736734E+04  0.17678547590E+04  0.10100000352E+00 0. -1.
       -3    1    3    3    0  502 -0.40605239335E+03  0.12082513778E+04 -0.13127362902E+04  0.18297613276E+04  0.10100000352E+00 0.  1.
</event>
<event>
 5   0  0.2608070E-08  0.3604552E+04  0.7818609E-02  0.8089450E-01
       -2   -1    0    0    0  501  0.00000000000E+00  0.00000000000E+00  0.16013217229E+04  0.16013217229E+04  0.25500000920E-02 0.  1.
        2   -1    0    0  501    0  0.00000000000E+00  0.00000000000E+00 -0.20284482730E+04  0.20284482730E+04  0.25500000920E-02 0. -1.
    10030    2    1    2    0    0  0.00000000000E+00  0.00000000000E+00 -0.42712655001E+03  0.36297699959E+04  0.36045517243E+04 0.  0.
        3    1    3    3  502    0  0.10382279324E+04 -0.13598368005E+04  0.35708018185E+03  0.17477355721E+04  0.10100000352E+00 0. -1.
       -3    1    3    3    0  502 -0.10382279324E+04  0.13598368005E+04 -0.78420673186E+03  0.18820344237E+04  0.10100000352E+00 0.  1.
</event>
<event>
 5   0  0.2494592E-08  0.3601029E+04  0.7818609E-02  0.8090256E-01
        2   -1    0    0  501    0  0.00000000000E+00  0.00000000000E+00  0.18373309237E+04  0.18373309237E+04  0.25500000920E-02 0.  1.
       -2   -1    0    0    0  501  0.00000000000E+00  0.00000000000E+00 -0.17644362035E+04  0.17644362035E+04  0.25500000920E-02 0. -1.
    10030    2    1    2    0    0  0.00000000000E+00  0.00000000000E+00  0.72894720142E+02  0.36017671272E+04  0.36010294081E+04 0.  0.
        1    1    3    3  502    0 -0.12101464646E+04 -0.11576095989E+04 -0.62500404252E+03  0.17874967140E+04  0.50400001928E-02 0. -1.
       -1    1    3    3    0  502  0.12101464646E+04  0.11576095989E+04  0.69789876266E+03  0.18142704132E+04  0.50400001928E-02 0.  1.
</event>
<event>
 5   0  0.8024500E-09  0.3601981E+04  0.7818609E-02  0.8090038E-01
        1   -1    0    0  501    0  0.00000000000E+00  0.00000000000E+00  0.23240838407E+04  0.23240838407E+04  0.50400001928E-02 0. -1.
       -1   -1    0    0    0  501  0.00000000000E+00  0.00000000000E+00 -0.13956322554E+04  0.13956322554E+04  0.50400001928E-02 0.  1.
    10030    2    1    2    0    0  0.00000000000E+00  0.00000000000E+00  0.92845158527E+03  0.37197160962E+04  0.36019807731E+04 0.  0.
        1    1    3    3  502    0 -0.18658903331E+03  0.16017436479E+03 -0.13782135944E+04  0.13999800022E+04  0.50400001928E-02 0.  1.
       -1    1    3    3    0  502  0.18658903331E+03 -0.16017436479E+03  0.23066651797E+04  0.23197360940E+04  0.50400001928E-02 0. -1.
</event>
<event>
 5   0  0.2476968E-08  0.3597565E+04  0.7818609E-02  0.8091050E-01
        2   -1    0    0  501    0  0.00000000000E+00  0.00000000000E+00  0.22007186535E+04  0.22007186535E+04  0.25500000920E-02 0.  1.
       -2   -1    0    0    0  501  0.00000000000E+00  0.00000000000E+00 -0.14702554321E+04  0.14702554321E+04  0.25500000920E-02 0. -1.
    10030    2    1    2    0    0  0.00000000000E+00  0.00000000000E+00  0.73046322144E+03  0.36709740856E+04  0.35975650403E+04 0.  0.
        2    1    3    3  502    0  0.49079404264E+03 -0.22494013899E+03  0.21160940193E+04  0.21838797488E+04  0.25500000920E-02 0.  1.
       -2    1    3    3    0  502 -0.49079404264E+03  0.22494013899E+03 -0.13856307979E+04  0.14870943368E+04  0.25500000920E-02 0. -1.
</event>
<event>
 5   0  0.2608070E-08  0.3594149E+04  0.7818609E-02  0.8091833E-01
       -2   -1    0    0    0  501  0.00000000000E+00  0.00000000000E+00  0.11737169983E+04  0.11737169983E+04  0.25500000920E-02 0.  1.
        2   -1    0    0  501    0  0.00000000000E+00  0.00000000000E+00 -0.27514952509E+04  0.27514952509E+04  0.25500000920E-02 0. -1.
    10030    2    1    2    0    0  0.00000000000E+00  0.00000000000E+00 -0.15777782527E+04  0.39252122492E+04  0.35941489934E+04 0.  0.
        3    1    3    3  502    0 -0.40655070893E+03  0.17077394955E+04 -0.36900224509E+03  0.17938284005E+04  0.10100000352E+00 0.  1.
       -3    1    3    3    0  502  0.40655070893E+03 -0.17077394955E+04 -0.12087760076E+04  0.21313838486E+04  0.10100000352E+00 0. -1.
</event>
<event>
 5   0  0.8024500E-09  0.3600749E+04  0.7818609E-02  0.8090320E-01
       -1   -1    0    0    0  501  0.00000000000E+00  0.00000000000E+00  0.10846931858E+04  0.10846931858E+04  0.50400001928E-02 0.  1.
        1   -1    0    0  501    0  0.00000000000E+00  0.00000000000E+00 -0.29882627707E+04  0.29882627707E+04  0.50400001928E-02 0. -1.
    10030    2    1    2    0    0  0.00000000000E+00  0.00000000000E+00 -0.19035695849E+04  0.40729559565E+04  0.36007489581E+04 0.  0.
        1    1    3    3  502    0  0.13650327428E+04 -0.39433771169E+03 -0.22024668657E+04  0.26210068513E+04  0.50400001928E-02 0. -1.
       -1    1    3    3    0  502 -0.13650327428E+04  0.39433771169E+03  0.29889728080E+03  0.14519491053E+04  0.50400001928E-02 0.  1.
</event>
<event>
 5   0  0.2590795E-08  0.3601726E+04  0.7818609E-02  0.8090096E-01
       -2   -1    0    0    0  501  0.00000000000E+00  0.00000000000E+00  0.16763285375E+04  0.16763285375E+04  0.25500000920E-02 0. -1.
        2   -1    0    0  501    0  0.00000000000E+00  0.00000000000E+00 -0.19346488889E+04  0.19346488889E+04  0.25500000920E-02 0.  1.
    10030    2    1    2    0    0  0.00000000000E+00  0.00000000000E+00 -0.25832035142E+03  0.36109774264E+04  0.36017257766E+04 0.  0.
        4    1    3    3  502    0  0.70230514739E+03  0.10461906931E+04 -0.14190722296E+04  0.18977658160E+04  0.12699999809E+01 0.  1.
       -4    1    3    3    0  502 -0.70230514739E+03 -0.10461906931E+04  0.11607518782E+04  0.17132116104E+04  0.12699999809E+01 0. -1.
</event>
<event>
 5   0  0.8024500E-09  0.3598704E+04  0.7818609E-02  0.8090789E-01
       -3   -1    0    0    0  501  0.00000000000E+00  0.00000000000E+00  0.20627107348E+04  0.20627107372E+04  0.10100000352E+00 0.  1.
        3   -1    0    0  501    0  0.00000000000E+00  0.00000000000E+00 -0.15696177426E+04  0.15696177459E+04  0.10100000352E+00 0. -1.
    10030    2    1    2    0    0  0.00000000000E+00  0.00000000000E+00  0.49309299213E+03  0.36323284831E+04  0.35987038654E+04 0.  0.
        3    1    3    3  502    0 -0.55540566609E+03  0.65465815911E+03  0.18426549132E+04  0.20328378929E+04  0.10100000352E+00 0.  1.
       -3    1    3    3    0  502  0.55540566609E+03 -0.65465815911E+03 -0.13495619211E+04  0.15994905903E+04  0.10100000352E+00 0. -1.
</event>
<event>
 5   0  0.2482243E-08  0.3600685E+04  0.7818609E-02  0.8090335E-01
        2   -1    0    0  501    0  0.00000000000E+00  0.00000000000E+00  0.17471970650E+04  0.17471970650E+04  0.25500000920E-02 0. -1.
       -2   -1    0    0    0  501  0.00000000000E+00  0.00000000000E+00 -0.18551042669E+04  0.18551042669E+04  0.25500000920E-02 0.  1.
    10030    2    1    2    0    0  0.00000000000E+00  0.00000000000E+00 -0.10790720188E+03  0.36023013319E+04  0.36006847851E+04 0.  0.
        5    1    3    3  502    0  0.16719468539E+04  0.42548906564E+03 -0.56873627404E+03  0.18165710189E+04  0.46999998093E+01 0.  1.
       -5    1    3    3    0  502 -0.16719468539E+04 -0.42548906564E+03  0.46082907216E+03  0.17857303131E+04  0.46999998093E+01 0. -1.
</event>
<event>
 5   0  0.2590795E-08  0.3598755E+04  0.7818609E-02  0.8090777E-01
       -2   -1    0    0    0  501  0.00000000000E+00  0.00000000000E+00  0.13733344389E+04  0.13733344389E+04  0.25500000920E-02 0. -1.
        2   -1    0    0  501    0  0.00000000000E+00  0.00000000000E+00 -0.23575893942E+04  0.23575893942E+04  0.25500000920E-02 0.  1.
    10030    2    1    2    0    0  0.00000000000E+00  0.00000000000E+00 -0.98425495527E+03  0.37309238331E+04  0.35987546223E+04 0.  0.
        4    1    3    3  502    0  0.11898387321E+04 -0.23131625873E+03 -0.18708307746E+04  0.22291776107E+04  0.12699999809E+01 0.  1.
       -4    1    3    3    0  502 -0.11898387321E+04  0.23131625873E+03  0.88657581936E+03  0.15017462223E+04  0.12699999809E+01 0. -1.
</event>
<event>
 5   0  0.2608070E-08  0.3599876E+04  0.7818609E-02  0.8090520E-01
        2   -1    0    0  501    0  0.00000000000E+00  0.00000000000E+00  0.13194141166E+04  0.13194141166E+04  0.25500000920E-02 0. -1.
       -2   -1    0    0    0  501  0.00000000000E+00  0.00000000000E+00 -0.24554663205E+04  0.24554663205E+04  0.25500000920E-02 0.  1.
    10030    2    1    2    0    0  0.00000000000E+00  0.00000000000E+00 -0.11360522040E+04  0.37748804371E+04  0.35998760679E+04 0.  0.
        3    1    3    3  502    0 -0.40079910694E+03 -0.11751878227E+04 -0.19344753907E+04  0.22986738330E+04  0.10100000352E+00 0.  1.
       -3    1    3    3    0  502  0.40079910694E+03  0.11751878227E+04  0.79842318678E+03  0.14762066042E+04  0.10100000352E+00 0. -1.
</event>
<event>
 5   0  0.2608070E-08  0.3599190E+04  0.7818609E-02  0.8090677E-01
        2   -1    0    0  501    0  0.00000000000E+00  0.00000000000E+00  0.14286625158E+04  0.14286625158E+04  0.25500000920E-02 0. -1.
       -2   -1    0    0    0  501  0.00000000000E+00  0.00000000000E+00 -0.22668349298E+04  0.22668349298E+04  0.25500000920E-02 0.  1.
    10030    2    1    2    0    0  0.00000000000E+00  0.00000000000E+00 -0.83817241406E+03  0.36954974456E+04  0.35991899609E+04 0.  0.
        3    1    3    3  502    0 -0.54076479050E+03  0.17011893692E+04 -0.65338119029E+03  0.19008889548E+04  0.10100000352E+00 0.  1.
       -3    1    3    3    0  502  0.54076479050E+03 -0.17011893692E+04 -0.18479122377E+03  0.17946084908E+04  0.10100000352E+00 0. -1.
</event>
<event>
 5   0  0.2590795E-08  0.3602247E+04  0.7818609E-02  0.8089977E-01
        2   -1    0    0  501    0  0.00000000000E+00  0.00000000000E+00  0.18137876032E+04  0.18137876032E+04  0.25500000920E-02 0.  1.
       -2   -1    0    0    0  501  0.00000000000E+00  0.00000000000E+00 -0.17885473716E+04  0.17885473716E+04  0.25500000920E-02 0. -1.
    10030    2    1    2    0    0  0.00000000000E+00  0.00000000000E+00  0.25240231597E+02  0.36023349749E+04  0.36022465493E+04 0.  0.
        4    1    3    3  502    0 -0.18789948649E+03 -0.84607104942E+03 -0.15663109750E+04  0.17901045000E+04  0.12699999809E+01 0. -1.
       -4    1    3    3    0  502  0.18789948649E+03  0.84607104942E+03  0.15915512066E+04  0.18122304748E+04  0.12699999809E+01 0.  1.
</event>
<event>
 5   0  0.2608070E-08  0.3594819E+04  0.7818609E-02  0.8091680E-01
       -2   -1    0    0    0  501  0.00000000000E+00  0.00000000000E+00  0.13967635808E+04  0.13967635808E+04  0.25500000920E-02 0. -1.
        2   -1    0    0  501    0  0.00000000000E+00  0.00000000000E+00 -0.23129760730E+04  0.23129760730E+04  0.25500000920E-02 0.  1.
    10030    2    1    2    0    0  0.00000000000E+00  0.00000000000E+00 -0.91621249218E+03  0.37097396539E+04  0.35948189062E+04 0.  0.
        3    1    3    3  502    0 -0.70776833548E+03 -0.73397525203E+03  0.10694249419E+04  0.14776080007E+04  0.10100000352E+00 0. -1.
       -3    1    3    3    0  502  0.70776833548E+03  0.73397525203E+03 -0.19856374340E+04  0.22321316531E+04  0.10100000352E+00 0.  1.
</event>
<event>
 5   0  0.8024500E-09  0.3599067E+04  0.7818609E-02  0.8090705E-01
        1   -1    0    0  501    0  0.00000000000E+00  0.00000000000E+00  0.14691610081E+04  0.14691610081E+04  0.50400001928E-02 0. -1.
       -1   -1    0    0    0  501  0.00000000000E+00  0.00000000000E+00 -0.22041977763E+04  0.22041977763E+04  0.50400001928E-02 0.  1.
    10030    2    1    2    0    0  0.00000000000E+00  0.00000000000E+00 -0.73503676821E+03  0.36733587844E+04  0.35990673387E+04 0.  0.
        5    1    3    3  502    0  0.10777877165E+04 -0.10168337664E+04 -0.14097341983E+04  0.20452261171E+04  0.46999998093E+01 0.  1.
       -5    1    3    3    0  502 -0.10777877165E+04  0.10168337664E+04  0.67469743009E+03  0.16281326673E+04  0.46999998093E+01 0. -1.
</event>
<event>
 5   0  0.2494592E-08  0.3600007E+04  0.7818609E-02  0.8090490E-01
        2   -1    0    0  501    0  0.00000000000E+00  0.00000000000E+00  0.23280866137E+04  0.23280866137E+04  0.25500000920E-02 0. -1.
       -2   -1    0    0    0  501  0.00000000000E+00  0.00000000000E+00 -0.13917065284E+04  0.13917065284E+04  0.25500000920E-02 0.  1.
    10030    2    1    2    0    0  0.00000000000E+00  0.00000000000E+00  0.93638008529E+03  0.37197931421E+04  0.36000074105E+04 0.  0.
        1    1    3    3  502    0  0.81095300020E+03 -0.10658112024E+03 -0.11885989331E+04  0.14428346154E+04  0.50400001928E-02 0.  1.
       -1    1    3    3    0  502 -0.81095300020E+03  0.10658112024E+03  0.21249790183E+04  0.22769585267E+04  0.50400001928E-02 0. -1.
</event>
<event>
 5   0  0.8247570E-09  0.3598318E+04  0.7818609E-02  0.8090877E-01
        1   -1    0    0  501    0  0.00000000000E+00  0.00000000000E+00  0.20167587212E+04  0.20167587212E+04  0.50400001928E-02 0. -1.
       -1   -1    0    0    0  501  0.00000000000E+00  0.00000000000E+00 -0.16050374506E+04  0.16050374506E+04  0.50400001928E-02 0.  1.
    10030    2    1    2    0    0  0.00000000000E+00  0.00000000000E+00  0.41172127062E+03  0.36217961718E+04  0.35983180939E+04 0.  0.
        3    1    3    3  502    0  0.36393449071E+03  0.17272034324E+04 -0.14468355929E+03  0.17710486592E+04  0.10100000352E+00 0.  1.
       -3    1    3    3    0  502 -0.36393449071E+03 -0.17272034324E+04  0.55640482992E+03  0.18507475126E+04  0.10100000352E+00 0. -1.
</event>
<event>
 5   0  0.2590795E-08  0.3594573E+04  0.7818609E-02  0.8091736E-01
        2   -1    0    0  501    0  0.00000000000E+00  0.00000000000E+00  0.20515183132E+04  0.20515183132E+04  0.25500000920E-02 0. -1.
       -2   -1    0    0    0  501  0.00000000000E+00  0.00000000000E+00 -0.15745604205E+04  0.15745604205E+04  0.25500000920E-02 0.  1.
    10030    2    1    2    0    0  0.00000000000E+00  0.00000000000E+00  0.47695789269E+03  0.36260787338E+04  0.35945734312E+04 0.  0.
        4    1    3    3  502    0 -0.20297619536E+03  0.12398764928E+03  0.20355715453E+04  0.20494207480E+04  0.12699999809E+01 0. -1.
       -4    1    3    3    0  502  0.20297619536E+03 -0.12398764928E+03 -0.15586136527E+04  0.15766579858E+04  0.12699999809E+01 0.  1.
</event>
<event>
 5   0  0.2590795E-08  0.3599711E+04  0.7818609E-02  0.8090558E-01
       -2   -1    0    0    0  501  0.00000000000E+00  0.00000000000E+00  0.15926469741E+04  0.15926469741E+04  0.25500000920E-02 0. -1.
        2   -1    0    0  501    0  0.00000000000E+00  0.00000000000E+00 -0.20340222510E+04  0.20340222510E+04  0.25500000920E-02 0.  1.
    10030    2    1    2    0    0  0.00000000000E+00  0.00000000000E+00 -0.44137527686E+03  0.36266692251E+04  0.35997107569E+04 0.  0.
        4    1    3    3  502    0 -0.49746498041E+03  0.47510490553E+03 -0.18963578237E+04  0.20172681245E+04  0.12699999809E+01 0.  1.
       -4    1    3    3    0  502  0.49746498041E+03 -0.47510490553E+03  0.14549825468E+04  0.16094011005E+04  0.12699999809E+01 0. -1.
</event>
<event>
 5   0  0.2590795E-08  0.3591486E+04  0.7818609E-02  0.8092445E-01
        2   -1    0    0  501    0  0.00000000000E+00  0.00000000000E+00  0.16742953465E+04  0.16742953465E+04  0.25500000920E-02 0. -1.
       -2   -1    0    0    0  501  0.00000000000E+00  0.00000000000E+00 -0.19260000593E+04  0.19260000593E+04  0.25500000920E-02 0.  1.
    10030    2    1    2    0    0  0.00000000000E+00  0.00000000000E+00 -0.25170471282E+03  0.36002954059E+04  0.35914860082E+04 0.  0.
        4    1    3    3  502    0  0.13866105478E+04 -0.45241247720E+03  0.92425012796E+03  0.17267326871E+04  0.12699999809E+01 0. -1.
       -4    1    3    3    0  502 -0.13866105478E+04  0.45241247720E+03 -0.11759548408E+04  0.18735627188E+04  0.12699999809E+01 0.  1.
</event>
<event>
 5   0  0.2494592E-08  0.3591375E+04  0.7818609E-02  0.8092470E-01
        2   -1    0    0  501    0  0.00000000000E+00  0.00000000000E+00  0.17717177364E+04  0.17717177364E+04  0.25500000920E-02 0.  1.
       -2   -1    0    0    0  501  0.00000000000E+00  0.00000000000E+00 -0.18199818290E+04  0.18199818290E+04  0.25500000920E-02 0. -1.
    10030    2    1    2    0    0  0.00000000000E+00  0.00000000000E+00 -0.48264092528E+02  0.35916995654E+04  0.35913752722E+04 0.  0.
        1    1    3    3  502    0 -0.16870510988E+04 -0.61359368169E+03 -0.67211105317E+02  0.17964286651E+04  0.50400001928E-02 0. -1.
       -1    1    3    3    0  502  0.16870510988E+04  0.61359368169E+03  0.18947012789E+02  0.17952709003E+04  0.50400001928E-02 0.  1.
</event>
<event>
 5   0  0.8146881E-09  0.3599191E+04  0.7818609E-02  0.8090677E-01
        1   -1    0    0  501    0  0.00000000000E+00  0.00000000000E+00  0.15300396534E+04  0.15300396534E+04  0.50400001928E-02 0. -1.
       -1   -1    0    0    0  501  0.00000000000E+00  0.00000000000E+00 -0.21166408043E+04  0.21166408043E+04  0.50400001928E-02 0.  1.
    10030    2    1    2    0    0  0.00000000000E+00  0.00000000000E+00 -0.58660115093E+03  0.36466804577E+04  0.35991912217E+04 0.  0.
        4    1    3    3  502    0 -0.15885556650E+03 -0.15240280316E+04  0.66289207819E+03  0.16695280927E+04  0.12699999809E+01 0. -1.
       -4    1    3    3    0  502  0.15885556650E+03  0.15240280316E+04 -0.12494932291E+04  0.19771523650E+04  0.12699999809E+01 0.  1.
</event>
<event>
 5   0  0.8024500E-09  0.3599395E+04  0.7818609E-02  0.8090630E-01
       -1   -1    0    0    0  501  0.00000000000E+00  0.00000000000E+00  0.14964906214E+04  0.14964906214E+04  0.50400001928E-02 0.  1.
        1   -1    0    0  501    0  0.00000000000E+00  0.00000000000E+00 -0.21643371854E+04  0.21643371854E+04  0.50400001928E-02 0. -1.
    10030    2    1    2    0    0  0.00000000000E+00  0.00000000000E+00 -0.66784656403E+03  0.36608278068E+04  0.35993945599E+04 0.  0.
        5    1    3    3  502    0  0.92339059437E+03  0.56379785301E+03  0.11288060176E+04  0.15635674991E+04  0.46999998093E+01 0.  1.
       -5    1    3    3    0  502 -0.92339059437E+03 -0.56379785301E+03 -0.17966525817E+04  0.20972603077E+04  0.46999998093E+01 0. -1.
</event>
<event>
 5   0  0.2590795E-08  0.3601495E+04  0.7818609E-02  0.8090149E-01
        2   -1    0    0  501    0  0.00000000000E+00  0.00000000000E+00  0.22133885583E+04  0.22133885583E+04  0.25500000920E-02 0. -1.
       -2   -1    0    0    0  501  0.00000000000E+00  0.00000000000E+00 -0.14650348182E+04  0.14650348182E+04  0.25500000920E-02 0.  1.
    10030    2    1    2    0    0  0.00000000000E+00  0.00000000000E+00  0.74835374013E+03  0.36784233765E+04  0.36014948586E+04 0.  0.
        4    1    3    3  502    0  0.15870530558E+04 -0.16600504056E+02 -0.49468594997E+03  0.16624466249E+04  0.12699999809E+01 0.  1.
       -4    1    3    3    0  502 -0.15870530558E+04  0.16600504056E+02  0.12430396901E+04  0.20159767515E+04  0.12699999809E+01 0. -1.
</event>
<event>
 5   0  0.2494592E-08  0.3598100E+04  0.7818609E-02  0.8090927E-01
       -2   -1    0    0    0  501  0.00000000000E+00  0.00000000000E+00  0.14704133014E+04  0.14704133014E+04  0.25500000920E-02 0. -1.
        2   -1    0    0  501    0  0.00000000000E+00  0.00000000000E+00 -0.22011367492E+04  0.22011367492E+04  0.25500000920E-02 0.  1.
    10030    2    1    2    0    0  0.00000000000E+00  0.00000000000E+00 -0.73072344773E+03  0.36715500506E+04  0.35980999176E+04 0.  0.
        1    1    3    3  502    0 -0.11952838258E+04 -0.13348826214E+04 -0.20093348892E+03  0.18030500004E+04  0.50400001928E-02 0. -1.
       -1    1    3    3    0  502  0.11952838258E+04  0.13348826214E+04 -0.52978995882E+03  0.18685000502E+04  0.50400001928E-02 0.  1.
</event>
<event>
 5   0  0.2476968E-08  0.3598870E+04  0.7818609E-02  0.8090751E-01
        2   -1    0    0  501    0  0.00000000000E+00  0.00000000000E+00  0.18903592448E+04  0.18903592448E+04  0.25500000920E-02 0. -1.
       -2   -1    0    0    0  501  0.00000000000E+00  0.00000000000E+00 -0.17128840222E+04  0.17128840222E+04  0.25500000920E-02 0.  1.
    10030    2    1    2    0    0  0.00000000000E+00  0.00000000000E+00  0.17747522264E+03  0.36032432670E+04  0.35988699041E+04 0.  0.
        2    1    3    3  502    0  0.20763947071E+03 -0.47520109797E+02 -0.17002167926E+04  0.17135079377E+04  0.25500000920E-02 0.  1.
       -2    1    3    3    0  502 -0.20763947071E+03  0.47520109797E+02  0.18776920153E+04  0.18897353293E+04  0.25500000920E-02 0. -1.
</event>
<event>
 5   0  0.2482243E-08  0.3600943E+04  0.7818609E-02  0.8090276E-01
       -2   -1    0    0    0  501  0.00000000000E+00  0.00000000000E+00  0.13597969983E+04  0.13597969983E+04  0.25500000920E-02 0.  1.
        2   -1    0    0  501    0  0.00000000000E+00  0.00000000000E+00 -0.23839572298E+04  0.23839572298E+04  0.25500000920E-02 0. -1.
    10030    2    1    2    0    0  0.00000000000E+00  0.00000000000E+00 -0.10241602315E+04  0.37437542280E+04  0.36009431459E+04 0.  0.
        5    1    3    3  502    0 -0.10172036036E+04 -0.12144380066E+03 -0.20514164921E+04  0.22929857134E+04  0.46999998093E+01 0. -1.
       -5    1    3    3    0  502  0.10172036036E+04  0.12144380066E+03  0.10272562606E+04  0.14507685146E+04  0.46999998093E+01 0.  1.
</event>
<event>
 5   0  0.2476968E-08  0.3600985E+04  0.7818609E-02  0.8090266E-01
       -2   -1    0    0    0  501  0.00000000000E+00  0.00000000000E+00  0.17915219817E+04  0.17915219817E+04  0.25500000920E-02 0. -1.
        2   -1    0    0  501    0  0.00000000000E+00  0.00000000000E+00 -0.18095075809E+04  0.18095075809E+04  0.25500000920E-02 0.  1.
    10030    2    1    2    0    0  0.00000000000E+00  0.00000000000E+00 -0.17985599232E+02  0.36010295627E+04  0.36009846472E+04 0.  0.
        2    1    3    3  502    0 -0.12065207267E+04 -0.41174074773E+03 -0.12804448148E+04  0.18068651392E+04  0.25500000920E-02 0.  1.
       -2    1    3    3    0  502  0.12065207267E+04  0.41174074773E+03  0.12624592156E+04  0.17941644235E+04  0.25500000920E-02 0. -1.
</event>
<event>
 5   0  0.8247570E-09  0.3600826E+04  0.7818609E-02  0.8090303E-01
       -1   -1    0    0    0  501  0.00000000000E+00  0.00000000000E+00  0.17713811007E+04  0.17713811007E+04  0.50400001928E-02 0. -1.
        1   -1    0    0  501    0  0.00000000000E+00  0.00000000000E+00 -0.18299204636E+04  0.18299204636E+04  0.50400001928E-02 0.  1.
    10030    2    1    2    0    0  0.00000000000E+00  0.00000000000E+00 -0.58539362902E+02  0.36013015642E+04  0.36008257525E+04 0.  0.
        3    1    3    3  502    0  0.65124828877E+03 -0.73849979333E+02 -0.17063658444E+04  0.18279120762E+04  0.10100000352E+00 0.  1.
       -3    1    3    3    0  502 -0.65124828877E+03  0.73849979333E+02  0.16478264815E+04  0.17733894881E+04  0.10100000352E+00 0. -1.
</event>
<event>
 5   0  0.2494592E-08  0.3603594E+04  0.7818609E-02  0.8089669E-01
        2   -1    0    0  501    0  0.00000000000E+00  0.00000000000E+00  0.27405192322E+04  0.27405192322E+04  0.25500000920E-02 0. -1.
       -2   -1    0    0    0  501  0.00000000000E+00  0.00000000000E+00 -0.11846193144E+04  0.11846193144E+04  0.25500000920E-02 0.  1.
    10030    2    1    2    0    0  0.00000000000E+00  0.00000000000E+00  0.15558999178E+04  0.39251385467E+04  0.36035937696E+04 0.  0.
        1    1    3    3  502    0  0.73143577896E+03  0.98325816567E+03  0.22166713245E+04  0.25328692584E+04  0.50400001928E-02 0. -1.
       -1    1    3    3    0  502 -0.73143577896E+03 -0.98325816567E+03 -0.66077140672E+03  0.13922692883E+04  0.50400001928E-02 0.  1.
</event>
<event>
 5   0  0.8146881E-09  0.3599553E+04  0.7818609E-02  0.8090594E-01
       -1   -1    0    0    0  501  0.00000000000E+00  0.00000000000E+00  0.11445860369E+04  0.11445860369E+04  0.50400001928E-02 0.  1.
        1   -1    0    0  501    0  0.00000000000E+00  0.00000000000E+00 -0.28300146748E+04  0.28300146748E+04  0.50400001928E-02 0. -1.
    10030    2    1    2    0    0  0.00000000000E+00  0.00000000000E+00 -0.16854286380E+04  0.39746007117E+04  0.35995529061E+04 0.  0.
        4    1    3    3  502    0 -0.64840823154E+03 -0.65789692105E+03 -0.25483017329E+04  0.27105543581E+04  0.12699999809E+01 0. -1.
       -4    1    3    3    0  502  0.64840823154E+03  0.65789692105E+03  0.86287309489E+03  0.12640463537E+04  0.12699999809E+01 0.  1.
</event>
<event>
 5   0  0.8146881E-09  0.3598847E+04  0.7818609E-02  0.8090756E-01
        1   -1    0    0  501    0  0.00000000000E+00  0.00000000000E+00  0.19127049044E+04  0.19127049044E+04  0.50400001928E-02 0. -1.
       -1   -1    0    0    0  501  0.00000000000E+00  0.00000000000E+00 -0.16928515094E+04  0.16928515094E+04  0.50400001928E-02 0.  1.
    10030    2    1    2    0    0  0.00000000000E+00  0.00000000000E+00  0.21985339507E+03  0.36055564138E+04  0.35988472512E+04 0.  0.
        4    1    3    3  502    0 -0.12909326351E+04  0.12090409793E+04 -0.22180478343E+03  0.17825504573E+04  0.12699999809E+01 0. -1.
       -4    1    3    3    0  502  0.12909326351E+04 -0.12090409793E+04  0.44165817849E+03  0.18230059565E+04  0.12699999809E+01 0.  1.
</event>
<event>
 5   0  0.2608070E-08  0.3601031E+04  0.7818609E-02  0.8090256E-01
       -2   -1    0    0    0  501  0.00000000000E+00  0.00000000000E+00  0.14819992459E+04  0.14819992459E+04  0.25500000920E-02 0. -1.
        2   -1    0    0  501    0  0.00000000000E+00  0.00000000000E+00 -0.21874879485E+04  0.21874879485E+04  0.25500000920E-02 0.  1.
    10030    2    1    2    0    0  0.00000000000E+00  0.00000000000E+00 -0.70548870261E+03  0.36694871944E+04  0.36010306803E+04 0.  0.
        3    1    3    3  502    0  0.78648572371E+03  0.68352179048E+02 -0.20017232538E+04  0.21517731779E+04  0.10100000352E+00 0.  1.
       -3    1    3    3    0  502 -0.78648572371E+03 -0.68352179048E+02  0.12962345512E+04  0.15177140165E+04  0.10100000352E+00 0. -1.
</event>
<event>
 5   0  0.2482243E-08  0.3601123E+04  0.7818609E-02  0.8090234E-01
       -2   -1    0    0    0  501  0.00000000000E+00  0.00000000000E+00  0.18782226157E+04  0.18782226157E+04  0.25500000920E-02 0. -1.
        2   -1    0    0  501    0  0.00000000000E+00  0.00000000000E+00 -0.17261116230E+04  0.17261116230E+04  0.25500000920E-02 0.  1.
    10030    2    1    2    0    0  0.00000000000E+00  0.00000000000E+00  0.15211099272E+03  0.36043342386E+04  0.36011230956E+04 0.  0.
        5    1    3    3  502    0 -0.11855076383E+04 -0.27139527083E+03 -0.12528769516E+04  0.17460831880E+04  0.46999998093E+01 0.  1.
       -5    1    3    3    0  502  0.11855076383E+04  0.27139527083E+03  0.14049879443E+04  0.18582510506E+04  0.46999998093E+01 0. -1.
</event>
<event>
 5   0  0.2482243E-08  0.3600571E+04  0.7818609E-02  0.8090361E-01
       -2   -1    0    0    0  501  0.00000000000E+00  0.00000000000E+00  0.18413760467E+04  0.18413760467E+04  0.25500000920E-02 0. -1.
        2   -1    0    0  501    0  0.00000000000E+00  0.00000000000E+00 -0.17601116636E+04  0.17601116636E+04  0.25500000920E-02 0.  1.
    10030    2    1    2    0    0  0.00000000000E+00  0.00000000000E+00  0.81264383077E+02  0.36014877103E+04  0.36005707641E+04 0.  0.
        5    1    3    3  502    0 -0.16732318645E+04  0.35236816404E+03 -0.52266055699E+03  0.17880336527E+04  0.46999998093E+01 0.  1.
       -5    1    3    3    0  502  0.16732318645E+04 -0.35236816404E+03  0.60392494006E+03  0.18134540575E+04  0.46999998093E+01 0. -1.
</event>
<event>
 5   0  0.2494592E-08  0.3600099E+04  0.7818609E-02  0.8090469E-01
        2   -1    0    0  501    0  0.00000000000E+00  0.00000000000E+00  0.19543525040E+04  0.19543525040E+04  0.25500000920E-02 0.  1.
       -2   -1    0    0    0  501  0.00000000000E+00  0.00000000000E+00 -0.16579290966E+04  0.16579290966E+04  0.25500000920E-02 0. -1.
    10030    2    1    2    0    0  0.00000000000E+00  0.00000000000E+00  0.29642340742E+03  0.36122816006E+04  0.36000988217E+04 0.  0.
        1    1    3    3  502    0  0.57787763941E+03 -0.30186147521E+03 -0.15352965292E+04  0.16679923108E+04  0.50400001928E-02 0. -1.
       -1    1    3    3    0  502 -0.57787763941E+03  0.30186147521E+03  0.18317199366E+04  0.19442892898E+04  0.50400001928E-02 0.  1.
</event>
<event>
 5   0  0.8146881E-09  0.3598542E+04  0.7818609E-02  0.8090826E-01
        1   -1    0    0  501    0  0.00000000000E+00  0.00000000000E+00  0.13926165083E+04  0.13926165083E+04  0.50400001928E-02 0. -1.
       -1   -1    0    0    0  501  0.00000000000E+00  0.00000000000E+00 -0.23246721985E+04  0.23246721985E+04  0.50400001928E-02 0.  1.
    10030    2    1    2    0    0  0.00000000000E+00  0.00000000000E+00 -0.93205569017E+03  0.37172887069E+04  0.35985424161E+04 0.  0.
        4    1    3    3  502    0  0.17968614691E+04  0.84193148557E+02 -0.50703205373E+03  0.18689255581E+04  0.12699999809E+01 0. -1.
       -4    1    3    3    0  502 -0.17968614691E+04 -0.84193148557E+02 -0.42502363644E+03  0.18483631488E+04  0.12699999809E+01 0.  1.
</event>
<event>
 5   0  0.8024500E-09  0.3601526E+04  0.7818609E-02  0.8090142E-01
       -3   -1    0    0    0  501  0.00000000000E+00  0.00000000000E+00  0.12031681506E+04  0.12031681549E+04  0.10100000352E+00 0.  1.
        3   -1    0    0  501    0  0.00000000000E+00  0.00000000000E+00 -0.26951738923E+04  0.26951738942E+04  0.10100000352E+00 0. -1.
    10030    2    1    2    0    0  0.00000000000E+00  0.00000000000E+00 -0.14920057417E+04  0.38983420491E+04  0.36015260097E+04 0.  0.
        3    1    3    3  502    0 -0.14584555514E+04 -0.53567895957E+03  0.23935230476E+03  0.15720477344E+04  0.10100000352E+00 0.  1.
       -3    1    3    3    0  502  0.14584555514E+04  0.53567895957E+03 -0.17313580465E+04  0.23262943147E+04  0.10100000352E+00 0. -1.
</event>
<event>
 5   0  0.2482243E-08  0.3600175E+04  0.7818609E-02  0.8090452E-01
        2   -1    0    0  501    0  0.00000000000E+00  0.00000000000E+00  0.97197323926E+03  0.97197323927E+03  0.25500000920E-02 0. -1.
       -2   -1    0    0    0  501  0.00000000000E+00  0.00000000000E+00 -0.33337499042E+04  0.33337499042E+04  0.25500000920E-02 0.  1.
    10030    2    1    2    0    0  0.00000000000E+00  0.00000000000E+00 -0.23617766649E+04  0.43057231435E+04  0.36001753809E+04 0.  0.
        5    1    3    3  502    0 -0.45266974192E+03  0.52712603223E+02  0.90182920211E+03  0.10104486694E+04  0.46999998093E+01 0. -1.
       -5    1    3    3    0  502  0.45266974192E+03 -0.52712603223E+02 -0.32636058670E+04  0.32952744740E+04  0.46999998093E+01 0.  1.
</event>
<event>
 5   0  0.2476968E-08  0.3600620E+04  0.7818609E-02  0.8090350E-01
       -2   -1    0    0    0  501  0.00000000000E+00  0.00000000000E+00  0.15376846064E+04  0.15376846064E+04  0.25500000920E-02 0. -1.
        2   -1    0    0  501    0  0.00000000000E+00  0.00000000000E+00 -0.21077904225E+04  0.21077904225E+04  0.25500000920E-02 0.  1.
    10030    2    1    2    0    0  0.00000000000E+00  0.00000000000E+00 -0.57010581613E+03  0.36454750289E+04  0.36006204388E+04 0.  0.
        2    1    3    3  502    0 -0.77428309977E+03 -0.10516856172E+04 -0.15396670273E+04  0.20189431668E+04  0.25500000920E-02 0.  1.
       -2    1    3    3    0  502  0.77428309977E+03  0.10516856172E+04  0.96956121115E+03  0.16265318620E+04  0.25500000920E-02 0. -1.
</event>
<event>
 5   0  0.2608070E-08  0.3602314E+04  0.7818609E-02  0.8089962E-01
        2   -1    0    0  501    0  0.00000000000E+00  0.00000000000E+00  0.22577823135E+04  0.22577823135E+04  0.25500000920E-02 0. -1.
       -2   -1    0    0    0  501  0.00000000000E+00  0.00000000000E+00 -0.14368819174E+04  0.14368819174E+04  0.25500000920E-02 0.  1.
    10030    2    1    2    0    0  0.00000000000E+00  0.00000000000E+00  0.82090039606E+03  0.36946642309E+04  0.36023140228E+04 0.  0.
        3    1    3    3  502    0 -0.84999851429E+03 -0.11545655601E+04 -0.70775096905E+03  0.15988841582E+04  0.10100000352E+00 0.  1.
       -3    1    3    3    0  502  0.84999851429E+03  0.11545655601E+04  0.15286513651E+04  0.20957800727E+04  0.10100000352E+00 0. -1.
</event>
<event>
 5   0  0.8024500E-09  0.3599071E+04  0.7818609E-02  0.8090705E-01
       -1   -1    0    0    0  501  0.00000000000E+00  0.00000000000E+00  0.15912198806E+04  0.15912198807E+04  0.50400001928E-02 0. -1.
        1   -1    0    0  501    0  0.00000000000E+00  0.00000000000E+00 -0.20351223405E+04  0.20351223406E+04  0.50400001928E-02 0.  1.
    10030    2    1    2    0    0  0.00000000000E+00  0.00000000000E+00 -0.44390245990E+03  0.36263422212E+04  0.35990705066E+04 0.  0.
        1    1    3    3  502    0  0.15574215163E+04 -0.68279512636E+03 -0.81510220085E+03  0.18857790331E+04  0.50400001928E-02 0.  1.
       -1    1    3    3    0  502 -0.15574215163E+04  0.68279512636E+03  0.37119974095E+03  0.17405631881E+04  0.50400001928E-02 0. -1.
</event>
<event>
 5   0  0.2608070E-08  0.3599514E+04  0.7818609E-02  0.8090603E-01
       -2   -1    0    0    0  501  0.00000000000E+00  0.00000000000E+00  0.16594714029E+04  0.16594714029E+04  0.25500000920E-02 0. -1.
        2   -1    0    0  501    0  0.00000000000E+00  0.00000000000E+00 -0.19519014697E+04  0.19519014697E+04  0.25500000920E-02 0.  1.
    10030    2    1    2    0    0  0.00000000000E+00  0.00000000000E+00 -0.29243006678E+03  0.36113728726E+04  0.35995136728E+04 0.  0.
        3    1    3    3  502    0 -0.10441073409E+04  0.14597719186E+04 -0.28093500538E+03  0.18165953542E+04  0.10100000352E+00 0.  1.
       -3    1    3    3    0  502  0.10441073409E+04 -0.14597719186E+04 -0.11495061400E+02  0.17947775183E+04  0.10100000352E+00 0. -1.
</event>
<event>
 5   0  0.2482243E-08  0.3598099E+04  0.7818609E-02  0.8090927E-01
        2   -1    0    0  501    0  0.00000000000E+00  0.00000000000E+00  0.14805564106E+04  0.14805564106E+04  0.25500000920E-02 0.  1.
       -2   -1    0    0    0  501  0.00000000000E+00  0.00000000000E+00 -0.21860556203E+04  0.21860556203E+04  0.25500000920E-02 0. -1.
    10030    2    1    2    0    0  0.00000000000E+00  0.00000000000E+00 -0.70549920974E+03  0.36666120309E+04  0.35980987550E+04 0.  0.
        5    1    3    3  502    0  0.16833572519E+04  0.24468172542E+03 -0.94955985536E+03  0.19481393157E+04  0.46999998093E+01 0. -1.
       -5    1    3    3    0  502 -0.16833572519E+04 -0.24468172542E+03  0.24406064562E+03  0.17184727153E+04  0.46999998093E+01 0.  1.
</event>
<event>
 5   0  0.8024500E-09  0.3603981E+04  0.7818609E-02  0.8089580E-01
        1   -1    0    0  501    0  0.00000000000E+00  0.00000000000E+00  0.24525553481E+04  0.24525553481E+04  0.50400001928E-02 0. -1.
       -1   -1    0    0    0  501  0.00000000000E+00  0.00000000000E+00 -0.13239943359E+04  0.13239943359E+04  0.50400001928E-02 0.  1.
    10030    2    1    2    0    0  0.00000000000E+00  0.00000000000E+00  0.11285610122E+04  0.37765496840E+04  0.36039807932E+04 0.  0.
        1    1    3    3  502    0 -0.24917774823E+03 -0.96519798044E+03  0.21373173148E+04  0.23583515421E+04  0.50400001928E-02 0. -1.
       -1    1    3    3    0  502  0.24917774823E+03  0.96519798044E+03 -0.10087563026E+04  0.14181981419E+04  0.50400001928E-02 0.  1.
</event>
<event>
 5   0  0.8063410E-09  0.3600312E+04  0.7818609E-02  0.8090420E-01
        1   -1    0    0  501    0  0.00000000000E+00  0.00000000000E+00  0.17636931417E+04  0.17636931417E+04  0.50400001928E-02 0.  1.
       -1   -1    0    0    0  501  0.00000000000E+00  0.00000000000E+00 -0.18373731338E+04  0.18373731338E+04  0.50400001928E-02 0. -1.
    10030    2    1    2    0    0  0.00000000000E+00  0.00000000000E+00 -0.73679992118E+02  0.36010662755E+04  0.36003124281E+04 0.  0.
        2    1    3    3  502    0 -0.63159154458E+03 -0.12294639122E+04  0.11166893942E+04  0.17769312294E+04  0.25500000920E-02 0.  1.
       -2    1    3    3    0  502  0.63159154458E+03  0.12294639122E+04 -0.11903693864E+04  0.18241350462E+04  0.25500000920E-02 0. -1.
</event>
<event>
 5   0  0.2590795E-08  0.3598355E+04  0.7818609E-02  0.8090869E-01
       -2   -1    0    0    0  501  0.00000000000E+00  0.00000000000E+00  0.25833812491E+04  0.25833812491E+04  0.25500000920E-02 0. -1.
        2   -1    0    0  501    0  0.00000000000E+00  0.00000000000E+00 -0.12530245905E+04  0.12530245905E+04  0.25500000920E-02 0.  1.
    10030    2    1    2    0    0  0.00000000000E+00  0.00000000000E+00  0.13303566586E+04  0.38364058396E+04  0.35983553086E+04 0.  0.
        4    1    3    3  502    0 -0.14317534526E+04 -0.91492501588E+03  0.34402674616E+02  0.16994678257E+04  0.12699999809E+01 0.  1.
       -4    1    3    3    0  502  0.14317534526E+04  0.91492501588E+03  0.12959539840E+04  0.21369380139E+04  0.12699999809E+01 0. -1.
</event>
<event>
 5   0  0.2590795E-08  0.3599720E+04  0.7818609E-02  0.8090556E-01
        2   -1    0    0  501    0  0.00000000000E+00  0.00000000000E+00  0.15917128780E+04  0.15917128780E+04  0.25500000920E-02 0. -1.
       -2   -1    0    0    0  501  0.00000000000E+00  0.00000000000E+00 -0.20352259158E+04  0.20352259158E+04  0.25500000920E-02 0.  1.
    10030    2    1    2    0    0  0.00000000000E+00  0.00000000000E+00 -0.44351303780E+03  0.36269387938E+04  0.35997196001E+04 0.  0.
        4    1    3    3  502    0 -0.14074898543E+04 -0.51038827735E+03  0.78478166359E+03  0.16903868658E+04  0.12699999809E+01 0. -1.
       -4    1    3    3    0  502  0.14074898543E+04  0.51038827735E+03 -0.12282947014E+04  0.19365519280E+04  0.12699999809E+01 0.  1.
</event>
<event>
 5   0  0.2476968E-08  0.3604286E+04  0.7818609E-02  0.8089511E-01
       -2   -1    0    0    0  501  0.00000000000E+00  0.00000000000E+00  0.19534385912E+04  0.19534385912E+04  0.25500000920E-02 0.  1.
        2   -1    0    0  501    0  0.00000000000E+00  0.00000000000E+00 -0.16625655878E+04  0.16625655878E+04  0.25500000920E-02 0. -1.
    10030    2    1    2    0    0  0.00000000000E+00  0.00000000000E+00  0.29087300336E+03  0.36160041790E+04  0.36042862149E+04 0.  0.
        2    1    3    3  502    0  0.27616125042E+03  0.92776177377E+03 -0.13796084367E+04  0.16853267884E+04  0.25500000920E-02 0. -1.
       -2    1    3    3    0  502 -0.27616125042E+03 -0.92776177377E+03  0.16704814401E+04  0.19306773906E+04  0.25500000920E-02 0.  1.
</event>
<event>
 5   0  0.2494592E-08  0.3603582E+04  0.7818609E-02  0.8089672E-01
        2   -1    0    0  501    0  0.00000000000E+00  0.00000000000E+00  0.23059793624E+04  0.23059793624E+04  0.25500000920E-02 0. -1.
       -2   -1    0    0    0  501  0.00000000000E+00  0.00000000000E+00 -0.14078404555E+04  0.14078404555E+04  0.25500000920E-02 0.  1.
    10030    2    1    2    0    0  0.00000000000E+00  0.00000000000E+00  0.89813890688E+03  0.37138198180E+04  0.36035821268E+04 0.  0.
        1    1    3    3  502    0  0.15356945596E+04  0.78571522712E+03 -0.87179549000E+02  0.17272250787E+04  0.50400001928E-02 0.  1.
       -1    1    3    3    0  502 -0.15356945596E+04 -0.78571522712E+03  0.98531845588E+03  0.19865947393E+04  0.50400001928E-02 0. -1.
</event>
<event>
 5   0  0.2590795E-08  0.3598804E+04  0.7818609E-02  0.8090766E-01
       -2   -1    0    0    0  501  0.00000000000E+00  0.00000000000E+00  0.13908253966E+04  0.13908253966E+04  0.25500000920E-02 0. -1.
        2   -1    0    0  501    0  0.00000000000E+00  0.00000000000E+00 -0.23280049338E+04  0.23280049338E+04  0.25500000920E-02 0.  1.
    10030    2    1    2    0    0  0.00000000000E+00  0.00000000000E+00 -0.93717953716E+03  0.37188303304E+04  0.35988044601E+04 0.  0.
        4    1    3    3  502    0 -0.85380245469E+03 -0.48550934567E+03  0.10893908426E+04  0.14667896840E+04  0.12699999809E+01 0. -1.
       -4    1    3    3    0  502  0.85380245469E+03  0.48550934567E+03 -0.20265703797E+04  0.22520406464E+04  0.12699999809E+01 0.  1.
</event>
<event>
 5   0  0.2608070E-08  0.3603513E+04  0.7818609E-02  0.8089688E-01
       -2   -1    0    0    0  501  0.00000000000E+00  0.00000000000E+00  0.14111766549E+04  0.14111766549E+04  0.25500000920E-02 0.  1.
        2   -1    0    0  501    0  0.00000000000E+00  0.00000000000E+00 -0.23004392527E+04  0.23004392527E+04  0.25500000920E-02 0. -1.
    10030    2    1    2    0    0  0.00000000000E+00  0.00000000000E+00 -0.88926259788E+03  0.37116159076E+04  0.36035128247E+04 0.  0.
        3    1    3    3  502    0  0.11982861338E+04  0.13060571267E+04 -0.11142804555E+03  0.17759760967E+04  0.10100000352E+00 0.  1.
       -3    1    3    3    0  502 -0.11982861338E+04 -0.13060571267E+04 -0.77783455234E+03  0.19356398109E+04  0.10100000352E+00 0. -1.
</event>
<event>
 5   0  0.8247570E-09  0.3598002E+04  0.7818609E-02  0.8090950E-01
       -1   -1    0    0    0  501  0.00000000000E+00  0.00000000000E+00  0.20502916987E+04  0.20502916987E+04  0.50400001928E-02 0. -1.
        1   -1    0    0  501    0  0.00000000000E+00  0.00000000000E+00 -0.15785090123E+04  0.15785090123E+04  0.50400001928E-02 0.  1.
    10030    2    1    2    0    0  0.00000000000E+00  0.00000000000E+00  0.47178268640E+03  0.36288007110E+04  0.35980016255E+04 0.  0.
        3    1    3    3  502    0 -0.63050463829E+03  0.12380662486E+04 -0.91672106457E+03  0.16645484839E+04  0.10100000352E+00 0.  1.
       -3    1    3    3    0  502  0.63050463829E+03 -0.12380662486E+04  0.13885037510E+04  0.19642522271E+04  0.10100000352E+00 0. -1.
</event>
<event>
 5   0  0.8247570E-09  0.3597954E+04  0.7818609E-02  0.8090960E-01
       -1   -1    0    0    0  501  0.00000000000E+00  0.00000000000E+00  0.17902995144E+04  0.17902995144E+04  0.50400001928E-02 0.  1.
        1   -1    0    0  501    0  0.00000000000E+00  0.00000000000E+00 -0.18076967183E+04  0.18076967183E+04  0.50400001928E-02 0. -1.
    10030    2    1    2    0    0  0.00000000000E+00  0.00000000000E+00 -0.17397203953E+02  0.35979962327E+04  0.35979541726E+04 0.  0.
        3    1    3    3  502    0  0.50079398055E+03 -0.10925162531E+04 -0.13473449586E+04  0.18054708034E+04  0.10100000352E+00 0. -1.
       -3    1    3    3    0  502 -0.50079398055E+03  0.10925162531E+04  0.13299477547E+04  0.17925254293E+04  0.10100000352E+00 0.  1.
</event>
<event>
 5   0  0.8146881E-09  0.3598574E+04  0.7818609E-02  0.8090819E-01
       -1   -1    0    0    0  501  0.00000000000E+00  0.00000000000E+00  0.14529967088E+04  0.14529967088E+04  0.50400001928E-02 0.  1.
        1   -1    0    0  501    0  0.00000000000E+00  0.00000000000E+00 -0.22281075463E+04  0.22281075463E+04  0.50400001928E-02 0. -1.
    10030    2    1    2    0    0  0.00000000000E+00  0.00000000000E+00 -0.77511083749E+03  0.36811042551E+04  0.35985735683E+04 0.  0.
        4    1    3    3  502    0 -0.51338703640E+02 -0.69876608288E+03  0.13077160100E+04  0.14835877044E+04  0.12699999809E+01 0.  1.
       -4    1    3    3    0  502  0.51338703640E+02  0.69876608288E+03 -0.20828268474E+04  0.21975165507E+04  0.12699999809E+01 0. -1.
</event>
<event>
 5   0  0.8024500E-09  0.3601331E+04  0.7818609E-02  0.8090187E-01
       -1   -1    0    0    0  501  0.00000000000E+00  0.00000000000E+00  0.26237116935E+04  0.26237116935E+04  0.50400001928E-02 0.  1.
        1   -1    0    0  501    0  0.00000000000E+00  0.00000000000E+00 -0.12358052676E+04  0.12358052676E+04  0.50400001928E-02 0. -1.
    10030    2    1    2    0    0  0.00000000000E+00  0.00000000000E+00  0.13879064259E+04  0.38595169611E+04  0.36013312714E+04 0.  0.
        1    1    3    3  502    0 -0.45430650936E+03  0.16697500309E+04  0.12275837746E+04  0.21216553664E+04  0.50400001928E-02 0.  1.
       -1    1    3    3    0  502  0.45430650936E+03 -0.16697500309E+04  0.16032265132E+03  0.17378615948E+04  0.50400001928E-02 0. -1.
</event>
<event>
 5   0  0.2494592E-08  0.3598804E+04  0.7818609E-02  0.8090766E-01
       -2   -1    0    0    0  501  0.00000000000E+00  0.00000000000E+00  0.22579672173E+04  0.22579672173E+04  0.25500000920E-02 0. -1.
        2   -1    0    0  501    0  0.00000000000E+00  0.00000000000E+00 -0.14339655581E+04  0.14339655581E+04  0.25500000920E-02 0.  1.
    10030    2    1    2    0    0  0.00000000000E+00  0.00000000000E+00  0.82400165911E+03  0.36919327754E+04  0.35988038129E+04 0.  0.
        1    1    3    3  502    0 -0.12754134140E+04 -0.86653390375E+03  0.13635193631E+04  0.20583355986E+04  0.50400001928E-02 0. -1.
       -1    1    3    3    0  502  0.12754134140E+04  0.86653390375E+03 -0.53951770398E+03  0.16335971768E+04  0.50400001928E-02 0.  1.
</event>
<event>
 5   0  0.2590795E-08  0.3600025E+04  0.7818609E-02  0.8090486E-01
        2   -1    0    0  501    0  0.00000000000E+00  0.00000000000E+00  0.12922033426E+04  0.12922033426E+04  0.25500000920E-02 0.  1.
       -2   -1    0    0    0  501  0.00000000000E+00  0.00000000000E+00 -0.25073803091E+04  0.25073803092E+04  0.25500000920E-02 0. -1.
    10030    2    1    2    0    0  0.00000000000E+00  0.00000000000E+00 -0.12151769665E+04  0.37995836518E+04  0.36000251203E+04 0.  0.
        4    1    3    3  502    0 -0.10016805666E+04 -0.85661510215E+03  0.68629183690E+03  0.14859850232E+04  0.12699999809E+01 0.  1.
       -4    1    3    3    0  502  0.10016805666E+04  0.85661510215E+03 -0.19014688034E+04  0.23135986286E+04  0.12699999809E+01 0. -1.
</event>
<event>
 5   0  0.2476968E-08  0.3602296E+04  0.7818609E-02  0.8089966E-01
       -2   -1    0    0    0  501  0.00000000000E+00  0.00000000000E+00  0.15610533596E+04  0.15610533596E+04  0.25500000920E-02 0.  1.
        2   -1    0    0  501    0  0.00000000000E+00  0.00000000000E+00 -0.20781695114E+04  0.20781695114E+04  0.25500000920E-02 0. -1.
    10030    2    1    2    0    0  0.00000000000E+00  0.00000000000E+00 -0.51711615185E+03  0.36392228710E+04  0.36022956556E+04 0.  0.
        2    1    3    3  502    0 -0.33638113880E+03 -0.46063825222E+03  0.14674029855E+04  0.15743606295E+04  0.25500000920E-02 0.  1.
       -2    1    3    3    0  502  0.33638113880E+03  0.46063825222E+03 -0.19845191373E+04  0.20648622415E+04  0.25500000920E-02 0. -1.
</event>
<event>
 5   0  0.8024500E-09  0.3600255E+04  0.7818609E-02  0.8090433E-01
        3   -1    0    0  501    0  0.00000000000E+00  0.00000000000E+00  0.21732074759E+04  0.21732074782E+04  0.10100000352E+00 0. -1.
       -3   -1    0    0    0  501  0.00000000000E+00  0.00000000000E+00 -0.14910947649E+04  0.14910947683E+04  0.10100000352E+00 0.  1.
    10030    2    1    2    0    0  0.00000000000E+00  0.00000000000E+00  0.68211271096E+03  0.36643022465E+04  0.36002546026E+04 0.  0.
        2    1    3    3  502    0 -0.54242224767E+03  0.24332718881E+03 -0.13882964150E+04  0.15102307610E+04  0.25500000920E-02 0.  1.
       -2    1    3    3    0  502  0.54242224767E+03 -0.24332718881E+03  0.20704091260E+04  0.21540714855E+04  0.25500000920E-02 0. -1.
</event>
<event>
 5   0  0.8247570E-09  0.3599572E+04  0.7818609E-02  0.8090590E-01
       -1   -1    0    0    0  501  0.00000000000E+00  0.00000000000E+00  0.24609851608E+04  0.24609851608E+04  0.50400001928E-02 0.  1.
        1   -1    0    0  501    0  0.00000000000E+00  0.00000000000E+00 -0.13162329493E+04  0.13162329493E+04  0.50400001928E-02 0. -1.
    10030    2    1    2    0    0  0.00000000000E+00  0.00000000000E+00  0.11447522116E+04  0.37772181101E+04  0.35995720614E+04 0.  0.
        3    1    3    3  502    0 -0.13480981008E+04  0.11759638795E+04  0.36522485127E+03  0.18258282333E+04  0.10100000352E+00 0. -1.
       -3    1    3    3    0  502  0.13480981008E+04 -0.11759638795E+04  0.77952736031E+03  0.19513898768E+04  0.10100000352E+00 0.  1.
</event>
<event>
 5   0  0.2494592E-08  0.3600487E+04  0.7818609E-02  0.8090380E-01
       -2   -1    0    0    0  501  0.00000000000E+00  0.00000000000E+00  0.12599916922E+04  0.12599916922E+04  0.25500000920E-02 0.  1.
        2   -1    0    0  501    0  0.00000000000E+00  0.00000000000E+00 -0.25721407766E+04  0.25721407766E+04  0.25500000920E-02 0. -1.
    10030    2    1    2    0    0  0.00000000000E+00  0.00000000000E+00 -0.13121490844E+04  0.38321324687E+04  0.36004866391E+04 0.  0.
        1    1    3    3  502    0  0.14166584911E+04  0.48751052838E+03  0.40628569189E+03  0.15523066254E+04  0.50400001928E-02 0.  1.
       -1    1    3    3    0  502 -0.14166584911E+04 -0.48751052838E+03 -0.17184347763E+04  0.22798258434E+04  0.50400001928E-02 0. -1.
</event>
<event>
 5   0  0.8146881E-09  0.3603732E+04  0.7818609E-02  0.8089637E-01
       -1   -1    0    0    0  501  0.00000000000E+00  0.00000000000E+00  0.11200916150E+04  0.11200916151E+04  0.50400001928E-02 0. -1.
        1   -1    0    0  501    0  0.00000000000E+00  0.00000000000E+00 -0.28986215363E+04  0.28986215363E+04  0.50400001928E-02 0.  1.
    10030    2    1    2    0    0  0.00000000000E+00  0.00000000000E+00 -0.17785299212E+04  0.40187131513E+04  0.36037323308E+04 0.  0.
        4    1    3    3  502    0 -0.28992281884E+03 -0.56736763665E+03 -0.27688053452E+04  0.28411698170E+04  0.12699999809E+01 0.  1.
       -4    1    3    3    0  502  0.28992281884E+03  0.56736763665E+03  0.99027542402E+03  0.11775433344E+04  0.12699999809E+01 0. -1.
</event>
<event>
 5   0  0.8247570E-09  0.3599634E+04  0.7818609E-02  0.8090575E-01
       -1   -1    0    0    0  501  0.00000000000E+00  0.00000000000E+00  0.30814467308E+04  0.30814467308E+04  0.50400001928E-02 0. -1.
        1   -1    0    0  501    0  0.00000000000E+00  0.00000000000E+00 -0.10512405602E+04  0.10512405603E+04  0.50400001928E-02 0.  1.
    10030    2    1    2    0    0  0.00000000000E+00  0.00000000000E+00  0.20302061706E+04  0.41326872911E+04  0.35996343079E+04 0.  0.
        3    1    3    3  502    0 -0.35312208899E+03  0.72244580074E+03  0.28637410029E+04  0.29744975520E+04  0.10100000352E+00 0. -1.
       -3    1    3    3    0  502  0.35312208899E+03 -0.72244580074E+03 -0.83353483237E+03  0.11581897391E+04  0.10100000352E+00 0.  1.
</event>
<event>
 5   0  0.8024500E-09  0.3599561E+04  0.7818609E-02  0.8090592E-01
       -1   -1    0    0    0  501  0.00000000000E+00  0.00000000000E+00  0.15175058354E+04  0.15175058354E+04  0.50400001928E-02 0.  1.
        1   -1    0    0  501    0  0.00000000000E+00  0.00000000000E+00 -0.21345616028E+04  0.21345616028E+04  0.50400001928E-02 0. -1.
    10030    2    1    2    0    0  0.00000000000E+00  0.00000000000E+00 -0.61705576734E+03  0.36520674382E+04  0.35995609112E+04 0.  0.
        1    1    3    3  502    0  0.12203342252E+04  0.12412509398E+04  0.15562780592E+03  0.17476096620E+04  0.50400001928E-02 0.  1.
       -1    1    3    3    0  502 -0.12203342252E+04 -0.12412509398E+04 -0.77268357326E+03  0.19044577762E+04  0.50400001928E-02 0. -1.
</event>
<event>
 5   0  0.8024500E-09  0.3599759E+04  0.7818609E-02  0.8090547E-01
       -3   -1    0    0    0  501  0.00000000000E+00  0.00000000000E+00  0.15955422795E+04  0.15955422827E+04  0.10100000352E+00 0. -1.
        3   -1    0    0  501    0  0.00000000000E+00  0.00000000000E+00 -0.20303860849E+04  0.20303860874E+04  0.10100000352E+00 0.  1.
    10030    2    1    2    0    0  0.00000000000E+00  0.00000000000E+00 -0.43484380547E+03  0.36259283701E+04  0.35997593544E+04 0.  0.
        2    1    3    3  502    0 -0.11729051014E+04 -0.73215990506E+03  0.94325800826E+03  0.16737682556E+04  0.25500000920E-02 0. -1.
       -2    1    3    3    0  502  0.11729051014E+04  0.73215990506E+03 -0.13781018137E+04  0.19521601145E+04  0.25500000920E-02 0.  1.
</event>
<event>
 5   0  0.8247570E-09  0.3599869E+04  0.7818609E-02  0.8090522E-01
       -1   -1    0    0    0  501  0.00000000000E+00  0.00000000000E+00  0.18776624374E+04  0.18776624374E+04  0.50400001928E-02 0. -1.
        1   -1    0    0  501    0  0.00000000000E+00  0.00000000000E+00 -0.17254244479E+04  0.17254244479E+04  0.50400001928E-02 0.  1.
    10030    2    1    2    0    0  0.00000000000E+00  0.00000000000E+00  0.15223798949E+03  0.36030868853E+04  0.35998692612E+04 0.  0.
        3    1    3    3  502    0  0.83741725991E+03  0.82279669904E+03  0.14417074252E+04  0.18592424224E+04  0.10100000352E+00 0. -1.
       -3    1    3    3    0  502 -0.83741725991E+03 -0.82279669904E+03 -0.12894694357E+04  0.17438444629E+04  0.10100000352E+00 0.  1.
</event>
<event>
 5   0  0.2590795E-08  0.3590302E+04  0.7818609E-02  0.8092717E-01
       -2   -1    0    0    0  501  0.00000000000E+00  0.00000000000E+00  0.19986534865E+04  0.19986534865E+04  0.25500000920E-02 0. -1.
        2   -1    0    0  501    0  0.00000000000E+00  0.00000000000E+00 -0.16123692864E+04  0.16123692864E+04  0.25500000920E-02 0.  1.
    10030    2    1    2    0    0  0.00000000000E+00  0.00000000000E+00  0.38628420002E+03  0.36110227729E+04  0.35903022134E+04 0.  0.
        4    1    3    3  502    0  0.35290645853E+03  0.30034507020E+03  0.19374567780E+04  0.19921070527E+04  0.12699999809E+01 0. -1.
       -4    1    3    3    0  502 -0.35290645853E+03 -0.30034507020E+03 -0.15511725780E+04  0.16189157203E+04  0.12699999809E+01 0.  1.
</event>
<event>
 5   0  0.2494592E-08  0.3598519E+04  0.7818609E-02  0.8090831E-01
        2   -1    0    0  501    0  0.00000000000E+00  0.00000000000E+00  0.23571193506E+04  0.23571193506E+04  0.25500000920E-02 0.  1.
       -2   -1    0    0    0  501  0.00000000000E+00  0.00000000000E+00 -0.13734283233E+04  0.13734283233E+04  0.25500000920E-02 0. -1.
    10030    2    1    2    0    0  0.00000000000E+00  0.00000000000E+00  0.98369102730E+03  0.37305476740E+04  0.35985188496E+04 0.  0.
        1    1    3    3  502    0 -0.13433652754E+04 -0.11045330802E+04  0.13718067844E+02  0.17391986010E+04  0.50400001928E-02 0.  1.
       -1    1    3    3    0  502  0.13433652754E+04  0.11045330802E+04  0.96997295946E+03  0.19913490730E+04  0.50400001928E-02 0. -1.
</event>
<event>
 5   0  0.8146881E-09  0.3594044E+04  0.7818609E-02  0.8091857E-01
       -1   -1    0    0    0  501  0.00000000000E+00  0.00000000000E+00  0.12830342306E+04  0.12830342306E+04  0.50400001928E-02 0. -1.
        1   -1    0    0  501    0  0.00000000000E+00  0.00000000000E+00 -0.25169142964E+04  0.25169142964E+04  0.50400001928E-02 0.  1.
    10030    2    1    2    0    0  0.00000000000E+00  0.00000000000E+00 -0.12338800658E+04  0.37999485270E+04  0.35940435155E+04 0.  0.
        4    1    3    3  502    0  0.16650480132E+04  0.67076682520E+03 -0.52865427138E+03  0.18713070222E+04  0.12699999809E+01 0. -1.
       -4    1    3    3    0  502 -0.16650480132E+04 -0.67076682520E+03 -0.70522579443E+03  0.19286415048E+04  0.12699999809E+01 0.  1.
</event>
<event>
 5   0  0.2482243E-08  0.3584365E+04  0.7818609E-02  0.8094083E-01
        2   -1    0    0  501    0  0.00000000000E+00  0.00000000000E+00  0.23515665960E+04  0.23515665960E+04  0.25500000920E-02 0.  1.
       -2   -1    0    0    0  501  0.00000000000E+00  0.00000000000E+00 -0.13658630375E+04  0.13658630375E+04  0.25500000920E-02 0. -1.
    10030    2    1    2    0    0  0.00000000000E+00  0.00000000000E+00  0.98570355853E+03  0.37174296335E+04  0.35843648775E+04 0.  0.
        5    1    3    3  502    0  0.23707274942E+03 -0.14482547907E+04 -0.57405078588E+03  0.15758178264E+04  0.46999998093E+01 0. -1.
       -5    1    3    3    0  502 -0.23707274942E+03  0.14482547907E+04  0.15597543444E+04  0.21416118071E+04  0.46999998093E+01 0.  1.
</event>
<event>
 5   0  0.8146881E-09  0.3598477E+04  0.7818609E-02  0.8090841E-01
       -1   -1    0    0    0  501  0.00000000000E+00  0.00000000000E+00  0.12847978887E+04  0.12847978887E+04  0.50400001928E-02 0. -1.
        1   -1    0    0  501    0  0.00000000000E+00  0.00000000000E+00 -0.25196638526E+04  0.25196638526E+04  0.50400001928E-02 0.  1.
    10030    2    1    2    0    0  0.00000000000E+00  0.00000000000E+00 -0.12348659638E+04  0.38044617413E+04  0.35984767878E+04 0.  0.
        4    1    3    3  502    0  0.99792632345E+03 -0.49927498293E+03  0.87478675131E+03  0.14178807879E+04  0.12699999809E+01 0. -1.
       -4    1    3    3    0  502 -0.99792632345E+03  0.49927498293E+03 -0.21096527152E+04  0.23865809534E+04  0.12699999809E+01 0.  1.
</event>
<event>
 5   0  0.8024500E-09  0.3601566E+04  0.7818609E-02  0.8090133E-01
        1   -1    0    0  501    0  0.00000000000E+00  0.00000000000E+00  0.12673319595E+04  0.12673319595E+04  0.50400001928E-02 0. -1.
       -1   -1    0    0    0  501  0.00000000000E+00  0.00000000000E+00 -0.25587766048E+04  0.25587766048E+04  0.50400001928E-02 0.  1.
    10030    2    1    2    0    0  0.00000000000E+00  0.00000000000E+00 -0.12914446453E+04  0.38261085643E+04  0.36015659753E+04 0.  0.
        1    1    3    3  502    0 -0.44131006152E+03 -0.31858661929E+03  0.11778546571E+04  0.12975336595E+04  0.50400001928E-02 0. -1.
       -1    1    3    3    0  502  0.44131006152E+03  0.31858661929E+03 -0.24692993024E+04  0.25285749048E+04  0.50400001928E-02 0.  1.
</event>
<event>
 5   0  0.8024500E-09  0.3598561E+04  0.7818609E-02  0.8090821E-01
        1   -1    0    0  501    0  0.00000000000E+00  0.00000000000E+00  0.19886999699E+04  0.19886999699E+04  0.50400001928E-02 0. -1.
       -1   -1    0    0    0  501  0.00000000000E+00  0.00000000000E+00 -0.16279024230E+04  0.16279024230E+04  0.50400001928E-02 0.  1.
    10030    2    1    2    0    0  0.00000000000E+00  0.00000000000E+00  0.36079754696E+03  0.36166023929E+04  0.35985605454E+04 0.  0.
        1    1    3    3  502    0  0.83209467529E+03 -0.75161546801E+03 -0.12338172309E+04  0.16672169384E+04  0.50400001928E-02 0.  1.
       -1    1    3    3    0  502 -0.83209467529E+03  0.75161546801E+03  0.15946147779E+04  0.19493854545E+04  0.50400001928E-02 0. -1.
</event>
<event>
 5   0  0.8247570E-09  0.3598823E+04  0.7818609E-02  0.8090761E-01
        1   -1    0    0  501    0  0.00000000000E+00  0.00000000000E+00  0.10973961487E+04  0.10973961487E+04  0.50400001928E-02 0. -1.
       -1   -1    0    0    0  501  0.00000000000E+00  0.00000000000E+00 -0.29505127002E+04  0.29505127002E+04  0.50400001928E-02 0.  1.
    10030    2    1    2    0    0  0.00000000000E+00  0.00000000000E+00 -0.18531165515E+04  0.40479088489E+04  0.35988227374E+04 0.  0.
        3    1    3    3  502    0  0.98215088899E+03  0.15075947801E+04 -0.90353792715E+03  0.20134158005E+04  0.10100000352E+00 0. -1.
       -3    1    3    3    0  502 -0.98215088899E+03 -0.15075947801E+04 -0.94957862433E+03  0.20344930483E+04  0.10100000352E+00 0.  1.
</event>
<event>
 5   0  0.2482243E-08  0.3595093E+04  0.7818609E-02  0.8091617E-01
        2   -1    0    0  501    0  0.00000000000E+00  0.00000000000E+00  0.28239848553E+04  0.28239848553E+04  0.25500000920E-02 0.  1.
       -2   -1    0    0    0  501  0.00000000000E+00  0.00000000000E+00 -0.11441891884E+04  0.11441891884E+04  0.25500000920E-02 0. -1.
    10030    2    1    2    0    0  0.00000000000E+00  0.00000000000E+00  0.16797956670E+04  0.39681740437E+04  0.35950927329E+04 0.  0.
        5    1    3    3  502    0 -0.44675870971E+03  0.12921554542E+04 -0.44820909216E+03  0.14388094185E+04  0.46999998093E+01 0. -1.
       -5    1    3    3    0  502  0.44675870971E+03 -0.12921554542E+04  0.21280047591E+04  0.25293646252E+04  0.46999998093E+01 0.  1.
</event>
<event>
 5   0  0.2494592E-08  0.3599402E+04  0.7818609E-02  0.8090629E-01
        2   -1    0    0  501    0  0.00000000000E+00  0.00000000000E+00  0.24364346284E+04  0.24364346284E+04  0.25500000920E-02 0.  1.
       -2   -1    0    0    0  501  0.00000000000E+00  0.00000000000E+00 -0.13293701996E+04  0.13293701996E+04  0.25500000920E-02 0. -1.
    10030    2    1    2    0    0  0.00000000000E+00  0.00000000000E+00  0.11070644288E+04  0.37658048280E+04  0.35994019439E+04 0.  0.
        1    1    3    3  502    0  0.67105587007E+03  0.35188546368E+03 -0.11543522407E+04  0.13808216597E+04  0.50400001928E-02 0. -1.
       -1    1    3    3    0  502 -0.67105587007E+03 -0.35188546368E+03  0.22614166695E+04  0.23849831683E+04  0.50400001928E-02 0.  1.
</event>
<event>
 5   0  0.8146881E-09  0.3599295E+04  0.7818609E-02  0.8090653E-01
        1   -1    0    0  501    0  0.00000000000E+00  0.00000000000E+00  0.14387210958E+04  0.14387210958E+04  0.50400001928E-02 0.  1.
       -1   -1    0    0    0  501  0.00000000000E+00  0.00000000000E+00 -0.22511180712E+04  0.22511180712E+04  0.50400001928E-02 0. -1.
    10030    2    1    2    0    0  0.00000000000E+00  0.00000000000E+00 -0.81239697540E+03  0.36898391671E+04  0.35992949633E+04 0.  0.
        4    1    3    3  502    0 -0.79928880090E+03 -0.11286460973E+04 -0.15866980449E+04  0.21048317982E+04  0.12699999809E+01 0. -1.
       -4    1    3    3    0  502  0.79928880090E+03  0.11286460973E+04  0.77430106954E+03  0.15850073688E+04  0.12699999809E+01 0.  1.
</event>
<event>
 5   0  0.8247570E-09  0.3598964E+04  0.7818609E-02  0.8090729E-01
       -1   -1    0    0    0  501  0.00000000000E+00  0.00000000000E+00  0.12086343948E+04  0.12086343948E+04  0.50400001928E-02 0. -1.
        1   -1    0    0  501    0  0.00000000000E+00  0.00000000000E+00 -0.26791692873E+04  0.26791692873E+04  0.50400001928E-02 0.  1.
    10030    2    1    2    0    0  0.00000000000E+00  0.00000000000E+00 -0.14705348925E+04  0.38878036821E+04  0.35989643789E+04 0.  0.
        3    1    3    3  502    0 -0.49998553624E+03 -0.16155356540E+04 -0.70936079345E+02  0.16926230896E+04  0.10100000352E+00 0. -1.
       -3    1    3    3    0  502  0.49998553624E+03  0.16155356540E+04 -0.13995988132E+04  0.21951805926E+04  0.10100000352E+00 0.  1.
</event>
<event>
 5   0  0.2482243E-08  0.3601832E+04  0.7818609E-02  0.8090072E-01
       -2   -1    0    0    0  501  0.00000000000E+00  0.00000000000E+00  0.11257885677E+04  0.11257885677E+04  0.25500000920E-02 0.  1.
        2   -1    0    0  501    0  0.00000000000E+00  0.00000000000E+00 -0.28809125631E+04  0.28809125631E+04  0.25500000920E-02 0. -1.
    10030    2    1    2    0    0  0.00000000000E+00  0.00000000000E+00 -0.17551239954E+04  0.40067011308E+04  0.36018319939E+04 0.  0.
        5    1    3    3  502    0 -0.14362626284E+04  0.65977652546E+03 -0.18377955578E+04  0.24239781359E+04  0.46999998093E+01 0. -1.
       -5    1    3    3    0  502  0.14362626284E+04 -0.65977652546E+03  0.82671562414E+02  0.15827229949E+04  0.46999998093E+01 0.  1.
</event>
<event>
 5   0  0.8024500E-09  0.3599840E+04  0.7818609E-02  0.8090528E-01
       -1   -1    0    0    0  501  0.00000000000E+00  0.00000000000E+00  0.15574210282E+04  0.15574210282E+04  0.50400001928E-02 0. -1.
        1   -1    0    0  501    0  0.00000000000E+00  0.00000000000E+00 -0.20801773767E+04  0.20801773768E+04  0.50400001928E-02 0.  1.
    10030    2    1    2    0    0  0.00000000000E+00  0.00000000000E+00 -0.52275634859E+03  0.36375984049E+04  0.35998399903E+04 0.  0.
        5    1    3    3  502    0 -0.15442251511E+03  0.61665922703E+03 -0.19629571922E+04  0.20633317581E+04  0.46999998093E+01 0.  1.
       -5    1    3    3    0  502  0.15442251511E+03 -0.61665922703E+03  0.14402008436E+04  0.15742666469E+04  0.46999998093E+01 0. -1.
</event>
<event>
 5   0  0.8247570E-09  0.3605741E+04  0.7818609E-02  0.8089178E-01
       -1   -1    0    0    0  501  0.00000000000E+00  0.00000000000E+00  0.13869783018E+04  0.13869783018E+04  0.50400001928E-02 0. -1.
        1   -1    0    0  501    0  0.00000000000E+00  0.00000000000E+00 -0.23434696318E+04  0.23434696318E+04  0.50400001928E-02 0.  1.
    10030    2    1    2    0    0  0.00000000000E+00  0.00000000000E+00 -0.95649133002E+03  0.37304479336E+04  0.36057407174E+04 0.  0.
        3    1    3    3  502    0  0.10187605598E+04  0.11350686045E+04 -0.14727875651E+04  0.21202257043E+04  0.10100000352E+00 0.  1.
       -3    1    3    3    0  502 -0.10187605598E+04 -0.11350686045E+04  0.51629623503E+03  0.16102222293E+04  0.10100000352E+00 0. -1.
</event>
<event>
 5   0  0.2590795E-08  0.3605638E+04  0.7818609E-02  0.8089202E-01
       -2   -1    0    0    0  501  0.00000000000E+00  0.00000000000E+00  0.11972968357E+04  0.11972968357E+04  0.25500000920E-02 0. -1.
        2   -1    0    0  501    0  0.00000000000E+00  0.00000000000E+00 -0.27145779304E+04  0.27145779304E+04  0.25500000920E-02 0.  1.
    10030    2    1    2    0    0  0.00000000000E+00  0.00000000000E+00 -0.15172810947E+04  0.39118747660E+04  0.36056375670E+04 0.  0.
        4    1    3    3  502    0  0.41378956461E+03  0.10907669118E+04 -0.22498450573E+04  0.25343241021E+04  0.12699999809E+01 0.  1.
       -4    1    3    3    0  502 -0.41378956461E+03 -0.10907669118E+04  0.73256396262E+03  0.13775506640E+04  0.12699999809E+01 0. -1.
</event>
<event>
 5   0  0.2476968E-08  0.3599010E+04  0.7818609E-02  0.8090719E-01
       -2   -1    0    0    0  501  0.00000000000E+00  0.00000000000E+00  0.18424244004E+04  0.18424244004E+04  0.25500000920E-02 0.  1.
        2   -1    0    0  501    0  0.00000000000E+00  0.00000000000E+00 -0.17575849845E+04  0.17575849845E+04  0.25500000920E-02 0. -1.
    10030    2    1    2    0    0  0.00000000000E+00  0.00000000000E+00  0.84839415948E+02  0.36000093849E+04  0.35990095645E+04 0.  0.
        2    1    3    3  502    0  0.49657478300E+03  0.11799498451E+04 -0.12225854481E+04  0.17701930206E+04  0.25500000920E-02 0. -1.
       -2    1    3    3    0  502 -0.49657478300E+03 -0.11799498451E+04  0.13074248641E+04  0.18298163644E+04  0.25500000920E-02 0.  1.
</event>
<event>
 5   0  0.8063410E-09  0.3599266E+04  0.7818609E-02  0.8090660E-01
        1   -1    0    0  501    0  0.00000000000E+00  0.00000000000E+00  0.21708360065E+04  0.21708360065E+04  0.50400001928E-02 0.  1.
       -1   -1    0    0    0  501  0.00000000000E+00  0.00000000000E+00 -0.14919037834E+04  0.14919037834E+04  0.50400001928E-02 0. -1.
    10030    2    1    2    0    0  0.00000000000E+00  0.00000000000E+00  0.67893222317E+03  0.36627397899E+04  0.35992657314E+04 0.  0.
        2    1    3    3  502    0  0.14544109874E+04 -0.11905231938E+03 -0.73228970051E+03  0.16327072550E+04  0.25500000920E-02 0. -1.
       -2    1    3    3    0  502 -0.14544109874E+04  0.11905231938E+03  0.14112219237E+04  0.20300325349E+04  0.25500000920E-02 0.  1.
</event>
<event>
 5   0  0.2476968E-08  0.3601258E+04  0.7818609E-02  0.8090204E-01
       -2   -1    0    0    0  501  0.00000000000E+00  0.00000000000E+00  0.25799884791E+04  0.25799884791E+04  0.25500000920E-02 0.  1.
        2   -1    0    0  501    0  0.00000000000E+00  0.00000000000E+00 -0.12566970543E+04  0.12566970543E+04  0.25500000920E-02 0. -1.
    10030    2    1    2    0    0  0.00000000000E+00  0.00000000000E+00  0.13232914248E+04  0.38366855335E+04  0.36012575148E+04 0.  0.
        2    1    3    3  502    0  0.11550253625E+04  0.82185436583E+03  0.18445157193E+04  0.23263203618E+04  0.25500000920E-02 0.  1.
       -2    1    3    3    0  502 -0.11550253625E+04 -0.82185436583E+03 -0.52122429454E+03  0.15103651717E+04  0.25500000920E-02 0. -1.
</event>
<event>
 5   0  0.8063410E-09  0.3598464E+04  0.7818609E-02  0.8090844E-01
       -1   -1    0    0    0  501  0.00000000000E+00  0.00000000000E+00  0.20796883027E+04  0.20796883027E+04  0.50400001928E-02 0.  1.
        1   -1    0    0  501    0  0.00000000000E+00  0.00000000000E+00 -0.15565970390E+04  0.15565970390E+04  0.50400001928E-02 0. -1.
    10030    2    1    2    0    0  0.00000000000E+00  0.00000000000E+00  0.52309126367E+03  0.36362853417E+04  0.35984644803E+04 0.  0.
        2    1    3    3  502    0  0.19228702474E+03  0.17711407248E+03 -0.15373025844E+04  0.15593726080E+04  0.25500000920E-02 0. -1.
       -2    1    3    3    0  502 -0.19228702474E+03 -0.17711407248E+03  0.20603938480E+04  0.20769127338E+04  0.25500000920E-02 0.  1.
</event>
<event>
 5   0  0.8024500E-09  0.3599759E+04  0.7818609E-02  0.8090547E-01
       -1   -1    0    0    0  501  0.00000000000E+00  0.00000000000E+00  0.15385453397E+04  0.15385453397E+04  0.50400001928E-02 0.  1.
        1   -1    0    0  501    0  0.00000000000E+00  0.00000000000E+00 -0.21056039029E+04  0.21056039029E+04  0.50400001928E-02 0. -1.
    10030    2    1    2    0    0  0.00000000000E+00  0.00000000000E+00 -0.56705856312E+03  0.36441492426E+04  0.35997594765E+04 0.  0.
        1    1    3    3  502    0  0.34108682006E+03 -0.86570792411E+03  0.12761761956E+04  0.15793720622E+04  0.50400001928E-02 0.  1.
       -1    1    3    3    0  502 -0.34108682006E+03  0.86570792411E+03 -0.18432347587E+04  0.20647771804E+04  0.50400001928E-02 0. -1.
</event>
<event>
 5   0  0.2476968E-08  0.3602726E+04  0.7818609E-02  0.8089867E-01
        2   -1    0    0  501    0  0.00000000000E+00  0.00000000000E+00  0.24116564095E+04  0.24116564095E+04  0.25500000920E-02 0. -1.
       -2   -1    0    0    0  501  0.00000000000E+00  0.00000000000E+00 -0.13455106839E+04  0.13455106839E+04  0.25500000920E-02 0.  1.
    10030    2    1    2    0    0  0.00000000000E+00  0.00000000000E+00  0.10661457256E+04  0.37571670934E+04  0.36027264480E+04 0.  0.
        2    1    3    3  502    0  0.14141552373E+04  0.30525366215E+03  0.16523447593E+04  0.21961917123E+04  0.25500000920E-02 0. -1.
       -2    1    3    3    0  502 -0.14141552373E+04 -0.30525366215E+03 -0.58619903372E+03  0.15609753811E+04  0.25500000920E-02 0.  1.
</event>
<event>
 5   0  0.2590795E-08  0.3599508E+04  0.7818609E-02  0.8090604E-01
       -2   -1    0    0    0  501  0.00000000000E+00  0.00000000000E+00  0.16656423868E+04  0.16656423868E+04  0.25500000920E-02 0.  1.
        2   -1    0    0  501    0  0.00000000000E+00  0.00000000000E+00 -0.19446639763E+04  0.19446639763E+04  0.25500000920E-02 0. -1.
    10030    2    1    2    0    0  0.00000000000E+00  0.00000000000E+00 -0.27902158950E+03  0.36103063631E+04  0.35995081592E+04 0.  0.
        4    1    3    3  502    0 -0.49377777500E+03  0.81446210667E+03 -0.16711636208E+04  0.19235265724E+04  0.12699999809E+01 0. -1.
       -4    1    3    3    0  502  0.49377777500E+03 -0.81446210667E+03  0.13921420313E+04  0.16867797907E+04  0.12699999809E+01 0.  1.
</event>
<event>
 5   0  0.2494592E-08  0.3599229E+04  0.7818609E-02  0.8090668E-01
       -2   -1    0    0    0  501  0.00000000000E+00  0.00000000000E+00  0.16567072441E+04  0.16567072441E+04  0.25500000920E-02 0.  1.
        2   -1    0    0  501    0  0.00000000000E+00  0.00000000000E+00 -0.19548494269E+04  0.19548494269E+04  0.25500000920E-02 0. -1.
    10030    2    1    2    0    0  0.00000000000E+00  0.00000000000E+00 -0.29814218278E+03  0.36115566710E+04  0.35992294768E+04 0.  0.
        1    1    3    3  502    0 -0.11368165452E+04  0.10975258463E+04 -0.10132398430E+04  0.18771174231E+04  0.50400001928E-02 0. -1.
       -1    1    3    3    0  502  0.11368165452E+04 -0.10975258463E+04  0.71509766024E+03  0.17344392478E+04  0.50400001928E-02 0.  1.
</event>
<event>
 5   0  0.2494592E-08  0.3609735E+04  0.7818609E-02  0.8088265E-01
        2   -1    0    0  501    0  0.00000000000E+00  0.00000000000E+00  0.17750546242E+04  0.17750546242E+04  0.25500000920E-02 0.  1.
       -2   -1    0    0    0  501  0.00000000000E+00  0.00000000000E+00 -0.18351811129E+04  0.18351811129E+04  0.25500000920E-02 0. -1.
    10030    2    1    2    0    0  0.00000000000E+00  0.00000000000E+00 -0.60126488743E+02  0.36102357371E+04  0.36097350156E+04 0.  0.
        1    1    3    3  502    0  0.37151296647E+03 -0.17595127622E+04 -0.18383656699E+03  0.18076788786E+04  0.50400001928E-02 0. -1.
       -1    1    3    3    0  502 -0.37151296647E+03  0.17595127622E+04  0.12371007824E+03  0.18025568585E+04  0.50400001928E-02 0.  1.
</event>
<event>
 5   0  0.8063410E-09  0.3596362E+04  0.7818609E-02  0.8091325E-01
       -1   -1    0    0    0  501  0.00000000000E+00  0.00000000000E+00  0.14319629927E+04  0.14319629928E+04  0.50400001928E-02 0.  1.
        1   -1    0    0  501    0  0.00000000000E+00  0.00000000000E+00 -0.22580578394E+04  0.22580578394E+04  0.50400001928E-02 0. -1.
    10030    2    1    2    0    0  0.00000000000E+00  0.00000000000E+00 -0.82609484661E+03  0.36900208321E+04  0.35963621962E+04 0.  0.
        2    1    3    3  502    0  0.13421972660E+04 -0.10849368014E+04  0.10495056649E+03  0.17290448187E+04  0.25500000920E-02 0. -1.
       -2    1    3    3    0  502 -0.13421972660E+04  0.10849368014E+04 -0.93104541310E+03  0.19609760134E+04  0.25500000920E-02 0.  1.
</event>
<event>
 5   0  0.8063410E-09  0.3619684E+04  0.7818609E-02  0.8085998E-01
       -1   -1    0    0    0  501  0.00000000000E+00  0.00000000000E+00  0.12934100578E+04  0.12934100578E+04  0.50400001928E-02 0. -1.
        1   -1    0    0  501    0  0.00000000000E+00  0.00000000000E+00 -0.25324751754E+04  0.25324751754E+04  0.50400001928E-02 0.  1.
    10030    2    1    2    0    0  0.00000000000E+00  0.00000000000E+00 -0.12390651176E+04  0.38258852333E+04  0.36196844410E+04 0.  0.
        2    1    3    3  502    0  0.21511897537E+03 -0.15207782058E+04 -0.16314014051E+04  0.22406501443E+04  0.25500000920E-02 0.  1.
       -2    1    3    3    0  502 -0.21511897537E+03  0.15207782058E+04  0.39233628753E+03  0.15852350889E+04  0.25500000920E-02 0. -1.
</event>
<event>
 5   0  0.2494592E-08  0.3600460E+04  0.7818609E-02  0.8090386E-01
        2   -1    0    0  501    0  0.00000000000E+00  0.00000000000E+00  0.21785141993E+04  0.21785141993E+04  0.25500000920E-02 0. -1.
       -2   -1    0    0    0  501  0.00000000000E+00  0.00000000000E+00 -0.14876325885E+04  0.14876325885E+04  0.25500000920E-02 0.  1.
    10030    2    1    2    0    0  0.00000000000E+00  0.00000000000E+00  0.69088161079E+03  0.36661467879E+04  0.36004603692E+04 0.  0.
        1    1    3    3  502    0 -0.50967868825E+01 -0.59426806636E+03 -0.13848693481E+04  0.15069982161E+04  0.50400001928E-02 0.  1.
       -1    1    3    3    0  502  0.50967868825E+01  0.59426806636E+03  0.20757509589E+04  0.21591485718E+04  0.50400001928E-02 0. -1.
</event>
<event>
 5   0  0.2482243E-08  0.3598874E+04  0.7818609E-02  0.8090750E-01
       -2   -1    0    0    0  501  0.00000000000E+00  0.00000000000E+00  0.17200136620E+04  0.17200136620E+04  0.25500000920E-02 0.  1.
        2   -1    0    0  501    0  0.00000000000E+00  0.00000000000E+00 -0.18825281167E+04  0.18825281167E+04  0.25500000920E-02 0. -1.
    10030    2    1    2    0    0  0.00000000000E+00  0.00000000000E+00 -0.16251445478E+03  0.36025417787E+04  0.35988743128E+04 0.  0.
        5    1    3    3  502    0  0.29985737507E+03  0.78032982152E+03 -0.16763436150E+04  0.18732269167E+04  0.46999998093E+01 0. -1.
       -5    1    3    3    0  502 -0.29985737507E+03 -0.78032982152E+03  0.15138291602E+04  0.17293148620E+04  0.46999998093E+01 0.  1.
</event>
<event>
 5   0  0.2590795E-08  0.3595155E+04  0.7818609E-02  0.8091603E-01
        2   -1    0    0  501    0  0.00000000000E+00  0.00000000000E+00  0.22198771048E+04  0.22198771048E+04  0.25500000920E-02 0. -1.
       -2   -1    0    0    0  501  0.00000000000E+00  0.00000000000E+00 -0.14556139139E+04  0.14556139139E+04  0.25500000920E-02 0.  1.
    10030    2    1    2    0    0  0.00000000000E+00  0.00000000000E+00  0.76426319095E+03  0.36754910187E+04  0.35951545173E+04 0.  0.
        4    1    3    3  502    0  0.17365753513E+04 -0.28198380535E+03  0.50071401987E+01  0.17593281392E+04  0.12699999809E+01 0.  1.
       -4    1    3    3    0  502 -0.17365753513E+04  0.28198380535E+03  0.75925605075E+03  0.19161628795E+04  0.12699999809E+01 0. -1.
</event>
<event>
 5   0  0.8024500E-09  0.3599183E+04  0.7818609E-02  0.8090679E-01
        1   -1    0    0  501    0  0.00000000000E+00  0.00000000000E+00  0.17085846005E+04  0.17085846005E+04  0.50400001928E-02 0. -1.
       -1   -1    0    0    0  501  0.00000000000E+00  0.00000000000E+00 -0.18954456974E+04  0.18954456974E+04  0.50400001928E-02 0.  1.
    10030    2    1    2    0    0  0.00000000000E+00  0.00000000000E+00 -0.18686109692E+03  0.36040302979E+04  0.35991828682E+04 0.  0.
        1    1    3    3  502    0 -0.15654118929E+03 -0.16595118558E+04  0.58574881643E+03  0.17668011828E+04  0.50400001928E-02 0. -1.
       -1    1    3    3    0  502  0.15654118929E+03  0.16595118558E+04 -0.77260991335E+03  0.18372291152E+04  0.50400001928E-02 0.  1.
</event>
<event>
 5   0  0.2608070E-08  0.3600303E+04  0.7818609E-02  0.8090422E-01
        2   -1    0    0  501    0  0.00000000000E+00  0.00000000000E+00  0.28156388592E+04  0.28156388592E+04  0.25500000920E-02 0.  1.
       -2   -1    0    0    0  501  0.00000000000E+00  0.00000000000E+00 -0.11509095983E+04  0.11509095983E+04  0.25500000920E-02 0. -1.
    10030    2    1    2    0    0  0.00000000000E+00  0.00000000000E+00  0.16647292609E+04  0.39665484576E+04  0.36003032031E+04 0.  0.
        3    1    3    3  502    0  0.48288498050E+03  0.12199545705E+04  0.21902522458E+04  0.25531690052E+04  0.10100000352E+00 0.  1.
       -3    1    3    3    0  502 -0.48288498050E+03 -0.12199545705E+04 -0.52552298489E+03  0.14133794524E+04  0.10100000352E+00 0. -1.
</event>
<event>
 5   0  0.2494592E-08  0.3602178E+04  0.7818609E-02  0.8089993E-01
        2   -1    0    0  501    0  0.00000000000E+00  0.00000000000E+00  0.19058928378E+04  0.19058928378E+04  0.25500000920E-02 0. -1.
       -2   -1    0    0    0  501  0.00000000000E+00  0.00000000000E+00 -0.17020483283E+04  0.17020483283E+04  0.25500000920E-02 0.  1.
    10030    2    1    2    0    0  0.00000000000E+00  0.00000000000E+00  0.20384450945E+03  0.36079411661E+04  0.36021780736E+04 0.  0.
        1    1    3    3  502    0  0.13510906140E+04 -0.25570474176E+02  0.12945506011E+04  0.18713527074E+04  0.50400001928E-02 0. -1.
       -1    1    3    3    0  502 -0.13510906140E+04  0.25570474176E+02 -0.10907060917E+04  0.17365884587E+04  0.50400001928E-02 0.  1.
</event>
<event>
 5   0  0.8146881E-09  0.3600478E+04  0.7818609E-02  0.8090382E-01
        1   -1    0    0  501    0  0.00000000000E+00  0.00000000000E+00  0.10806353502E+04  0.10806353502E+04  0.50400001928E-02 0.  1.
       -1   -1    0    0    0  501  0.00000000000E+00  0.00000000000E+00 -0.29990324297E+04  0.29990324297E+04  0.50400001928E-02 0. -1.
    10030    2    1    2    0    0  0.00000000000E+00  0.00000000000E+00 -0.19183970795E+04  0.40796677799E+04  0.36004780016E+04 0.  0.
        4    1    3    3  502    0 -0.10433429706E+04  0.11799175940E+04  0.28664627970E+02  0.15753073848E+04  0.12699999809E+01 0.  1.
       -4    1    3    3    0  502  0.10433429706E+04 -0.11799175940E+04 -0.19470617075E+04  0.25043603951E+04  0.12699999809E+01 0. -1.
</event>
<event>
 5   0  0.2608070E-08  0.3599564E+04  0.7818609E-02  0.8090592E-01
        2   -1    0    0  501    0  0.00000000000E+00  0.00000000000E+00  0.32120280164E+04  0.32120280164E+04  0.25500000920E-02 0.  1.
       -2   -1    0    0    0  501  0.00000000000E+00  0.00000000000E+00 -0.10084639284E+04  0.10084639284E+04  0.25500000920E-02 0. -1.
    10030    2    1    2    0    0  0.00000000000E+00  0.00000000000E+00  0.22035640880E+04  0.42204919449E+04  0.35995635245E+04 0.  0.
        3    1    3    3  502    0 -0.10986740385E+04 -0.14221743261E+04  0.98720088482E+03  0.20504219209E+04  0.10100000352E+00 0.  1.
       -3    1    3    3    0  502  0.10986740385E+04  0.14221743261E+04  0.12163632032E+04  0.21700700240E+04  0.10100000352E+00 0. -1.
</event>
<event>
 5   0  0.2494592E-08  0.3598619E+04  0.7818609E-02  0.8090808E-01
       -2   -1    0    0    0  501  0.00000000000E+00  0.00000000000E+00  0.14863592298E+04  0.14863592298E+04  0.25500000920E-02 0. -1.
        2   -1    0    0  501    0  0.00000000000E+00  0.00000000000E+00 -0.21781505556E+04  0.21781505556E+04  0.25500000920E-02 0.  1.
    10030    2    1    2    0    0  0.00000000000E+00  0.00000000000E+00 -0.69179132589E+03  0.36645097854E+04  0.35986187251E+04 0.  0.
        1    1    3    3  502    0 -0.15913583918E+03 -0.26390874142E+02  0.14789812347E+04  0.14877520581E+04  0.50400001928E-02 0. -1.
       -1    1    3    3    0  502  0.15913583918E+03  0.26390874142E+02 -0.21707725606E+04  0.21767577273E+04  0.50400001928E-02 0.  1.
</event>
<event>
 5   0  0.8063410E-09  0.3597144E+04  0.7818609E-02  0.8091146E-01
        1   -1    0    0  501    0  0.00000000000E+00  0.00000000000E+00  0.11953019775E+04  0.11953019775E+04  0.50400001928E-02 0.  1.
       -1   -1    0    0    0  501  0.00000000000E+00  0.00000000000E+00 -0.27063135089E+04  0.27063135090E+04  0.50400001928E-02 0. -1.
    10030    2    1    2    0    0  0.00000000000E+00  0.00000000000E+00 -0.15110115314E+04  0.39016154865E+04  0.35971443613E+04 0.  0.
        2    1    3    3  502    0 -0.12744753334E+03 -0.47577899050E+02 -0.27007252540E+04  0.27041492983E+04  0.25500000920E-02 0. -1.
       -2    1    3    3    0  502  0.12744753334E+03  0.47577899050E+02  0.11897137225E+04  0.11974661882E+04  0.25500000920E-02 0.  1.
</event>
<event>
 5   0  0.2482243E-08  0.3598536E+04  0.7818609E-02  0.8090827E-01
       -2   -1    0    0    0  501  0.00000000000E+00  0.00000000000E+00  0.14160367437E+04  0.14160367437E+04  0.25500000920E-02 0.  1.
        2   -1    0    0  501    0  0.00000000000E+00  0.00000000000E+00 -0.22862153929E+04  0.22862153929E+04  0.25500000920E-02 0. -1.
    10030    2    1    2    0    0  0.00000000000E+00  0.00000000000E+00 -0.87017864918E+03  0.37022521366E+04  0.35985358135E+04 0.  0.
        5    1    3    3  502    0  0.72875205845E+03 -0.17411532450E+03  0.12478905913E+04  0.14555578747E+04  0.46999998093E+01 0.  1.
       -5    1    3    3    0  502 -0.72875205845E+03  0.17411532450E+03 -0.21180692404E+04  0.22466942619E+04  0.46999998093E+01 0. -1.
</event>
<event>
 5   0  0.8024500E-09  0.3602631E+04  0.7818609E-02  0.8089889E-01
        1   -1    0    0  501    0  0.00000000000E+00  0.00000000000E+00  0.19005194026E+04  0.19005194026E+04  0.50400001928E-02 0.  1.
       -1   -1    0    0    0  501  0.00000000000E+00  0.00000000000E+00 -0.17072899984E+04  0.17072899984E+04  0.50400001928E-02 0. -1.
    10030    2    1    2    0    0  0.00000000000E+00  0.00000000000E+00  0.19322940421E+03  0.36078094011E+04  0.36026311318E+04 0.  0.
        1    1    3    3  502    0  0.87303248081E+03  0.16573250169E+03  0.16657378761E+04  0.18879448208E+04  0.50400001928E-02 0.  1.
       -1    1    3    3    0  502 -0.87303248081E+03 -0.16573250169E+03 -0.14725084719E+04  0.17198645802E+04  0.50400001928E-02 0. -1.
</event>
<event>
 5   0  0.2494592E-08  0.3598726E+04  0.7818609E-02  0.8090783E-01
        2   -1    0    0  501    0  0.00000000000E+00  0.00000000000E+00  0.15496696910E+04  0.15496696910E+04  0.25500000920E-02 0. -1.
       -2   -1    0    0    0  501  0.00000000000E+00  0.00000000000E+00 -0.20892889964E+04  0.20892889964E+04  0.25500000920E-02 0.  1.
    10030    2    1    2    0    0  0.00000000000E+00  0.00000000000E+00 -0.53961930541E+03  0.36389586874E+04  0.35987263489E+04 0.  0.
        1    1    3    3  502    0 -0.45387995924E+03  0.32903405309E+02  0.14905196310E+04  0.15584410229E+04  0.50400001928E-02 0. -1.
       -1    1    3    3    0  502  0.45387995924E+03 -0.32903405309E+02 -0.20301389364E+04  0.20805176646E+04  0.50400001928E-02 0.  1.
</event>
<event>
 5   0  0.2476968E-08  0.3599383E+04  0.7818609E-02  0.8090633E-01
       -2   -1    0    0    0  501  0.00000000000E+00  0.00000000000E+00  0.11239148388E+04  0.11239148388E+04  0.25500000920E-02 0.  1.
        2   -1    0    0  501    0  0.00000000000E+00  0.00000000000E+00 -0.28817926614E+04  0.28817926614E+04  0.25500000920E-02 0. -1.
    10030    2    1    2    0    0  0.00000000000E+00  0.00000000000E+00 -0.17578778226E+04  0.40057075002E+04  0.35993830218E+04 0.  0.
        2    1    3    3  502    0  0.50700324794E+03  0.12792995195E+04  0.41183279953E+03  0.14364072573E+04  0.25500000920E-02 0.  1.
       -2    1    3    3    0  502 -0.50700324794E+03 -0.12792995195E+04 -0.21697106222E+04  0.25693002429E+04  0.25500000920E-02 0. -1.
</event>
<event>
 5   0  0.8024500E-09  0.3600395E+04  0.7818609E-02  0.8090401E-01
       -3   -1    0    0    0  501  0.00000000000E+00  0.00000000000E+00  0.16934795868E+04  0.16934795898E+04  0.10100000352E+00 0.  1.
        3   -1    0    0  501    0  0.00000000000E+00  0.00000000000E+00 -0.19136403884E+04  0.19136403911E+04  0.10100000352E+00 0. -1.
    10030    2    1    2    0    0  0.00000000000E+00  0.00000000000E+00 -0.22016080161E+03  0.36071199810E+04  0.36003949476E+04 0.  0.
        4    1    3    3  502    0  0.16441765123E+04  0.33029292139E+03 -0.76574877387E+03  0.18435787521E+04  0.12699999809E+01 0. -1.
       -4    1    3    3    0  502 -0.16441765123E+04 -0.33029292139E+03  0.54558797226E+03  0.17635412289E+04  0.12699999809E+01 0.  1.
</event>
<event>
 5   0  0.8247570E-09  0.3601319E+04  0.7818609E-02  0.8090190E-01
        1   -1    0    0  501    0  0.00000000000E+00  0.00000000000E+00  0.21173697234E+04  0.21173697234E+04  0.50400001928E-02 0.  1.
       -1   -1    0    0    0  501  0.00000000000E+00  0.00000000000E+00 -0.15313215703E+04  0.15313215703E+04  0.50400001928E-02 0. -1.
    10030    2    1    2    0    0  0.00000000000E+00  0.00000000000E+00  0.58604815310E+03  0.36486912938E+04  0.36013186084E+04 0.  0.
        3    1    3    3  502    0 -0.10183693363E+04 -0.87582024901E+03 -0.92201643838E+03  0.16291873854E+04  0.10100000352E+00 0. -1.
       -3    1    3    3    0  502  0.10183693363E+04  0.87582024901E+03  0.15080645915E+04  0.20195039084E+04  0.10100000352E+00 0.  1.
</event>
<event>
 5   0  0.2608070E-08  0.3600029E+04  0.7818609E-02  0.8090485E-01
       -2   -1    0    0    0  501  0.00000000000E+00  0.00000000000E+00  0.16917636589E+04  0.16917636589E+04  0.25500000920E-02 0. -1.
        2   -1    0    0  501    0  0.00000000000E+00  0.00000000000E+00 -0.19151921620E+04  0.19151921620E+04  0.25500000920E-02 0.  1.
    10030    2    1    2    0    0  0.00000000000E+00  0.00000000000E+00 -0.22342850316E+03  0.36069558209E+04  0.36000291663E+04 0.  0.
        3    1    3    3  502    0  0.62858550256E+03  0.10925324639E+04  0.11757895697E+04  0.17237250480E+04  0.10100000352E+00 0.  1.
       -3    1    3    3    0  502 -0.62858550256E+03 -0.10925324639E+04 -0.13992180728E+04  0.18832307729E+04  0.10100000352E+00 0. -1.
</event>
<event>
 5   0  0.2482243E-08  0.3598887E+04  0.7818609E-02  0.8090747E-01
        2   -1    0    0  501    0  0.00000000000E+00  0.00000000000E+00  0.23559286450E+04  0.23559286450E+04  0.25500000920E-02 0.  1.
       -2   -1    0    0    0  501  0.00000000000E+00  0.00000000000E+00 -0.13744037572E+04  0.13744037572E+04  0.25500000920E-02 0. -1.
    10030    2    1    2    0    0  0.00000000000E+00  0.00000000000E+00  0.98152488779E+03  0.37303324022E+04  0.35988871510E+04 0.  0.
        5    1    3    3  502    0 -0.11515959786E+03 -0.59312254948E+03  0.22476379761E+04  0.23274352092E+04  0.46999998093E+01 0.  1.
       -5    1    3    3    0  502  0.11515959786E+03  0.59312254948E+03 -0.12661130883E+04  0.14028971930E+04  0.46999998093E+01 0. -1.
</event>
<event>
 5   0  0.8024500E-09  0.3601921E+04  0.7818609E-02  0.8090052E-01
       -3   -1    0    0    0  501  0.00000000000E+00  0.00000000000E+00  0.11878891635E+04  0.11878891678E+04  0.10100000352E+00 0. -1.
        3   -1    0    0  501    0  0.00000000000E+00  0.00000000000E+00 -0.27304392139E+04  0.27304392157E+04  0.10100000352E+00 0.  1.
    10030    2    1    2    0    0  0.00000000000E+00  0.00000000000E+00 -0.15425500503E+04  0.39183283836E+04  0.36019212462E+04 0.  0.
        2    1    3    3  502    0  0.17589280404E+04 -0.37054724432E+03 -0.65049957774E+03  0.19116178521E+04  0.25500000920E-02 0. -1.
       -2    1    3    3    0  502 -0.17589280404E+04  0.37054724432E+03 -0.89205047258E+03  0.20067105315E+04  0.25500000920E-02 0.  1.
</event>
<event>
 5   0  0.2494592E-08  0.3599598E+04  0.7818609E-02  0.8090584E-01
        2   -1    0    0  501    0  0.00000000000E+00  0.00000000000E+00  0.27746759954E+04  0.27746759954E+04  0.25500000920E-02 0.  1.
       -2   -1    0    0    0  501  0.00000000000E+00  0.00000000000E+00 -0.11674429611E+04  0.11674429611E+04  0.25500000920E-02 0. -1.
    10030    2    1    2    0    0  0.00000000000E+00  0.00000000000E+00  0.16072330344E+04  0.39421189565E+04  0.35995977332E+04 0.  0.
        1    1    3    3  502    0 -0.30185299949E+03 -0.13883372383E+03  0.27407993888E+04  0.27608642354E+04  0.50400001928E-02 0.  1.
       -1    1    3    3    0  502  0.30185299949E+03  0.13883372383E+03 -0.11335663545E+04  0.11812547211E+04  0.50400001928E-02 0. -1.
</event>
<event>
 5   0  0.8024500E-09  0.3592934E+04  0.7818609E-02  0.8092112E-01
       -1   -1    0    0    0  501  0.00000000000E+00  0.00000000000E+00  0.14974434448E+04  0.14974434448E+04  0.50400001928E-02 0. -1.
        1   -1    0    0  501    0  0.00000000000E+00  0.00000000000E+00 -0.21552019130E+04  0.21552019130E+04  0.50400001928E-02 0.  1.
    10030    2    1    2    0    0  0.00000000000E+00  0.00000000000E+00 -0.65775846816E+03  0.36526453578E+04  0.35929336074E+04 0.  0.
        1    1    3    3  502    0 -0.12274068042E+04 -0.12582441384E+04  0.48212780113E+02  0.17584169719E+04  0.50400001928E-02 0.  1.
       -1    1    3    3    0  502  0.12274068042E+04  0.12582441384E+04 -0.70597124827E+03  0.18942283860E+04  0.50400001928E-02 0. -1.
</event>
<event>
 5   0  0.2608070E-08  0.3600839E+04  0.7818609E-02  0.8090300E-01
        2   -1    0    0  501    0  0.00000000000E+00  0.00000000000E+00  0.19563272124E+04  0.19563272124E+04  0.25500000920E-02 0. -1.
       -2   -1    0    0    0  501  0.00000000000E+00  0.00000000000E+00 -0.16569364592E+04  0.16569364592E+04  0.25500000920E-02 0.  1.
    10030    2    1    2    0    0  0.00000000000E+00  0.00000000000E+00  0.29939075319E+03  0.36132636715E+04  0.36008387269E+04 0.  0.
        3    1    3    3  502    0 -0.36723277245E+03 -0.13926202928E+04  0.12338208295E+04  0.18964611882E+04  0.10100000352E+00 0. -1.
       -3    1    3    3    0  502  0.36723277245E+03  0.13926202928E+04 -0.93443007627E+03  0.17168024833E+04  0.10100000352E+00 0.  1.
</event>
<event>
 5   0  0.2590795E-08  0.3600857E+04  0.7818609E-02  0.8090296E-01
       -2   -1    0    0    0  501  0.00000000000E+00  0.00000000000E+00  0.22354031854E+04  0.22354031854E+04  0.25500000920E-02 0.  1.
        2   -1    0    0  501    0  0.00000000000E+00  0.00000000000E+00 -0.14500927364E+04  0.14500927364E+04  0.25500000920E-02 0. -1.
    10030    2    1    2    0    0  0.00000000000E+00  0.00000000000E+00  0.78531044897E+03  0.36854959218E+04  0.36008565215E+04 0.  0.
        4    1    3    3  502    0 -0.81340567560E+02 -0.28472140945E+03 -0.14249985723E+04  0.14554398348E+04  0.12699999809E+01 0. -1.
       -4    1    3    3    0  502  0.81340567560E+02  0.28472140945E+03  0.22103090212E+04  0.22300560870E+04  0.12699999809E+01 0.  1.
</event>
<event>
 5   0  0.2476968E-08  0.3598439E+04  0.7818609E-02  0.8090849E-01
       -2   -1    0    0    0  501  0.00000000000E+00  0.00000000000E+00  0.27940175334E+04  0.27940175334E+04  0.25500000920E-02 0. -1.
        2   -1    0    0  501    0  0.00000000000E+00  0.00000000000E+00 -0.11586152805E+04  0.11586152805E+04  0.25500000920E-02 0.  1.
    10030    2    1    2    0    0  0.00000000000E+00  0.00000000000E+00  0.16354022528E+04  0.39526328139E+04  0.35984393330E+04 0.  0.
        2    1    3    3  502    0  0.13287974787E+04  0.62314488170E+03  0.19609016836E+04  0.24493157607E+04  0.25500000920E-02 0. -1.
       -2    1    3    3    0  502 -0.13287974787E+04 -0.62314488170E+03 -0.32549943081E+03  0.15033170532E+04  0.25500000920E-02 0.  1.
</event>
<event>
 5   0  0.2476968E-08  0.3599943E+04  0.7818609E-02  0.8090505E-01
       -2   -1    0    0    0  501  0.00000000000E+00  0.00000000000E+00  0.13146813909E+04  0.13146813909E+04  0.25500000920E-02 0. -1.
        2   -1    0    0  501    0  0.00000000000E+00  0.00000000000E+00 -0.24643972926E+04  0.24643972926E+04  0.25500000920E-02 0.  1.
    10030    2    1    2    0    0  0.00000000000E+00  0.00000000000E+00 -0.11497159017E+04  0.37790786835E+04  0.35999429220E+04 0.  0.
        2    1    3    3  502    0  0.17445727976E+04 -0.22750939523E+03 -0.17566928298E+03  0.17680934557E+04  0.25500000920E-02 0. -1.
       -2    1    3    3    0  502 -0.17445727976E+04  0.22750939523E+03 -0.97404661873E+03  0.20109852278E+04  0.25500000920E-02 0.  1.
</event>
<event>
 5   0  0.2494592E-08  0.3600011E+04  0.7818609E-02  0.8090489E-01
        2   -1    0    0  501    0  0.00000000000E+00  0.00000000000E+00  0.26623049575E+04  0.26623049575E+04  0.25500000920E-02 0.  1.
       -2   -1    0    0    0  501  0.00000000000E+00  0.00000000000E+00 -0.12169977455E+04  0.12169977455E+04  0.25500000920E-02 0. -1.
    10030    2    1    2    0    0  0.00000000000E+00  0.00000000000E+00  0.14453072120E+04  0.38793027029E+04  0.36000106283E+04 0.  0.
        1    1    3    3  502    0  0.12641208307E+04  0.34017453986E+03  0.20539344632E+04  0.24356450832E+04  0.50400001928E-02 0.  1.
       -1    1    3    3    0  502 -0.12641208307E+04 -0.34017453986E+03 -0.60862725124E+03  0.14436576198E+04  0.50400001928E-02 0. -1.
</event>
<event>
 5   0  0.8024500E-09  0.3599710E+04  0.7818609E-02  0.8090558E-01
        3   -1    0    0  501    0  0.00000000000E+00  0.00000000000E+00  0.21390465845E+04  0.21390465869E+04  0.10100000352E+00 0. -1.
       -3   -1    0    0    0  501  0.00000000000E+00  0.00000000000E+00 -0.15144498857E+04  0.15144498890E+04  0.10100000352E+00 0.  1.
    10030    2    1    2    0    0  0.00000000000E+00  0.00000000000E+00  0.62459669888E+03  0.36534964760E+04  0.35997104694E+04 0.  0.
        2    1    3    3  502    0  0.74460942043E+03  0.82604176249E+03  0.17486079400E+04  0.20722977369E+04  0.25500000920E-02 0. -1.
       -2    1    3    3    0  502 -0.74460942043E+03 -0.82604176249E+03 -0.11240112411E+04  0.15811987391E+04  0.25500000920E-02 0.  1.
</event>
<event>
 5   0  0.8024500E-09  0.3606298E+04  0.7818609E-02  0.8089051E-01
        1   -1    0    0  501    0  0.00000000000E+00  0.00000000000E+00  0.21640703955E+04  0.21640703955E+04  0.50400001928E-02 0. -1.
       -1   -1    0    0    0  501  0.00000000000E+00  0.00000000000E+00 -0.15024219974E+04  0.15024219974E+04  0.50400001928E-02 0.  1.
    10030    2    1    2    0    0  0.00000000000E+00  0.00000000000E+00  0.66164839802E+03  0.36664923929E+04  0.36062983604E+04 0.  0.
        1    1    3    3  502    0  0.13850253555E+03  0.17314903009E+04 -0.16109616862E+03  0.17444751618E+04  0.50400001928E-02 0.  1.
       -1    1    3    3    0  502 -0.13850253555E+03 -0.17314903009E+04  0.82274456664E+03  0.19220172311E+04  0.50400001928E-02 0. -1.
</event>
<event>
 5   0  0.2494592E-08  0.3599716E+04  0.7818609E-02  0.8090557E-01
        2   -1    0    0  501    0  0.00000000000E+00  0.00000000000E+00  0.22356741737E+04  0.22356741737E+04  0.25500000920E-02 0. -1.
       -2   -1    0    0    0  501  0.00000000000E+00  0.00000000000E+00 -0.14489988596E+04  0.14489988596E+04  0.25500000920E-02 0.  1.
    10030    2    1    2    0    0  0.00000000000E+00  0.00000000000E+00  0.78667531407E+03  0.36846730333E+04  0.35997162822E+04 0.  0.
        1    1    3    3  502    0  0.54500585936E+03  0.17060289551E+04  0.21045036778E+03  0.18032901985E+04  0.50400001928E-02 0.  1.
       -1    1    3    3    0  502 -0.54500585936E+03 -0.17060289551E+04  0.57622494630E+03  0.18813828348E+04  0.50400001928E-02 0. -1.
</event>
<event>
 5   0  0.8063410E-09  0.3600544E+04  0.7818609E-02  0.8090367E-01
       -1   -1    0    0    0  501  0.00000000000E+00  0.00000000000E+00  0.22091878994E+04  0.22091878994E+04  0.50400001928E-02 0. -1.
        1   -1    0    0  501    0  0.00000000000E+00  0.00000000000E+00 -0.14670452979E+04  0.14670452980E+04  0.50400001928E-02 0.  1.
    10030    2    1    2    0    0  0.00000000000E+00  0.00000000000E+00  0.74214260142E+03  0.36762331973E+04  0.36005436923E+04 0.  0.
        2    1    3    3  502    0 -0.16024333334E+04  0.21178801596E+03  0.11804085804E+04  0.20015022279E+04  0.25500000920E-02 0. -1.
       -2    1    3    3    0  502  0.16024333334E+04 -0.21178801596E+03 -0.43826597899E+03  0.16747309694E+04  0.25500000920E-02 0.  1.
</event>
<event>
 5   0  0.8247570E-09  0.3600510E+04  0.7818609E-02  0.8090375E-01
       -1   -1    0    0    0  501  0.00000000000E+00  0.00000000000E+00  0.19171860782E+04  0.19171860782E+04  0.50400001928E-02 0.  1.
        1   -1    0    0  501    0  0.00000000000E+00  0.00000000000E+00 -0.16904554261E+04  0.16904554261E+04  0.50400001928E-02 0. -1.
    10030    2    1    2    0    0  0.00000000000E+00  0.00000000000E+00  0.22673065214E+03  0.36076415043E+04  0.36005097465E+04 0.  0.
        3    1    3    3  502    0  0.45744826249E+03  0.24079506649E+03 -0.16144854739E+04  0.16952299350E+04  0.10100000352E+00 0. -1.
       -3    1    3    3    0  502 -0.45744826249E+03 -0.24079506649E+03  0.18412161261E+04  0.19124115692E+04  0.10100000352E+00 0.  1.
</event>
<event>
 5   0  0.8146881E-09  0.3600181E+04  0.7818609E-02  0.8090450E-01
       -1   -1    0    0    0  501  0.00000000000E+00  0.00000000000E+00  0.15552933979E+04  0.15552933979E+04  0.50400001928E-02 0. -1.
        1   -1    0    0  501    0  0.00000000000E+00  0.00000000000E+00 -0.20834175882E+04  0.20834175882E+04  0.50400001928E-02 0.  1.
    10030    2    1    2    0    0  0.00000000000E+00  0.00000000000E+00 -0.52812419033E+03  0.36387109861E+04  0.36001808954E+04 0.  0.
        4    1    3    3  502    0  0.84367006089E+03  0.15602861988E+04  0.45898742182E+02  0.17743676342E+04  0.12699999809E+01 0.  1.
       -4    1    3    3    0  502 -0.84367006089E+03 -0.15602861988E+04 -0.57402293251E+03  0.18643433519E+04  0.12699999809E+01 0. -1.
</event>
<event>
 5   0  0.2494592E-08  0.3601025E+04  0.7818609E-02  0.8090257E-01
        2   -1    0    0  501    0  0.00000000000E+00  0.00000000000E+00  0.19657537920E+04  0.19657537920E+04  0.25500000920E-02 0. -1.
       -2   -1    0    0    0  501  0.00000000000E+00  0.00000000000E+00 -0.16491616920E+04  0.16491616920E+04  0.25500000920E-02 0.  1.
    10030    2    1    2    0    0  0.00000000000E+00  0.00000000000E+00  0.31659210006E+03  0.36149154840E+04  0.36010253260E+04 0.  0.
        1    1    3    3  502    0 -0.90664149732E+03  0.76672670339E+03  0.15170224233E+04  0.19264541716E+04  0.50400001928E-02 0. -1.
       -1    1    3    3    0  502  0.90664149732E+03 -0.76672670339E+03 -0.12004303233E+04  0.16884613124E+04  0.50400001928E-02 0.  1.
</event>
<event>
 5   0  0.8063410E-09  0.3597420E+04  0.7818609E-02  0.8091083E-01
       -1   -1    0    0    0  501  0.00000000000E+00  0.00000000000E+00  0.13615466028E+04  0.13615466028E+04  0.50400001928E-02 0.  1.
        1   -1    0    0  501    0  0.00000000000E+00  0.00000000000E+00 -0.23762372782E+04  0.23762372782E+04  0.50400001928E-02 0. -1.
    10030    2    1    2    0    0  0.00000000000E+00  0.00000000000E+00 -0.10146906754E+04  0.37377838809E+04  0.35974200719E+04 0.  0.
        2    1    3    3  502    0  0.73813864980E+03 -0.22626555902E+03  0.11806392764E+04  0.14106572477E+04  0.25500000920E-02 0.  1.
       -2    1    3    3    0  502 -0.73813864980E+03  0.22626555902E+03 -0.21953299518E+04  0.23271266332E+04  0.25500000920E-02 0. -1.
</event>
<event>
 5   0  0.8024500E-09  0.3595127E+04  0.7818609E-02  0.8091609E-01
       -1   -1    0    0    0  501  0.00000000000E+00  0.00000000000E+00  0.27783594434E+04  0.27783594434E+04  0.50400001928E-02 0.  1.
        1   -1    0    0  501    0  0.00000000000E+00  0.00000000000E+00 -0.11630007349E+04  0.11630007349E+04  0.50400001928E-02 0. -1.
    10030    2    1    2    0    0  0.00000000000E+00  0.00000000000E+00  0.16153587085E+04  0.39413601784E+04  0.35951267431E+04 0.  0.
        5    1    3    3  502    0  0.47038400185E+03 -0.12626963550E+04 -0.49667123947E+03  0.14360945666E+04  0.46999998093E+01 0. -1.
       -5    1    3    3    0  502 -0.47038400185E+03  0.12626963550E+04  0.21120299480E+04  0.25052656117E+04  0.46999998093E+01 0.  1.
</event>
<event>
 5   0  0.8024500E-09  0.3597902E+04  0.7818609E-02  0.8090972E-01
       -1   -1    0    0    0  501  0.00000000000E+00  0.00000000000E+00  0.15405074086E+04  0.15405074086E+04  0.50400001928E-02 0.  1.
        1   -1    0    0  501    0  0.00000000000E+00  0.00000000000E+00 -0.21007528734E+04  0.21007528734E+04  0.50400001928E-02 0. -1.
    10030    2    1    2    0    0  0.00000000000E+00  0.00000000000E+00 -0.56024546487E+03  0.36412602820E+04  0.35979023695E+04 0.  0.
        5    1    3    3  502    0 -0.45294640387E+03  0.86771387370E+03 -0.18076543758E+04  0.20556566454E+04  0.46999998093E+01 0. -1.
       -5    1    3    3    0  502  0.45294640387E+03 -0.86771387370E+03  0.12474089109E+04  0.15856036366E+04  0.46999998093E+01 0.  1.
</event>
<event>
 5   0  0.2494592E-08  0.3600583E+04  0.7818609E-02  0.8090358E-01
        2   -1    0    0  501    0  0.00000000000E+00  0.00000000000E+00  0.18373924349E+04  0.18373924349E+04  0.25500000920E-02 0.  1.
       -2   -1    0    0    0  501  0.00000000000E+00  0.00000000000E+00 -0.17639400714E+04  0.17639400714E+04  0.25500000920E-02 0. -1.
    10030    2    1    2    0    0  0.00000000000E+00  0.00000000000E+00  0.73452363479E+02  0.36013325063E+04  0.36005833654E+04 0.  0.
        1    1    3    3  502    0  0.15714780542E+04 -0.27441147477E+03  0.87128890961E+03  0.18176878985E+04  0.50400001928E-02 0.  1.
       -1    1    3    3    0  502 -0.15714780542E+04  0.27441147477E+03 -0.79783654613E+03  0.17836446077E+04  0.50400001928E-02 0. -1.
</event>
<event>
 5   0  0.8024500E-09  0.3598985E+04  0.7818609E-02  0.8090724E-01
       -1   -1    0    0    0  501  0.00000000000E+00  0.00000000000E+00  0.17995484059E+04  0.17995484059E+04  0.50400001928E-02 0.  1.
        1   -1    0    0  501    0  0.00000000000E+00  0.00000000000E+00 -0.17994365903E+04  0.17994365903E+04  0.50400001928E-02 0. -1.
    10030    2    1    2    0    0  0.00000000000E+00  0.00000000000E+00  0.11181559064E+00  0.35989849963E+04  0.35989849945E+04 0.  0.
        5    1    3    3  502    0 -0.27775468646E+03 -0.11544956977E+04 -0.13520325426E+04  0.17994504906E+04  0.46999998093E+01 0. -1.
       -5    1    3    3    0  502  0.27775468646E+03  0.11544956977E+04  0.13521443582E+04  0.17995345057E+04  0.46999998093E+01 0.  1.
</event>
<event>
 5   0  0.2476968E-08  0.3598460E+04  0.7818609E-02  0.8090844E-01
       -2   -1    0    0    0  501  0.00000000000E+00  0.00000000000E+00  0.12134124398E+04  0.12134124398E+04  0.25500000920E-02 0. -1.
        2   -1    0    0  501    0  0.00000000000E+00  0.00000000000E+00 -0.26678721974E+04  0.26678721974E+04  0.25500000920E-02 0.  1.
    10030    2    1    2    0    0  0.00000000000E+00  0.00000000000E+00 -0.14544597576E+04  0.38812846371E+04  0.35984603997E+04 0.  0.
        2    1    3    3  502    0  0.35176128028E+03  0.13726630961E+04 -0.19231049780E+04  0.23887805948E+04  0.25500000920E-02 0.  1.
       -2    1    3    3    0  502 -0.35176128028E+03 -0.13726630961E+04  0.46864522042E+03  0.14925040423E+04  0.25500000920E-02 0. -1.
</event>
<event>
 5   0  0.8063410E-09  0.3601021E+04  0.7818609E-02  0.8090258E-01
        1   -1    0    0  501    0  0.00000000000E+00  0.00000000000E+00  0.12946432439E+04  0.12946432439E+04  0.50400001928E-02 0.  1.
       -1   -1    0    0    0  501  0.00000000000E+00  0.00000000000E+00 -0.25040397034E+04  0.25040397034E+04  0.50400001928E-02 0. -1.
    10030    2    1    2    0    0  0.00000000000E+00  0.00000000000E+00 -0.12093964595E+04  0.37986829472E+04  0.36010210132E+04 0.  0.
        2    1    3    3  502    0 -0.16046953669E+04 -0.40343690830E+03 -0.13536181460E+04  0.21377770334E+04  0.25500000920E-02 0.  1.
       -2    1    3    3    0  502  0.16046953669E+04  0.40343690830E+03  0.14422168650E+03  0.16609059138E+04  0.25500000920E-02 0. -1.
</event>
<event>
 5   0  0.2482243E-08  0.3579125E+04  0.7818609E-02  0.8095290E-01
       -2   -1    0    0    0  501  0.00000000000E+00  0.00000000000E+00  0.17009768694E+04  0.17009768694E+04  0.25500000920E-02 0.  1.
        2   -1    0    0  501    0  0.00000000000E+00  0.00000000000E+00 -0.18827617145E+04  0.18827617145E+04  0.25500000920E-02 0. -1.
    10030    2    1    2    0    0  0.00000000000E+00  0.00000000000E+00 -0.18178484511E+03  0.35837385839E+04  0.35791251037E+04 0.  0.
        5    1    3    3  502    0 -0.24111681651E+03  0.40565269709E+03 -0.18193331984E+04  0.18795443083E+04  0.46999998093E+01 0. -1.
       -5    1    3    3    0  502  0.24111681651E+03 -0.40565269709E+03  0.16375483533E+04  0.17041942757E+04  0.46999998093E+01 0.  1.
</event>
<event>
 5   0  0.2590795E-08  0.3600151E+04  0.7818609E-02  0.8090457E-01
        2   -1    0    0  501    0  0.00000000000E+00  0.00000000000E+00  0.20413530934E+04  0.20413530934E+04  0.25500000920E-02 0.  1.
       -2   -1    0    0    0  501  0.00000000000E+00  0.00000000000E+00 -0.15873159266E+04  0.15873159266E+04  0.25500000920E-02 0. -1.
    10030    2    1    2    0    0  0.00000000000E+00  0.00000000000E+00  0.45403716679E+03  0.36286690199E+04  0.36001512617E+04 0.  0.
        4    1    3    3  502    0  0.57625339150E+03 -0.97472562338E+03 -0.11833916341E+04  0.16378569487E+04  0.12699999809E+01 0. -1.
       -4    1    3    3    0  502 -0.57625339150E+03  0.97472562338E+03  0.16374288008E+04  0.19908120712E+04  0.12699999809E+01 0.  1.
</event>
<event>
 5   0  0.2590795E-08  0.3598785E+04  0.7818609E-02  0.8090770E-01
       -2   -1    0    0    0  501  0.00000000000E+00  0.00000000000E+00  0.15416363023E+04  0.15416363023E+04  0.25500000920E-02 0.  1.
        2   -1    0    0  501    0  0.00000000000E+00  0.00000000000E+00 -0.21002441649E+04  0.21002441649E+04  0.25500000920E-02 0. -1.
    10030    2    1    2    0    0  0.00000000000E+00  0.00000000000E+00 -0.55860786260E+03  0.36418804672E+04  0.35987845994E+04 0.  0.
        4    1    3    3  502    0  0.70563663861E+03 -0.36438107291E+03 -0.19132957532E+04  0.20715691840E+04  0.12699999809E+01 0.  1.
       -4    1    3    3    0  502 -0.70563663861E+03  0.36438107291E+03  0.13546878906E+04  0.15703112831E+04  0.12699999809E+01 0. -1.
</event>
<event>
 5   0  0.8024500E-09  0.3599926E+04  0.7818609E-02  0.8090509E-01
        3   -1    0    0  501    0  0.00000000000E+00  0.00000000000E+00  0.13830104880E+04  0.13830104917E+04  0.10100000352E+00 0.  1.
       -3   -1    0    0    0  501  0.00000000000E+00  0.00000000000E+00 -0.23426196242E+04  0.23426196263E+04  0.10100000352E+00 0. -1.
    10030    2    1    2    0    0  0.00000000000E+00  0.00000000000E+00 -0.95960913614E+03  0.37256301181E+04  0.35999263996E+04 0.  0.
        4    1    3    3  502    0 -0.13502624095E+04  0.23898875876E+03 -0.16865130948E+04  0.21736265165E+04  0.12699999809E+01 0. -1.
       -4    1    3    3    0  502  0.13502624095E+04 -0.23898875876E+03  0.72690395862E+03  0.15520036016E+04  0.12699999809E+01 0.  1.
</event>
<event>
 5   0  0.8024500E-09  0.3599811E+04  0.7818609E-02  0.8090535E-01
       -3   -1    0    0    0  501  0.00000000000E+00  0.00000000000E+00  0.28257105464E+04  0.28257105482E+04  0.10100000352E+00 0.  1.
        3   -1    0    0  501    0  0.00000000000E+00  0.00000000000E+00 -0.11464941253E+04  0.11464941297E+04  0.10100000352E+00 0. -1.
    10030    2    1    2    0    0  0.00000000000E+00  0.00000000000E+00  0.16792164211E+04  0.39722046779E+04  0.35998114137E+04 0.  0.
        5    1    3    3  502    0  0.13353939444E+04 -0.10342027287E+04  0.15335032137E+03  0.16959925359E+04  0.46999998093E+01 0. -1.
       -5    1    3    3    0  502 -0.13353939444E+04  0.10342027287E+04  0.15258660997E+04  0.22762121419E+04  0.46999998093E+01 0.  1.
</event>
<event>
 5   0  0.8024500E-09  0.3601558E+04  0.7818609E-02  0.8090135E-01
        1   -1    0    0  501    0  0.00000000000E+00  0.00000000000E+00  0.26153742086E+04  0.26153742086E+04  0.50400001928E-02 0. -1.
       -1   -1    0    0    0  501  0.00000000000E+00  0.00000000000E+00 -0.12399008168E+04  0.12399008168E+04  0.50400001928E-02 0.  1.
    10030    2    1    2    0    0  0.00000000000E+00  0.00000000000E+00  0.13754733918E+04  0.38552750254E+04  0.36015577838E+04 0.  0.
        5    1    3    3  502    0 -0.54320137290E+03  0.10779277258E+04 -0.74273661547E+03  0.14172775605E+04  0.46999998093E+01 0.  1.
       -5    1    3    3    0  502  0.54320137290E+03 -0.10779277258E+04  0.21182100073E+04  0.24379974649E+04  0.46999998093E+01 0. -1.
</event>
<event>
 5   0  0.2590795E-08  0.3598032E+04  0.7818609E-02  0.8090943E-01
       -2   -1    0    0    0  501  0.00000000000E+00  0.00000000000E+00  0.18616622570E+04  0.18616622570E+04  0.25500000920E-02 0. -1.
        2   -1    0    0  501    0  0.00000000000E+00  0.00000000000E+00 -0.17384774563E+04  0.17384774563E+04  0.25500000920E-02 0.  1.
    10030    2    1    2    0    0  0.00000000000E+00  0.00000000000E+00  0.12318480070E+03  0.36001397134E+04  0.35980316092E+04 0.  0.
        4    1    3    3  502    0  0.14209311158E+04 -0.68702717814E+03 -0.80228166526E+03  0.17705109609E+04  0.12699999809E+01 0.  1.
       -4    1    3    3    0  502 -0.14209311158E+04  0.68702717814E+03  0.92546646596E+03  0.18296287525E+04  0.12699999809E+01 0. -1.
</event>
<event>
 5   0  0.2482243E-08  0.3600415E+04  0.7818609E-02  0.8090397E-01
       -2   -1    0    0    0  501  0.00000000000E+00  0.00000000000E+00  0.12889483892E+04  0.12889483892E+04  0.25500000920E-02 0. -1.
        2   -1    0    0  501    0  0.00000000000E+00  0.00000000000E+00 -0.25142560260E+04  0.25142560260E+04  0.25500000920E-02 0.  1.
    10030    2    1    2    0    0  0.00000000000E+00  0.00000000000E+00 -0.12253076368E+04  0.38032044151E+04  0.36004145620E+04 0.  0.
        5    1    3    3  502    0 -0.15509337629E+04 -0.41661126414E+03  0.24665372377E+03  0.16247524833E+04  0.46999998093E+01 0. -1.
       -5    1    3    3    0  502  0.15509337629E+04  0.41661126414E+03 -0.14719613606E+04  0.21784519319E+04  0.46999998093E+01 0.  1.
</event>
<event>
 5   0  0.8024500E-09  0.3595794E+04  0.7818609E-02  0.8091456E-01
        1   -1    0    0  501    0  0.00000000000E+00  0.00000000000E+00  0.14038230294E+04  0.14038230294E+04  0.50400001928E-02 0.  1.
       -1   -1    0    0    0  501  0.00000000000E+00  0.00000000000E+00 -0.23025931164E+04  0.23025931164E+04  0.50400001928E-02 0. -1.
    10030    2    1    2    0    0  0.00000000000E+00  0.00000000000E+00 -0.89877008702E+03  0.37064161458E+04  0.35957937895E+04 0.  0.
        5    1    3    3  502    0 -0.17256848351E+02 -0.13823951581E+04 -0.16341351361E+04  0.21404985179E+04  0.46999998093E+01 0. -1.
       -5    1    3    3    0  502  0.17256848351E+02  0.13823951581E+04  0.73536504912E+03  0.15659176279E+04  0.46999998093E+01 0.  1.
</event>
<event>
 5   0  0.2590795E-08  0.3598554E+04  0.7818609E-02  0.8090823E-01
        2   -1    0    0  501    0  0.00000000000E+00  0.00000000000E+00  0.25241816726E+04  0.25241816726E+04  0.25500000920E-02 0. -1.
       -2   -1    0    0    0  501  0.00000000000E+00  0.00000000000E+00 -0.12825532439E+04  0.12825532439E+04  0.25500000920E-02 0.  1.
    10030    2    1    2    0    0  0.00000000000E+00  0.00000000000E+00  0.12416284286E+04  0.38067349165E+04  0.35985538164E+04 0.  0.
        4    1    3    3  502    0 -0.28908806954E+03  0.14737528152E+04  0.16690357262E+04  0.22452619314E+04  0.12699999809E+01 0. -1.
       -4    1    3    3    0  502  0.28908806954E+03 -0.14737528152E+04 -0.42740729752E+03  0.15614729851E+04  0.12699999809E+01 0.  1.
</event>
<event>
 5   0  0.2494592E-08  0.3600173E+04  0.7818609E-02  0.8090452E-01
        2   -1    0    0  501    0  0.00000000000E+00  0.00000000000E+00  0.24310902217E+04  0.24310902217E+04  0.25500000920E-02 0.  1.
       -2   -1    0    0    0  501  0.00000000000E+00  0.00000000000E+00 -0.13328637861E+04  0.13328637861E+04  0.25500000920E-02 0. -1.
    10030    2    1    2    0    0  0.00000000000E+00  0.00000000000E+00  0.10982264355E+04  0.37639540078E+04  0.36001733943E+04 0.  0.
        1    1    3    3  502    0  0.82175870926E+03  0.14725411665E+04  0.12075636938E+04  0.20740961737E+04  0.50400001928E-02 0.  1.
       -1    1    3    3    0  502 -0.82175870926E+03 -0.14725411665E+04 -0.10933725825E+03  0.16898578341E+04  0.50400001928E-02 0. -1.
</event>
<event>
 5   0  0.8247570E-09  0.3599385E+04  0.7818609E-02  0.8090633E-01
       -1   -1    0    0    0  501  0.00000000000E+00  0.00000000000E+00  0.19200738310E+04  0.19200738310E+04  0.50400001928E-02 0.  1.
        1   -1    0    0  501    0  0.00000000000E+00  0.00000000000E+00 -0.16868582692E+04  0.16868582692E+04  0.50400001928E-02 0. -1.
    10030    2    1    2    0    0  0.00000000000E+00  0.00000000000E+00  0.23321556178E+03  0.36069321003E+04  0.35993846249E+04 0.  0.
        3    1    3    3  502    0 -0.14879325367E+04 -0.17282599098E+02 -0.89776499545E+03  0.17378791441E+04  0.10100000352E+00 0. -1.
       -3    1    3    3    0  502  0.14879325367E+04  0.17282599098E+02  0.11309805572E+04  0.18690529562E+04  0.10100000352E+00 0.  1.
</event>
<event>
 5   0  0.2608070E-08  0.3599935E+04  0.7818609E-02  0.8090507E-01
        2   -1    0    0  501    0  0.00000000000E+00  0.00000000000E+00  0.13120964483E+04  0.13120964483E+04  0.25500000920E-02 0. -1.
       -2   -1    0    0    0  501  0.00000000000E+00  0.00000000000E+00 -0.24692413753E+04  0.24692413753E+04  0.25500000920E-02 0.  1.
    10030    2    1    2    0    0  0.00000000000E+00  0.00000000000E+00 -0.11571449270E+04  0.37813378236E+04  0.35999349097E+04 0.  0.
        3    1    3    3  502    0 -0.14333718614E+04  0.26815198388E+03 -0.16869323949E+04  0.22298433341E+04  0.10100000352E+00 0.  1.
       -3    1    3    3    0  502  0.14333718614E+04 -0.26815198388E+03  0.52978746797E+03  0.15514944895E+04  0.10100000352E+00 0. -1.
</event>
<event>
 5   0  0.8247570E-09  0.3600000E+04  0.7818609E-02  0.8090492E-01
        1   -1    0    0  501    0  0.00000000000E+00  0.00000000000E+00  0.19766753506E+04  0.19766753506E+04  0.50400001928E-02 0. -1.
       -1   -1    0    0    0  501  0.00000000000E+00  0.00000000000E+00 -0.16391156601E+04  0.16391156601E+04  0.50400001928E-02 0.  1.
    10030    2    1    2    0    0  0.00000000000E+00  0.00000000000E+00  0.33755969054E+03  0.36157910108E+04  0.35999997346E+04 0.  0.
        3    1    3    3  502    0 -0.11296927807E+04  0.33948896551E+03  0.15343543279E+04  0.19353815516E+04  0.10100000352E+00 0. -1.
       -3    1    3    3    0  502  0.11296927807E+04 -0.33948896551E+03 -0.11967946373E+04  0.16804094592E+04  0.10100000352E+00 0.  1.
</event>
<event>
 5   0  0.8024500E-09  0.3598608E+04  0.7818609E-02  0.8090811E-01
        1   -1    0    0  501    0  0.00000000000E+00  0.00000000000E+00  0.19060793200E+04  0.19060793200E+04  0.50400001928E-02 0.  1.
       -1   -1    0    0    0  501  0.00000000000E+00  0.00000000000E+00 -0.16985098352E+04  0.16985098352E+04  0.50400001928E-02 0. -1.
    10030    2    1    2    0    0  0.00000000000E+00  0.00000000000E+00  0.20756948481E+03  0.36045891552E+04  0.35986077706E+04 0.  0.
        5    1    3    3  502    0 -0.83836733834E+03 -0.88290148951E+03  0.14307876914E+04  0.18787097546E+04  0.46999998093E+01 0.  1.
       -5    1    3    3    0  502  0.83836733834E+03  0.88290148951E+03 -0.12232182066E+04  0.17258794005E+04  0.46999998093E+01 0. -1.
</event>
<event>
 5   0  0.8024500E-09  0.3600755E+04  0.7818609E-02  0.8090319E-01
        1   -1    0    0  501    0  0.00000000000E+00  0.00000000000E+00  0.19783235419E+04  0.19783235419E+04  0.50400001928E-02 0.  1.
       -1   -1    0    0    0  501  0.00000000000E+00  0.00000000000E+00 -0.16384372862E+04  0.16384372862E+04  0.50400001928E-02 0. -1.
    10030    2    1    2    0    0  0.00000000000E+00  0.00000000000E+00  0.33988625571E+03  0.36167608280E+04  0.36007549515E+04 0.  0.
        1    1    3    3  502    0  0.42701209182E+03  0.12494921217E+04 -0.10593389962E+04  0.16928582332E+04  0.50400001928E-02 0. -1.
       -1    1    3    3    0  502 -0.42701209182E+03 -0.12494921217E+04  0.13992252519E+04  0.19239025948E+04  0.50400001928E-02 0.  1.
</event>
<event>
 5   0  0.8024500E-09  0.3599610E+04  0.7818609E-02  0.8090581E-01
        1   -1    0    0  501    0  0.00000000000E+00  0.00000000000E+00  0.21146073876E+04  0.21146073876E+04  0.50400001928E-02 0.  1.
       -1   -1    0    0    0  501  0.00000000000E+00  0.00000000000E+00 -0.15318675834E+04  0.15318675834E+04  0.50400001928E-02 0. -1.
    10030    2    1    2    0    0  0.00000000000E+00  0.00000000000E+00  0.58273980416E+03  0.36464749710E+04  0.35996102615E+04 0.  0.
        1    1    3    3  502    0 -0.51162601053E+03 -0.62713309972E+03 -0.13371170993E+04  0.15629904788E+04  0.50400001928E-02 0. -1.
       -1    1    3    3    0  502  0.51162601053E+03  0.62713309972E+03  0.19198569035E+04  0.20834844922E+04  0.50400001928E-02 0.  1.
</event>
<event>
 5   0  0.2608070E-08  0.3599588E+04  0.7818609E-02  0.8090586E-01
        2   -1    0    0  501    0  0.00000000000E+00  0.00000000000E+00  0.15574859154E+04  0.15574859154E+04  0.25500000920E-02 0. -1.
       -2   -1    0    0    0  501  0.00000000000E+00  0.00000000000E+00 -0.20797992776E+04  0.20797992776E+04  0.25500000920E-02 0.  1.
    10030    2    1    2    0    0  0.00000000000E+00  0.00000000000E+00 -0.52231336219E+03  0.36372851930E+04  0.35995877996E+04 0.  0.
        3    1    3    3  502    0 -0.13979793542E+04 -0.48129683142E+03 -0.12981917483E+04  0.19675606065E+04  0.10100000352E+00 0.  1.
       -3    1    3    3    0  502  0.13979793542E+04  0.48129683142E+03  0.77587838608E+03  0.16697245865E+04  0.10100000352E+00 0. -1.
</event>
<event>
 5   0  0.8024500E-09  0.3600666E+04  0.7818609E-02  0.8090339E-01
        1   -1    0    0  501    0  0.00000000000E+00  0.00000000000E+00  0.15815560306E+04  0.15815560306E+04  0.50400001928E-02 0.  1.
       -1   -1    0    0    0  501  0.00000000000E+00  0.00000000000E+00 -0.20493734702E+04  0.20493734702E+04  0.50400001928E-02 0. -1.
    10030    2    1    2    0    0  0.00000000000E+00  0.00000000000E+00 -0.46781743963E+03  0.36309295008E+04  0.36006660332E+04 0.  0.
        1    1    3    3  502    0 -0.92636005871E+03 -0.76824018376E+03 -0.15841411383E+04  0.19894318497E+04  0.50400001928E-02 0. -1.
       -1    1    3    3    0  502  0.92636005871E+03  0.76824018376E+03  0.11163236987E+04  0.16414976511E+04  0.50400001928E-02 0.  1.
</event>
<event>
 5   0  0.8063410E-09  0.3600595E+04  0.7818609E-02  0.8090355E-01
        1   -1    0    0  501    0  0.00000000000E+00  0.00000000000E+00  0.22693845252E+04  0.22693845252E+04  0.50400001928E-02 0.  1.
       -1   -1    0    0    0  501  0.00000000000E+00  0.00000000000E+00 -0.14281721871E+04  0.14281721871E+04  0.50400001928E-02 0. -1.
    10030    2    1    2    0    0  0.00000000000E+00  0.00000000000E+00  0.84121233810E+03  0.36975567124E+04  0.36005954290E+04 0.  0.
        2    1    3    3  502    0 -0.40146357184E+03  0.12317301429E+04  0.17043661788E+04  0.21408400724E+04  0.25500000920E-02 0.  1.
       -2    1    3    3    0  502  0.40146357184E+03 -0.12317301429E+04 -0.86315384068E+03  0.15567166399E+04  0.25500000920E-02 0. -1.
</event>
<event>
 5   0  0.8024500E-09  0.3598949E+04  0.7818609E-02  0.8090732E-01
       -1   -1    0    0    0  501  0.00000000000E+00  0.00000000000E+00  0.13522473103E+04  0.13522473103E+04  0.50400001928E-02 0. -1.
        1   -1    0    0  501    0  0.00000000000E+00  0.00000000000E+00 -0.23946131141E+04  0.23946131141E+04  0.50400001928E-02 0.  1.
    10030    2    1    2    0    0  0.00000000000E+00  0.00000000000E+00 -0.10423658038E+04  0.37468604244E+04  0.35989493705E+04 0.  0.
        5    1    3    3  502    0 -0.14900510035E+04 -0.28465356467E+03  0.48648386663E+03  0.15931002126E+04  0.46999998093E+01 0. -1.
       -5    1    3    3    0  502  0.14900510035E+04  0.28465356467E+03 -0.15288496705E+04  0.21537602118E+04  0.46999998093E+01 0.  1.
</event>
<event>
 5   0  0.2494592E-08  0.3600200E+04  0.7818609E-02  0.8090446E-01
       -2   -1    0    0    0  501  0.00000000000E+00  0.00000000000E+00  0.17542084979E+04  0.17542084979E+04  0.25500000920E-02 0. -1.
        2   -1    0    0  501    0  0.00000000000E+00  0.00000000000E+00 -0.18471921359E+04  0.18471921359E+04  0.25500000920E-02 0.  1.
    10030    2    1    2    0    0  0.00000000000E+00  0.00000000000E+00 -0.92983637986E+02  0.36014006337E+04  0.36002000733E+04 0.  0.
        1    1    3    3  502    0  0.11502246012E+04 -0.17210160602E+03 -0.14208948737E+04  0.18361856763E+04  0.50400001928E-02 0.  1.
       -1    1    3    3    0  502 -0.11502246012E+04  0.17210160602E+03  0.13279112357E+04  0.17652149574E+04  0.50400001928E-02 0. -1.
</event>
<event>
 5   0  0.2608070E-08  0.3593614E+04  0.7818609E-02  0.8091956E-01
       -2   -1    0    0    0  501  0.00000000000E+00  0.00000000000E+00  0.15448821391E+04  0.15448821391E+04  0.25500000920E-02 0. -1.
        2   -1    0    0  501    0  0.00000000000E+00  0.00000000000E+00 -0.20898128738E+04  0.20898128738E+04  0.25500000920E-02 0.  1.
    10030    2    1    2    0    0  0.00000000000E+00  0.00000000000E+00 -0.54493073469E+03  0.36346950129E+04  0.35936135479E+04 0.  0.
        3    1    3    3  502    0  0.32016112428E+03  0.29455990159E+03 -0.20357382249E+04  0.20817057457E+04  0.10100000352E+00 0.  1.
       -3    1    3    3    0  502 -0.32016112428E+03 -0.29455990159E+03  0.14908074902E+04  0.15529892672E+04  0.10100000352E+00 0. -1.
</event>
<event>
 5   0  0.8024500E-09  0.3599857E+04  0.7818609E-02  0.8090524E-01
        1   -1    0    0  501    0  0.00000000000E+00  0.00000000000E+00  0.15912794793E+04  0.15912794793E+04  0.50400001928E-02 0. -1.
       -1   -1    0    0    0  501  0.00000000000E+00  0.00000000000E+00 -0.20359361175E+04  0.20359361175E+04  0.50400001928E-02 0.  1.
    10030    2    1    2    0    0  0.00000000000E+00  0.00000000000E+00 -0.44465663820E+03  0.36272155968E+04  0.35998574221E+04 0.  0.
        1    1    3    3  502    0  0.10326342903E+03 -0.17960952206E+04 -0.27862770506E+03  0.18205094823E+04  0.50400001928E-02 0.  1.
       -1    1    3    3    0  502 -0.10326342903E+03  0.17960952206E+04 -0.16602893314E+03  0.18067061144E+04  0.50400001928E-02 0. -1.
</event>
<event>
 5   0  0.8063410E-09  0.3599050E+04  0.7818609E-02  0.8090709E-01
        1   -1    0    0  501    0  0.00000000000E+00  0.00000000000E+00  0.10783974804E+04  0.10783974804E+04  0.50400001928E-02 0. -1.
       -1   -1    0    0    0  501  0.00000000000E+00  0.00000000000E+00 -0.30028730018E+04  0.30028730018E+04  0.50400001928E-02 0.  1.
    10030    2    1    2    0    0  0.00000000000E+00  0.00000000000E+00 -0.19244755214E+04  0.40812704822E+04  0.35990502520E+04 0.  0.
        2    1    3    3  502    0  0.15936186094E+04  0.64289354411E+03 -0.15680007291E+04  0.23262757076E+04  0.25500000920E-02 0.  1.
       -2    1    3    3    0  502 -0.15936186094E+04 -0.64289354411E+03 -0.35647479225E+03  0.17549947746E+04  0.25500000920E-02 0. -1.
</event>
<event>
 5   0  0.8146881E-09  0.3599766E+04  0.7818609E-02  0.8090545E-01
        1   -1    0    0  501    0  0.00000000000E+00  0.00000000000E+00  0.13374721699E+04  0.13374721699E+04  0.50400001928E-02 0.  1.
       -1   -1    0    0    0  501  0.00000000000E+00  0.00000000000E+00 -0.24221651371E+04  0.24221651371E+04  0.50400001928E-02 0. -1.
    10030    2    1    2    0    0  0.00000000000E+00  0.00000000000E+00 -0.10846929673E+04  0.37596373070E+04  0.35997658045E+04 0.  0.
        4    1    3    3  502    0  0.95989439681E+03  0.11001891791E+04  0.55690029803E+03  0.15626749622E+04  0.12699999809E+01 0.  1.
       -4    1    3    3    0  502 -0.95989439681E+03 -0.11001891791E+04 -0.16415932653E+04  0.21969623448E+04  0.12699999809E+01 0. -1.
</event>
<event>
 5   0  0.8247570E-09  0.3600189E+04  0.7818609E-02  0.8090448E-01
       -1   -1    0    0    0  501  0.00000000000E+00  0.00000000000E+00  0.29611967481E+04  0.29611967481E+04  0.50400001928E-02 0. -1.
        1   -1    0    0  501    0  0.00000000000E+00  0.00000000000E+00 -0.10942671938E+04  0.10942671938E+04  0.50400001928E-02 0.  1.
    10030    2    1    2    0    0  0.00000000000E+00  0.00000000000E+00  0.18669295543E+04  0.40554639419E+04  0.36001891372E+04 0.  0.
        3    1    3    3  502    0  0.14098203032E+04  0.11154946329E+04  0.10368223840E+04  0.20753125619E+04  0.10100000352E+00 0. -1.
       -3    1    3    3    0  502 -0.14098203032E+04 -0.11154946329E+04  0.83010717026E+03  0.19801513800E+04  0.10100000352E+00 0.  1.
</event>
<event>
 5   0  0.8024500E-09  0.3600908E+04  0.7818609E-02  0.8090284E-01
       -1   -1    0    0    0  501  0.00000000000E+00  0.00000000000E+00  0.22773778231E+04  0.22773778231E+04  0.50400001928E-02 0. -1.
        1   -1    0    0  501    0  0.00000000000E+00  0.00000000000E+00 -0.14234067067E+04  0.14234067067E+04  0.50400001928E-02 0.  1.
    10030    2    1    2    0    0  0.00000000000E+00  0.00000000000E+00  0.85397111637E+03  0.37007845298E+04  0.36009081449E+04 0.  0.
        1    1    3    3  502    0  0.93959269896E+03 -0.14133791762E+04  0.10446198741E+04  0.19929139011E+04  0.50400001928E-02 0. -1.
       -1    1    3    3    0  502 -0.93959269896E+03  0.14133791762E+04 -0.19064875773E+03  0.17078706287E+04  0.50400001928E-02 0.  1.
</event>
<event>
 5   0  0.2590795E-08  0.3600480E+04  0.7818609E-02  0.8090382E-01
        2   -1    0    0  501    0  0.00000000000E+00  0.00000000000E+00  0.17714687082E+04  0.17714687082E+04  0.25500000920E-02 0.  1.
       -2   -1    0    0    0  501  0.00000000000E+00  0.00000000000E+00 -0.18294782989E+04  0.18294782989E+04  0.25500000920E-02 0. -1.
    10030    2    1    2    0    0  0.00000000000E+00  0.00000000000E+00 -0.58009590779E+02  0.36009470071E+04  0.36004797230E+04 0.  0.
        4    1    3    3  502    0  0.13799142872E+04  0.11557149960E+04  0.29579808701E+01  0.17999585980E+04  0.12699999809E+01 0.  1.
       -4    1    3    3    0  502 -0.13799142872E+04 -0.11557149960E+04 -0.60967571649E+02  0.18009884091E+04  0.12699999809E+01 0. -1.
</event>
<event>
 5   0  0.2590795E-08  0.3601967E+04  0.7818609E-02  0.8090041E-01
       -2   -1    0    0    0  501  0.00000000000E+00  0.00000000000E+00  0.11343825691E+04  0.11343825691E+04  0.25500000920E-02 0. -1.
        2   -1    0    0  501    0  0.00000000000E+00  0.00000000000E+00 -0.28593009841E+04  0.28593009841E+04  0.25500000920E-02 0.  1.
    10030    2    1    2    0    0  0.00000000000E+00  0.00000000000E+00 -0.17249184150E+04  0.39936835532E+04  0.36019667939E+04 0.  0.
        4    1    3    3  502    0  0.13628794240E+03 -0.84252478011E+03  0.89592209225E+03  0.12373764248E+04  0.12699999809E+01 0. -1.
       -4    1    3    3    0  502 -0.13628794240E+03  0.84252478011E+03 -0.26208405073E+04  0.27563071284E+04  0.12699999809E+01 0.  1.
</event>
<event>
 5   0  0.8024500E-09  0.3599783E+04  0.7818609E-02  0.8090541E-01
       -1   -1    0    0    0  501  0.00000000000E+00  0.00000000000E+00  0.31625540177E+04  0.31625540177E+04  0.50400001928E-02 0. -1.
        1   -1    0    0  501    0  0.00000000000E+00  0.00000000000E+00 -0.10243648135E+04  0.10243648135E+04  0.50400001928E-02 0.  1.
    10030    2    1    2    0    0  0.00000000000E+00  0.00000000000E+00  0.21381892042E+04  0.41869188312E+04  0.35997828026E+04 0.  0.
        1    1    3    3  502    0  0.21117930758E+03  0.17855493230E+04  0.97299967181E+03  0.20443853468E+04  0.50400001928E-02 0.  1.
       -1    1    3    3    0  502 -0.21117930758E+03 -0.17855493230E+04  0.11651895324E+04  0.21425334843E+04  0.50400001928E-02 0. -1.
</event>
<event>
 5   0  0.8146881E-09  0.3599309E+04  0.7818609E-02  0.8090650E-01
       -1   -1    0    0    0  501  0.00000000000E+00  0.00000000000E+00  0.17535268956E+04  0.17535268956E+04  0.50400001928E-02 0. -1.
        1   -1    0    0  501    0  0.00000000000E+00  0.00000000000E+00 -0.18469955021E+04  0.18469955021E+04  0.50400001928E-02 0.  1.
    10030    2    1    2    0    0  0.00000000000E+00  0.00000000000E+00 -0.93468606553E+02  0.36005223977E+04  0.35993089832E+04 0.  0.
        4    1    3    3  502    0 -0.15643698585E+03  0.13754001576E+04 -0.11971465922E+04  0.18301255968E+04  0.12699999809E+01 0.  1.
       -4    1    3    3    0  502  0.15643698585E+03 -0.13754001576E+04  0.11036779856E+04  0.17703968010E+04  0.12699999809E+01 0. -1.
</event>
<event>
 5   0  0.2590795E-08  0.3599620E+04  0.7818609E-02  0.8090579E-01
        2   -1    0    0  501    0  0.00000000000E+00  0.00000000000E+00  0.11484882764E+04  0.11484882764E+04  0.25500000920E-02 0. -1.
       -2   -1    0    0    0  501  0.00000000000E+00  0.00000000000E+00 -0.28205042001E+04  0.28205042001E+04  0.25500000920E-02 0.  1.
    10030    2    1    2    0    0  0.00000000000E+00  0.00000000000E+00 -0.16720159237E+04  0.39689924765E+04  0.35996199840E+04 0.  0.
        4    1    3    3  502    0  0.17528597169E+04  0.20739773002E+03 -0.44807667654E+03  0.18210725759E+04  0.12699999809E+01 0. -1.
       -4    1    3    3    0  502 -0.17528597169E+04 -0.20739773002E+03 -0.12239392471E+04  0.21479199006E+04  0.12699999809E+01 0.  1.
</event>
<event>
 5   0  0.2590795E-08  0.3601092E+04  0.7818609E-02  0.8090242E-01
        2   -1    0    0  501    0  0.00000000000E+00  0.00000000000E+00  0.15946323296E+04  0.15946323296E+04  0.25500000920E-02 0. -1.
       -2   -1    0    0    0  501  0.00000000000E+00  0.00000000000E+00 -0.20330494212E+04  0.20330494212E+04  0.25500000920E-02 0.  1.
    10030    2    1    2    0    0  0.00000000000E+00  0.00000000000E+00 -0.43841709159E+03  0.36276817509E+04  0.36010922425E+04 0.  0.
        4    1    3    3  502    0 -0.15294022714E+04  0.94501739269E+03 -0.31911512223E+03  0.18259149088E+04  0.12699999809E+01 0. -1.
       -4    1    3    3    0  502  0.15294022714E+04 -0.94501739269E+03 -0.11930196936E+03  0.18017668420E+04  0.12699999809E+01 0.  1.
</event>
<event>
 5   0  0.2482243E-08  0.3588321E+04  0.7818609E-02  0.8093172E-01
       -2   -1    0    0    0  501  0.00000000000E+00  0.00000000000E+00  0.14721443221E+04  0.14721443221E+04  0.25500000920E-02 0. -1.
        2   -1    0    0  501    0  0.00000000000E+00  0.00000000000E+00 -0.21866144110E+04  0.21866144110E+04  0.25500000920E-02 0.  1.
    10030    2    1    2    0    0  0.00000000000E+00  0.00000000000E+00 -0.71447008890E+03  0.36587587331E+04  0.35883210502E+04 0.  0.
        5    1    3    3  502    0 -0.28204499123E+03  0.17072879314E+04 -0.84046685656E+03  0.19237432481E+04  0.46999998093E+01 0.  1.
       -5    1    3    3    0  502  0.28204499123E+03 -0.17072879314E+04  0.12599676766E+03  0.17350154850E+04  0.46999998093E+01 0. -1.
</event>
<event>
 5   0  0.2494592E-08  0.3602305E+04  0.7818609E-02  0.8089964E-01
        2   -1    0    0  501    0  0.00000000000E+00  0.00000000000E+00  0.17243476868E+04  0.17243476868E+04  0.25500000920E-02 0. -1.
       -2   -1    0    0    0  501  0.00000000000E+00  0.00000000000E+00 -0.18813786390E+04  0.18813786390E+04  0.25500000920E-02 0.  1.
    10030    2    1    2    0    0  0.00000000000E+00  0.00000000000E+00 -0.15703095220E+03  0.36057263258E+04  0.36023053198E+04 0.  0.
        1    1    3    3  502    0  0.10515696249E+04  0.12706637719E+03 -0.15366783871E+04  0.18663667929E+04  0.50400001928E-02 0.  1.
       -1    1    3    3    0  502 -0.10515696249E+04 -0.12706637719E+03  0.13796474349E+04  0.17393595329E+04  0.50400001928E-02 0. -1.
</event>
<event>
 5   0  0.8024500E-09  0.3598765E+04  0.7818609E-02  0.8090775E-01
        3   -1    0    0  501    0  0.00000000000E+00  0.00000000000E+00  0.22300153689E+04  0.22300153712E+04  0.10100000352E+00 0. -1.
       -3   -1    0    0    0  501  0.00000000000E+00  0.00000000000E+00 -0.14519078261E+04  0.14519078296E+04  0.10100000352E+00 0.  1.
    10030    2    1    2    0    0  0.00000000000E+00  0.00000000000E+00  0.77810754278E+03  0.36819232008E+04  0.35987646642E+04 0.  0.
        4    1    3    3  502    0  0.10690315111E+03  0.17588063974E+04  0.76209810350E+03  0.19197977392E+04  0.12699999809E+01 0. -1.
       -4    1    3    3    0  502 -0.10690315111E+03 -0.17588063974E+04  0.16009439286E+02  0.17621254616E+04  0.12699999809E+01 0.  1.
</event>
<event>
 5   0  0.2482243E-08  0.3599750E+04  0.7818609E-02  0.8090549E-01
       -2   -1    0    0    0  501  0.00000000000E+00  0.00000000000E+00  0.14168898508E+04  0.14168898508E+04  0.25500000920E-02 0. -1.
        2   -1    0    0  501    0  0.00000000000E+00  0.00000000000E+00 -0.22863813547E+04  0.22863813547E+04  0.25500000920E-02 0.  1.
    10030    2    1    2    0    0  0.00000000000E+00  0.00000000000E+00 -0.86949150385E+03  0.37032712055E+04  0.35997502894E+04 0.  0.
        5    1    3    3  502    0 -0.55057592100E+03 -0.48044513097E+03  0.12574176421E+04  0.14543323504E+04  0.46999998093E+01 0. -1.
       -5    1    3    3    0  502  0.55057592100E+03  0.48044513097E+03 -0.21269091460E+04  0.22489388551E+04  0.46999998093E+01 0.  1.
</event>
<event>
 5   0  0.8063410E-09  0.3591441E+04  0.7818609E-02  0.8092455E-01
       -1   -1    0    0    0  501  0.00000000000E+00  0.00000000000E+00  0.19870244136E+04  0.19870244136E+04  0.50400001928E-02 0. -1.
        1   -1    0    0  501    0  0.00000000000E+00  0.00000000000E+00 -0.16228349685E+04  0.16228349685E+04  0.50400001928E-02 0.  1.
    10030    2    1    2    0    0  0.00000000000E+00  0.00000000000E+00  0.36418944507E+03  0.36098593822E+04  0.35914413272E+04 0.  0.
        2    1    3    3  502    0 -0.75417031923E+03 -0.10626607263E+04 -0.10597949106E+04  0.16796386344E+04  0.25500000920E-02 0.  1.
       -2    1    3    3    0  502  0.75417031923E+03  0.10626607263E+04  0.14239843557E+04  0.19302207477E+04  0.25500000920E-02 0. -1.
</event>
<event>
 5   0  0.2482243E-08  0.3586774E+04  0.7818609E-02  0.8093528E-01
       -2   -1    0    0    0  501  0.00000000000E+00  0.00000000000E+00  0.10309903676E+04  0.10309903676E+04  0.25500000920E-02 0.  1.
        2   -1    0    0  501    0  0.00000000000E+00  0.00000000000E+00 -0.31195599802E+04  0.31195599802E+04  0.25500000920E-02 0. -1.
    10030    2    1    2    0    0  0.00000000000E+00  0.00000000000E+00 -0.20885696126E+04  0.41505503478E+04  0.35867736426E+04 0.  0.
        5    1    3    3  502    0 -0.46549185327E+03  0.17092357496E+04 -0.13675607512E+04  0.22379486168E+04  0.46999998093E+01 0.  1.
       -5    1    3    3    0  502  0.46549185327E+03 -0.17092357496E+04 -0.72100886138E+03  0.19126017310E+04  0.46999998093E+01 0. -1.
</event>
<event>
 5   0  0.8247570E-09  0.3601843E+04  0.7818609E-02  0.8090070E-01
        1   -1    0    0  501    0  0.00000000000E+00  0.00000000000E+00  0.21971273506E+04  0.21971273506E+04  0.50400001928E-02 0.  1.
       -1   -1    0    0    0  501  0.00000000000E+00  0.00000000000E+00 -0.14761627171E+04  0.14761627171E+04  0.50400001928E-02 0. -1.
    10030    2    1    2    0    0  0.00000000000E+00  0.00000000000E+00  0.72096463350E+03  0.36732900678E+04  0.36018425728E+04 0.  0.
        3    1    3    3  502    0  0.59162896038E+02 -0.93360493982E+03  0.19299038161E+04  0.21446788061E+04  0.10100000352E+00 0.  1.
       -3    1    3    3    0  502 -0.59162896038E+02  0.93360493982E+03 -0.12089391826E+04  0.15286112617E+04  0.10100000352E+00 0. -1.
</event>
<event>
 5   0  0.8146881E-09  0.3599943E+04  0.7818609E-02  0.8090505E-01
        1   -1    0    0  501    0  0.00000000000E+00  0.00000000000E+00  0.22253153647E+04  0.22253153647E+04  0.50400001928E-02 0. -1.
       -1   -1    0    0    0  501  0.00000000000E+00  0.00000000000E+00 -0.14559270317E+04  0.14559270317E+04  0.50400001928E-02 0.  1.
    10030    2    1    2    0    0  0.00000000000E+00  0.00000000000E+00  0.76938833296E+03  0.36812423964E+04  0.35999426626E+04 0.  0.
        4    1    3    3  502    0 -0.10261673608E+04 -0.37652246714E+02  0.18964096712E+04  0.21565732999E+04  0.12699999809E+01 0. -1.
       -4    1    3    3    0  502  0.10261673608E+04  0.37652246714E+02 -0.11270213382E+04  0.15246690965E+04  0.12699999809E+01 0.  1.
</event>
<event>
 5   0  0.8247570E-09  0.3599598E+04  0.7818609E-02  0.8090584E-01
        1   -1    0    0  501    0  0.00000000000E+00  0.00000000000E+00  0.23023285335E+04  0.23023285335E+04  0.50400001928E-02 0. -1.
       -1   -1    0    0    0  501  0.00000000000E+00  0.00000000000E+00 -0.14069564927E+04  0.14069564927E+04  0.50400001928E-02 0.  1.
    10030    2    1    2    0    0  0.00000000000E+00  0.00000000000E+00  0.89537204079E+03  0.37092850262E+04  0.35995977989E+04 0.  0.
        3    1    3    3  502    0 -0.22630316282E+03 -0.16272107718E+03 -0.13845804998E+04  0.14123577596E+04  0.10100000352E+00 0.  1.
       -3    1    3    3    0  502  0.22630316282E+03  0.16272107718E+03  0.22799525406E+04  0.22969272666E+04  0.10100000352E+00 0. -1.
</event>
<event>
 5   0  0.8247570E-09  0.3600529E+04  0.7818609E-02  0.8090371E-01
       -1   -1    0    0    0  501  0.00000000000E+00  0.00000000000E+00  0.22108809886E+04  0.22108809886E+04  0.50400001928E-02 0.  1.
        1   -1    0    0  501    0  0.00000000000E+00  0.00000000000E+00 -0.14659096411E+04  0.14659096412E+04  0.50400001928E-02 0. -1.
    10030    2    1    2    0    0  0.00000000000E+00  0.00000000000E+00  0.74497134746E+03  0.36767906298E+04  0.36005287149E+04 0.  0.
        3    1    3    3  502    0  0.13726768058E+04 -0.90392688361E+03  0.11226375232E+04  0.19903870083E+04  0.10100000352E+00 0.  1.
       -3    1    3    3    0  502 -0.13726768058E+04  0.90392688361E+03 -0.37766617575E+03  0.16864036215E+04  0.10100000352E+00 0. -1.
</event>
<event>
 5   0  0.2476968E-08  0.3600272E+04  0.7818609E-02  0.8090429E-01
        2   -1    0    0  501    0  0.00000000000E+00  0.00000000000E+00  0.14388949866E+04  0.14388949866E+04  0.25500000920E-02 0. -1.
       -2   -1    0    0    0  501  0.00000000000E+00  0.00000000000E+00 -0.22520678098E+04  0.22520678098E+04  0.25500000920E-02 0.  1.
    10030    2    1    2    0    0  0.00000000000E+00  0.00000000000E+00 -0.81317282327E+03  0.36909627964E+04  0.36002717014E+04 0.  0.
        2    1    3    3  502    0 -0.16445993261E+04  0.67131234598E+03 -0.70569230692E+03  0.19113787802E+04  0.25500000920E-02 0. -1.
       -2    1    3    3    0  502  0.16445993261E+04 -0.67131234598E+03 -0.10748051635E+03  0.17795840162E+04  0.25500000920E-02 0.  1.
</event>
<event>
 5   0  0.8024500E-09  0.3603846E+04  0.7818609E-02  0.8089611E-01
       -1   -1    0    0    0  501  0.00000000000E+00  0.00000000000E+00  0.13473191761E+04  0.13473191761E+04  0.50400001928E-02 0. -1.
        1   -1    0    0  501    0  0.00000000000E+00  0.00000000000E+00 -0.24099158211E+04  0.24099158211E+04  0.50400001928E-02 0.  1.
    10030    2    1    2    0    0  0.00000000000E+00  0.00000000000E+00 -0.10625966450E+04  0.37572349972E+04  0.36038456119E+04 0.  0.
        5    1    3    3  502    0 -0.11590419528E+04 -0.45657539505E+03  0.82606240253E+03  0.14947376099E+04  0.46999998093E+01 0. -1.
       -5    1    3    3    0  502  0.11590419528E+04  0.45657539505E+03 -0.18886590475E+04  0.22624973873E+04  0.46999998093E+01 0.  1.
</event>
<event>
 5   0  0.8063410E-09  0.3600846E+04  0.7818609E-02  0.8090298E-01
        1   -1    0    0  501    0  0.00000000000E+00  0.00000000000E+00  0.92800347196E+03  0.92800347197E+03  0.50400001928E-02 0. -1.
       -1   -1    0    0    0  501  0.00000000000E+00  0.00000000000E+00 -0.34930068088E+04  0.34930068088E+04  0.50400001928E-02 0.  1.
    10030    2    1    2    0    0  0.00000000000E+00  0.00000000000E+00 -0.25650033369E+04  0.44210102808E+04  0.36008457041E+04 0.  0.
        2    1    3    3  502    0 -0.51601406143E+03 -0.17226720232E+04 -0.11750943517E+04  0.21481890388E+04  0.25500000920E-02 0.  1.
       -2    1    3    3    0  502  0.51601406143E+03  0.17226720232E+04 -0.13899089851E+04  0.22728212420E+04  0.25500000920E-02 0. -1.
</event>
<event>
 5   0  0.8247570E-09  0.3602966E+04  0.7818609E-02  0.8089813E-01
        1   -1    0    0  501    0  0.00000000000E+00  0.00000000000E+00  0.11499418451E+04  0.11499418451E+04  0.50400001928E-02 0.  1.
       -1   -1    0    0    0  501  0.00000000000E+00  0.00000000000E+00 -0.28221782670E+04  0.28221782671E+04  0.50400001928E-02 0. -1.
    10030    2    1    2    0    0  0.00000000000E+00  0.00000000000E+00 -0.16722364219E+04  0.39721201122E+04  0.36029659358E+04 0.  0.
        3    1    3    3  502    0 -0.88792688082E+03  0.14622093026E+04 -0.14586614379E+04  0.22481466569E+04  0.10100000352E+00 0. -1.
       -3    1    3    3    0  502  0.88792688082E+03 -0.14622093026E+04 -0.21357498404E+03  0.17239734553E+04  0.10100000352E+00 0.  1.
</event>
<event>
 5   0  0.2494592E-08  0.3598970E+04  0.7818609E-02  0.8090728E-01
       -2   -1    0    0    0  501  0.00000000000E+00  0.00000000000E+00  0.11939357711E+04  0.11939357711E+04  0.25500000920E-02 0.  1.
        2   -1    0    0  501    0  0.00000000000E+00  0.00000000000E+00 -0.27121610692E+04  0.27121610692E+04  0.25500000920E-02 0. -1.
    10030    2    1    2    0    0  0.00000000000E+00  0.00000000000E+00 -0.15182252981E+04  0.39060968403E+04  0.35989699179E+04 0.  0.
        1    1    3    3  502    0 -0.85894969063E+03 -0.13927058206E+04 -0.15718282647E+04  0.22689354701E+04  0.50400001928E-02 0. -1.
       -1    1    3    3    0  502  0.85894969063E+03  0.13927058206E+04  0.53602966639E+02  0.16371613701E+04  0.50400001928E-02 0.  1.
</event>
<event>
 5   0  0.2476968E-08  0.3598735E+04  0.7818609E-02  0.8090782E-01
       -2   -1    0    0    0  501  0.00000000000E+00  0.00000000000E+00  0.14443347008E+04  0.14443347009E+04  0.25500000920E-02 0. -1.
        2   -1    0    0  501    0  0.00000000000E+00  0.00000000000E+00 -0.22416705734E+04  0.22416705734E+04  0.25500000920E-02 0.  1.
    10030    2    1    2    0    0  0.00000000000E+00  0.00000000000E+00 -0.79733587252E+03  0.36860052742E+04  0.35987345537E+04 0.  0.
        2    1    3    3  502    0 -0.14905356935E+04  0.87547681773E+03  0.11301283386E+03  0.17323187387E+04  0.25500000920E-02 0.  1.
       -2    1    3    3    0  502  0.14905356935E+04 -0.87547681773E+03 -0.91034870638E+03  0.19536865355E+04  0.25500000920E-02 0. -1.
</event>
<event>
 5   0  0.8247570E-09  0.3601406E+04  0.7818609E-02  0.8090170E-01
        1   -1    0    0  501    0  0.00000000000E+00  0.00000000000E+00  0.16888832336E+04  0.16888832336E+04  0.50400001928E-02 0. -1.
       -1   -1    0    0    0  501  0.00000000000E+00  0.00000000000E+00 -0.19199264682E+04  0.19199264682E+04  0.50400001928E-02 0.  1.
    10030    2    1    2    0    0  0.00000000000E+00  0.00000000000E+00 -0.23104323452E+03  0.36088097018E+04  0.36014061820E+04 0.  0.
        3    1    3    3  502    0 -0.78333997601E+03  0.55392013322E+03  0.14114490910E+04  0.17066451238E+04  0.10100000352E+00 0. -1.
       -3    1    3    3    0  502  0.78333997601E+03 -0.55392013322E+03 -0.16424923255E+04  0.19021645780E+04  0.10100000352E+00 0.  1.
</event>
<event>
 5   0  0.2494592E-08  0.3595641E+04  0.7818609E-02  0.8091491E-01
        2   -1    0    0  501    0  0.00000000000E+00  0.00000000000E+00  0.20943181274E+04  0.20943181274E+04  0.25500000920E-02 0.  1.
       -2   -1    0    0    0  501  0.00000000000E+00  0.00000000000E+00 -0.15432989747E+04  0.15432989747E+04  0.25500000920E-02 0. -1.
    10030    2    1    2    0    0  0.00000000000E+00  0.00000000000E+00  0.55101915271E+03  0.36376171021E+04  0.35956412606E+04 0.  0.
        1    1    3    3  502    0  0.98472751215E+02 -0.27138565354E+02 -0.15403610519E+04  0.15437440055E+04  0.50400001928E-02 0. -1.
       -1    1    3    3    0  502 -0.98472751215E+02  0.27138565354E+02  0.20913802046E+04  0.20938730966E+04  0.50400001928E-02 0.  1.
</event>
<event>
 5   0  0.8024500E-09  0.3597729E+04  0.7818609E-02  0.8091012E-01
        1   -1    0    0  501    0  0.00000000000E+00  0.00000000000E+00  0.18271532948E+04  0.18271532948E+04  0.50400001928E-02 0.  1.
       -1   -1    0    0    0  501  0.00000000000E+00  0.00000000000E+00 -0.17710135571E+04  0.17710135571E+04  0.50400001928E-02 0. -1.
    10030    2    1    2    0    0  0.00000000000E+00  0.00000000000E+00  0.56139737670E+02  0.35981668519E+04  0.35977288703E+04 0.  0.
        1    1    3    3  502    0 -0.81559988260E+02  0.12766478805E+04  0.12929101202E+04  0.18188178638E+04  0.50400001928E-02 0.  1.
       -1    1    3    3    0  502  0.81559988260E+02 -0.12766478805E+04 -0.12367703825E+04  0.17793489882E+04  0.50400001928E-02 0. -1.
</event>
<event>
 5   0  0.8247570E-09  0.3600392E+04  0.7818609E-02  0.8090402E-01
        1   -1    0    0  501    0  0.00000000000E+00  0.00000000000E+00  0.21299162309E+04  0.21299162310E+04  0.50400001928E-02 0. -1.
       -1   -1    0    0    0  501  0.00000000000E+00  0.00000000000E+00 -0.15215176483E+04  0.15215176483E+04  0.50400001928E-02 0.  1.
    10030    2    1    2    0    0  0.00000000000E+00  0.00000000000E+00  0.60839858265E+03  0.36514338793E+04  0.36003917203E+04 0.  0.
        3    1    3    3  502    0 -0.41183793773E+03 -0.13328497472E+03  0.20763495454E+04  0.21209909987E+04  0.10100000352E+00 0. -1.
       -3    1    3    3    0  502  0.41183793773E+03  0.13328497472E+03 -0.14679509628E+04  0.15304428806E+04  0.10100000352E+00 0.  1.
</event>
<event>
 5   0  0.2590795E-08  0.3597576E+04  0.7818609E-02  0.8091047E-01
        2   -1    0    0  501    0  0.00000000000E+00  0.00000000000E+00  0.20502222221E+04  0.20502222221E+04  0.25500000920E-02 0.  1.
       -2   -1    0    0    0  501  0.00000000000E+00  0.00000000000E+00 -0.15781889691E+04  0.15781889691E+04  0.25500000920E-02 0. -1.
    10030    2    1    2    0    0  0.00000000000E+00  0.00000000000E+00  0.47203325301E+03  0.36284111913E+04  0.35975759034E+04 0.  0.
        4    1    3    3  502    0  0.75616011246E+03 -0.67771864244E+03  0.17335174878E+04  0.20090209475E+04  0.12699999809E+01 0.  1.
       -4    1    3    3    0  502 -0.75616011246E+03  0.67771864244E+03 -0.12614842348E+04  0.16193902438E+04  0.12699999809E+01 0. -1.
</event>
<event>
 5   0  0.2482243E-08  0.3599810E+04  0.7818609E-02  0.8090535E-01
       -2   -1    0    0    0  501  0.00000000000E+00  0.00000000000E+00  0.12749974126E+04  0.12749974126E+04  0.25500000920E-02 0.  1.
        2   -1    0    0  501    0  0.00000000000E+00  0.00000000000E+00 -0.25409132417E+04  0.25409132417E+04  0.25500000920E-02 0. -1.
    10030    2    1    2    0    0  0.00000000000E+00  0.00000000000E+00 -0.12659158291E+04  0.38159106543E+04  0.35998098888E+04 0.  0.
        5    1    3    3  502    0  0.79700740219E+03  0.29291008500E+03  0.10493281029E+04  0.13498624651E+04  0.46999998093E+01 0.  1.
       -5    1    3    3    0  502 -0.79700740219E+03 -0.29291008500E+03 -0.23152439320E+04  0.24660481893E+04  0.46999998093E+01 0. -1.
</event>
<event>
 5   0  0.2494592E-08  0.3592167E+04  0.7818609E-02  0.8092288E-01
       -2   -1    0    0    0  501  0.00000000000E+00  0.00000000000E+00  0.21363599550E+04  0.21363599550E+04  0.25500000920E-02 0. -1.
        2   -1    0    0  501    0  0.00000000000E+00  0.00000000000E+00 -0.15100055237E+04  0.15100055237E+04  0.25500000920E-02 0.  1.
    10030    2    1    2    0    0  0.00000000000E+00  0.00000000000E+00  0.62635443125E+03  0.36463654787E+04  0.35921666624E+04 0.  0.
        1    1    3    3  502    0 -0.97044401537E+03 -0.50332856080E+03 -0.11333906183E+04  0.15746985492E+04  0.50400001928E-02 0.  1.
       -1    1    3    3    0  502  0.97044401537E+03  0.50332856080E+03  0.17597450496E+04  0.20716669295E+04  0.50400001928E-02 0. -1.
</event>
<event>
 5   0  0.2482243E-08  0.3601303E+04  0.7818609E-02  0.8090193E-01
        2   -1    0    0  501    0  0.00000000000E+00  0.00000000000E+00  0.27015337720E+04  0.27015337720E+04  0.25500000920E-02 0.  1.
       -2   -1    0    0    0  501  0.00000000000E+00  0.00000000000E+00 -0.12001872967E+04  0.12001872967E+04  0.25500000920E-02 0. -1.
    10030    2    1    2    0    0  0.00000000000E+00  0.00000000000E+00  0.15013464753E+04  0.39017210687E+04  0.36013033833E+04 0.  0.
        5    1    3    3  502    0 -0.91154476428E+03 -0.82225642163E+03 -0.67652536507E+03  0.14016876042E+04  0.46999998093E+01 0. -1.
       -5    1    3    3    0  502  0.91154476428E+03  0.82225642163E+03  0.21778718404E+04  0.25000334645E+04  0.46999998093E+01 0.  1.
</event>
<event>
 5   0  0.2590795E-08  0.3594681E+04  0.7818609E-02  0.8091711E-01
       -2   -1    0    0    0  501  0.00000000000E+00  0.00000000000E+00  0.14041382253E+04  0.14041382253E+04  0.25500000920E-02 0.  1.
        2   -1    0    0  501    0  0.00000000000E+00  0.00000000000E+00 -0.23006515648E+04  0.23006515648E+04  0.25500000920E-02 0. -1.
    10030    2    1    2    0    0  0.00000000000E+00  0.00000000000E+00 -0.89651333951E+03  0.37047897901E+04  0.35946809623E+04 0.  0.
        4    1    3    3  502    0  0.10719186329E+04 -0.58032651174E+03 -0.18095649239E+04  0.21818146673E+04  0.12699999809E+01 0. -1.
       -4    1    3    3    0  502 -0.10719186329E+04  0.58032651174E+03  0.91305158444E+03  0.15229751227E+04  0.12699999809E+01 0.  1.
</event>
<event>
 5   0  0.8247570E-09  0.3600106E+04  0.7818609E-02  0.8090467E-01
       -1   -1    0    0    0  501  0.00000000000E+00  0.00000000000E+00  0.34775210006E+04  0.34775210006E+04  0.50400001928E-02 0. -1.
        1   -1    0    0  501    0  0.00000000000E+00  0.00000000000E+00 -0.93175307670E+03  0.93175307671E+03  0.50400001928E-02 0.  1.
    10030    2    1    2    0    0  0.00000000000E+00  0.00000000000E+00  0.25457679239E+04  0.44092740773E+04  0.36001060494E+04 0.  0.
        3    1    3    3  502    0 -0.99290895181E+03  0.19887206564E+03 -0.54982098235E+03  0.11522679410E+04  0.10100000352E+00 0.  1.
       -3    1    3    3    0  502  0.99290895181E+03 -0.19887206564E+03  0.30955889063E+04  0.32570061363E+04  0.10100000352E+00 0. -1.
</event>
<event>
 5   0  0.8247570E-09  0.3606219E+04  0.7818609E-02  0.8089069E-01
        1   -1    0    0  501    0  0.00000000000E+00  0.00000000000E+00  0.15732397598E+04  0.15732397598E+04  0.50400001928E-02 0.  1.
       -1   -1    0    0    0  501  0.00000000000E+00  0.00000000000E+00 -0.20665664668E+04  0.20665664668E+04  0.50400001928E-02 0. -1.
    10030    2    1    2    0    0  0.00000000000E+00  0.00000000000E+00 -0.49332670693E+03  0.36398062266E+04  0.36062193676E+04 0.  0.
        3    1    3    3  502    0 -0.87239739149E+03 -0.12523267324E+04  0.72238549080E+03  0.16885615953E+04  0.10100000352E+00 0.  1.
       -3    1    3    3    0  502  0.87239739149E+03  0.12523267324E+04 -0.12157121977E+04  0.19512446314E+04  0.10100000352E+00 0. -1.
</event>
<event>
 5   0  0.2608070E-08  0.3600998E+04  0.7818609E-02  0.8090263E-01
       -2   -1    0    0    0  501  0.00000000000E+00  0.00000000000E+00  0.26905367200E+04  0.26905367200E+04  0.25500000920E-02 0.  1.
        2   -1    0    0  501    0  0.00000000000E+00  0.00000000000E+00 -0.12048884621E+04  0.12048884621E+04  0.25500000920E-02 0. -1.
    10030    2    1    2    0    0  0.00000000000E+00  0.00000000000E+00  0.14856482579E+04  0.38954251820E+04  0.36009980009E+04 0.  0.
        3    1    3    3  502    0 -0.16178060707E+03 -0.48013089365E+03 -0.11261844031E+04  0.12349048384E+04  0.10100000352E+00 0. -1.
       -3    1    3    3    0  502  0.16178060707E+03  0.48013089365E+03  0.26118326610E+04  0.26605203437E+04  0.10100000352E+00 0.  1.
</event>
<event>
 5   0  0.2590795E-08  0.3597173E+04  0.7818609E-02  0.8091140E-01
       -2   -1    0    0    0  501  0.00000000000E+00  0.00000000000E+00  0.13981752567E+04  0.13981752567E+04  0.25500000920E-02 0. -1.
        2   -1    0    0  501    0  0.00000000000E+00  0.00000000000E+00 -0.23136678960E+04  0.23136678960E+04  0.25500000920E-02 0.  1.
    10030    2    1    2    0    0  0.00000000000E+00  0.00000000000E+00 -0.91549263932E+03  0.37118431526E+04  0.35971728923E+04 0.  0.
        4    1    3    3  502    0 -0.16144156845E+04 -0.46765718347E+03  0.20287343220E+03  0.16929856722E+04  0.12699999809E+01 0. -1.
       -4    1    3    3    0  502  0.16144156845E+04  0.46765718347E+03 -0.11183660715E+04  0.20188574805E+04  0.12699999809E+01 0.  1.
</event>
<event>
 5   0  0.8063410E-09  0.3597007E+04  0.7818609E-02  0.8091178E-01
        1   -1    0    0  501    0  0.00000000000E+00  0.00000000000E+00  0.24678368208E+04  0.24678368208E+04  0.50400001928E-02 0. -1.
       -1   -1    0    0    0  501  0.00000000000E+00  0.00000000000E+00 -0.13107086080E+04  0.13107086080E+04  0.50400001928E-02 0.  1.
    10030    2    1    2    0    0  0.00000000000E+00  0.00000000000E+00  0.11571282129E+04  0.37785454288E+04  0.35970070693E+04 0.  0.
        2    1    3    3  502    0  0.11275603225E+04  0.12122016741E+04  0.13167307346E+04  0.21153262176E+04  0.25500000920E-02 0.  1.
       -2    1    3    3    0  502 -0.11275603225E+04 -0.12122016741E+04 -0.15960252171E+03  0.16632192112E+04  0.25500000920E-02 0. -1.
</event>
<event>
 5   0  0.8024500E-09  0.3601658E+04  0.7818609E-02  0.8090112E-01
       -1   -1    0    0    0  501  0.00000000000E+00  0.00000000000E+00  0.13409056092E+04  0.13409056092E+04  0.50400001928E-02 0.  1.
        1   -1    0    0  501    0  0.00000000000E+00  0.00000000000E+00 -0.24185031435E+04  0.24185031435E+04  0.50400001928E-02 0. -1.
    10030    2    1    2    0    0  0.00000000000E+00  0.00000000000E+00 -0.10775975343E+04  0.37594087527E+04  0.36016576356E+04 0.  0.
        1    1    3    3  502    0 -0.95361027010E+03  0.15069067051E+04 -0.27713158436E+03  0.18047000527E+04  0.50400001928E-02 0. -1.
       -1    1    3    3    0  502  0.95361027010E+03 -0.15069067051E+04 -0.80046594995E+03  0.19547087001E+04  0.50400001928E-02 0.  1.
</event>
<event>
 5   0  0.8063410E-09  0.3600836E+04  0.7818609E-02  0.8090300E-01
       -1   -1    0    0    0  501  0.00000000000E+00  0.00000000000E+00  0.15597318516E+04  0.15597318516E+04  0.50400001928E-02 0. -1.
        1   -1    0    0  501    0  0.00000000000E+00  0.00000000000E+00 -0.20782446954E+04  0.20782446954E+04  0.50400001928E-02 0.  1.
    10030    2    1    2    0    0  0.00000000000E+00  0.00000000000E+00 -0.51851284380E+03  0.36379765469E+04  0.36008357067E+04 0.  0.
        2    1    3    3  502    0  0.85390892527E+03 -0.10579836095E+03 -0.18570715119E+04  0.20467213651E+04  0.25500000920E-02 0.  1.
       -2    1    3    3    0  502 -0.85390892527E+03  0.10579836095E+03  0.13385586681E+04  0.15912551819E+04  0.25500000920E-02 0. -1.
</event>
<event>
 5   0  0.2590795E-08  0.3601635E+04  0.7818609E-02  0.8090117E-01
        2   -1    0    0  501    0  0.00000000000E+00  0.00000000000E+00  0.14814826966E+04  0.14814826966E+04  0.25500000920E-02 0. -1.
       -2   -1    0    0    0  501  0.00000000000E+00  0.00000000000E+00 -0.21889853911E+04  0.21889853911E+04  0.25500000920E-02 0.  1.
    10030    2    1    2    0    0  0.00000000000E+00  0.00000000000E+00 -0.70750269447E+03  0.36704680877E+04  0.36016351731E+04 0.  0.
        4    1    3    3  502    0  0.12006280108E+04 -0.61320721462E+03  0.86297212679E+03  0.16007039742E+04  0.12699999809E+01 0. -1.
       -4    1    3    3    0  502 -0.12006280108E+04  0.61320721462E+03 -0.15704748213E+04  0.20697641135E+04  0.12699999809E+01 0.  1.
</event>
<event>
 5   0  0.2590795E-08  0.3599486E+04  0.7818609E-02  0.8090609E-01
       -2   -1    0    0    0  501  0.00000000000E+00  0.00000000000E+00  0.11722613602E+04  0.11722613602E+04  0.25500000920E-02 0.  1.
        2   -1    0    0  501    0  0.00000000000E+00  0.00000000000E+00 -0.27631000892E+04  0.27631000892E+04  0.25500000920E-02 0. -1.
    10030    2    1    2    0    0  0.00000000000E+00  0.00000000000E+00 -0.15908387290E+04  0.39353614494E+04  0.35994863350E+04 0.  0.
        4    1    3    3  502    0 -0.13142738955E+04 -0.11231968939E+04 -0.13422794496E+04  0.21887445873E+04  0.12699999809E+01 0.  1.
       -4    1    3    3    0  502  0.13142738955E+04  0.11231968939E+04 -0.24855927941E+03  0.17466168621E+04  0.12699999809E+01 0. -1.
</event>
<event>
 5   0  0.2482243E-08  0.3599028E+04  0.7818609E-02  0.8090714E-01
        2   -1    0    0  501    0  0.00000000000E+00  0.00000000000E+00  0.19699498641E+04  0.19699498641E+04  0.25500000920E-02 0.  1.
       -2   -1    0    0    0  501  0.00000000000E+00  0.00000000000E+00 -0.16438239428E+04  0.16438239428E+04  0.25500000920E-02 0. -1.
    10030    2    1    2    0    0  0.00000000000E+00  0.00000000000E+00  0.32612592127E+03  0.36137738069E+04  0.35990280647E+04 0.  0.
        5    1    3    3  502    0  0.29907543778E+03  0.12455671579E+00 -0.16186882645E+04  0.16460923184E+04  0.46999998093E+01 0. -1.
       -5    1    3    3    0  502 -0.29907543778E+03 -0.12455671579E+00  0.19448141858E+04  0.19676814885E+04  0.46999998093E+01 0.  1.
</event>
<event>
 5   0  0.8247570E-09  0.3598730E+04  0.7818609E-02  0.8090783E-01
        1   -1    0    0  501    0  0.00000000000E+00  0.00000000000E+00  0.25865699106E+04  0.25865699106E+04  0.50400001928E-02 0. -1.
       -1   -1    0    0    0  501  0.00000000000E+00  0.00000000000E+00 -0.12517402047E+04  0.12517402047E+04  0.50400001928E-02 0.  1.
    10030    2    1    2    0    0  0.00000000000E+00  0.00000000000E+00  0.13348297059E+04  0.38383101153E+04  0.35987295255E+04 0.  0.
        3    1    3    3  502    0  0.15711231835E+04 -0.19032427650E+03  0.15806050737E+04  0.22367306045E+04  0.10100000352E+00 0. -1.
       -3    1    3    3    0  502 -0.15711231835E+04  0.19032427650E+03 -0.24577536779E+03  0.16015795108E+04  0.10100000352E+00 0.  1.
</event>
<event>
 5   0  0.8063410E-09  0.3599749E+04  0.7818609E-02  0.8090549E-01
       -1   -1    0    0    0  501  0.00000000000E+00  0.00000000000E+00  0.15697491821E+04  0.15697491821E+04  0.50400001928E-02 0. -1.
        1   -1    0    0  501    0  0.00000000000E+00  0.00000000000E+00 -0.20637357597E+04  0.20637357597E+04  0.50400001928E-02 0.  1.
    10030    2    1    2    0    0  0.00000000000E+00  0.00000000000E+00 -0.49398657757E+03  0.36334849418E+04  0.35997486139E+04 0.  0.
        2    1    3    3  502    0  0.10246907341E+04 -0.13286347812E+04 -0.90447028451E+03  0.19061290560E+04  0.25500000920E-02 0.  1.
       -2    1    3    3    0  502 -0.10246907341E+04  0.13286347812E+04  0.41048370694E+03  0.17273558858E+04  0.25500000920E-02 0. -1.
</event>
<event>
 5   0  0.2494592E-08  0.3600521E+04  0.7818609E-02  0.8090372E-01
        2   -1    0    0  501    0  0.00000000000E+00  0.00000000000E+00  0.16263551227E+04  0.16263551227E+04  0.25500000920E-02 0.  1.
       -2   -1    0    0    0  501  0.00000000000E+00  0.00000000000E+00 -0.19927618383E+04  0.19927618383E+04  0.25500000920E-02 0. -1.
    10030    2    1    2    0    0  0.00000000000E+00  0.00000000000E+00 -0.36640671563E+03  0.36191169610E+04  0.36005213090E+04 0.  0.
        1    1    3    3  502    0 -0.10634111091E+04  0.13528131936E+04 -0.71507864541E+03  0.18634066096E+04  0.50400001928E-02 0. -1.
       -1    1    3    3    0  502  0.10634111091E+04 -0.13528131936E+04  0.34867192979E+03  0.17557103515E+04  0.50400001928E-02 0.  1.
</event>
<event>
 5   0  0.8146881E-09  0.3599158E+04  0.7818609E-02  0.8090685E-01
        1   -1    0    0  501    0  0.00000000000E+00  0.00000000000E+00  0.20309970592E+04  0.20309970592E+04  0.50400001928E-02 0. -1.
       -1   -1    0    0    0  501  0.00000000000E+00  0.00000000000E+00 -0.15945292205E+04  0.15945292205E+04  0.50400001928E-02 0.  1.
    10030    2    1    2    0    0  0.00000000000E+00  0.00000000000E+00  0.43646783871E+03  0.36255262797E+04  0.35991577668E+04 0.  0.
        4    1    3    3  502    0  0.66494444205E+02  0.15572485752E+04  0.11242890191E+04  0.19218407966E+04  0.12699999809E+01 0. -1.
       -4    1    3    3    0  502 -0.66494444205E+02 -0.15572485752E+04 -0.68782118043E+03  0.17036854831E+04  0.12699999809E+01 0.  1.
</event>
<event>
 5   0  0.2590795E-08  0.3600161E+04  0.7818609E-02  0.8090455E-01
        2   -1    0    0  501    0  0.00000000000E+00  0.00000000000E+00  0.22886868706E+04  0.22886868706E+04  0.25500000920E-02 0. -1.
       -2   -1    0    0    0  501  0.00000000000E+00  0.00000000000E+00 -0.14157856322E+04  0.14157856322E+04  0.25500000920E-02 0.  1.
    10030    2    1    2    0    0  0.00000000000E+00  0.00000000000E+00  0.87290123836E+03  0.37044725028E+04  0.36001611008E+04 0.  0.
        4    1    3    3  502    0 -0.90857401227E+03  0.15187235716E+04  0.77501335731E+03  0.19320132866E+04  0.12699999809E+01 0. -1.
       -4    1    3    3    0  502  0.90857401227E+03 -0.15187235716E+04  0.97887881050E+02  0.17724592161E+04  0.12699999809E+01 0.  1.
</event>
<event>
 5   0  0.2476968E-08  0.3600581E+04  0.7818609E-02  0.8090359E-01
       -2   -1    0    0    0  501  0.00000000000E+00  0.00000000000E+00  0.14420983113E+04  0.14420983113E+04  0.25500000920E-02 0. -1.
        2   -1    0    0  501    0  0.00000000000E+00  0.00000000000E+00 -0.22474508853E+04  0.22474508853E+04  0.25500000920E-02 0.  1.
    10030    2    1    2    0    0  0.00000000000E+00  0.00000000000E+00 -0.80535257400E+03  0.36895491965E+04  0.36005805789E+04 0.  0.
        2    1    3    3  502    0 -0.12116940073E+04  0.67741366898E+02  0.95993844218E+03  0.15473438768E+04  0.25500000920E-02 0. -1.
       -2    1    3    3    0  502  0.12116940073E+04 -0.67741366898E+02 -0.17652910162E+04  0.21422053198E+04  0.25500000920E-02 0.  1.
</event>
<event>
 5   0  0.8146881E-09  0.3599763E+04  0.7818609E-02  0.8090546E-01
        1   -1    0    0  501    0  0.00000000000E+00  0.00000000000E+00  0.26463965774E+04  0.26463965774E+04  0.50400001928E-02 0.  1.
       -1   -1    0    0    0  501  0.00000000000E+00  0.00000000000E+00 -0.12241452927E+04  0.12241452927E+04  0.50400001928E-02 0. -1.
    10030    2    1    2    0    0  0.00000000000E+00  0.00000000000E+00  0.14222512847E+04  0.38705418701E+04  0.35997632771E+04 0.  0.
        4    1    3    3  502    0  0.10478364736E+04  0.11440154958E+04 -0.27012172215E+03  0.15747063496E+04  0.12699999809E+01 0. -1.
       -4    1    3    3    0  502 -0.10478364736E+04 -0.11440154958E+04  0.16923730068E+04  0.22958355205E+04  0.12699999809E+01 0.  1.
</event>
<event>
 5   0  0.2590795E-08  0.3599564E+04  0.7818609E-02  0.8090592E-01
       -2   -1    0    0    0  501  0.00000000000E+00  0.00000000000E+00  0.18527017613E+04  0.18527017613E+04  0.25500000920E-02 0. -1.
        2   -1    0    0  501    0  0.00000000000E+00  0.00000000000E+00 -0.17483734679E+04  0.17483734679E+04  0.25500000920E-02 0.  1.
    10030    2    1    2    0    0  0.00000000000E+00  0.00000000000E+00  0.10432829339E+03  0.36010752293E+04  0.35995636422E+04 0.  0.
        4    1    3    3  502    0 -0.62031437198E+03 -0.16270622791E+04  0.50742822102E+03  0.18137272652E+04  0.12699999809E+01 0. -1.
       -4    1    3    3    0  502  0.62031437198E+03  0.16270622791E+04 -0.40309992763E+03  0.17873479641E+04  0.12699999809E+01 0.  1.
</event>
<event>
 5   0  0.8247570E-09  0.3614924E+04  0.7818609E-02  0.8087082E-01
       -1   -1    0    0    0  501  0.00000000000E+00  0.00000000000E+00  0.17995052344E+04  0.17995052344E+04  0.50400001928E-02 0.  1.
        1   -1    0    0  501    0  0.00000000000E+00  0.00000000000E+00 -0.18154536289E+04  0.18154536289E+04  0.50400001928E-02 0. -1.
    10030    2    1    2    0    0  0.00000000000E+00  0.00000000000E+00 -0.15948394476E+02  0.36149588633E+04  0.36149236827E+04 0.  0.
        3    1    3    3  502    0 -0.93180933182E+02 -0.64753815745E+03 -0.16929030395E+04  0.18149129629E+04  0.10100000352E+00 0. -1.
       -3    1    3    3    0  502  0.93180933182E+02  0.64753815745E+03  0.16769546450E+04  0.18000459003E+04  0.10100000352E+00 0.  1.
</event>
<event>
 5   0  0.2482243E-08  0.3596364E+04  0.7818609E-02  0.8091325E-01
       -2   -1    0    0    0  501  0.00000000000E+00  0.00000000000E+00  0.28158953862E+04  0.28158953862E+04  0.25500000920E-02 0. -1.
        2   -1    0    0  501    0  0.00000000000E+00  0.00000000000E+00 -0.11482881636E+04  0.11482881636E+04  0.25500000920E-02 0.  1.
    10030    2    1    2    0    0  0.00000000000E+00  0.00000000000E+00  0.16676072226E+04  0.39641835498E+04  0.35963644654E+04 0.  0.
        5    1    3    3  502    0  0.10864886570E+04 -0.11087088634E+04 -0.16662538345E+03  0.15612427914E+04  0.46999998093E+01 0.  1.
       -5    1    3    3    0  502 -0.10864886570E+04  0.11087088634E+04  0.18342326060E+04  0.24029407584E+04  0.46999998093E+01 0. -1.
</event>
<event>
 5   0  0.2482243E-08  0.3599577E+04  0.7818609E-02  0.8090589E-01
        2   -1    0    0  501    0  0.00000000000E+00  0.00000000000E+00  0.22351756647E+04  0.22351756647E+04  0.25500000920E-02 0. -1.
       -2   -1    0    0    0  501  0.00000000000E+00  0.00000000000E+00 -0.14492095727E+04  0.14492095727E+04  0.25500000920E-02 0.  1.
    10030    2    1    2    0    0  0.00000000000E+00  0.00000000000E+00  0.78596609201E+03  0.36843852375E+04  0.35995766251E+04 0.  0.
        5    1    3    3  502    0  0.41087037265E+03 -0.16418126072E+04 -0.23369427534E+03  0.17085075957E+04  0.46999998093E+01 0.  1.
       -5    1    3    3    0  502 -0.41087037265E+03  0.16418126072E+04  0.10196603674E+04  0.19758776417E+04  0.46999998093E+01 0. -1.
</event>
<event>
 5   0  0.2494592E-08  0.3604021E+04  0.7818609E-02  0.8089571E-01
       -2   -1    0    0    0  501  0.00000000000E+00  0.00000000000E+00  0.12253847444E+04  0.12253847444E+04  0.25500000920E-02 0.  1.
        2   -1    0    0  501    0  0.00000000000E+00  0.00000000000E+00 -0.26499778256E+04  0.26499778256E+04  0.25500000920E-02 0. -1.
    10030    2    1    2    0    0  0.00000000000E+00  0.00000000000E+00 -0.14245930812E+04  0.38753625700E+04  0.36040213099E+04 0.  0.
        1    1    3    3  502    0 -0.95135331504E+03  0.21644984234E+03  0.91679876043E+03  0.13388217325E+04  0.50400001928E-02 0.  1.
       -1    1    3    3    0  502  0.95135331504E+03 -0.21644984234E+03 -0.23413918417E+04  0.25365408375E+04  0.50400001928E-02 0. -1.
</event>
<event>
 5   0  0.8146881E-09  0.3600230E+04  0.7818609E-02  0.8090439E-01
       -1   -1    0    0    0  501  0.00000000000E+00  0.00000000000E+00  0.16682100842E+04  0.16682100842E+04  0.50400001928E-02 0. -1.
        1   -1    0    0  501    0  0.00000000000E+00  0.00000000000E+00 -0.19424494459E+04  0.19424494459E+04  0.50400001928E-02 0.  1.
    10030    2    1    2    0    0  0.00000000000E+00  0.00000000000E+00 -0.27423936170E+03  0.36106595302E+04  0.36002298559E+04 0.  0.
        4    1    3    3  502    0  0.16024890565E+02 -0.51110565198E+03  0.15938369733E+04  0.16738589233E+04  0.12699999809E+01 0. -1.
       -4    1    3    3    0  502 -0.16024890565E+02  0.51110565198E+03 -0.18680763350E+04  0.19368006069E+04  0.12699999809E+01 0.  1.
</event>
<event>
 5   0  0.8247570E-09  0.3600082E+04  0.7818609E-02  0.8090473E-01
        1   -1    0    0  501    0  0.00000000000E+00  0.00000000000E+00  0.29187220128E+04  0.29187220128E+04  0.50400001928E-02 0. -1.
       -1   -1    0    0    0  501  0.00000000000E+00  0.00000000000E+00 -0.11101254635E+04  0.11101254635E+04  0.50400001928E-02 0.  1.
    10030    2    1    2    0    0  0.00000000000E+00  0.00000000000E+00  0.18085965492E+04  0.40288474763E+04  0.36000820142E+04 0.  0.
        3    1    3    3  502    0  0.12953015293E+04 -0.50590941713E+03  0.21834028621E+04  0.25886286830E+04  0.10100000352E+00 0. -1.
       -3    1    3    3    0  502 -0.12953015293E+04  0.50590941713E+03 -0.37480631285E+03  0.14402187933E+04  0.10100000352E+00 0.  1.
</event>
<event>
 5   0  0.8247570E-09  0.3599993E+04  0.7818609E-02  0.8090493E-01
        1   -1    0    0  501    0  0.00000000000E+00  0.00000000000E+00  0.28110169142E+04  0.28110169142E+04  0.50400001928E-02 0.  1.
       -1   -1    0    0    0  501  0.00000000000E+00  0.00000000000E+00 -0.11526034788E+04  0.11526034788E+04  0.50400001928E-02 0. -1.
    10030    2    1    2    0    0  0.00000000000E+00  0.00000000000E+00  0.16584134354E+04  0.39636203930E+04  0.35999932635E+04 0.  0.
        3    1    3    3  502    0  0.28478068631E+02 -0.11294209856E+04  0.23720266114E+04  0.26273395324E+04  0.10100000352E+00 0.  1.
       -3    1    3    3    0  502 -0.28478068631E+02  0.11294209856E+04 -0.71361317604E+03  0.13362808606E+04  0.10100000352E+00 0. -1.
</event>
<event>
 5   0  0.2590795E-08  0.3600292E+04  0.7818609E-02  0.8090425E-01
       -2   -1    0    0    0  501  0.00000000000E+00  0.00000000000E+00  0.23844946181E+04  0.23844946181E+04  0.25500000920E-02 0. -1.
        2   -1    0    0  501    0  0.00000000000E+00  0.00000000000E+00 -0.13589991137E+04  0.13589991137E+04  0.25500000920E-02 0.  1.
    10030    2    1    2    0    0  0.00000000000E+00  0.00000000000E+00  0.10254955044E+04  0.37434937318E+04  0.36002922507E+04 0.  0.
        4    1    3    3  502    0  0.20956537495E+03  0.73622780719E+03 -0.11813438504E+04  0.14076661309E+04  0.12699999809E+01 0.  1.
       -4    1    3    3    0  502 -0.20956537495E+03 -0.73622780719E+03  0.22068393548E+04  0.23358276009E+04  0.12699999809E+01 0. -1.
</event>
<event>
 5   0  0.8024500E-09  0.3599640E+04  0.7818609E-02  0.8090574E-01
        1   -1    0    0  501    0  0.00000000000E+00  0.00000000000E+00  0.25342393214E+04  0.25342393215E+04  0.50400001928E-02 0.  1.
       -1   -1    0    0    0  501  0.00000000000E+00  0.00000000000E+00 -0.12782345791E+04  0.12782345792E+04  0.50400001928E-02 0. -1.
    10030    2    1    2    0    0  0.00000000000E+00  0.00000000000E+00  0.12560047423E+04  0.38124739006E+04  0.35996401668E+04 0.  0.
        5    1    3    3  502    0  0.86012152447E+03  0.82820696597E+03  0.20543253413E+04  0.23761335217E+04  0.46999998093E+01 0.  1.
       -5    1    3    3    0  502 -0.86012152447E+03 -0.82820696597E+03 -0.79832059895E+03  0.14363403789E+04  0.46999998093E+01 0. -1.
</event>
<event>
 5   0  0.8024500E-09  0.3600350E+04  0.7818609E-02  0.8090412E-01
       -1   -1    0    0    0  501  0.00000000000E+00  0.00000000000E+00  0.15018212915E+04  0.15018212915E+04  0.50400001928E-02 0.  1.
        1   -1    0    0  501    0  0.00000000000E+00  0.00000000000E+00 -0.21578001198E+04  0.21578001198E+04  0.50400001928E-02 0. -1.
    10030    2    1    2    0    0  0.00000000000E+00  0.00000000000E+00 -0.65597882829E+03  0.36596214113E+04  0.36003500734E+04 0.  0.
        1    1    3    3  502    0  0.40677145387E+03  0.17500414031E+04 -0.21424440605E+03  0.18094221712E+04  0.50400001928E-02 0.  1.
       -1    1    3    3    0  502 -0.40677145387E+03 -0.17500414031E+04 -0.44173442224E+03  0.18501992401E+04  0.50400001928E-02 0. -1.
</event>
<event>
 5   0  0.8063410E-09  0.3599958E+04  0.7818609E-02  0.8090501E-01
        1   -1    0    0  501    0  0.00000000000E+00  0.00000000000E+00  0.25286942477E+04  0.25286942477E+04  0.50400001928E-02 0. -1.
       -1   -1    0    0    0  501  0.00000000000E+00  0.00000000000E+00 -0.12812640693E+04  0.12812640693E+04  0.50400001928E-02 0.  1.
    10030    2    1    2    0    0  0.00000000000E+00  0.00000000000E+00  0.12474301784E+04  0.38099583171E+04  0.35999583786E+04 0.  0.
        2    1    3    3  502    0 -0.61657200359E+03 -0.63734184711E+03 -0.10340425367E+04  0.13622076322E+04  0.25500000920E-02 0.  1.
       -2    1    3    3    0  502  0.61657200359E+03  0.63734184711E+03  0.22814727151E+04  0.24477506849E+04  0.25500000920E-02 0. -1.
</event>
<event>
 5   0  0.2608070E-08  0.3598127E+04  0.7818609E-02  0.8090921E-01
       -2   -1    0    0    0  501  0.00000000000E+00  0.00000000000E+00  0.28764989634E+04  0.28764989634E+04  0.25500000920E-02 0.  1.
        2   -1    0    0  501    0  0.00000000000E+00  0.00000000000E+00 -0.11251972864E+04  0.11251972864E+04  0.25500000920E-02 0. -1.
    10030    2    1    2    0    0  0.00000000000E+00  0.00000000000E+00  0.17513016769E+04  0.40016962498E+04  0.35981266392E+04 0.  0.
        3    1    3    3  502    0 -0.95961856031E+03 -0.14545305235E+04  0.37815049794E+03  0.17831221591E+04  0.10100000352E+00 0. -1.
       -3    1    3    3    0  502  0.95961856031E+03  0.14545305235E+04  0.13731511790E+04  0.22185740906E+04  0.10100000352E+00 0.  1.
</event>
<event>
 5   0  0.2590795E-08  0.3603436E+04  0.7818609E-02  0.8089705E-01
        2   -1    0    0  501    0  0.00000000000E+00  0.00000000000E+00  0.22222188718E+04  0.22222188718E+04  0.25500000920E-02 0.  1.
       -2   -1    0    0    0  501  0.00000000000E+00  0.00000000000E+00 -0.14607867967E+04  0.14607867967E+04  0.25500000920E-02 0. -1.
    10030    2    1    2    0    0  0.00000000000E+00  0.00000000000E+00  0.76143207502E+03  0.36830056685E+04  0.36034361309E+04 0.  0.
        4    1    3    3  502    0  0.17651743900E+04 -0.27356702960E+03  0.13991477372E+03  0.17917190917E+04  0.12699999809E+01 0.  1.
       -4    1    3    3    0  502 -0.17651743900E+04  0.27356702960E+03  0.62151730130E+03  0.18912865768E+04  0.12699999809E+01 0. -1.
</event>
<event>
 5   0  0.2494592E-08  0.3600572E+04  0.7818609E-02  0.8090361E-01
        2   -1    0    0  501    0  0.00000000000E+00  0.00000000000E+00  0.17398136172E+04  0.17398136172E+04  0.25500000920E-02 0.  1.
       -2   -1    0    0    0  501  0.00000000000E+00  0.00000000000E+00 -0.18628598702E+04  0.18628598702E+04  0.25500000920E-02 0. -1.
    10030    2    1    2    0    0  0.00000000000E+00  0.00000000000E+00 -0.12304625300E+03  0.36026734875E+04  0.36005716042E+04 0.  0.
        1    1    3    3  502    0  0.15832660906E+04  0.48328061095E+03  0.64651790463E+03  0.17771542037E+04  0.50400001928E-02 0.  1.
       -1    1    3    3    0  502 -0.15832660906E+04 -0.48328061095E+03 -0.76956415763E+03  0.18255192838E+04  0.50400001928E-02 0. -1.
</event>
<event>
 5   0  0.2608070E-08  0.3599880E+04  0.7818609E-02  0.8090519E-01
       -2   -1    0    0    0  501  0.00000000000E+00  0.00000000000E+00  0.13909614521E+04  0.13909614521E+04  0.25500000920E-02 0. -1.
        2   -1    0    0  501    0  0.00000000000E+00  0.00000000000E+00 -0.23291688801E+04  0.23291688801E+04  0.25500000920E-02 0.  1.
    10030    2    1    2    0    0  0.00000000000E+00  0.00000000000E+00 -0.93820742798E+03  0.37201303323E+04  0.35998800690E+04 0.  0.
        3    1    3    3  502    0  0.64777569290E+03 -0.16540112779E+04 -0.16885146584E+03  0.17843423112E+04  0.10100000352E+00 0.  1.
       -3    1    3    3    0  502 -0.64777569290E+03  0.16540112779E+04 -0.76935596214E+03  0.19357880211E+04  0.10100000352E+00 0. -1.
</event>
<event>
 5   0  0.8024500E-09  0.3596933E+04  0.7818609E-02  0.8091195E-01
        1   -1    0    0  501    0  0.00000000000E+00  0.00000000000E+00  0.14284995380E+04  0.14284995380E+04  0.50400001928E-02 0. -1.
       -1   -1    0    0    0  501  0.00000000000E+00  0.00000000000E+00 -0.22642511383E+04  0.22642511383E+04  0.50400001928E-02 0.  1.
    10030    2    1    2    0    0  0.00000000000E+00  0.00000000000E+00 -0.83575160032E+03  0.36927506763E+04  0.35969329741E+04 0.  0.
        5    1    3    3  502    0 -0.90049880353E+03 -0.15391667221E+04 -0.17814450967E+03  0.17921188158E+04  0.46999998093E+01 0.  1.
       -5    1    3    3    0  502  0.90049880353E+03  0.15391667221E+04 -0.65760709065E+03  0.19006318605E+04  0.46999998093E+01 0. -1.
</event>
<event>
 5   0  0.8146881E-09  0.3600653E+04  0.7818609E-02  0.8090342E-01
        1   -1    0    0  501    0  0.00000000000E+00  0.00000000000E+00  0.11636916659E+04  0.11636916659E+04  0.50400001928E-02 0.  1.
       -1   -1    0    0    0  501  0.00000000000E+00  0.00000000000E+00 -0.27852532471E+04  0.27852532471E+04  0.50400001928E-02 0. -1.
    10030    2    1    2    0    0  0.00000000000E+00  0.00000000000E+00 -0.16215615813E+04  0.39489449130E+04  0.36006532691E+04 0.  0.
        4    1    3    3  502    0 -0.62477535569E+03 -0.21055469839E+03 -0.26480891581E+04  0.27289293373E+04  0.12699999809E+01 0. -1.
       -4    1    3    3    0  502  0.62477535569E+03  0.21055469839E+03  0.10265275768E+04  0.12200155757E+04  0.12699999809E+01 0.  1.
</event>
<event>
 5   0  0.8024500E-09  0.3602334E+04  0.7818609E-02  0.8089957E-01
        1   -1    0    0  501    0  0.00000000000E+00  0.00000000000E+00  0.24675901484E+04  0.24675901484E+04  0.50400001928E-02 0.  1.
       -1   -1    0    0    0  501  0.00000000000E+00  0.00000000000E+00 -0.13147247955E+04  0.13147247956E+04  0.50400001928E-02 0. -1.
    10030    2    1    2    0    0  0.00000000000E+00  0.00000000000E+00  0.11528653529E+04  0.37823149440E+04  0.36023336622E+04 0.  0.
        5    1    3    3  502    0 -0.16009768557E+04  0.37023152937E+03  0.13508335809E+04  0.21271980940E+04  0.46999998093E+01 0.  1.
       -5    1    3    3    0  502  0.16009768557E+04 -0.37023152937E+03 -0.19796822806E+03  0.16551168500E+04  0.46999998093E+01 0. -1.
</event>
<event>
 5   0  0.8247570E-09  0.3599738E+04  0.7818609E-02  0.8090552E-01
       -1   -1    0    0    0  501  0.00000000000E+00  0.00000000000E+00  0.18803751537E+04  0.18803751537E+04  0.50400001928E-02 0.  1.
        1   -1    0    0  501    0  0.00000000000E+00  0.00000000000E+00 -0.17228100214E+04  0.17228100214E+04  0.50400001928E-02 0. -1.
    10030    2    1    2    0    0  0.00000000000E+00  0.00000000000E+00  0.15756513222E+03  0.36031851751E+04  0.35997384121E+04 0.  0.
        3    1    3    3  502    0 -0.11170336796E+03 -0.17314730077E+04  0.55783535822E+03  0.18225412796E+04  0.10100000352E+00 0. -1.
       -3    1    3    3    0  502  0.11170336796E+03  0.17314730077E+04 -0.40027022599E+03  0.17806438955E+04  0.10100000352E+00 0.  1.
</event>
<event>
 5   0  0.2590795E-08  0.3600150E+04  0.7818609E-02  0.8090457E-01
       -2   -1    0    0    0  501  0.00000000000E+00  0.00000000000E+00  0.11724571709E+04  0.11724571709E+04  0.25500000920E-02 0. -1.
        2   -1    0    0  501    0  0.00000000000E+00  0.00000000000E+00 -0.27636581118E+04  0.27636581118E+04  0.25500000920E-02 0.  1.
    10030    2    1    2    0    0  0.00000000000E+00  0.00000000000E+00 -0.15912009409E+04  0.39361152827E+04  0.36001504252E+04 0.  0.
        4    1    3    3  502    0  0.24751532430E+03 -0.17338345217E+04 -0.12501153974E+04  0.21517983419E+04  0.12699999809E+01 0.  1.
       -4    1    3    3    0  502 -0.24751532430E+03  0.17338345217E+04 -0.34108554341E+03  0.17843169408E+04  0.12699999809E+01 0. -1.
</event>
<event>
 5   0  0.2494592E-08  0.3598717E+04  0.7818609E-02  0.8090786E-01
       -2   -1    0    0    0  501  0.00000000000E+00  0.00000000000E+00  0.19474898797E+04  0.19474898797E+04  0.25500000920E-02 0.  1.
        2   -1    0    0  501    0  0.00000000000E+00  0.00000000000E+00 -0.16624943696E+04  0.16624943696E+04  0.25500000920E-02 0. -1.
    10030    2    1    2    0    0  0.00000000000E+00  0.00000000000E+00  0.28499551010E+03  0.36099842493E+04  0.35987169713E+04 0.  0.
        1    1    3    3  502    0  0.10058812465E+04  0.39215322471E+03 -0.13014915933E+04  0.16909942641E+04  0.50400001928E-02 0. -1.
       -1    1    3    3    0  502 -0.10058812465E+04 -0.39215322471E+03  0.15864871034E+04  0.19189899852E+04  0.50400001928E-02 0.  1.
</event>
<event>
 5   0  0.2476968E-08  0.3599029E+04  0.7818609E-02  0.8090714E-01
        2   -1    0    0  501    0  0.00000000000E+00  0.00000000000E+00  0.18652917508E+04  0.18652917508E+04  0.25500000920E-02 0. -1.
       -2   -1    0    0    0  501  0.00000000000E+00  0.00000000000E+00 -0.17360571016E+04  0.17360571016E+04  0.25500000920E-02 0.  1.
    10030    2    1    2    0    0  0.00000000000E+00  0.00000000000E+00  0.12923464922E+03  0.36013488524E+04  0.35990293083E+04 0.  0.
        2    1    3    3  502    0 -0.16215637961E+04 -0.33160719357E+03  0.77134477806E+03  0.18260353891E+04  0.25500000920E-02 0. -1.
       -2    1    3    3    0  502  0.16215637961E+04  0.33160719357E+03 -0.64211012884E+03  0.17753134633E+04  0.25500000920E-02 0.  1.
</event>
<event>
 5   0  0.8247570E-09  0.3603244E+04  0.7818609E-02  0.8089749E-01
        1   -1    0    0  501    0  0.00000000000E+00  0.00000000000E+00  0.13631694334E+04  0.13631694334E+04  0.50400001928E-02 0. -1.
       -1   -1    0    0    0  501  0.00000000000E+00  0.00000000000E+00 -0.23810996580E+04  0.23810996580E+04  0.50400001928E-02 0.  1.
    10030    2    1    2    0    0  0.00000000000E+00  0.00000000000E+00 -0.10179302246E+04  0.37442690914E+04  0.36032442447E+04 0.  0.
        3    1    3    3  502    0 -0.26145256815E+03 -0.25055475460E+02  0.13431679617E+04  0.13686071042E+04  0.10100000352E+00 0. -1.
       -3    1    3    3    0  502  0.26145256815E+03  0.25055475460E+02 -0.23610981862E+04  0.23756619872E+04  0.10100000352E+00 0.  1.
</event>
<event>
 5   0  0.2608070E-08  0.3601337E+04  0.7818609E-02  0.8090185E-01
        2   -1    0    0  501    0  0.00000000000E+00  0.00000000000E+00  0.10773842120E+04  0.10773842120E+04  0.25500000920E-02 0.  1.
       -2   -1    0    0    0  501  0.00000000000E+00  0.00000000000E+00 -0.30095184706E+04  0.30095184706E+04  0.25500000920E-02 0. -1.
    10030    2    1    2    0    0  0.00000000000E+00  0.00000000000E+00 -0.19321342586E+04  0.40869026826E+04  0.36013373549E+04 0.  0.
        3    1    3    3  502    0  0.54776038078E+03  0.33821384479E+03  0.94232877573E+03  0.11412333553E+04  0.10100000352E+00 0.  1.
       -3    1    3    3    0  502 -0.54776038078E+03 -0.33821384479E+03 -0.28744630343E+04  0.29456693272E+04  0.10100000352E+00 0. -1.
</event>
<event>
 5   0  0.2482243E-08  0.3599893E+04  0.7818609E-02  0.8090516E-01
        2   -1    0    0  501    0  0.00000000000E+00  0.00000000000E+00  0.11452320219E+04  0.11452320219E+04  0.25500000920E-02 0. -1.
       -2   -1    0    0    0  501  0.00000000000E+00  0.00000000000E+00 -0.28289531598E+04  0.28289531598E+04  0.25500000920E-02 0.  1.
    10030    2    1    2    0    0  0.00000000000E+00  0.00000000000E+00 -0.16837211379E+04  0.39741851818E+04  0.35998931913E+04 0.  0.
        5    1    3    3  502    0 -0.75530507472E+03  0.10241388016E+04 -0.22471795443E+04  0.25824763377E+04  0.46999998093E+01 0.  1.
       -5    1    3    3    0  502  0.75530507472E+03 -0.10241388016E+04  0.56345840635E+03  0.13917088440E+04  0.46999998093E+01 0. -1.
</event>
<event>
 5   0  0.2494592E-08  0.3600832E+04  0.7818609E-02  0.8090301E-01
        2   -1    0    0  501    0  0.00000000000E+00  0.00000000000E+00  0.16931503220E+04  0.16931503220E+04  0.25500000920E-02 0. -1.
       -2   -1    0    0    0  501  0.00000000000E+00  0.00000000000E+00 -0.19144770948E+04  0.19144770948E+04  0.25500000920E-02 0.  1.
    10030    2    1    2    0    0  0.00000000000E+00  0.00000000000E+00 -0.22132677284E+03  0.36076274168E+04  0.36008318536E+04 0.  0.
        1    1    3    3  502    0  0.57283510113E+03 -0.55070544387E+02 -0.18198502998E+04  0.19086717716E+04  0.50400001928E-02 0.  1.
       -1    1    3    3    0  502 -0.57283510113E+03  0.55070544387E+02  0.15985235270E+04  0.16989556452E+04  0.50400001928E-02 0. -1.
</event>
<event>
 5   0  0.8247570E-09  0.3608908E+04  0.7818609E-02  0.8088454E-01
       -1   -1    0    0    0  501  0.00000000000E+00  0.00000000000E+00  0.14423908958E+04  0.14423908958E+04  0.50400001928E-02 0.  1.
        1   -1    0    0  501    0  0.00000000000E+00  0.00000000000E+00 -0.22574005840E+04  0.22574005840E+04  0.50400001928E-02 0. -1.
    10030    2    1    2    0    0  0.00000000000E+00  0.00000000000E+00 -0.81500968826E+03  0.36997914798E+04  0.36089078960E+04 0.  0.
        3    1    3    3  502    0  0.79315328123E+03 -0.10187226114E+04 -0.16998725670E+04  0.21345853557E+04  0.10100000352E+00 0. -1.
       -3    1    3    3    0  502 -0.79315328123E+03  0.10187226114E+04  0.88486287875E+03  0.15652061241E+04  0.10100000352E+00 0.  1.
</event>
<event>
 5   0  0.8146881E-09  0.3602008E+04  0.7818609E-02  0.8090032E-01
        1   -1    0    0  501    0  0.00000000000E+00  0.00000000000E+00  0.17186533309E+04  0.17186533309E+04  0.50400001928E-02 0. -1.
       -1   -1    0    0    0  501  0.00000000000E+00  0.00000000000E+00 -0.18873008270E+04  0.18873008270E+04  0.50400001928E-02 0.  1.
    10030    2    1    2    0    0  0.00000000000E+00  0.00000000000E+00 -0.16864749615E+03  0.36059541579E+04  0.36020082469E+04 0.  0.
        4    1    3    3  502    0 -0.20965751908E+02  0.71910552518E+03  0.15685639853E+04  0.17256728855E+04  0.12699999809E+01 0. -1.
       -4    1    3    3    0  502  0.20965751908E+02 -0.71910552518E+03 -0.17372114814E+04  0.18802812724E+04  0.12699999809E+01 0.  1.
</event>
<event>
 5   0  0.8247570E-09  0.3596946E+04  0.7818609E-02  0.8091192E-01
       -1   -1    0    0    0  501  0.00000000000E+00  0.00000000000E+00  0.21944652385E+04  0.21944652385E+04  0.50400001928E-02 0.  1.
        1   -1    0    0  501    0  0.00000000000E+00  0.00000000000E+00 -0.14739373345E+04  0.14739373345E+04  0.50400001928E-02 0. -1.
    10030    2    1    2    0    0  0.00000000000E+00  0.00000000000E+00  0.72052790400E+03  0.36684025731E+04  0.35969455066E+04 0.  0.
        3    1    3    3  502    0  0.67234854693E+03  0.12698475940E+03 -0.13360055448E+04  0.15010291548E+04  0.10100000352E+00 0. -1.
       -3    1    3    3    0  502 -0.67234854693E+03 -0.12698475940E+03  0.20565334488E+04  0.21673734182E+04  0.10100000352E+00 0.  1.
</event>
<event>
 5   0  0.2590795E-08  0.3601915E+04  0.7818609E-02  0.8090053E-01
        2   -1    0    0  501    0  0.00000000000E+00  0.00000000000E+00  0.19592446699E+04  0.19592446699E+04  0.25500000920E-02 0. -1.
       -2   -1    0    0    0  501  0.00000000000E+00  0.00000000000E+00 -0.16554585122E+04  0.16554585122E+04  0.25500000920E-02 0.  1.
    10030    2    1    2    0    0  0.00000000000E+00  0.00000000000E+00  0.30378615768E+03  0.36147031822E+04  0.36019151941E+04 0.  0.
        4    1    3    3  502    0 -0.59924292244E+02  0.63334583779E+03 -0.15389414526E+04  0.16652508155E+04  0.12699999809E+01 0.  1.
       -4    1    3    3    0  502  0.59924292244E+02 -0.63334583779E+03  0.18427276103E+04  0.19494523666E+04  0.12699999809E+01 0. -1.
</event>
<event>
 5   0  0.2482243E-08  0.3604323E+04  0.7818609E-02  0.8089502E-01
       -2   -1    0    0    0  501  0.00000000000E+00  0.00000000000E+00  0.13564075492E+04  0.13564075492E+04  0.25500000920E-02 0. -1.
        2   -1    0    0  501    0  0.00000000000E+00  0.00000000000E+00 -0.23944031951E+04  0.23944031951E+04  0.25500000920E-02 0.  1.
    10030    2    1    2    0    0  0.00000000000E+00  0.00000000000E+00 -0.10379956460E+04  0.37508107443E+04  0.36043232761E+04 0.  0.
        5    1    3    3  502    0 -0.14042204422E+04  0.85470783926E+03  0.24953169006E+03  0.16627232768E+04  0.46999998093E+01 0. -1.
       -5    1    3    3    0  502  0.14042204422E+04 -0.85470783926E+03 -0.12875273360E+04  0.20880874675E+04  0.46999998093E+01 0.  1.
</event>
<event>
 5   0  0.2476968E-08  0.3598771E+04  0.7818609E-02  0.8090773E-01
        2   -1    0    0  501    0  0.00000000000E+00  0.00000000000E+00  0.20185459698E+04  0.20185459698E+04  0.25500000920E-02 0.  1.
       -2   -1    0    0    0  501  0.00000000000E+00  0.00000000000E+00 -0.16040200384E+04  0.16040200384E+04  0.25500000920E-02 0. -1.
    10030    2    1    2    0    0  0.00000000000E+00  0.00000000000E+00  0.41452593138E+03  0.36225660081E+04  0.35987710035E+04 0.  0.
        2    1    3    3  502    0 -0.67437514595E+03 -0.97168169362E+03 -0.11577418646E+04  0.16550871205E+04  0.25500000920E-02 0. -1.
       -2    1    3    3    0  502  0.67437514595E+03  0.97168169362E+03  0.15722677960E+04  0.19674788877E+04  0.25500000920E-02 0.  1.
</event>
<event>
 5   0  0.2608070E-08  0.3599947E+04  0.7818609E-02  0.8090504E-01
       -2   -1    0    0    0  501  0.00000000000E+00  0.00000000000E+00  0.16581293154E+04  0.16581293154E+04  0.25500000920E-02 0. -1.
        2   -1    0    0  501    0  0.00000000000E+00  0.00000000000E+00 -0.19539513104E+04  0.19539513104E+04  0.25500000920E-02 0.  1.
    10030    2    1    2    0    0  0.00000000000E+00  0.00000000000E+00 -0.29582199497E+03  0.36120806258E+04  0.35999466377E+04 0.  0.
        3    1    3    3  502    0 -0.33948097512E+03 -0.16820237394E+04  0.39747676369E+03  0.17613741738E+04  0.10100000352E+00 0. -1.
       -3    1    3    3    0  502  0.33948097512E+03  0.16820237394E+04 -0.69329875865E+03  0.18507064520E+04  0.10100000352E+00 0.  1.
</event>
<event>
 5   0  0.2476968E-08  0.3599899E+04  0.7818609E-02  0.8090515E-01
       -2   -1    0    0    0  501  0.00000000000E+00  0.00000000000E+00  0.18423402173E+04  0.18423402173E+04  0.25500000920E-02 0.  1.
        2   -1    0    0  501    0  0.00000000000E+00  0.00000000000E+00 -0.17585345561E+04  0.17585345561E+04  0.25500000920E-02 0. -1.
    10030    2    1    2    0    0  0.00000000000E+00  0.00000000000E+00  0.83805661182E+02  0.36008747734E+04  0.35998994076E+04 0.  0.
        2    1    3    3  502    0  0.26730823003E+03  0.17463420774E+04 -0.30265326200E+03  0.17924182933E+04  0.25500000920E-02 0. -1.
       -2    1    3    3    0  502 -0.26730823003E+03 -0.17463420774E+04  0.38645892318E+03  0.18084564801E+04  0.25500000920E-02 0.  1.
</event>
<event>
 5   0  0.2608070E-08  0.3601686E+04  0.7818609E-02  0.8090106E-01
       -2   -1    0    0    0  501  0.00000000000E+00  0.00000000000E+00  0.16514084313E+04  0.16514084313E+04  0.25500000920E-02 0. -1.
        2   -1    0    0  501    0  0.00000000000E+00  0.00000000000E+00 -0.19637992455E+04  0.19637992455E+04  0.25500000920E-02 0.  1.
    10030    2    1    2    0    0  0.00000000000E+00  0.00000000000E+00 -0.31239081423E+03  0.36152076768E+04  0.36016855117E+04 0.  0.
        3    1    3    3  502    0  0.36857423844E+03 -0.14818385976E+04 -0.11144218688E+04  0.18904043775E+04  0.10100000352E+00 0.  1.
       -3    1    3    3    0  502 -0.36857423844E+03  0.14818385976E+04  0.80203105460E+03  0.17248032993E+04  0.10100000352E+00 0. -1.
</event>
<event>
 5   0  0.2608070E-08  0.3600677E+04  0.7818609E-02  0.8090337E-01
        2   -1    0    0  501    0  0.00000000000E+00  0.00000000000E+00  0.16971900159E+04  0.16971900159E+04  0.25500000920E-02 0.  1.
       -2   -1    0    0    0  501  0.00000000000E+00  0.00000000000E+00 -0.19097559767E+04  0.19097559767E+04  0.25500000920E-02 0. -1.
    10030    2    1    2    0    0  0.00000000000E+00  0.00000000000E+00 -0.21256596074E+03  0.36069459926E+04  0.36006770344E+04 0.  0.
        3    1    3    3  502    0 -0.12594542777E+04  0.62519011205E+03  0.10200103538E+04  0.17370978343E+04  0.10100000352E+00 0.  1.
       -3    1    3    3    0  502  0.12594542777E+04 -0.62519011205E+03 -0.12325763145E+04  0.18698481583E+04  0.10100000352E+00 0. -1.
</event>
<event>
 5   0  0.2590795E-08  0.3600535E+04  0.7818609E-02  0.8090369E-01
        2   -1    0    0  501    0  0.00000000000E+00  0.00000000000E+00  0.13597278575E+04  0.13597278575E+04  0.25500000920E-02 0.  1.
       -2   -1    0    0    0  501  0.00000000000E+00  0.00000000000E+00 -0.23835377135E+04  0.23835377135E+04  0.25500000920E-02 0. -1.
    10030    2    1    2    0    0  0.00000000000E+00  0.00000000000E+00 -0.10238098560E+04  0.37432655709E+04  0.36005347538E+04 0.  0.
        4    1    3    3  502    0  0.13030193534E+04 -0.42227954251E+03 -0.17264543924E+04  0.22038207344E+04  0.12699999809E+01 0. -1.
       -4    1    3    3    0  502 -0.13030193534E+04  0.42227954251E+03  0.70264453633E+03  0.15394448366E+04  0.12699999809E+01 0.  1.
</event>
<event>
 5   0  0.8024500E-09  0.3600350E+04  0.7818609E-02  0.8090412E-01
        1   -1    0    0  501    0  0.00000000000E+00  0.00000000000E+00  0.20755224422E+04  0.20755224422E+04  0.50400001928E-02 0. -1.
       -1   -1    0    0    0  501  0.00000000000E+00  0.00000000000E+00 -0.15613558825E+04  0.15613558825E+04  0.50400001928E-02 0.  1.
    10030    2    1    2    0    0  0.00000000000E+00  0.00000000000E+00  0.51416655968E+03  0.36368783247E+04  0.36003495243E+04 0.  0.
        5    1    3    3  502    0 -0.98752108666E+03  0.56133903747E+03 -0.11536199862E+04  0.16189998685E+04  0.46999998093E+01 0.  1.
       -5    1    3    3    0  502  0.98752108666E+03 -0.56133903747E+03  0.16677865458E+04  0.20178784562E+04  0.46999998093E+01 0. -1.
</event>
<event>
 5   0  0.8063410E-09  0.3604522E+04  0.7818609E-02  0.8089457E-01
       -1   -1    0    0    0  501  0.00000000000E+00  0.00000000000E+00  0.14153192340E+04  0.14153192340E+04  0.50400001928E-02 0. -1.
        1   -1    0    0  501    0  0.00000000000E+00  0.00000000000E+00 -0.22949903834E+04  0.22949903834E+04  0.50400001928E-02 0.  1.
    10030    2    1    2    0    0  0.00000000000E+00  0.00000000000E+00 -0.87967114939E+03  0.37103096175E+04  0.36045216224E+04 0.  0.
        2    1    3    3  502    0 -0.20886815145E+02  0.17557641192E+04 -0.85795915504E+03  0.19542870345E+04  0.25500000920E-02 0.  1.
       -2    1    3    3    0  502  0.20886815145E+02 -0.17557641192E+04 -0.21711994354E+02  0.17560225830E+04  0.25500000920E-02 0. -1.
</event>
<event>
 5   0  0.8063410E-09  0.3600742E+04  0.7818609E-02  0.8090322E-01
        1   -1    0    0  501    0  0.00000000000E+00  0.00000000000E+00  0.17974512222E+04  0.17974512223E+04  0.50400001928E-02 0. -1.
       -1   -1    0    0    0  501  0.00000000000E+00  0.00000000000E+00 -0.18032959083E+04  0.18032959083E+04  0.50400001928E-02 0.  1.
    10030    2    1    2    0    0  0.00000000000E+00  0.00000000000E+00 -0.58446860445E+01  0.36007471306E+04  0.36007423870E+04 0.  0.
        2    1    3    3  502    0 -0.15386896135E+04 -0.16169952155E+03  0.91774383194E+03  0.17988791519E+04  0.25500000920E-02 0. -1.
       -2    1    3    3    0  502  0.15386896135E+04  0.16169952155E+03 -0.92358851798E+03  0.18018679787E+04  0.25500000920E-02 0.  1.
</event>
<event>
 5   0  0.8247570E-09  0.3604495E+04  0.7818609E-02  0.8089463E-01
        1   -1    0    0  501    0  0.00000000000E+00  0.00000000000E+00  0.18529440247E+04  0.18529440248E+04  0.50400001928E-02 0.  1.
       -1   -1    0    0    0  501  0.00000000000E+00  0.00000000000E+00 -0.17529381557E+04  0.17529381557E+04  0.50400001928E-02 0. -1.
    10030    2    1    2    0    0  0.00000000000E+00  0.00000000000E+00  0.10000586903E+03  0.36058821805E+04  0.36044951277E+04 0.  0.
        3    1    3    3  502    0  0.51943825453E+03 -0.28628132381E+03  0.17525165712E+04  0.18501587605E+04  0.10100000352E+00 0.  1.
       -3    1    3    3    0  502 -0.51943825453E+03  0.28628132381E+03 -0.16525107021E+04  0.17557234200E+04  0.10100000352E+00 0. -1.
</event>
<event>
 5   0  0.2494592E-08  0.3599619E+04  0.7818609E-02  0.8090579E-01
       -2   -1    0    0    0  501  0.00000000000E+00  0.00000000000E+00  0.23730418131E+04  0.23730418131E+04  0.25500000920E-02 0.  1.
        2   -1    0    0  501    0  0.00000000000E+00  0.00000000000E+00 -0.13650475469E+04  0.13650475469E+04  0.25500000920E-02 0. -1.
    10030    2    1    2    0    0  0.00000000000E+00  0.00000000000E+00  0.10079942661E+04  0.37380893600E+04  0.35996193719E+04 0.  0.
        1    1    3    3  502    0  0.42489364970E+03 -0.99117086714E+03  0.20003860703E+04  0.22725533507E+04  0.50400001928E-02 0.  1.
       -1    1    3    3    0  502 -0.42489364970E+03  0.99117086714E+03 -0.99239180418E+03  0.14655360093E+04  0.50400001928E-02 0. -1.
</event>
<event>
 5   0  0.8247570E-09  0.3600548E+04  0.7818609E-02  0.8090366E-01
       -1   -1    0    0    0  501  0.00000000000E+00  0.00000000000E+00  0.10656374066E+04  0.10656374067E+04  0.50400001928E-02 0. -1.
        1   -1    0    0  501    0  0.00000000000E+00  0.00000000000E+00 -0.30413595659E+04  0.30413595659E+04  0.50400001928E-02 0.  1.
    10030    2    1    2    0    0  0.00000000000E+00  0.00000000000E+00 -0.19757221592E+04  0.41069969725E+04  0.36005480252E+04 0.  0.
        3    1    3    3  502    0  0.22604432567E+02  0.11976035771E+04 -0.25208578679E+04  0.27909657269E+04  0.10100000352E+00 0.  1.
       -3    1    3    3    0  502 -0.22604432567E+02 -0.11976035771E+04  0.54513570870E+03  0.13160312456E+04  0.10100000352E+00 0. -1.
</event>
<event>
 5   0  0.2608070E-08  0.3602454E+04  0.7818609E-02  0.8089930E-01
        2   -1    0    0  501    0  0.00000000000E+00  0.00000000000E+00  0.14722591035E+04  0.14722591035E+04  0.25500000920E-02 0. -1.
       -2   -1    0    0    0  501  0.00000000000E+00  0.00000000000E+00 -0.22037013833E+04  0.22037013833E+04  0.25500000920E-02 0.  1.
    10030    2    1    2    0    0  0.00000000000E+00  0.00000000000E+00 -0.73144227987E+03  0.36759604868E+04  0.36024543983E+04 0.  0.
        3    1    3    3  502    0 -0.48401159341E+03  0.11796202180E+04 -0.16639420336E+04  0.20963001175E+04  0.10100000352E+00 0.  1.
       -3    1    3    3    0  502  0.48401159341E+03 -0.11796202180E+04  0.93249975374E+03  0.15796603693E+04  0.10100000352E+00 0. -1.
</event>
<event>
 5   0  0.8024500E-09  0.3595997E+04  0.7818609E-02  0.8091409E-01
        1   -1    0    0  501    0  0.00000000000E+00  0.00000000000E+00  0.26436718683E+04  0.26436718683E+04  0.50400001928E-02 0. -1.
       -1   -1    0    0    0  501  0.00000000000E+00  0.00000000000E+00 -0.12228439743E+04  0.12228439743E+04  0.50400001928E-02 0.  1.
    10030    2    1    2    0    0  0.00000000000E+00  0.00000000000E+00  0.14208278940E+04  0.38665158426E+04  0.35959967821E+04 0.  0.
        1    1    3    3  502    0  0.17321523624E+04  0.48092705017E+03  0.67386284279E+03  0.19198264935E+04  0.50400001928E-02 0. -1.
       -1    1    3    3    0  502 -0.17321523624E+04 -0.48092705017E+03  0.74696505123E+03  0.19466893491E+04  0.50400001928E-02 0.  1.
</event>
<event>
 5   0  0.2590795E-08  0.3601317E+04  0.7818609E-02  0.8090190E-01
        2   -1    0    0  501    0  0.00000000000E+00  0.00000000000E+00  0.29146074187E+04  0.29146074187E+04  0.25500000920E-02 0.  1.
       -2   -1    0    0    0  501  0.00000000000E+00  0.00000000000E+00 -0.11124554456E+04  0.11124554456E+04  0.25500000920E-02 0. -1.
    10030    2    1    2    0    0  0.00000000000E+00  0.00000000000E+00  0.18021519731E+04  0.40270628643E+04  0.36013169229E+04 0.  0.
        4    1    3    3  502    0 -0.96352303011E+03  0.28805166652E+03  0.25713152591E+04  0.27609806531E+04  0.12699999809E+01 0.  1.
       -4    1    3    3    0  502  0.96352303011E+03 -0.28805166652E+03 -0.76916328601E+03  0.12660822112E+04  0.12699999809E+01 0. -1.
</event>
<event>
 5   0  0.2590795E-08  0.3599732E+04  0.7818609E-02  0.8090553E-01
       -2   -1    0    0    0  501  0.00000000000E+00  0.00000000000E+00  0.12969144826E+04  0.12969144826E+04  0.25500000920E-02 0. -1.
        2   -1    0    0  501    0  0.00000000000E+00  0.00000000000E+00 -0.24978647422E+04  0.24978647422E+04  0.25500000920E-02 0.  1.
    10030    2    1    2    0    0  0.00000000000E+00  0.00000000000E+00 -0.12009502595E+04  0.37947792248E+04  0.35997316343E+04 0.  0.
        4    1    3    3  502    0 -0.11069961076E+04 -0.42573450305E+02  0.89492943813E+03  0.14241324352E+04  0.12699999809E+01 0. -1.
       -4    1    3    3    0  502  0.11069961076E+04  0.42573450305E+02 -0.20958796976E+04  0.23706467896E+04  0.12699999809E+01 0.  1.
</event>
<event>
 5   0  0.8024500E-09  0.3602372E+04  0.7818609E-02  0.8089948E-01
       -1   -1    0    0    0  501  0.00000000000E+00  0.00000000000E+00  0.14932262693E+04  0.14932262693E+04  0.50400001928E-02 0.  1.
        1   -1    0    0  501    0  0.00000000000E+00  0.00000000000E+00 -0.21726591604E+04  0.21726591604E+04  0.50400001928E-02 0. -1.
    10030    2    1    2    0    0  0.00000000000E+00  0.00000000000E+00 -0.67943289115E+03  0.36658854297E+04  0.36023724031E+04 0.  0.
        5    1    3    3  502    0  0.39596674228E+03 -0.13280279903E+04  0.83113484244E+03  0.16159378764E+04  0.46999998093E+01 0.  1.
       -5    1    3    3    0  502 -0.39596674228E+03  0.13280279903E+04 -0.15105677336E+04  0.20499475534E+04  0.46999998093E+01 0. -1.
</event>
<event>
 5   0  0.8247570E-09  0.3598608E+04  0.7818609E-02  0.8090811E-01
        1   -1    0    0  501    0  0.00000000000E+00  0.00000000000E+00  0.28074085036E+04  0.28074085036E+04  0.50400001928E-02 0. -1.
       -1   -1    0    0    0  501  0.00000000000E+00  0.00000000000E+00 -0.11531970625E+04  0.11531970625E+04  0.50400001928E-02 0.  1.
    10030    2    1    2    0    0  0.00000000000E+00  0.00000000000E+00  0.16542114412E+04  0.39606055661E+04  0.35986081973E+04 0.  0.
        3    1    3    3  502    0  0.16010375466E+03  0.11725487206E+03  0.27953271326E+04  0.28023625222E+04  0.10100000352E+00 0. -1.
       -3    1    3    3    0  502 -0.16010375466E+03 -0.11725487206E+03 -0.11411156914E+04  0.11582430439E+04  0.10100000352E+00 0.  1.
</event>
<event>
 5   0  0.8063410E-09  0.3594348E+04  0.7818609E-02  0.8091788E-01
       -1   -1    0    0    0  501  0.00000000000E+00  0.00000000000E+00  0.20129417547E+04  0.20129417547E+04  0.50400001928E-02 0. -1.
        1   -1    0    0  501    0  0.00000000000E+00  0.00000000000E+00 -0.16045342036E+04  0.16045342037E+04  0.50400001928E-02 0.  1.
    10030    2    1    2    0    0  0.00000000000E+00  0.00000000000E+00  0.40840755105E+03  0.36174759584E+04  0.35943477268E+04 0.  0.
        2    1    3    3  502    0  0.36525515674E+02  0.12474203632E+04 -0.10973470295E+04  0.16617948666E+04  0.25500000920E-02 0.  1.
       -2    1    3    3    0  502 -0.36525515674E+02 -0.12474203632E+04  0.15057545805E+04  0.19556810917E+04  0.25500000920E-02 0. -1.
</event>
<event>
 5   0  0.2590795E-08  0.3600670E+04  0.7818609E-02  0.8090338E-01
       -2   -1    0    0    0  501  0.00000000000E+00  0.00000000000E+00  0.17557123510E+04  0.17557123510E+04  0.25500000920E-02 0.  1.
        2   -1    0    0  501    0  0.00000000000E+00  0.00000000000E+00 -0.18460915423E+04  0.18460915423E+04  0.25500000920E-02 0. -1.
    10030    2    1    2    0    0  0.00000000000E+00  0.00000000000E+00 -0.90379191388E+02  0.36018038933E+04  0.36006697832E+04 0.  0.
        4    1    3    3  502    0 -0.21004280146E+03  0.11300706807E+04  0.13408970130E+04  0.17661212116E+04  0.12699999809E+01 0.  1.
       -4    1    3    3    0  502  0.21004280146E+03 -0.11300706807E+04 -0.14312762043E+04  0.18356826817E+04  0.12699999809E+01 0. -1.
</event>
<event>
 5   0  0.8247570E-09  0.3598980E+04  0.7818609E-02  0.8090725E-01
        1   -1    0    0  501    0  0.00000000000E+00  0.00000000000E+00  0.31494064617E+04  0.31494064617E+04  0.50400001928E-02 0. -1.
       -1   -1    0    0    0  501  0.00000000000E+00  0.00000000000E+00 -0.10281826580E+04  0.10281826580E+04  0.50400001928E-02 0.  1.
    10030    2    1    2    0    0  0.00000000000E+00  0.00000000000E+00  0.21212238038E+04  0.41775891197E+04  0.35989804706E+04 0.  0.
        3    1    3    3  502    0 -0.15367748138E+04  0.93615114895E+03  0.10484767360E+04  0.20826327756E+04  0.10100000352E+00 0. -1.
       -3    1    3    3    0  502  0.15367748138E+04 -0.93615114895E+03  0.10727470678E+04  0.20949563441E+04  0.10100000352E+00 0.  1.
</event>
<event>
 5   0  0.2476968E-08  0.3605624E+04  0.7818609E-02  0.8089205E-01
       -2   -1    0    0    0  501  0.00000000000E+00  0.00000000000E+00  0.19556385571E+04  0.19556385571E+04  0.25500000920E-02 0. -1.
        2   -1    0    0  501    0  0.00000000000E+00  0.00000000000E+00 -0.16619285392E+04  0.16619285392E+04  0.25500000920E-02 0.  1.
    10030    2    1    2    0    0  0.00000000000E+00  0.00000000000E+00  0.29371001791E+03  0.36175670963E+04  0.36056242346E+04 0.  0.
        2    1    3    3  502    0  0.58546309100E+02 -0.17600517446E+04  0.53403699858E+03  0.18402188266E+04  0.25500000920E-02 0.  1.
       -2    1    3    3    0  502 -0.58546309100E+02  0.17600517446E+04 -0.24032698066E+03  0.17773482696E+04  0.25500000920E-02 0. -1.
</event>
<event>
 5   0  0.2590795E-08  0.3599583E+04  0.7818609E-02  0.8090587E-01
        2   -1    0    0  501    0  0.00000000000E+00  0.00000000000E+00  0.20005892720E+04  0.20005892720E+04  0.25500000920E-02 0. -1.
       -2   -1    0    0    0  501  0.00000000000E+00  0.00000000000E+00 -0.16191474917E+04  0.16191474917E+04  0.25500000920E-02 0.  1.
    10030    2    1    2    0    0  0.00000000000E+00  0.00000000000E+00  0.38144178032E+03  0.36197367637E+04  0.35995828101E+04 0.  0.
        4    1    3    3  502    0  0.23227651715E+01  0.10229853848E+04 -0.12983613562E+04  0.16529513958E+04  0.12699999809E+01 0.  1.
       -4    1    3    3    0  502 -0.23227651715E+01 -0.10229853848E+04  0.16798031366E+04  0.19667853679E+04  0.12699999809E+01 0. -1.
</event>
<event>
 5   0  0.8024500E-09  0.3600806E+04  0.7818609E-02  0.8090307E-01
        1   -1    0    0  501    0  0.00000000000E+00  0.00000000000E+00  0.20811028057E+04  0.20811028057E+04  0.50400001928E-02 0. -1.
       -1   -1    0    0    0  501  0.00000000000E+00  0.00000000000E+00 -0.15575640932E+04  0.15575640932E+04  0.50400001928E-02 0.  1.
    10030    2    1    2    0    0  0.00000000000E+00  0.00000000000E+00  0.52353871245E+03  0.36386668989E+04  0.36008060234E+04 0.  0.
        5    1    3    3  502    0 -0.12965289728E+04 -0.10774729696E+04 -0.37693143241E+03  0.17274358953E+04  0.46999998093E+01 0.  1.
       -5    1    3    3    0  502  0.12965289728E+04  0.10774729696E+04  0.90047014486E+03  0.19112310037E+04  0.46999998093E+01 0. -1.
</event>
<event>
 5   0  0.8063410E-09  0.3600376E+04  0.7818609E-02  0.8090406E-01
        1   -1    0    0  501    0  0.00000000000E+00  0.00000000000E+00  0.21634785669E+04  0.21634785669E+04  0.50400001928E-02 0.  1.
       -1   -1    0    0    0  501  0.00000000000E+00  0.00000000000E+00 -0.14979008112E+04  0.14979008112E+04  0.50400001928E-02 0. -1.
    10030    2    1    2    0    0  0.00000000000E+00  0.00000000000E+00  0.66557775571E+03  0.36613793782E+04  0.36003757029E+04 0.  0.
        2    1    3    3  502    0  0.68077027989E+02  0.17463163992E+04 -0.10629162618E+03  0.17508721705E+04  0.25500000920E-02 0. -1.
       -2    1    3    3    0  502 -0.68077027989E+02 -0.17463163992E+04  0.77186938189E+03  0.19105072076E+04  0.25500000920E-02 0.  1.
</event>
<event>
 5   0  0.2476968E-08  0.3600092E+04  0.7818609E-02  0.8090471E-01
       -2   -1    0    0    0  501  0.00000000000E+00  0.00000000000E+00  0.15608314466E+04  0.15608314466E+04  0.25500000920E-02 0.  1.
        2   -1    0    0  501    0  0.00000000000E+00  0.00000000000E+00 -0.20759222435E+04  0.20759222435E+04  0.25500000920E-02 0. -1.
    10030    2    1    2    0    0  0.00000000000E+00  0.00000000000E+00 -0.51509079691E+03  0.36367536901E+04  0.36000915091E+04 0.  0.
        2    1    3    3  502    0  0.56074182626E+03  0.81021974690E+02  0.14684115143E+04  0.15739213231E+04  0.25500000920E-02 0.  1.
       -2    1    3    3    0  502 -0.56074182626E+03 -0.81021974690E+02 -0.19835023112E+04  0.20628323670E+04  0.25500000920E-02 0. -1.
</event>
<event>
 5   0  0.2608070E-08  0.3599506E+04  0.7818609E-02  0.8090605E-01
        2   -1    0    0  501    0  0.00000000000E+00  0.00000000000E+00  0.18806106807E+04  0.18806106807E+04  0.25500000920E-02 0. -1.
       -2   -1    0    0    0  501  0.00000000000E+00  0.00000000000E+00 -0.17223719114E+04  0.17223719114E+04  0.25500000920E-02 0.  1.
    10030    2    1    2    0    0  0.00000000000E+00  0.00000000000E+00  0.15823876930E+03  0.36029825920E+04  0.35995060842E+04 0.  0.
        3    1    3    3  502    0  0.23759265904E+03  0.10310175109E+04  0.15364320025E+04  0.18654947568E+04  0.10100000352E+00 0. -1.
       -3    1    3    3    0  502 -0.23759265904E+03 -0.10310175109E+04 -0.13781932332E+04  0.17374878352E+04  0.10100000352E+00 0.  1.
</event>
<event>
 5   0  0.2482243E-08  0.3595829E+04  0.7818609E-02  0.8091448E-01
        2   -1    0    0  501    0  0.00000000000E+00  0.00000000000E+00  0.19192384792E+04  0.19192384792E+04  0.25500000920E-02 0.  1.
       -2   -1    0    0    0  501  0.00000000000E+00  0.00000000000E+00 -0.16842597225E+04  0.16842597225E+04  0.25500000920E-02 0. -1.
    10030    2    1    2    0    0  0.00000000000E+00  0.00000000000E+00  0.23497875667E+03  0.36034982018E+04  0.35958287326E+04 0.  0.
        5    1    3    3  502    0  0.77281529436E+03  0.68611242840E+03 -0.13568658137E+04  0.17056085923E+04  0.46999998093E+01 0. -1.
       -5    1    3    3    0  502 -0.77281529436E+03 -0.68611242840E+03  0.15918445704E+04  0.18978896095E+04  0.46999998093E+01 0.  1.
</event>
<event>
 5   0  0.8063410E-09  0.3600951E+04  0.7818609E-02  0.8090274E-01
       -1   -1    0    0    0  501  0.00000000000E+00  0.00000000000E+00  0.17191122070E+04  0.17191122070E+04  0.50400001928E-02 0. -1.
        1   -1    0    0  501    0  0.00000000000E+00  0.00000000000E+00 -0.18856898365E+04  0.18856898365E+04  0.50400001928E-02 0.  1.
    10030    2    1    2    0    0  0.00000000000E+00  0.00000000000E+00 -0.16657762954E+03  0.36048020435E+04  0.36009512169E+04 0.  0.
        2    1    3    3  502    0 -0.82852603319E+03  0.61939897959E+03  0.13919226961E+04  0.17342316095E+04  0.25500000920E-02 0. -1.
       -2    1    3    3    0  502  0.82852603319E+03 -0.61939897959E+03 -0.15585003256E+04  0.18705704340E+04  0.25500000920E-02 0.  1.
</event>
<event>
 5   0  0.2476968E-08  0.3602437E+04  0.7818609E-02  0.8089934E-01
        2   -1    0    0  501    0  0.00000000000E+00  0.00000000000E+00  0.14022019178E+04  0.14022019178E+04  0.25500000920E-02 0.  1.
       -2   -1    0    0    0  501  0.00000000000E+00  0.00000000000E+00 -0.23137814662E+04  0.23137814662E+04  0.25500000920E-02 0. -1.
    10030    2    1    2    0    0  0.00000000000E+00  0.00000000000E+00 -0.91157954842E+03  0.37159833840E+04  0.36024374023E+04 0.  0.
        2    1    3    3  502    0  0.16613630042E+04  0.54886385637E+03 -0.89707056351E+03  0.19662436676E+04  0.25500000920E-02 0. -1.
       -2    1    3    3    0  502 -0.16613630042E+04 -0.54886385637E+03 -0.14508984915E+02  0.17497397164E+04  0.25500000920E-02 0.  1.
</event>
<event>
 5   0  0.8063410E-09  0.3600690E+04  0.7818609E-02  0.8090334E-01
       -1   -1    0    0    0  501  0.00000000000E+00  0.00000000000E+00  0.17844720166E+04  0.17844720166E+04  0.50400001928E-02 0. -1.
        1   -1    0    0  501    0  0.00000000000E+00  0.00000000000E+00 -0.18163590404E+04  0.18163590404E+04  0.50400001928E-02 0.  1.
    10030    2    1    2    0    0  0.00000000000E+00  0.00000000000E+00 -0.31887023749E+02  0.36008310570E+04  0.36006898670E+04 0.  0.
        2    1    3    3  502    0  0.95914948655E+03  0.11052631518E+04 -0.10646349580E+04  0.18097021761E+04  0.25500000920E-02 0.  1.
       -2    1    3    3    0  502 -0.95914948655E+03 -0.11052631518E+04  0.10327479343E+04  0.17911288809E+04  0.25500000920E-02 0. -1.
</event>
<event>
 5   0  0.2482243E-08  0.3606605E+04  0.7818609E-02  0.8088980E-01
        2   -1    0    0  501    0  0.00000000000E+00  0.00000000000E+00  0.17310358590E+04  0.17310358590E+04  0.25500000920E-02 0. -1.
       -2   -1    0    0    0  501  0.00000000000E+00  0.00000000000E+00 -0.18785860740E+04  0.18785860740E+04  0.25500000920E-02 0.  1.
    10030    2    1    2    0    0  0.00000000000E+00  0.00000000000E+00 -0.14755021500E+03  0.36096219330E+04  0.36066049733E+04 0.  0.
        5    1    3    3  502    0  0.63112944351E+03  0.14460305946E+04 -0.94774604863E+03  0.18405362038E+04  0.46999998093E+01 0.  1.
       -5    1    3    3    0  502 -0.63112944351E+03 -0.14460305946E+04  0.80019583363E+03  0.17690857292E+04  0.46999998093E+01 0. -1.
</event>
<event>
 5   0  0.8024500E-09  0.3600506E+04  0.7818609E-02  0.8090376E-01
       -1   -1    0    0    0  501  0.00000000000E+00  0.00000000000E+00  0.15385323805E+04  0.15385323805E+04  0.50400001928E-02 0. -1.
        1   -1    0    0  501    0  0.00000000000E+00  0.00000000000E+00 -0.21064950253E+04  0.21064950253E+04  0.50400001928E-02 0.  1.
    10030    2    1    2    0    0  0.00000000000E+00  0.00000000000E+00 -0.56796264476E+03  0.36450274059E+04  0.36005059677E+04 0.  0.
        1    1    3    3  502    0 -0.65797938818E+03 -0.40304138069E+03 -0.19306026553E+04  0.20790877429E+04  0.50400001928E-02 0.  1.
       -1    1    3    3    0  502  0.65797938818E+03  0.40304138069E+03  0.13626400105E+04  0.15659396630E+04  0.50400001928E-02 0. -1.
</event>
<event>
 5   0  0.8146881E-09  0.3604383E+04  0.7818609E-02  0.8089488E-01
       -1   -1    0    0    0  501  0.00000000000E+00  0.00000000000E+00  0.28464723573E+04  0.28464723573E+04  0.50400001928E-02 0. -1.
        1   -1    0    0  501    0  0.00000000000E+00  0.00000000000E+00 -0.11410245786E+04  0.11410245786E+04  0.50400001928E-02 0.  1.
    10030    2    1    2    0    0  0.00000000000E+00  0.00000000000E+00  0.17054477788E+04  0.39874969359E+04  0.36043833991E+04 0.  0.
        4    1    3    3  502    0  0.16547359059E+03 -0.88425181588E+03  0.25803135795E+04  0.27326365591E+04  0.12699999809E+01 0. -1.
       -4    1    3    3    0  502 -0.16547359059E+03  0.88425181588E+03 -0.87486580071E+03  0.12548603768E+04  0.12699999809E+01 0.  1.
</event>
<event>
 5   0  0.8024500E-09  0.3598800E+04  0.7818609E-02  0.8090767E-01
       -1   -1    0    0    0  501  0.00000000000E+00  0.00000000000E+00  0.12987653034E+04  0.12987653034E+04  0.50400001928E-02 0. -1.
        1   -1    0    0  501    0  0.00000000000E+00  0.00000000000E+00 -0.24930136740E+04  0.24930136740E+04  0.50400001928E-02 0.  1.
    10030    2    1    2    0    0  0.00000000000E+00  0.00000000000E+00 -0.11942483706E+04  0.37917789774E+04  0.35987996114E+04 0.  0.
        1    1    3    3  502    0  0.32761211552E+03 -0.50427523481E+02 -0.24605685577E+04  0.24827948486E+04  0.50400001928E-02 0.  1.
       -1    1    3    3    0  502 -0.32761211552E+03  0.50427523481E+02  0.12663201870E+04  0.13089841288E+04  0.50400001928E-02 0. -1.
</event>
<event>
 5   0  0.2482243E-08  0.3596760E+04  0.7818609E-02  0.8091234E-01
        2   -1    0    0  501    0  0.00000000000E+00  0.00000000000E+00  0.19024314421E+04  0.19024314421E+04  0.25500000920E-02 0. -1.
       -2   -1    0    0    0  501  0.00000000000E+00  0.00000000000E+00 -0.17000190680E+04  0.17000190680E+04  0.25500000920E-02 0.  1.
    10030    2    1    2    0    0  0.00000000000E+00  0.00000000000E+00  0.20241237406E+03  0.36024505101E+04  0.35967595010E+04 0.  0.
        5    1    3    3  502    0  0.39433436790E+03  0.17505907028E+04  0.22005410311E+03  0.18079030120E+04  0.46999998093E+01 0. -1.
       -5    1    3    3    0  502 -0.39433436790E+03 -0.17505907028E+04 -0.17641729049E+02  0.17945474981E+04  0.46999998093E+01 0.  1.
</event>
<event>
 5   0  0.8024500E-09  0.3603055E+04  0.7818609E-02  0.8089792E-01
        1   -1    0    0  501    0  0.00000000000E+00  0.00000000000E+00  0.15125671902E+04  0.15125671902E+04  0.50400001928E-02 0.  1.
       -1   -1    0    0    0  501  0.00000000000E+00  0.00000000000E+00 -0.21456904444E+04  0.21456904444E+04  0.50400001928E-02 0. -1.
    10030    2    1    2    0    0  0.00000000000E+00  0.00000000000E+00 -0.63312325422E+03  0.36582576346E+04  0.36030547964E+04 0.  0.
        5    1    3    3  502    0  0.72741234711E+03 -0.98972442913E+03  0.10215051545E+04  0.15975537672E+04  0.46999998093E+01 0.  1.
       -5    1    3    3    0  502 -0.72741234711E+03  0.98972442913E+03 -0.16546284087E+04  0.20607038674E+04  0.46999998093E+01 0. -1.
</event>
<event>
 5   0  0.8247570E-09  0.3602276E+04  0.7818609E-02  0.8089971E-01
       -1   -1    0    0    0  501  0.00000000000E+00  0.00000000000E+00  0.17933298095E+04  0.17933298095E+04  0.50400001928E-02 0.  1.
        1   -1    0    0  501    0  0.00000000000E+00  0.00000000000E+00 -0.18089797969E+04  0.18089797969E+04  0.50400001928E-02 0. -1.
    10030    2    1    2    0    0  0.00000000000E+00  0.00000000000E+00 -0.15649987401E+02  0.36023096065E+04  0.36022756112E+04 0.  0.
        3    1    3    3  502    0  0.11462570813E+04  0.13503290626E+04  0.31898615449E+03  0.17997349946E+04  0.10100000352E+00 0. -1.
       -3    1    3    3    0  502 -0.11462570813E+04 -0.13503290626E+04 -0.33463614190E+03  0.18025746119E+04  0.10100000352E+00 0.  1.
</event>
<event>
 5   0  0.2494592E-08  0.3598611E+04  0.7818609E-02  0.8090810E-01
        2   -1    0    0  501    0  0.00000000000E+00  0.00000000000E+00  0.25194058305E+04  0.25194058305E+04  0.25500000920E-02 0.  1.
       -2   -1    0    0    0  501  0.00000000000E+00  0.00000000000E+00 -0.12850256028E+04  0.12850256028E+04  0.25500000920E-02 0. -1.
    10030    2    1    2    0    0  0.00000000000E+00  0.00000000000E+00  0.12343802276E+04  0.38044314333E+04  0.35986113967E+04 0.  0.
        1    1    3    3  502    0  0.95319121255E+02  0.42303201160E+03 -0.12289566456E+04  0.13032176543E+04  0.50400001928E-02 0. -1.
       -1    1    3    3    0  502 -0.95319121255E+02 -0.42303201160E+03  0.24633368732E+04  0.25012137791E+04  0.50400001928E-02 0.  1.
</event>
<event>
 5   0  0.8247570E-09  0.3603480E+04  0.7818609E-02  0.8089695E-01
       -1   -1    0    0    0  501  0.00000000000E+00  0.00000000000E+00  0.13513435503E+04  0.13513435503E+04  0.50400001928E-02 0. -1.
        1   -1    0    0  501    0  0.00000000000E+00  0.00000000000E+00 -0.24022520928E+04  0.24022520928E+04  0.50400001928E-02 0.  1.
    10030    2    1    2    0    0  0.00000000000E+00  0.00000000000E+00 -0.10509085426E+04  0.37535956431E+04  0.36034804685E+04 0.  0.
        3    1    3    3  502    0  0.16967492755E+03 -0.61203667301E+03 -0.22817809378E+04  0.23685233223E+04  0.10100000352E+00 0.  1.
       -3    1    3    3    0  502 -0.16967492755E+03  0.61203667301E+03  0.12308723952E+04  0.13850723207E+04  0.10100000352E+00 0. -1.
</event>
<event>
 5   0  0.2608070E-08  0.3599672E+04  0.7818609E-02  0.8090567E-01
        2   -1    0    0  501    0  0.00000000000E+00  0.00000000000E+00  0.21385868775E+04  0.21385868775E+04  0.25500000920E-02 0. -1.
       -2   -1    0    0    0  501  0.00000000000E+00  0.00000000000E+00 -0.15147434306E+04  0.15147434306E+04  0.25500000920E-02 0.  1.
    10030    2    1    2    0    0  0.00000000000E+00  0.00000000000E+00  0.62384344686E+03  0.36533303081E+04  0.35996724426E+04 0.  0.
        3    1    3    3  502    0  0.14898514433E+04  0.22514073583E+03 -0.68716307780E+03  0.16560612246E+04  0.10100000352E+00 0.  1.
       -3    1    3    3    0  502 -0.14898514433E+04 -0.22514073583E+03  0.13110065247E+04  0.19972690835E+04  0.10100000352E+00 0. -1.
</event>
<event>
 5   0  0.8024500E-09  0.3599432E+04  0.7818609E-02  0.8090622E-01
        1   -1    0    0  501    0  0.00000000000E+00  0.00000000000E+00  0.18178687782E+04  0.18178687782E+04  0.50400001928E-02 0. -1.
       -1   -1    0    0    0  501  0.00000000000E+00  0.00000000000E+00 -0.17817443567E+04  0.17817443568E+04  0.50400001928E-02 0.  1.
    10030    2    1    2    0    0  0.00000000000E+00  0.00000000000E+00  0.36124421421E+02  0.35996131349E+04  0.35994318645E+04 0.  0.
        1    1    3    3  502    0 -0.16852225920E+04 -0.54653973141E+03 -0.29865008246E+03  0.17966281569E+04  0.50400001928E-02 0. -1.
       -1    1    3    3    0  502  0.16852225920E+04  0.54653973141E+03  0.33477450388E+03  0.18029849780E+04  0.50400001928E-02 0.  1.
</event>
<event>
 5   0  0.8024500E-09  0.3599337E+04  0.7818609E-02  0.8090644E-01
       -1   -1    0    0    0  501  0.00000000000E+00  0.00000000000E+00  0.18117976878E+04  0.18117976878E+04  0.50400001928E-02 0.  1.
        1   -1    0    0  501    0  0.00000000000E+00  0.00000000000E+00 -0.17876202065E+04  0.17876202066E+04  0.50400001928E-02 0. -1.
    10030    2    1    2    0    0  0.00000000000E+00  0.00000000000E+00  0.24177481221E+02  0.35994178943E+04  0.35993366927E+04 0.  0.
        1    1    3    3  502    0 -0.59174562627E+03 -0.76755402254E+03  0.15285345354E+04  0.18098949941E+04  0.50400001928E-02 0.  1.
       -1    1    3    3    0  502  0.59174562627E+03  0.76755402254E+03 -0.15043570542E+04  0.17895229002E+04  0.50400001928E-02 0. -1.
</event>
<event>
 5   0  0.2494592E-08  0.3601016E+04  0.7818609E-02  0.8090259E-01
        2   -1    0    0  501    0  0.00000000000E+00  0.00000000000E+00  0.19187524781E+04  0.19187524781E+04  0.25500000920E-02 0. -1.
       -2   -1    0    0    0  501  0.00000000000E+00  0.00000000000E+00 -0.16895506667E+04  0.16895506667E+04  0.25500000920E-02 0.  1.
    10030    2    1    2    0    0  0.00000000000E+00  0.00000000000E+00  0.22920181145E+03  0.36083031448E+04  0.36010162614E+04 0.  0.
        1    1    3    3  502    0  0.14649140647E+04 -0.89158708843E+03 -0.43507891425E+03  0.17692355453E+04  0.50400001928E-02 0.  1.
       -1    1    3    3    0  502 -0.14649140647E+04  0.89158708843E+03  0.66428072570E+03  0.18390675995E+04  0.50400001928E-02 0. -1.
</event>
<event>
 5   0  0.8247570E-09  0.3598425E+04  0.7818609E-02  0.8090853E-01
       -1   -1    0    0    0  501  0.00000000000E+00  0.00000000000E+00  0.11781938801E+04  0.11781938801E+04  0.50400001928E-02 0.  1.
        1   -1    0    0  501    0  0.00000000000E+00  0.00000000000E+00 -0.27475664094E+04  0.27475664094E+04  0.50400001928E-02 0. -1.
    10030    2    1    2    0    0  0.00000000000E+00  0.00000000000E+00 -0.15693725293E+04  0.39257602895E+04  0.35984251715E+04 0.  0.
        3    1    3    3  502    0  0.11647516999E+03  0.96460145476E+03 -0.24367504515E+04  0.26233137831E+04  0.10100000352E+00 0. -1.
       -3    1    3    3    0  502 -0.11647516999E+03 -0.96460145476E+03  0.86737792223E+03  0.13024465064E+04  0.10100000352E+00 0.  1.
</event>
<event>
 5   0  0.8024500E-09  0.3599775E+04  0.7818609E-02  0.8090543E-01
       -1   -1    0    0    0  501  0.00000000000E+00  0.00000000000E+00  0.13631451282E+04  0.13631451282E+04  0.50400001928E-02 0.  1.
        1   -1    0    0  501    0  0.00000000000E+00  0.00000000000E+00 -0.23765584874E+04  0.23765584874E+04  0.50400001928E-02 0. -1.
    10030    2    1    2    0    0  0.00000000000E+00  0.00000000000E+00 -0.10134133593E+04  0.37397036156E+04  0.35997745062E+04 0.  0.
        1    1    3    3  502    0 -0.76677862852E+03 -0.14792736700E+04  0.20048496714E+03  0.16782116309E+04  0.50400001928E-02 0.  1.
       -1    1    3    3    0  502  0.76677862852E+03  0.14792736700E+04 -0.12138983264E+04  0.20614919847E+04  0.50400001928E-02 0. -1.
</event>
<event>
 5   0  0.2608070E-08  0.3599396E+04  0.7818609E-02  0.8090630E-01
       -2   -1    0    0    0  501  0.00000000000E+00  0.00000000000E+00  0.13673985036E+04  0.13673985036E+04  0.25500000920E-02 0.  1.
        2   -1    0    0  501    0  0.00000000000E+00  0.00000000000E+00 -0.23686682353E+04  0.23686682353E+04  0.25500000920E-02 0. -1.
    10030    2    1    2    0    0  0.00000000000E+00  0.00000000000E+00 -0.10012697317E+04  0.37360667390E+04  0.35993962830E+04 0.  0.
        3    1    3    3  502    0 -0.10924873802E+04  0.24810804685E+03  0.96132978666E+03  0.14762253378E+04  0.10100000352E+00 0.  1.
       -3    1    3    3    0  502  0.10924873802E+04 -0.24810804685E+03 -0.19625995184E+04  0.22598414012E+04  0.10100000352E+00 0. -1.
</event>
<event>
 5   0  0.2482243E-08  0.3599226E+04  0.7818609E-02  0.8090669E-01
        2   -1    0    0  501    0  0.00000000000E+00  0.00000000000E+00  0.20033283728E+04  0.20033283728E+04  0.25500000920E-02 0. -1.
       -2   -1    0    0    0  501  0.00000000000E+00  0.00000000000E+00 -0.16166127012E+04  0.16166127012E+04  0.25500000920E-02 0.  1.
    10030    2    1    2    0    0  0.00000000000E+00  0.00000000000E+00  0.38671567157E+03  0.36199410741E+04  0.35992255235E+04 0.  0.
        5    1    3    3  502    0  0.86663079916E+03 -0.12772540361E+04 -0.73725533485E+03  0.17105538090E+04  0.46999998093E+01 0.  1.
       -5    1    3    3    0  502 -0.86663079916E+03  0.12772540361E+04  0.11239710064E+04  0.19093872651E+04  0.46999998093E+01 0. -1.
</event>
<event>
 5   0  0.2476968E-08  0.3599276E+04  0.7818609E-02  0.8090657E-01
        2   -1    0    0  501    0  0.00000000000E+00  0.00000000000E+00  0.28694408291E+04  0.28694408291E+04  0.25500000920E-02 0.  1.
       -2   -1    0    0    0  501  0.00000000000E+00  0.00000000000E+00 -0.11286859398E+04  0.11286859398E+04  0.25500000920E-02 0. -1.
    10030    2    1    2    0    0  0.00000000000E+00  0.00000000000E+00  0.17407548893E+04  0.39981267689E+04  0.35992763267E+04 0.  0.
        2    1    3    3  502    0  0.12043598888E+04  0.96988297689E+03 -0.15226056464E+03  0.15538143422E+04  0.25500000920E-02 0. -1.
       -2    1    3    3    0  502 -0.12043598888E+04 -0.96988297689E+03  0.18930154539E+04  0.24443124267E+04  0.25500000920E-02 0.  1.
</event>
<event>
 5   0  0.2476968E-08  0.3600431E+04  0.7818609E-02  0.8090393E-01
       -2   -1    0    0    0  501  0.00000000000E+00  0.00000000000E+00  0.22225217840E+04  0.22225217840E+04  0.25500000920E-02 0.  1.
        2   -1    0    0  501    0  0.00000000000E+00  0.00000000000E+00 -0.14581526013E+04  0.14581526013E+04  0.25500000920E-02 0. -1.
    10030    2    1    2    0    0  0.00000000000E+00  0.00000000000E+00  0.76436918277E+03  0.36806743853E+04  0.36004310413E+04 0.  0.
        2    1    3    3  502    0  0.81066640939E+03  0.14794650817E+04  0.10245023122E+04  0.19737279303E+04  0.25500000920E-02 0.  1.
       -2    1    3    3    0  502 -0.81066640939E+03 -0.14794650817E+04 -0.26013312939E+03  0.17069464550E+04  0.25500000920E-02 0. -1.
</event>
<event>
 5   0  0.2608070E-08  0.3600197E+04  0.7818609E-02  0.8090446E-01
       -2   -1    0    0    0  501  0.00000000000E+00  0.00000000000E+00  0.24810580951E+04  0.24810580951E+04  0.25500000920E-02 0. -1.
        2   -1    0    0  501    0  0.00000000000E+00  0.00000000000E+00 -0.13060376052E+04  0.13060376052E+04  0.25500000920E-02 0.  1.
    10030    2    1    2    0    0  0.00000000000E+00  0.00000000000E+00  0.11750204899E+04  0.37870957003E+04  0.36001973129E+04 0.  0.
        3    1    3    3  502    0 -0.97290130906E+03 -0.21163552184E+03  0.21650396628E+04  0.23830071974E+04  0.10100000352E+00 0. -1.
       -3    1    3    3    0  502  0.97290130906E+03  0.21163552184E+03 -0.99001917284E+03  0.14040885029E+04  0.10100000352E+00 0.  1.
</event>
<event>
 5   0  0.8063410E-09  0.3581457E+04  0.7818609E-02  0.8094752E-01
       -1   -1    0    0    0  501  0.00000000000E+00  0.00000000000E+00  0.31206098471E+04  0.31206098471E+04  0.50400001928E-02 0. -1.
        1   -1    0    0  501    0  0.00000000000E+00  0.00000000000E+00 -0.10275905446E+04  0.10275905446E+04  0.50400001928E-02 0.  1.
    10030    2    1    2    0    0  0.00000000000E+00  0.00000000000E+00  0.20930193025E+04  0.41482003917E+04  0.35814573415E+04 0.  0.
        2    1    3    3  502    0 -0.44627978782E+03  0.14597379026E+04 -0.37985521425E+02  0.15269064454E+04  0.25500000920E-02 0.  1.
       -2    1    3    3    0  502  0.44627978782E+03 -0.14597379026E+04  0.21310048239E+04  0.26212939463E+04  0.25500000920E-02 0. -1.
</event>
<event>
 5   0  0.2494592E-08  0.3599489E+04  0.7818609E-02  0.8090609E-01
        2   -1    0    0  501    0  0.00000000000E+00  0.00000000000E+00  0.16433073174E+04  0.16433073174E+04  0.25500000920E-02 0. -1.
       -2   -1    0    0    0  501  0.00000000000E+00  0.00000000000E+00 -0.19710735343E+04  0.19710735343E+04  0.25500000920E-02 0.  1.
    10030    2    1    2    0    0  0.00000000000E+00  0.00000000000E+00 -0.32776621691E+03  0.36143808516E+04  0.35994886092E+04 0.  0.
        1    1    3    3  502    0  0.14714872903E+04  0.34592718502E+03 -0.11447248859E+04  0.18961370012E+04  0.50400001928E-02 0.  1.
       -1    1    3    3    0  502 -0.14714872903E+04 -0.34592718502E+03  0.81695866899E+03  0.17182438505E+04  0.50400001928E-02 0. -1.
</event>
<event>
 5   0  0.8247570E-09  0.3600828E+04  0.7818609E-02  0.8090302E-01
        1   -1    0    0  501    0  0.00000000000E+00  0.00000000000E+00  0.28798702094E+04  0.28798702094E+04  0.50400001928E-02 0.  1.
       -1   -1    0    0    0  501  0.00000000000E+00  0.00000000000E+00 -0.11255684095E+04  0.11255684095E+04  0.50400001928E-02 0. -1.
    10030    2    1    2    0    0  0.00000000000E+00  0.00000000000E+00  0.17543017999E+04  0.40054386188E+04  0.36008281997E+04 0.  0.
        3    1    3    3  502    0 -0.16539973771E+03 -0.12365110639E+04 -0.56685871537E+03  0.13702720525E+04  0.10100000352E+00 0. -1.
       -3    1    3    3    0  502  0.16539973771E+03  0.12365110639E+04  0.23211605153E+04  0.26351665663E+04  0.10100000352E+00 0.  1.
</event>
<event>
 5   0  0.8247570E-09  0.3601085E+04  0.7818609E-02  0.8090243E-01
        1   -1    0    0  501    0  0.00000000000E+00  0.00000000000E+00  0.25427138078E+04  0.25427138078E+04  0.50400001928E-02 0. -1.
       -1   -1    0    0    0  501  0.00000000000E+00  0.00000000000E+00 -0.12749973813E+04  0.12749973813E+04  0.50400001928E-02 0.  1.
    10030    2    1    2    0    0  0.00000000000E+00  0.00000000000E+00  0.12677164265E+04  0.38177111891E+04  0.36010850844E+04 0.  0.
        3    1    3    3  502    0 -0.15263158572E+04  0.31137888685E+03 -0.32343165980E+03  0.15909761016E+04  0.10100000352E+00 0.  1.
       -3    1    3    3    0  502  0.15263158572E+04 -0.31137888685E+03  0.15911480863E+04  0.22267350875E+04  0.10100000352E+00 0. -1.
</event>
<event>
 5   0  0.8146881E-09  0.3604698E+04  0.7818609E-02  0.8089416E-01
        1   -1    0    0  501    0  0.00000000000E+00  0.00000000000E+00  0.22265354960E+04  0.22265354960E+04  0.50400001928E-02 0. -1.
       -1   -1    0    0    0  501  0.00000000000E+00  0.00000000000E+00 -0.14589757106E+04  0.14589757106E+04  0.50400001928E-02 0.  1.
    10030    2    1    2    0    0  0.00000000000E+00  0.00000000000E+00  0.76755978539E+03  0.36855112066E+04  0.36046976059E+04 0.  0.
        4    1    3    3  502    0 -0.13486020551E+04  0.11496661954E+04  0.71978063298E+03  0.19127325052E+04  0.12699999809E+01 0. -1.
       -4    1    3    3    0  502  0.13486020551E+04 -0.11496661954E+04  0.47779152402E+02  0.17727787014E+04  0.12699999809E+01 0.  1.
</event>
<event>
 5   0  0.2590795E-08  0.3597962E+04  0.7818609E-02  0.8090959E-01
        2   -1    0    0  501    0  0.00000000000E+00  0.00000000000E+00  0.22649120607E+04  0.22649120607E+04  0.25500000920E-02 0.  1.
       -2   -1    0    0    0  501  0.00000000000E+00  0.00000000000E+00 -0.14289001060E+04  0.14289001060E+04  0.25500000920E-02 0. -1.
    10030    2    1    2    0    0  0.00000000000E+00  0.00000000000E+00  0.83601195476E+03  0.36938121667E+04  0.35979622475E+04 0.  0.
        4    1    3    3  502    0 -0.39710969913E+03 -0.63006447805E+03  0.20992067678E+04  0.22274083655E+04  0.12699999809E+01 0.  1.
       -4    1    3    3    0  502  0.39710969913E+03  0.63006447805E+03 -0.12631948130E+04  0.14664038012E+04  0.12699999809E+01 0. -1.
</event>
<event>
 5   0  0.8247570E-09  0.3599791E+04  0.7818609E-02  0.8090540E-01
       -1   -1    0    0    0  501  0.00000000000E+00  0.00000000000E+00  0.25306910652E+04  0.25306910652E+04  0.50400001928E-02 0.  1.
        1   -1    0    0  501    0  0.00000000000E+00  0.00000000000E+00 -0.12801340685E+04  0.12801340685E+04  0.50400001928E-02 0. -1.
    10030    2    1    2    0    0  0.00000000000E+00  0.00000000000E+00  0.12505569967E+04  0.38108251336E+04  0.35997910213E+04 0.  0.
        3    1    3    3  502    0 -0.73049785561E+03  0.12151594360E+04 -0.54849839795E+03  0.15202269813E+04  0.10100000352E+00 0. -1.
       -3    1    3    3    0  502  0.73049785561E+03 -0.12151594360E+04  0.17990553946E+04  0.22905981523E+04  0.10100000352E+00 0.  1.
</event>
<event>
 5   0  0.2482243E-08  0.3602409E+04  0.7818609E-02  0.8089940E-01
        2   -1    0    0  501    0  0.00000000000E+00  0.00000000000E+00  0.24677875158E+04  0.24677875158E+04  0.25500000920E-02 0. -1.
       -2   -1    0    0    0  501  0.00000000000E+00  0.00000000000E+00 -0.13146748413E+04  0.13146748413E+04  0.25500000920E-02 0.  1.
    10030    2    1    2    0    0  0.00000000000E+00  0.00000000000E+00  0.11531126745E+04  0.37824623571E+04  0.36024092830E+04 0.  0.
        5    1    3    3  502    0 -0.59473861514E+03  0.16635202692E+04  0.20786132420E+03  0.17788316746E+04  0.46999998093E+01 0.  1.
       -5    1    3    3    0  502  0.59473861514E+03 -0.16635202692E+04  0.94525135032E+03  0.20036306825E+04  0.46999998093E+01 0. -1.
</event>
<event>
 5   0  0.8247570E-09  0.3608204E+04  0.7818609E-02  0.8088615E-01
        1   -1    0    0  501    0  0.00000000000E+00  0.00000000000E+00  0.18643414019E+04  0.18643414019E+04  0.50400001928E-02 0.  1.
       -1   -1    0    0    0  501  0.00000000000E+00  0.00000000000E+00 -0.17458089910E+04  0.17458089910E+04  0.50400001928E-02 0. -1.
    10030    2    1    2    0    0  0.00000000000E+00  0.00000000000E+00  0.11853241092E+03  0.36101503930E+04  0.36082039753E+04 0.  0.
        3    1    3    3  502    0  0.11687027347E+04 -0.13131423132E+04 -0.34663126959E+03  0.17917483261E+04  0.10100000352E+00 0. -1.
       -3    1    3    3    0  502 -0.11687027347E+04  0.13131423132E+04  0.46516368050E+03  0.18184020668E+04  0.10100000352E+00 0.  1.
</event>
<event>
 5   0  0.2494592E-08  0.3598368E+04  0.7818609E-02  0.8090866E-01
       -2   -1    0    0    0  501  0.00000000000E+00  0.00000000000E+00  0.17609217397E+04  0.17609217397E+04  0.25500000920E-02 0.  1.
        2   -1    0    0  501    0  0.00000000000E+00  0.00000000000E+00 -0.18382775028E+04  0.18382775028E+04  0.25500000920E-02 0. -1.
    10030    2    1    2    0    0  0.00000000000E+00  0.00000000000E+00 -0.77355763144E+02  0.35991992425E+04  0.35983678624E+04 0.  0.
        1    1    3    3  502    0  0.59902366127E+03 -0.68770114968E+03 -0.15899393642E+04  0.18329400972E+04  0.50400001928E-02 0. -1.
       -1    1    3    3    0  502 -0.59902366127E+03  0.68770114968E+03  0.15125836011E+04  0.17662591453E+04  0.50400001928E-02 0.  1.
</event>
<event>
 5   0  0.8247570E-09  0.3599988E+04  0.7818609E-02  0.8090494E-01
       -1   -1    0    0    0  501  0.00000000000E+00  0.00000000000E+00  0.21418682575E+04  0.21418682575E+04  0.50400001928E-02 0. -1.
        1   -1    0    0  501    0  0.00000000000E+00  0.00000000000E+00 -0.15126878064E+04  0.15126878064E+04  0.50400001928E-02 0.  1.
    10030    2    1    2    0    0  0.00000000000E+00  0.00000000000E+00  0.62918045108E+03  0.36545560640E+04  0.35999877756E+04 0.  0.
        3    1    3    3  502    0 -0.73654087319E+03 -0.59507300913E+03  0.18686022432E+04  0.20948218773E+04  0.10100000352E+00 0. -1.
       -3    1    3    3    0  502  0.73654087319E+03  0.59507300913E+03 -0.12394217921E+04  0.15597341867E+04  0.10100000352E+00 0.  1.
</event>
<event>
 5   0  0.2482243E-08  0.3599558E+04  0.7818609E-02  0.8090593E-01
        2   -1    0    0  501    0  0.00000000000E+00  0.00000000000E+00  0.16890604669E+04  0.16890604669E+04  0.25500000920E-02 0. -1.
       -2   -1    0    0    0  501  0.00000000000E+00  0.00000000000E+00 -0.19177554852E+04  0.19177554852E+04  0.25500000920E-02 0.  1.
    10030    2    1    2    0    0  0.00000000000E+00  0.00000000000E+00 -0.22869501829E+03  0.36068159521E+04  0.35995582925E+04 0.  0.
        5    1    3    3  502    0 -0.61365508466E+03  0.91444919821E+03 -0.15407319981E+04  0.18938498037E+04  0.46999998093E+01 0.  1.
       -5    1    3    3    0  502  0.61365508466E+03 -0.91444919821E+03  0.13120369799E+04  0.17129661484E+04  0.46999998093E+01 0. -1.
</event>
<event>
 5   0  0.2608070E-08  0.3601541E+04  0.7818609E-02  0.8090139E-01
       -2   -1    0    0    0  501  0.00000000000E+00  0.00000000000E+00  0.16959302010E+04  0.16959302010E+04  0.25500000920E-02 0. -1.
        2   -1    0    0  501    0  0.00000000000E+00  0.00000000000E+00 -0.19120914842E+04  0.19120914842E+04  0.25500000920E-02 0.  1.
    10030    2    1    2    0    0  0.00000000000E+00  0.00000000000E+00 -0.21616128323E+03  0.36080216852E+04  0.36015406120E+04 0.  0.
        3    1    3    3  502    0 -0.37856628077E+03 -0.16907991049E+04 -0.59953416892E+03  0.18334544641E+04  0.10100000352E+00 0.  1.
       -3    1    3    3    0  502  0.37856628077E+03  0.16907991049E+04  0.38337288569E+03  0.17745672210E+04  0.10100000352E+00 0. -1.
</event>
<event>
 5   0  0.2608070E-08  0.3600031E+04  0.7818609E-02  0.8090485E-01
       -2   -1    0    0    0  501  0.00000000000E+00  0.00000000000E+00  0.98505807642E+03  0.98505807642E+03  0.25500000920E-02 0. -1.
        2   -1    0    0  501    0  0.00000000000E+00  0.00000000000E+00 -0.32892030981E+04  0.32892030981E+04  0.25500000920E-02 0.  1.
    10030    2    1    2    0    0  0.00000000000E+00  0.00000000000E+00 -0.23041450216E+04  0.42742611745E+04  0.36000311536E+04 0.  0.
        3    1    3    3  502    0 -0.11114458729E+04 -0.11860861323E+04 -0.20701619450E+04  0.26320491504E+04  0.10100000352E+00 0.  1.
       -3    1    3    3    0  502  0.11114458729E+04  0.11860861323E+04 -0.23398307665E+03  0.16422120241E+04  0.10100000352E+00 0. -1.
</event>
<event>
 5   0  0.8024500E-09  0.3600885E+04  0.7818609E-02  0.8090289E-01
       -1   -1    0    0    0  501  0.00000000000E+00  0.00000000000E+00  0.14079225953E+04  0.14079225953E+04  0.50400001928E-02 0. -1.
        1   -1    0    0  501    0  0.00000000000E+00  0.00000000000E+00 -0.23023942281E+04  0.23023942281E+04  0.50400001928E-02 0.  1.
    10030    2    1    2    0    0  0.00000000000E+00  0.00000000000E+00 -0.89447163288E+03  0.37103168234E+04  0.36008848118E+04 0.  0.
        1    1    3    3  502    0 -0.13926508607E+04 -0.11231487851E+04 -0.23948182905E+03  0.18050737270E+04  0.50400001928E-02 0. -1.
       -1    1    3    3    0  502  0.13926508607E+04  0.11231487851E+04 -0.65498980383E+03  0.19052430964E+04  0.50400001928E-02 0.  1.
</event>
<event>
 5   0  0.8146881E-09  0.3599231E+04  0.7818609E-02  0.8090668E-01
       -1   -1    0    0    0  501  0.00000000000E+00  0.00000000000E+00  0.13225882251E+04  0.13225882251E+04  0.50400001928E-02 0.  1.
        1   -1    0    0  501    0  0.00000000000E+00  0.00000000000E+00 -0.24486954985E+04  0.24486954985E+04  0.50400001928E-02 0. -1.
    10030    2    1    2    0    0  0.00000000000E+00  0.00000000000E+00 -0.11261072734E+04  0.37712837236E+04  0.35992309363E+04 0.  0.
        4    1    3    3  502    0  0.12667236538E+03  0.17597141587E+04 -0.93494891431E+03  0.19966899843E+04  0.12699999809E+01 0. -1.
       -4    1    3    3    0  502 -0.12667236538E+03 -0.17597141587E+04 -0.19115835912E+03  0.17745937393E+04  0.12699999809E+01 0.  1.
</event>
<event>
 5   0  0.8024500E-09  0.3599511E+04  0.7818609E-02  0.8090604E-01
        1   -1    0    0  501    0  0.00000000000E+00  0.00000000000E+00  0.27280076232E+04  0.27280076232E+04  0.50400001928E-02 0. -1.
       -1   -1    0    0    0  501  0.00000000000E+00  0.00000000000E+00 -0.11873574720E+04  0.11873574720E+04  0.50400001928E-02 0.  1.
    10030    2    1    2    0    0  0.00000000000E+00  0.00000000000E+00  0.15406501512E+04  0.39153650952E+04  0.35995112086E+04 0.  0.
        1    1    3    3  502    0 -0.98077267300E+03 -0.12995614104E+04  0.16046685882E+04  0.22859869145E+04  0.50400001928E-02 0. -1.
       -1    1    3    3    0  502  0.98077267300E+03  0.12995614104E+04 -0.64018437028E+02  0.16293781807E+04  0.50400001928E-02 0.  1.
</event>
<event>
 5   0  0.8024500E-09  0.3601229E+04  0.7818609E-02  0.8090210E-01
        3   -1    0    0  501    0  0.00000000000E+00  0.00000000000E+00  0.12059087916E+04  0.12059087958E+04  0.10100000352E+00 0.  1.
       -3   -1    0    0    0  501  0.00000000000E+00  0.00000000000E+00 -0.26886056365E+04  0.26886056384E+04  0.10100000352E+00 0. -1.
    10030    2    1    2    0    0  0.00000000000E+00  0.00000000000E+00 -0.14826968450E+04  0.38945144342E+04  0.36012293379E+04 0.  0.
        5    1    3    3  502    0 -0.31378085998E+03  0.12366053201E+04  0.63277877693E+03  0.14241075158E+04  0.46999998093E+01 0.  1.
       -5    1    3    3    0  502  0.31378085998E+03 -0.12366053201E+04 -0.21154756219E+04  0.24704069185E+04  0.46999998093E+01 0. -1.
</event>
<event>
 5   0  0.8024500E-09  0.3602503E+04  0.7818609E-02  0.8089919E-01
        1   -1    0    0  501    0  0.00000000000E+00  0.00000000000E+00  0.12591644392E+04  0.12591644392E+04  0.50400001928E-02 0.  1.
       -1   -1    0    0    0  501  0.00000000000E+00  0.00000000000E+00 -0.25767145503E+04  0.25767145503E+04  0.50400001928E-02 0. -1.
    10030    2    1    2    0    0  0.00000000000E+00  0.00000000000E+00 -0.13175501110E+04  0.38358789895E+04  0.36025032029E+04 0.  0.
        5    1    3    3  502    0 -0.16551573157E+04  0.69985021697E+03 -0.52771962396E+03  0.18729244933E+04  0.46999998093E+01 0.  1.
       -5    1    3    3    0  502  0.16551573157E+04 -0.69985021697E+03 -0.78983048709E+03  0.19629544962E+04  0.46999998093E+01 0. -1.
</event>
<event>
 5   0  0.8146881E-09  0.3599898E+04  0.7818609E-02  0.8090515E-01
        1   -1    0    0  501    0  0.00000000000E+00  0.00000000000E+00  0.20318973103E+04  0.20318973103E+04  0.50400001928E-02 0.  1.
       -1   -1    0    0    0  501  0.00000000000E+00  0.00000000000E+00 -0.15944788164E+04  0.15944788164E+04  0.50400001928E-02 0. -1.
    10030    2    1    2    0    0  0.00000000000E+00  0.00000000000E+00  0.43741849390E+03  0.36263761267E+04  0.35998984532E+04 0.  0.
        4    1    3    3  502    0  0.14122768287E+04  0.89730595846E+03 -0.44959460094E+03  0.17325763308E+04  0.12699999809E+01 0. -1.
       -4    1    3    3    0  502 -0.14122768287E+04 -0.89730595846E+03  0.88701309484E+03  0.18937997960E+04  0.12699999809E+01 0.  1.
</event>
<event>
 5   0  0.8063410E-09  0.3598422E+04  0.7818609E-02  0.8090853E-01
       -1   -1    0    0    0  501  0.00000000000E+00  0.00000000000E+00  0.14658650848E+04  0.14658650848E+04  0.50400001928E-02 0.  1.
        1   -1    0    0  501    0  0.00000000000E+00  0.00000000000E+00 -0.22083614083E+04  0.22083614083E+04  0.50400001928E-02 0. -1.
    10030    2    1    2    0    0  0.00000000000E+00  0.00000000000E+00 -0.74249632349E+03  0.36742264931E+04  0.35984218114E+04 0.  0.
        2    1    3    3  502    0 -0.16014692068E+04 -0.14827042087E+03  0.45226056484E+03  0.16706966680E+04  0.25500000920E-02 0.  1.
       -2    1    3    3    0  502  0.16014692068E+04  0.14827042087E+03 -0.11947568883E+04  0.20035298251E+04  0.25500000920E-02 0. -1.
</event>
<event>
 5   0  0.2476968E-08  0.3601027E+04  0.7818609E-02  0.8090256E-01
        2   -1    0    0  501    0  0.00000000000E+00  0.00000000000E+00  0.23798465540E+04  0.23798465540E+04  0.25500000920E-02 0.  1.
       -2   -1    0    0    0  501  0.00000000000E+00  0.00000000000E+00 -0.13622095642E+04  0.13622095642E+04  0.25500000920E-02 0. -1.
    10030    2    1    2    0    0  0.00000000000E+00  0.00000000000E+00  0.10176369897E+04  0.37420561182E+04  0.36010274852E+04 0.  0.
        2    1    3    3  502    0 -0.17720436386E+04  0.81840801023E+02  0.82913236833E+03  0.19581361183E+04  0.25500000920E-02 0.  1.
       -2    1    3    3    0  502  0.17720436386E+04 -0.81840801023E+02  0.18850462142E+03  0.17839199999E+04  0.25500000920E-02 0. -1.
</event>
<event>
 5   0  0.8024500E-09  0.3602355E+04  0.7818609E-02  0.8089953E-01
       -1   -1    0    0    0  501  0.00000000000E+00  0.00000000000E+00  0.19491949875E+04  0.19491949875E+04  0.50400001928E-02 0. -1.
        1   -1    0    0  501    0  0.00000000000E+00  0.00000000000E+00 -0.16643999877E+04  0.16643999877E+04  0.50400001928E-02 0.  1.
    10030    2    1    2    0    0  0.00000000000E+00  0.00000000000E+00  0.28479499981E+03  0.36135949752E+04  0.36023548483E+04 0.  0.
        5    1    3    3  502    0  0.31771740442E+03  0.81227801118E+03 -0.14384251542E+04  0.16822095383E+04  0.46999998093E+01 0.  1.
       -5    1    3    3    0  502 -0.31771740442E+03 -0.81227801118E+03  0.17232201541E+04  0.19313854369E+04  0.46999998093E+01 0. -1.
</event>
<event>
 5   0  0.8247570E-09  0.3600355E+04  0.7818609E-02  0.8090410E-01
        1   -1    0    0  501    0  0.00000000000E+00  0.00000000000E+00  0.24820979884E+04  0.24820979884E+04  0.50400001928E-02 0. -1.
       -1   -1    0    0    0  501  0.00000000000E+00  0.00000000000E+00 -0.13056046148E+04  0.13056046148E+04  0.50400001928E-02 0.  1.
    10030    2    1    2    0    0  0.00000000000E+00  0.00000000000E+00  0.11764933736E+04  0.37877026033E+04  0.36003547537E+04 0.  0.
        3    1    3    3  502    0  0.25386139857E+03  0.12339354462E+04 -0.76458984050E+03  0.14736485094E+04  0.10100000352E+00 0.  1.
       -3    1    3    3    0  502 -0.25386139857E+03 -0.12339354462E+04  0.19410832141E+04  0.23140540938E+04  0.10100000352E+00 0. -1.
</event>
<event>
 5   0  0.2476968E-08  0.3599762E+04  0.7818609E-02  0.8090546E-01
        2   -1    0    0  501    0  0.00000000000E+00  0.00000000000E+00  0.16484143146E+04  0.16484143146E+04  0.25500000920E-02 0.  1.
       -2   -1    0    0    0  501  0.00000000000E+00  0.00000000000E+00 -0.19652655269E+04  0.19652655269E+04  0.25500000920E-02 0. -1.
    10030    2    1    2    0    0  0.00000000000E+00  0.00000000000E+00 -0.31685121232E+03  0.36136798415E+04  0.35997621180E+04 0.  0.
        2    1    3    3  502    0 -0.17324334474E+04 -0.43185059505E+03  0.69942921595E+02  0.17868163304E+04  0.25500000920E-02 0.  1.
       -2    1    3    3    0  502  0.17324334474E+04  0.43185059505E+03 -0.38679413391E+03  0.18268635111E+04  0.25500000920E-02 0. -1.
</event>
<event>
 5   0  0.8063410E-09  0.3599796E+04  0.7818609E-02  0.8090538E-01
       -1   -1    0    0    0  501  0.00000000000E+00  0.00000000000E+00  0.28814776370E+04  0.28814776370E+04  0.50400001928E-02 0.  1.
        1   -1    0    0  501    0  0.00000000000E+00  0.00000000000E+00 -0.11242956886E+04  0.11242956887E+04  0.50400001928E-02 0. -1.
    10030    2    1    2    0    0  0.00000000000E+00  0.00000000000E+00  0.17571819483E+04  0.40057733257E+04  0.35997960410E+04 0.  0.
        2    1    3    3  502    0 -0.84288147854E+03  0.10279217523E+04  0.22289369632E+04  0.25952326103E+04  0.25500000920E-02 0.  1.
       -2    1    3    3    0  502  0.84288147854E+03 -0.10279217523E+04 -0.47175501483E+03  0.14105407154E+04  0.25500000920E-02 0. -1.
</event>
<event>
 5   0  0.8024500E-09  0.3603990E+04  0.7818609E-02  0.8089578E-01
       -1   -1    0    0    0  501  0.00000000000E+00  0.00000000000E+00  0.14681124972E+04  0.14681124972E+04  0.50400001928E-02 0.  1.
        1   -1    0    0  501    0  0.00000000000E+00  0.00000000000E+00 -0.22118099428E+04  0.22118099428E+04  0.50400001928E-02 0. -1.
    10030    2    1    2    0    0  0.00000000000E+00  0.00000000000E+00 -0.74369744562E+03  0.36799224401E+04  0.36039899104E+04 0.  0.
        5    1    3    3  502    0  0.15782745876E+04  0.52931495538E+03 -0.10763410121E+04  0.19823362631E+04  0.46999998093E+01 0. -1.
       -5    1    3    3    0  502 -0.15782745876E+04 -0.52931495538E+03  0.33264356649E+03  0.16975861769E+04  0.46999998093E+01 0.  1.
</event>
<event>
 5   0  0.2494592E-08  0.3599787E+04  0.7818609E-02  0.8090541E-01
        2   -1    0    0  501    0  0.00000000000E+00  0.00000000000E+00  0.16843627160E+04  0.16843627160E+04  0.25500000920E-02 0. -1.
       -2   -1    0    0    0  501  0.00000000000E+00  0.00000000000E+00 -0.19233484436E+04  0.19233484436E+04  0.25500000920E-02 0.  1.
    10030    2    1    2    0    0  0.00000000000E+00  0.00000000000E+00 -0.23898572753E+03  0.36077111596E+04  0.35997868872E+04 0.  0.
        1    1    3    3  502    0  0.10998969157E+04 -0.13811722840E+03  0.13016437338E+04  0.17097151820E+04  0.50400001928E-02 0. -1.
       -1    1    3    3    0  502 -0.10998969157E+04  0.13811722840E+03 -0.15406294613E+04  0.18979959776E+04  0.50400001928E-02 0.  1.
</event>
<event>
 5   0  0.2476968E-08  0.3601215E+04  0.7818609E-02  0.8090214E-01
       -2   -1    0    0    0  501  0.00000000000E+00  0.00000000000E+00  0.18566209730E+04  0.18566209730E+04  0.25500000920E-02 0.  1.
        2   -1    0    0  501    0  0.00000000000E+00  0.00000000000E+00 -0.17462834695E+04  0.17462834695E+04  0.25500000920E-02 0. -1.
    10030    2    1    2    0    0  0.00000000000E+00  0.00000000000E+00  0.11033750350E+03  0.36029044425E+04  0.36012145252E+04 0.  0.
        2    1    3    3  502    0 -0.16772938716E+04  0.65481907135E+03  0.46012060929E+02  0.18011718012E+04  0.25500000920E-02 0.  1.
       -2    1    3    3    0  502  0.16772938716E+04 -0.65481907135E+03  0.64325442576E+02  0.18017326412E+04  0.25500000920E-02 0. -1.
</event>
<event>
 5   0  0.2590795E-08  0.3600207E+04  0.7818609E-02  0.8090444E-01
       -2   -1    0    0    0  501  0.00000000000E+00  0.00000000000E+00  0.13148484488E+04  0.13148484488E+04  0.25500000920E-02 0.  1.
        2   -1    0    0  501    0  0.00000000000E+00  0.00000000000E+00 -0.24644455176E+04  0.24644455176E+04  0.25500000920E-02 0. -1.
    10030    2    1    2    0    0  0.00000000000E+00  0.00000000000E+00 -0.11495970688E+04  0.37792939664E+04  0.36002068641E+04 0.  0.
        4    1    3    3  502    0  0.11808227736E+04  0.62096617806E+03  0.69379791827E+03  0.15037614775E+04  0.12699999809E+01 0.  1.
       -4    1    3    3    0  502 -0.11808227736E+04 -0.62096617806E+03 -0.18433949870E+04  0.22755324889E+04  0.12699999809E+01 0. -1.
</event>
<event>
 5   0  0.2482243E-08  0.3600684E+04  0.7818609E-02  0.8090335E-01
        2   -1    0    0  501    0  0.00000000000E+00  0.00000000000E+00  0.20954057681E+04  0.20954057681E+04  0.25500000920E-02 0.  1.
       -2   -1    0    0    0  501  0.00000000000E+00  0.00000000000E+00 -0.15468278958E+04  0.15468278958E+04  0.25500000920E-02 0. -1.
    10030    2    1    2    0    0  0.00000000000E+00  0.00000000000E+00  0.54857787230E+03  0.36422336639E+04  0.36006844323E+04 0.  0.
        5    1    3    3  502    0  0.74394740745E+02 -0.16077985350E+04 -0.54165358002E+03  0.16982230117E+04  0.46999998093E+01 0. -1.
       -5    1    3    3    0  502 -0.74394740745E+02  0.16077985350E+04  0.10902314523E+04  0.19440106523E+04  0.46999998093E+01 0.  1.
</event>
<event>
 5   0  0.2590795E-08  0.3596937E+04  0.7818609E-02  0.8091194E-01
       -2   -1    0    0    0  501  0.00000000000E+00  0.00000000000E+00  0.16461469007E+04  0.16461469007E+04  0.25500000920E-02 0. -1.
        2   -1    0    0  501    0  0.00000000000E+00  0.00000000000E+00 -0.19648851744E+04  0.19648851744E+04  0.25500000920E-02 0.  1.
    10030    2    1    2    0    0  0.00000000000E+00  0.00000000000E+00 -0.31873827372E+03  0.36110320751E+04  0.35969373862E+04 0.  0.
        4    1    3    3  502    0  0.40066685912E+03  0.10838988550E+04 -0.15428538696E+04  0.19276333509E+04  0.12699999809E+01 0.  1.
       -4    1    3    3    0  502 -0.40066685912E+03 -0.10838988550E+04  0.12241155958E+04  0.16833987242E+04  0.12699999809E+01 0. -1.
</event>
<event>
 5   0  0.2494592E-08  0.3599875E+04  0.7818609E-02  0.8090520E-01
        2   -1    0    0  501    0  0.00000000000E+00  0.00000000000E+00  0.21860419057E+04  0.21860419057E+04  0.25500000920E-02 0.  1.
       -2   -1    0    0    0  501  0.00000000000E+00  0.00000000000E+00 -0.14820277053E+04  0.14820277053E+04  0.25500000920E-02 0. -1.
    10030    2    1    2    0    0  0.00000000000E+00  0.00000000000E+00  0.70401420039E+03  0.36680696109E+04  0.35998748140E+04 0.  0.
        1    1    3    3  502    0  0.18414644077E+03  0.33479646835E+03  0.21442406767E+04  0.21780189776E+04  0.50400001928E-02 0.  1.
       -1    1    3    3    0  502 -0.18414644077E+03 -0.33479646835E+03 -0.14402264763E+04  0.14900506334E+04  0.50400001928E-02 0. -1.
</event>
<event>
 5   0  0.8146881E-09  0.3599802E+04  0.7818609E-02  0.8090537E-01
        1   -1    0    0  501    0  0.00000000000E+00  0.00000000000E+00  0.22960231904E+04  0.22960231904E+04  0.50400001928E-02 0. -1.
       -1   -1    0    0    0  501  0.00000000000E+00  0.00000000000E+00 -0.14109801149E+04  0.14109801149E+04  0.50400001928E-02 0.  1.
    10030    2    1    2    0    0  0.00000000000E+00  0.00000000000E+00  0.88504307551E+03  0.37070033054E+04  0.35998016974E+04 0.  0.
        4    1    3    3  502    0  0.92943044048E+03 -0.29549282052E+03 -0.11153024383E+04  0.14815728441E+04  0.12699999809E+01 0.  1.
       -4    1    3    3    0  502 -0.92943044048E+03  0.29549282052E+03  0.20003455138E+04  0.22254304613E+04  0.12699999809E+01 0. -1.
</event>
<event>
 5   0  0.2476968E-08  0.3600937E+04  0.7818609E-02  0.8090277E-01
        2   -1    0    0  501    0  0.00000000000E+00  0.00000000000E+00  0.23259601394E+04  0.23259601394E+04  0.25500000920E-02 0.  1.
       -2   -1    0    0    0  501  0.00000000000E+00  0.00000000000E+00 -0.13936983676E+04  0.13936983676E+04  0.25500000920E-02 0. -1.
    10030    2    1    2    0    0  0.00000000000E+00  0.00000000000E+00  0.93226177186E+03  0.37196585070E+04  0.36009370166E+04 0.  0.
        2    1    3    3  502    0 -0.13032843584E+04  0.21395776039E+03 -0.79787904356E+03  0.15430291671E+04  0.25500000920E-02 0. -1.
       -2    1    3    3    0  502  0.13032843584E+04 -0.21395776039E+03  0.17301408154E+04  0.21766293399E+04  0.25500000920E-02 0.  1.
</event>
<event>
 5   0  0.2608070E-08  0.3599376E+04  0.7818609E-02  0.8090635E-01
       -2   -1    0    0    0  501  0.00000000000E+00  0.00000000000E+00  0.16932749131E+04  0.16932749131E+04  0.25500000920E-02 0.  1.
        2   -1    0    0  501    0  0.00000000000E+00  0.00000000000E+00 -0.19127884490E+04  0.19127884490E+04  0.25500000920E-02 0. -1.
    10030    2    1    2    0    0  0.00000000000E+00  0.00000000000E+00 -0.21951353596E+03  0.36060633621E+04  0.35993758874E+04 0.  0.
        3    1    3    3  502    0 -0.78541318608E+03 -0.48463119692E+03  0.14381495698E+04  0.17088052742E+04  0.10100000352E+00 0.  1.
       -3    1    3    3    0  502  0.78541318608E+03  0.48463119692E+03 -0.16576631057E+04  0.18972580879E+04  0.10100000352E+00 0. -1.
</event>
<event>
 5   0  0.2482243E-08  0.3601667E+04  0.7818609E-02  0.8090110E-01
       -2   -1    0    0    0  501  0.00000000000E+00  0.00000000000E+00  0.15606330049E+04  0.15606330049E+04  0.25500000920E-02 0. -1.
        2   -1    0    0  501    0  0.00000000000E+00  0.00000000000E+00 -0.20780041841E+04  0.20780041841E+04  0.25500000920E-02 0.  1.
    10030    2    1    2    0    0  0.00000000000E+00  0.00000000000E+00 -0.51737117921E+03  0.36386371891E+04  0.36016673440E+04 0.  0.
        5    1    3    3  502    0  0.49892885137E+03 -0.86607587795E+03  0.12546768240E+04  0.16041363557E+04  0.46999998093E+01 0. -1.
       -5    1    3    3    0  502 -0.49892885137E+03  0.86607587795E+03 -0.17720480032E+04  0.20345008333E+04  0.46999998093E+01 0.  1.
</event>
<event>
 5   0  0.2494592E-08  0.3601588E+04  0.7818609E-02  0.8090128E-01
       -2   -1    0    0    0  501  0.00000000000E+00  0.00000000000E+00  0.24263041724E+04  0.24263041724E+04  0.25500000920E-02 0. -1.
        2   -1    0    0  501    0  0.00000000000E+00  0.00000000000E+00 -0.13365428328E+04  0.13365428328E+04  0.25500000920E-02 0.  1.
    10030    2    1    2    0    0  0.00000000000E+00  0.00000000000E+00  0.10897613397E+04  0.37628470052E+04  0.36015882340E+04 0.  0.
        1    1    3    3  502    0  0.17583715855E+04 -0.28367488961E+03  0.82232162695E+03  0.19617734155E+04  0.50400001928E-02 0.  1.
       -1    1    3    3    0  502 -0.17583715855E+04  0.28367488961E+03  0.26743971273E+03  0.18010735897E+04  0.50400001928E-02 0. -1.
</event>
<event>
 5   0  0.8024500E-09  0.3602105E+04  0.7818609E-02  0.8090010E-01
        1   -1    0    0  501    0  0.00000000000E+00  0.00000000000E+00  0.15443597697E+04  0.15443597697E+04  0.50400001928E-02 0.  1.
       -1   -1    0    0    0  501  0.00000000000E+00  0.00000000000E+00 -0.21004112074E+04  0.21004112074E+04  0.50400001928E-02 0. -1.
    10030    2    1    2    0    0  0.00000000000E+00  0.00000000000E+00 -0.55605143766E+03  0.36447709771E+04  0.36021052558E+04 0.  0.
        1    1    3    3  502    0  0.45596423348E+02  0.10685782629E+04 -0.17442762803E+04  0.20460787570E+04  0.50400001928E-02 0. -1.
       -1    1    3    3    0  502 -0.45596423348E+02 -0.10685782629E+04  0.11882248426E+04  0.15986922201E+04  0.50400001928E-02 0.  1.
</event>
<event>
 5   0  0.2476968E-08  0.3599496E+04  0.7818609E-02  0.8090607E-01
       -2   -1    0    0    0  501  0.00000000000E+00  0.00000000000E+00  0.15224912845E+04  0.15224912845E+04  0.25500000920E-02 0.  1.
        2   -1    0    0  501    0  0.00000000000E+00  0.00000000000E+00 -0.21274946753E+04  0.21274946753E+04  0.25500000920E-02 0. -1.
    10030    2    1    2    0    0  0.00000000000E+00  0.00000000000E+00 -0.60500339087E+03  0.36499859598E+04  0.35994955763E+04 0.  0.
        2    1    3    3  502    0 -0.84688003714E+03 -0.10756930244E+04  0.88211926866E+03  0.16286361423E+04  0.25500000920E-02 0.  1.
       -2    1    3    3    0  502  0.84688003714E+03  0.10756930244E+04 -0.14871226595E+04  0.20213498175E+04  0.25500000920E-02 0. -1.
</event>
<event>
 5   0  0.8024500E-09  0.3599811E+04  0.7818609E-02  0.8090535E-01
       -1   -1    0    0    0  501  0.00000000000E+00  0.00000000000E+00  0.30101964494E+04  0.30101964494E+04  0.50400001928E-02 0. -1.
        1   -1    0    0  501    0  0.00000000000E+00  0.00000000000E+00 -0.10762287446E+04  0.10762287446E+04  0.50400001928E-02 0.  1.
    10030    2    1    2    0    0  0.00000000000E+00  0.00000000000E+00  0.19339677048E+04  0.40864251941E+04  0.35998110761E+04 0.  0.
        5    1    3    3  502    0  0.14569167320E+04  0.10321989361E+03 -0.22704670757E+03  0.14781180629E+04  0.46999998093E+01 0.  1.
       -5    1    3    3    0  502 -0.14569167320E+04 -0.10321989361E+03  0.21610144124E+04  0.26083071312E+04  0.46999998093E+01 0. -1.
</event>
<event>
 5   0  0.2482243E-08  0.3623911E+04  0.7818609E-02  0.8085036E-01
        2   -1    0    0  501    0  0.00000000000E+00  0.00000000000E+00  0.25548728731E+04  0.25548728731E+04  0.25500000920E-02 0. -1.
       -2   -1    0    0    0  501  0.00000000000E+00  0.00000000000E+00 -0.12850671483E+04  0.12850671483E+04  0.25500000920E-02 0.  1.
    10030    2    1    2    0    0  0.00000000000E+00  0.00000000000E+00  0.12698057249E+04  0.38399400214E+04  0.36239112557E+04 0.  0.
        5    1    3    3  502    0  0.48329969623E+03 -0.16266464417E+04  0.13080725395E+04  0.21425762767E+04  0.46999998093E+01 0. -1.
       -5    1    3    3    0  502 -0.48329969623E+03  0.16266464417E+04 -0.38266814642E+02  0.16973637447E+04  0.46999998093E+01 0.  1.
</event>
<event>
 5   0  0.8146881E-09  0.3597786E+04  0.7818609E-02  0.8090999E-01
       -1   -1    0    0    0  501  0.00000000000E+00  0.00000000000E+00  0.10743491896E+04  0.10743491896E+04  0.50400001928E-02 0.  1.
        1   -1    0    0  501    0  0.00000000000E+00  0.00000000000E+00 -0.30120704044E+04  0.30120704044E+04  0.50400001928E-02 0. -1.
    10030    2    1    2    0    0  0.00000000000E+00  0.00000000000E+00 -0.19377212148E+04  0.40864195940E+04  0.35977856512E+04 0.  0.
        4    1    3    3  502    0 -0.50484569787E+03  0.99488620915E+03  0.63394568848E+03  0.12831821759E+04  0.12699999809E+01 0.  1.
       -4    1    3    3    0  502  0.50484569787E+03 -0.99488620915E+03 -0.25716669033E+04  0.28032374181E+04  0.12699999809E+01 0. -1.
</event>
<event>
 5   0  0.2590795E-08  0.3582818E+04  0.7818609E-02  0.8094439E-01
       -2   -1    0    0    0  501  0.00000000000E+00  0.00000000000E+00  0.15959601224E+04  0.15959601224E+04  0.25500000920E-02 0. -1.
        2   -1    0    0  501    0  0.00000000000E+00  0.00000000000E+00 -0.20107938543E+04  0.20107938543E+04  0.25500000920E-02 0.  1.
    10030    2    1    2    0    0  0.00000000000E+00  0.00000000000E+00 -0.41483373187E+03  0.36067539767E+04  0.35828183352E+04 0.  0.
        4    1    3    3  502    0  0.15582527715E+04  0.58539410191E+03  0.45905382084E+03  0.17267223221E+04  0.12699999809E+01 0. -1.
       -4    1    3    3    0  502 -0.15582527715E+04 -0.58539410191E+03 -0.87388755271E+03  0.18800316545E+04  0.12699999809E+01 0.  1.
</event>
<event>
 5   0  0.8024500E-09  0.3600511E+04  0.7818609E-02  0.8090375E-01
       -1   -1    0    0    0  501  0.00000000000E+00  0.00000000000E+00  0.13066825764E+04  0.13066825764E+04  0.50400001928E-02 0. -1.
        1   -1    0    0  501    0  0.00000000000E+00  0.00000000000E+00 -0.24802657013E+04  0.24802657013E+04  0.50400001928E-02 0.  1.
    10030    2    1    2    0    0  0.00000000000E+00  0.00000000000E+00 -0.11735831249E+04  0.37869482777E+04  0.36005110619E+04 0.  0.
        1    1    3    3  502    0  0.98744015644E+03  0.15051996784E+04 -0.56996825060E+03  0.18882605596E+04  0.50400001928E-02 0. -1.
       -1    1    3    3    0  502 -0.98744015644E+03 -0.15051996784E+04 -0.60361487426E+03  0.18986877181E+04  0.50400001928E-02 0.  1.
</event>
<event>
 5   0  0.2494592E-08  0.3601751E+04  0.7818609E-02  0.8090091E-01
        2   -1    0    0  501    0  0.00000000000E+00  0.00000000000E+00  0.21399657857E+04  0.21399657857E+04  0.25500000920E-02 0. -1.
       -2   -1    0    0    0  501  0.00000000000E+00  0.00000000000E+00 -0.15155162086E+04  0.15155162086E+04  0.25500000920E-02 0.  1.
    10030    2    1    2    0    0  0.00000000000E+00  0.00000000000E+00  0.62444957709E+03  0.36554819942E+04  0.36017511485E+04 0.  0.
        1    1    3    3  502    0  0.33041939499E+03  0.11461568493E+04  0.16815369651E+04  0.20616544484E+04  0.50400001928E-02 0. -1.
       -1    1    3    3    0  502 -0.33041939499E+03 -0.11461568493E+04 -0.10570873880E+04  0.15938275458E+04  0.50400001928E-02 0.  1.
</event>
<event>
 5   0  0.8146881E-09  0.3599878E+04  0.7818609E-02  0.8090520E-01
       -1   -1    0    0    0  501  0.00000000000E+00  0.00000000000E+00  0.17030527088E+04  0.17030527088E+04  0.50400001928E-02 0. -1.
        1   -1    0    0  501    0  0.00000000000E+00  0.00000000000E+00 -0.19023367128E+04  0.19023367128E+04  0.50400001928E-02 0.  1.
    10030    2    1    2    0    0  0.00000000000E+00  0.00000000000E+00 -0.19928400399E+03  0.36053894217E+04  0.35998776045E+04 0.  0.
        4    1    3    3  502    0  0.16628680347E+04  0.29406833705E+03 -0.72363027949E+03  0.18371849885E+04  0.12699999809E+01 0.  1.
       -4    1    3    3    0  502 -0.16628680347E+04 -0.29406833705E+03  0.52434627550E+03  0.17682044331E+04  0.12699999809E+01 0. -1.
</event>
<event>
 5   0  0.2608070E-08  0.3605438E+04  0.7818609E-02  0.8089247E-01
       -2   -1    0    0    0  501  0.00000000000E+00  0.00000000000E+00  0.13205565834E+04  0.13205565834E+04  0.25500000920E-02 0. -1.
        2   -1    0    0  501    0  0.00000000000E+00  0.00000000000E+00 -0.24609290875E+04  0.24609290875E+04  0.25500000920E-02 0.  1.
    10030    2    1    2    0    0  0.00000000000E+00  0.00000000000E+00 -0.11403725041E+04  0.37814856709E+04  0.36054381746E+04 0.  0.
        3    1    3    3  502    0  0.41335347926E+02  0.96587468288E+03 -0.21660513825E+04  0.23720036079E+04  0.10100000352E+00 0.  1.
       -3    1    3    3    0  502 -0.41335347926E+02 -0.96587468288E+03  0.10256788784E+04  0.14094820630E+04  0.10100000352E+00 0. -1.
</event>
<event>
 5   0  0.8247570E-09  0.3600888E+04  0.7818609E-02  0.8090288E-01
       -1   -1    0    0    0  501  0.00000000000E+00  0.00000000000E+00  0.11674877894E+04  0.11674877894E+04  0.50400001928E-02 0.  1.
        1   -1    0    0  501    0  0.00000000000E+00  0.00000000000E+00 -0.27765582258E+04  0.27765582258E+04  0.50400001928E-02 0. -1.
    10030    2    1    2    0    0  0.00000000000E+00  0.00000000000E+00 -0.16090704364E+04  0.39440460151E+04  0.36008875712E+04 0.  0.
        3    1    3    3  502    0 -0.18385760409E+03  0.17742360466E+04 -0.53651000222E+03  0.18626755381E+04  0.10100000352E+00 0. -1.
       -3    1    3    3    0  502  0.18385760409E+03 -0.17742360466E+04 -0.10725604342E+04  0.20813704770E+04  0.10100000352E+00 0.  1.
</event>
<event>
 5   0  0.2494592E-08  0.3598466E+04  0.7818609E-02  0.8090843E-01
       -2   -1    0    0    0  501  0.00000000000E+00  0.00000000000E+00  0.14654848026E+04  0.14654848026E+04  0.25500000920E-02 0.  1.
        2   -1    0    0  501    0  0.00000000000E+00  0.00000000000E+00 -0.22089891432E+04  0.22089891432E+04  0.25500000920E-02 0. -1.
    10030    2    1    2    0    0  0.00000000000E+00  0.00000000000E+00 -0.74350434066E+03  0.36744739458E+04  0.35984663503E+04 0.  0.
        1    1    3    3  502    0  0.15102853737E+04  0.57762970396E+03 -0.11774829774E+04  0.20002710184E+04  0.50400001928E-02 0. -1.
       -1    1    3    3    0  502 -0.15102853737E+04 -0.57762970396E+03  0.43397863677E+03  0.16742029274E+04  0.50400001928E-02 0.  1.
</event>
<event>
 5   0  0.8146881E-09  0.3594829E+04  0.7818609E-02  0.8091677E-01
       -1   -1    0    0    0  501  0.00000000000E+00  0.00000000000E+00  0.18067120640E+04  0.18067120640E+04  0.50400001928E-02 0. -1.
        1   -1    0    0  501    0  0.00000000000E+00  0.00000000000E+00 -0.17881644090E+04  0.17881644090E+04  0.50400001928E-02 0.  1.
    10030    2    1    2    0    0  0.00000000000E+00  0.00000000000E+00  0.18547655079E+02  0.35948764730E+04  0.35948286247E+04 0.  0.
        4    1    3    3  502    0  0.15384149004E+03 -0.17472351700E+04 -0.38341276370E+03  0.17954121821E+04  0.12699999809E+01 0. -1.
       -4    1    3    3    0  502 -0.15384149004E+03  0.17472351700E+04  0.40196041878E+03  0.17994642909E+04  0.12699999809E+01 0.  1.
</event>
<event>
 5   0  0.2608070E-08  0.3599244E+04  0.7818609E-02  0.8090665E-01
       -2   -1    0    0    0  501  0.00000000000E+00  0.00000000000E+00  0.20725832620E+04  0.20725832620E+04  0.25500000920E-02 0.  1.
        2   -1    0    0  501    0  0.00000000000E+00  0.00000000000E+00 -0.15626096766E+04  0.15626096766E+04  0.25500000920E-02 0. -1.
    10030    2    1    2    0    0  0.00000000000E+00  0.00000000000E+00  0.50997358544E+03  0.36351929386E+04  0.35992436210E+04 0.  0.
        3    1    3    3  502    0  0.95205106238E+03  0.12106352364E+04  0.11951981698E+04  0.19494967495E+04  0.10100000352E+00 0.  1.
       -3    1    3    3    0  502 -0.95205106238E+03 -0.12106352364E+04 -0.68522458436E+03  0.16856961892E+04  0.10100000352E+00 0. -1.
</event>
<event>
 5   0  0.8146881E-09  0.3600193E+04  0.7818609E-02  0.8090447E-01
        1   -1    0    0  501    0  0.00000000000E+00  0.00000000000E+00  0.30586053057E+04  0.30586053057E+04  0.50400001928E-02 0.  1.
       -1   -1    0    0    0  501  0.00000000000E+00  0.00000000000E+00 -0.10594198903E+04  0.10594198903E+04  0.50400001928E-02 0. -1.
    10030    2    1    2    0    0  0.00000000000E+00  0.00000000000E+00  0.19991854153E+04  0.41180251960E+04  0.36001929379E+04 0.  0.
        4    1    3    3  502    0 -0.11744854320E+04 -0.14718508696E+03 -0.55167059724E+03  0.13059178920E+04  0.12699999809E+01 0. -1.
       -4    1    3    3    0  502  0.11744854320E+04  0.14718508696E+03  0.25508560126E+04  0.28121073041E+04  0.12699999809E+01 0.  1.
</event>
<event>
 5   0  0.8024500E-09  0.3600201E+04  0.7818609E-02  0.8090446E-01
        3   -1    0    0  501    0  0.00000000000E+00  0.00000000000E+00  0.11508865597E+04  0.11508865641E+04  0.10100000352E+00 0.  1.
       -3   -1    0    0    0  501  0.00000000000E+00  0.00000000000E+00 -0.28155360046E+04  0.28155360064E+04  0.10100000352E+00 0. -1.
    10030    2    1    2    0    0  0.00000000000E+00  0.00000000000E+00 -0.16646494449E+04  0.39664225705E+04  0.36002014157E+04 0.  0.
        5    1    3    3  502    0 -0.11837124322E+04  0.10866446098E+04  0.61612077359E+02  0.16080391065E+04  0.46999998093E+01 0.  1.
       -5    1    3    3    0  502  0.11837124322E+04 -0.10866446098E+04 -0.17262615223E+04  0.23583834640E+04  0.46999998093E+01 0. -1.
</event>
<event>
 5   0  0.8146881E-09  0.3600890E+04  0.7818609E-02  0.8090288E-01
       -1   -1    0    0    0  501  0.00000000000E+00  0.00000000000E+00  0.22510282842E+04  0.22510282842E+04  0.50400001928E-02 0. -1.
        1   -1    0    0  501    0  0.00000000000E+00  0.00000000000E+00 -0.14400538238E+04  0.14400538238E+04  0.50400001928E-02 0.  1.
    10030    2    1    2    0    0  0.00000000000E+00  0.00000000000E+00  0.81097446035E+03  0.36910821080E+04  0.36008898279E+04 0.  0.
        4    1    3    3  502    0  0.12255663299E+04  0.38222897995E+03 -0.88846526559E+03  0.15612443637E+04  0.12699999809E+01 0.  1.
       -4    1    3    3    0  502 -0.12255663299E+04 -0.38222897995E+03  0.16994397259E+04  0.21298377443E+04  0.12699999809E+01 0. -1.
</event>
<event>
 5   0  0.8024500E-09  0.3599770E+04  0.7818609E-02  0.8090544E-01
       -1   -1    0    0    0  501  0.00000000000E+00  0.00000000000E+00  0.13300550496E+04  0.13300550496E+04  0.50400001928E-02 0.  1.
        1   -1    0    0  501    0  0.00000000000E+00  0.00000000000E+00 -0.24356787663E+04  0.24356787663E+04  0.50400001928E-02 0. -1.
    10030    2    1    2    0    0  0.00000000000E+00  0.00000000000E+00 -0.11056237167E+04  0.37657338159E+04  0.35997704606E+04 0.  0.
        5    1    3    3  502    0 -0.64902151903E+03 -0.82276457885E+03  0.97800461589E+03  0.14334174560E+04  0.46999998093E+01 0.  1.
       -5    1    3    3    0  502  0.64902151903E+03  0.82276457885E+03 -0.20836283326E+04  0.23323163599E+04  0.46999998093E+01 0. -1.
</event>
<event>
 5   0  0.2476968E-08  0.3599725E+04  0.7818609E-02  0.8090555E-01
       -2   -1    0    0    0  501  0.00000000000E+00  0.00000000000E+00  0.22606290301E+04  0.22606290301E+04  0.25500000920E-02 0. -1.
        2   -1    0    0  501    0  0.00000000000E+00  0.00000000000E+00 -0.14330102256E+04  0.14330102256E+04  0.25500000920E-02 0.  1.
    10030    2    1    2    0    0  0.00000000000E+00  0.00000000000E+00  0.82761880451E+03  0.36936392558E+04  0.35997247209E+04 0.  0.
        2    1    3    3  502    0  0.76016151342E+03 -0.14740193703E+04  0.11312842858E+04  0.20075813223E+04  0.25500000920E-02 0. -1.
       -2    1    3    3    0  502 -0.76016151342E+03  0.14740193703E+04 -0.30366548129E+03  0.16860579335E+04  0.25500000920E-02 0.  1.
</event>
<event>
 5   0  0.2590795E-08  0.3600495E+04  0.7818609E-02  0.8090378E-01
        2   -1    0    0  501    0  0.00000000000E+00  0.00000000000E+00  0.14675303030E+04  0.14675303030E+04  0.25500000920E-02 0. -1.
       -2   -1    0    0    0  501  0.00000000000E+00  0.00000000000E+00 -0.22083982440E+04  0.22083982440E+04  0.25500000920E-02 0.  1.
    10030    2    1    2    0    0  0.00000000000E+00  0.00000000000E+00 -0.74086794102E+03  0.36759285470E+04  0.36004951572E+04 0.  0.
        4    1    3    3  502    0 -0.93096183335E+03  0.29538295844E+03 -0.19143832943E+04  0.21491407673E+04  0.12699999809E+01 0.  1.
       -4    1    3    3    0  502  0.93096183335E+03 -0.29538295844E+03  0.11735153532E+04  0.15267877798E+04  0.12699999809E+01 0. -1.
</event>
<event>
 5   0  0.2482243E-08  0.3609152E+04  0.7818609E-02  0.8088399E-01
        2   -1    0    0  501    0  0.00000000000E+00  0.00000000000E+00  0.29580259312E+04  0.29580259312E+04  0.25500000920E-02 0.  1.
       -2   -1    0    0    0  501  0.00000000000E+00  0.00000000000E+00 -0.11009012296E+04  0.11009012296E+04  0.25500000920E-02 0. -1.
    10030    2    1    2    0    0  0.00000000000E+00  0.00000000000E+00  0.18571247016E+04  0.40589271609E+04  0.36091519142E+04 0.  0.
        5    1    3    3  502    0  0.44246425474E+03 -0.29207344133E+03  0.28684568072E+04  0.29170444043E+04  0.46999998093E+01 0.  1.
       -5    1    3    3    0  502 -0.44246425474E+03  0.29207344133E+03 -0.10113321056E+04  0.11418827566E+04  0.46999998093E+01 0. -1.
</event>
<event>
 5   0  0.2482243E-08  0.3600920E+04  0.7818609E-02  0.8090281E-01
        2   -1    0    0  501    0  0.00000000000E+00  0.00000000000E+00  0.13182644657E+04  0.13182644657E+04  0.25500000920E-02 0. -1.
       -2   -1    0    0    0  501  0.00000000000E+00  0.00000000000E+00 -0.24590337291E+04  0.24590337291E+04  0.25500000920E-02 0.  1.
    10030    2    1    2    0    0  0.00000000000E+00  0.00000000000E+00 -0.11407692635E+04  0.37772981948E+04  0.36009203185E+04 0.  0.
        5    1    3    3  502    0 -0.65156876073E+03  0.15247593651E+04 -0.13063194062E+04  0.21109063107E+04  0.46999998093E+01 0.  1.
       -5    1    3    3    0  502  0.65156876073E+03 -0.15247593651E+04  0.16555014274E+03  0.16663918841E+04  0.46999998093E+01 0. -1.
</event>
<event>
 5   0  0.8146881E-09  0.3596540E+04  0.7818609E-02  0.8091285E-01
       -1   -1    0    0    0  501  0.00000000000E+00  0.00000000000E+00  0.27094677275E+04  0.27094677275E+04  0.50400001928E-02 0.  1.
        1   -1    0    0  501    0  0.00000000000E+00  0.00000000000E+00 -0.11935093686E+04  0.11935093686E+04  0.50400001928E-02 0. -1.
    10030    2    1    2    0    0  0.00000000000E+00  0.00000000000E+00  0.15159583589E+04  0.39029770961E+04  0.35965400688E+04 0.  0.
        4    1    3    3  502    0  0.14201500176E+04 -0.53796408456E+01  0.19551106412E+04  0.24164673069E+04  0.12699999809E+01 0.  1.
       -4    1    3    3    0  502 -0.14201500176E+04  0.53796408456E+01 -0.43915228237E+03  0.14865097891E+04  0.12699999809E+01 0. -1.
</event>
<event>
 5   0  0.8024500E-09  0.3599492E+04  0.7818609E-02  0.8090608E-01
        1   -1    0    0  501    0  0.00000000000E+00  0.00000000000E+00  0.10395886060E+04  0.10395886060E+04  0.50400001928E-02 0. -1.
       -1   -1    0    0    0  501  0.00000000000E+00  0.00000000000E+00 -0.31157378901E+04  0.31157378901E+04  0.50400001928E-02 0.  1.
    10030    2    1    2    0    0  0.00000000000E+00  0.00000000000E+00 -0.20761492841E+04  0.41553264962E+04  0.35994919697E+04 0.  0.
        1    1    3    3  502    0  0.18586064370E+03  0.31771821483E+03  0.99567072050E+03  0.10615315476E+04  0.50400001928E-02 0. -1.
       -1    1    3    3    0  502 -0.18586064370E+03 -0.31771821483E+03 -0.30718200046E+04  0.30937949486E+04  0.50400001928E-02 0.  1.
</event>
<event>
 5   0  0.2608070E-08  0.3599690E+04  0.7818609E-02  0.8090563E-01
       -2   -1    0    0    0  501  0.00000000000E+00  0.00000000000E+00  0.18561024235E+04  0.18561024235E+04  0.25500000920E-02 0. -1.
        2   -1    0    0  501    0  0.00000000000E+00  0.00000000000E+00 -0.17452923755E+04  0.17452923755E+04  0.25500000920E-02 0.  1.
    10030    2    1    2    0    0  0.00000000000E+00  0.00000000000E+00  0.11081004802E+03  0.36013947990E+04  0.35996896577E+04 0.  0.
        3    1    3    3  502    0 -0.93566073631E+03  0.12407816260E+04  0.96382265207E+03  0.18286481815E+04  0.10100000352E+00 0.  1.
       -3    1    3    3    0  502  0.93566073631E+03 -0.12407816260E+04 -0.85301260404E+03  0.17727466175E+04  0.10100000352E+00 0. -1.
</event>
<event>
 5   0  0.2494592E-08  0.3601639E+04  0.7818609E-02  0.8090116E-01
       -2   -1    0    0    0  501  0.00000000000E+00  0.00000000000E+00  0.18934866292E+04  0.18934866292E+04  0.25500000920E-02 0. -1.
        2   -1    0    0  501    0  0.00000000000E+00  0.00000000000E+00 -0.17126873451E+04  0.17126873451E+04  0.25500000920E-02 0.  1.
    10030    2    1    2    0    0  0.00000000000E+00  0.00000000000E+00  0.18079928414E+03  0.36061739743E+04  0.36016388425E+04 0.  0.
        1    1    3    3  502    0  0.67748443212E+03 -0.69986817634E+03  0.16069520238E+04  0.18791209186E+04  0.50400001928E-02 0. -1.
       -1    1    3    3    0  502 -0.67748443212E+03  0.69986817634E+03 -0.14261527397E+04  0.17270530556E+04  0.50400001928E-02 0.  1.
</event>
<event>
 5   0  0.2482243E-08  0.3599278E+04  0.7818609E-02  0.8090657E-01
        2   -1    0    0  501    0  0.00000000000E+00  0.00000000000E+00  0.10533575950E+04  0.10533575950E+04  0.25500000920E-02 0.  1.
       -2   -1    0    0    0  501  0.00000000000E+00  0.00000000000E+00 -0.30746451528E+04  0.30746451528E+04  0.25500000920E-02 0. -1.
    10030    2    1    2    0    0  0.00000000000E+00  0.00000000000E+00 -0.20212875578E+04  0.41280027478E+04  0.35992781630E+04 0.  0.
        5    1    3    3  502    0  0.31611314712E+03  0.17689102284E+04 -0.11236455704E+04  0.21193330026E+04  0.46999998093E+01 0. -1.
       -5    1    3    3    0  502 -0.31611314712E+03 -0.17689102284E+04 -0.89764198744E+03  0.20086697453E+04  0.46999998093E+01 0.  1.
</event>
<event>
 5   0  0.8247570E-09  0.3600039E+04  0.7818609E-02  0.8090483E-01
       -1   -1    0    0    0  501  0.00000000000E+00  0.00000000000E+00  0.28525729788E+04  0.28525729788E+04  0.50400001928E-02 0.  1.
        1   -1    0    0  501    0  0.00000000000E+00  0.00000000000E+00 -0.11358414272E+04  0.11358414272E+04  0.50400001928E-02 0. -1.
    10030    2    1    2    0    0  0.00000000000E+00  0.00000000000E+00  0.17167315516E+04  0.39884144060E+04  0.36000392017E+04 0.  0.
        3    1    3    3  502    0 -0.10040479005E+04 -0.10074527829E+04 -0.36382174767E+03  0.14681415363E+04  0.10100000352E+00 0. -1.
       -3    1    3    3    0  502  0.10040479005E+04  0.10074527829E+04  0.20805532992E+04  0.25202728696E+04  0.10100000352E+00 0.  1.
</event>
<event>
 5   0  0.2476968E-08  0.3586661E+04  0.7818609E-02  0.8093554E-01
        2   -1    0    0  501    0  0.00000000000E+00  0.00000000000E+00  0.16277601078E+04  0.16277601078E+04  0.25500000920E-02 0. -1.
       -2   -1    0    0    0  501  0.00000000000E+00  0.00000000000E+00 -0.19757416292E+04  0.19757416292E+04  0.25500000920E-02 0.  1.
    10030    2    1    2    0    0  0.00000000000E+00  0.00000000000E+00 -0.34798152144E+03  0.36035017370E+04  0.35866605122E+04 0.  0.
        2    1    3    3  502    0  0.64007894385E+03  0.10861617585E+03 -0.18535264299E+04  0.19639396005E+04  0.25500000920E-02 0.  1.
       -2    1    3    3    0  502 -0.64007894385E+03 -0.10861617585E+03  0.15055449085E+04  0.16395621365E+04  0.25500000920E-02 0. -1.
</event>
<event>
 5   0  0.8024500E-09  0.3599763E+04  0.7818609E-02  0.8090546E-01
        1   -1    0    0  501    0  0.00000000000E+00  0.00000000000E+00  0.17263762666E+04  0.17263762666E+04  0.50400001928E-02 0.  1.
       -1   -1    0    0    0  501  0.00000000000E+00  0.00000000000E+00 -0.18765166289E+04  0.18765166289E+04  0.50400001928E-02 0. -1.
    10030    2    1    2    0    0  0.00000000000E+00  0.00000000000E+00 -0.15014036234E+03  0.36028928955E+04  0.35997631989E+04 0.  0.
        1    1    3    3  502    0  0.95718871133E+02 -0.15663282515E+04 -0.95732818642E+03  0.18382120526E+04  0.50400001928E-02 0. -1.
       -1    1    3    3    0  502 -0.95718871133E+02  0.15663282515E+04  0.80718782408E+03  0.17646808429E+04  0.50400001928E-02 0.  1.
</event>
<event>
 5   0  0.2608070E-08  0.3599092E+04  0.7818609E-02  0.8090700E-01
        2   -1    0    0  501    0  0.00000000000E+00  0.00000000000E+00  0.22704777182E+04  0.22704777182E+04  0.25500000920E-02 0. -1.
       -2   -1    0    0    0  501  0.00000000000E+00  0.00000000000E+00 -0.14262926318E+04  0.14262926319E+04  0.25500000920E-02 0.  1.
    10030    2    1    2    0    0  0.00000000000E+00  0.00000000000E+00  0.84418508632E+03  0.36967703500E+04  0.35990919078E+04 0.  0.
        3    1    3    3  502    0  0.12864167429E+04  0.12540487027E+04  0.52912939997E+03  0.18728278397E+04  0.10100000352E+00 0. -1.
       -3    1    3    3    0  502 -0.12864167429E+04 -0.12540487027E+04  0.31505568635E+03  0.18239425103E+04  0.10100000352E+00 0.  1.
</event>
<event>
 5   0  0.2476968E-08  0.3602068E+04  0.7818609E-02  0.8090018E-01
       -2   -1    0    0    0  501  0.00000000000E+00  0.00000000000E+00  0.13336395300E+04  0.13336395300E+04  0.25500000920E-02 0.  1.
        2   -1    0    0  501    0  0.00000000000E+00  0.00000000000E+00 -0.24322343065E+04  0.24322343065E+04  0.25500000920E-02 0. -1.
    10030    2    1    2    0    0  0.00000000000E+00  0.00000000000E+00 -0.10985947765E+04  0.37658738365E+04  0.36020681933E+04 0.  0.
        2    1    3    3  502    0 -0.48553275955E+03  0.12988615404E+04 -0.17508850394E+04  0.22334685543E+04  0.25500000920E-02 0. -1.
       -2    1    3    3    0  502  0.48553275955E+03 -0.12988615404E+04  0.65229026291E+03  0.15324052822E+04  0.25500000920E-02 0.  1.
</event>
<event>
 5   0  0.8024500E-09  0.3599741E+04  0.7818609E-02  0.8090551E-01
        1   -1    0    0  501    0  0.00000000000E+00  0.00000000000E+00  0.19121031391E+04  0.19121031391E+04  0.50400001928E-02 0.  1.
       -1   -1    0    0    0  501  0.00000000000E+00  0.00000000000E+00 -0.16942258338E+04  0.16942258339E+04  0.50400001928E-02 0. -1.
    10030    2    1    2    0    0  0.00000000000E+00  0.00000000000E+00  0.21787730528E+03  0.36063289730E+04  0.35997413992E+04 0.  0.
        1    1    3    3  502    0 -0.12565936053E+04  0.10505221527E+04  0.85656852376E+03  0.18483327401E+04  0.50400001928E-02 0.  1.
       -1    1    3    3    0  502  0.12565936053E+04 -0.10505221527E+04 -0.63869121848E+03  0.17579962329E+04  0.50400001928E-02 0. -1.
</event>
<event>
 5   0  0.2482243E-08  0.3600263E+04  0.7818609E-02  0.8090432E-01
       -2   -1    0    0    0  501  0.00000000000E+00  0.00000000000E+00  0.26790485543E+04  0.26790485543E+04  0.25500000920E-02 0.  1.
        2   -1    0    0  501    0  0.00000000000E+00  0.00000000000E+00 -0.12095610732E+04  0.12095610732E+04  0.25500000920E-02 0. -1.
    10030    2    1    2    0    0  0.00000000000E+00  0.00000000000E+00  0.14694874811E+04  0.38886096275E+04  0.36002626817E+04 0.  0.
        5    1    3    3  502    0 -0.10878410362E+04  0.87243102746E+03 -0.49481337551E+03  0.14796609018E+04  0.46999998093E+01 0. -1.
       -5    1    3    3    0  502  0.10878410362E+04 -0.87243102746E+03  0.19643008566E+04  0.24089487257E+04  0.46999998093E+01 0.  1.
</event>
<event>
 5   0  0.2476968E-08  0.3606447E+04  0.7818609E-02  0.8089017E-01
        2   -1    0    0  501    0  0.00000000000E+00  0.00000000000E+00  0.24374039202E+04  0.24374039202E+04  0.25500000920E-02 0. -1.
       -2   -1    0    0    0  501  0.00000000000E+00  0.00000000000E+00 -0.13340484278E+04  0.13340484278E+04  0.25500000920E-02 0.  1.
    10030    2    1    2    0    0  0.00000000000E+00  0.00000000000E+00  0.11033554924E+04  0.37714523481E+04  0.36064469317E+04 0.  0.
        2    1    3    3  502    0 -0.58586914877E+03  0.16636175230E+03  0.23265936947E+04  0.24049858861E+04  0.25500000920E-02 0. -1.
       -2    1    3    3    0  502  0.58586914877E+03 -0.16636175230E+03 -0.12232382023E+04  0.13664664620E+04  0.25500000920E-02 0.  1.
</event>
<event>
 5   0  0.2482243E-08  0.3599836E+04  0.7818609E-02  0.8090529E-01
       -2   -1    0    0    0  501  0.00000000000E+00  0.00000000000E+00  0.11422868646E+04  0.11422868646E+04  0.25500000920E-02 0. -1.
        2   -1    0    0  501    0  0.00000000000E+00  0.00000000000E+00 -0.28361563376E+04  0.28361563376E+04  0.25500000920E-02 0.  1.
    10030    2    1    2    0    0  0.00000000000E+00  0.00000000000E+00 -0.16938694730E+04  0.39784432022E+04  0.35998356242E+04 0.  0.
        5    1    3    3  502    0 -0.31410563171E+03  0.12352255254E+04 -0.22515219122E+04  0.25872412832E+04  0.46999998093E+01 0.  1.
       -5    1    3    3    0  502  0.31410563171E+03 -0.12352255254E+04  0.55765243917E+03  0.13912019190E+04  0.46999998093E+01 0. -1.
</event>
<event>
 5   0  0.8024500E-09  0.3592838E+04  0.7818609E-02  0.8092134E-01
       -1   -1    0    0    0  501  0.00000000000E+00  0.00000000000E+00  0.16151624849E+04  0.16151624849E+04  0.50400001928E-02 0. -1.
        1   -1    0    0  501    0  0.00000000000E+00  0.00000000000E+00 -0.19980159562E+04  0.19980159562E+04  0.50400001928E-02 0.  1.
    10030    2    1    2    0    0  0.00000000000E+00  0.00000000000E+00 -0.38285347126E+03  0.36131784411E+04  0.35928375509E+04 0.  0.
        1    1    3    3  502    0  0.32724211437E+03 -0.37576718663E+03 -0.19271274295E+04  0.19905045866E+04  0.50400001928E-02 0.  1.
       -1    1    3    3    0  502 -0.32724211437E+03  0.37576718663E+03  0.15442739582E+04  0.16226738545E+04  0.50400001928E-02 0. -1.
</event>
<event>
 5   0  0.2590795E-08  0.3600418E+04  0.7818609E-02  0.8090396E-01
       -2   -1    0    0    0  501  0.00000000000E+00  0.00000000000E+00  0.19101332054E+04  0.19101332054E+04  0.25500000920E-02 0. -1.
        2   -1    0    0  501    0  0.00000000000E+00  0.00000000000E+00 -0.16966109819E+04  0.16966109819E+04  0.25500000920E-02 0.  1.
    10030    2    1    2    0    0  0.00000000000E+00  0.00000000000E+00  0.21352222357E+03  0.36067441873E+04  0.36004182941E+04 0.  0.
        4    1    3    3  502    0  0.45023511614E+03  0.13370292255E+04 -0.10134130983E+04  0.17370568587E+04  0.12699999809E+01 0.  1.
       -4    1    3    3    0  502 -0.45023511614E+03 -0.13370292255E+04  0.12269353218E+04  0.18696873286E+04  0.12699999809E+01 0. -1.
</event>
<event>
 5   0  0.2608070E-08  0.3599441E+04  0.7818609E-02  0.8090620E-01
       -2   -1    0    0    0  501  0.00000000000E+00  0.00000000000E+00  0.19123732549E+04  0.19123732549E+04  0.25500000920E-02 0. -1.
        2   -1    0    0  501    0  0.00000000000E+00  0.00000000000E+00 -0.16937036688E+04  0.16937036688E+04  0.25500000920E-02 0.  1.
    10030    2    1    2    0    0  0.00000000000E+00  0.00000000000E+00  0.21866958614E+03  0.36060769237E+04  0.35994408443E+04 0.  0.
        3    1    3    3  502    0 -0.63285372488E+03 -0.85338269908E+03 -0.13460056826E+04  0.17147877933E+04  0.10100000352E+00 0.  1.
       -3    1    3    3    0  502  0.63285372488E+03  0.85338269908E+03  0.15646752687E+04  0.18912891305E+04  0.10100000352E+00 0. -1.
</event>
<event>
 5   0  0.2482243E-08  0.3600693E+04  0.7818609E-02  0.8090333E-01
       -2   -1    0    0    0  501  0.00000000000E+00  0.00000000000E+00  0.20710770305E+04  0.20710770305E+04  0.25500000920E-02 0.  1.
        2   -1    0    0  501    0  0.00000000000E+00  0.00000000000E+00 -0.15650056547E+04  0.15650056547E+04  0.25500000920E-02 0. -1.
    10030    2    1    2    0    0  0.00000000000E+00  0.00000000000E+00  0.50607137577E+03  0.36360826852E+04  0.36006928578E+04 0.  0.
        5    1    3    3  502    0 -0.17718083799E+04 -0.31850443170E+03  0.23102314277E+03  0.18149776282E+04  0.46999998093E+01 0.  1.
       -5    1    3    3    0  502  0.17718083799E+04  0.31850443170E+03  0.27504823299E+03  0.18211050570E+04  0.46999998093E+01 0. -1.
</event>
<event>
 5   0  0.2608070E-08  0.3600080E+04  0.7818609E-02  0.8090473E-01
        2   -1    0    0  501    0  0.00000000000E+00  0.00000000000E+00  0.18206282744E+04  0.18206282744E+04  0.25500000920E-02 0. -1.
       -2   -1    0    0    0  501  0.00000000000E+00  0.00000000000E+00 -0.17796841398E+04  0.17796841398E+04  0.25500000920E-02 0.  1.
    10030    2    1    2    0    0  0.00000000000E+00  0.00000000000E+00  0.40944134588E+02  0.36003124142E+04  0.36000795904E+04 0.  0.
        3    1    3    3  502    0  0.90884540897E+03  0.15503593652E+04 -0.82146046773E+02  0.17989891945E+04  0.10100000352E+00 0. -1.
       -3    1    3    3    0  502 -0.90884540897E+03 -0.15503593652E+04  0.12309018136E+03  0.18013232197E+04  0.10100000352E+00 0.  1.
</event>
<event>
 5   0  0.8247570E-09  0.3598792E+04  0.7818609E-02  0.8090769E-01
       -1   -1    0    0    0  501  0.00000000000E+00  0.00000000000E+00  0.11895067907E+04  0.11895067907E+04  0.50400001928E-02 0. -1.
        1   -1    0    0  501    0  0.00000000000E+00  0.00000000000E+00 -0.27219898562E+04  0.27219898562E+04  0.50400001928E-02 0.  1.
    10030    2    1    2    0    0  0.00000000000E+00  0.00000000000E+00 -0.15324830656E+04  0.39114966469E+04  0.35987916962E+04 0.  0.
        3    1    3    3  502    0 -0.33132624156E+03  0.68272002997E+03 -0.25395550380E+04  0.26505138217E+04  0.10100000352E+00 0.  1.
       -3    1    3    3    0  502  0.33132624156E+03 -0.68272002997E+03  0.10070719724E+04  0.12609828252E+04  0.10100000352E+00 0. -1.
</event>
<event>
 5   0  0.8247570E-09  0.3600052E+04  0.7818609E-02  0.8090480E-01
        1   -1    0    0  501    0  0.00000000000E+00  0.00000000000E+00  0.29722059678E+04  0.29722059678E+04  0.50400001928E-02 0. -1.
       -1   -1    0    0    0  501  0.00000000000E+00  0.00000000000E+00 -0.10901306626E+04  0.10901306626E+04  0.50400001928E-02 0.  1.
    10030    2    1    2    0    0  0.00000000000E+00  0.00000000000E+00  0.18820753052E+04  0.40623366304E+04  0.36000515891E+04 0.  0.
        3    1    3    3  502    0 -0.52250498662E+03  0.17200644845E+04  0.83725111035E+03  0.19830841445E+04  0.10100000352E+00 0. -1.
       -3    1    3    3    0  502  0.52250498662E+03 -0.17200644845E+04  0.10448241948E+04  0.20792524859E+04  0.10100000352E+00 0.  1.
</event>
<event>
 5   0  0.2590795E-08  0.3610101E+04  0.7818609E-02  0.8088182E-01
       -2   -1    0    0    0  501  0.00000000000E+00  0.00000000000E+00  0.16963829734E+04  0.16963829734E+04  0.25500000920E-02 0.  1.
        2   -1    0    0  501    0  0.00000000000E+00  0.00000000000E+00 -0.19206792136E+04  0.19206792136E+04  0.25500000920E-02 0. -1.
    10030    2    1    2    0    0  0.00000000000E+00  0.00000000000E+00 -0.22429624015E+03  0.36170621870E+04  0.36101011151E+04 0.  0.
        4    1    3    3  502    0 -0.10516133888E+04  0.13504922837E+04  0.46209379952E+03  0.17729220006E+04  0.12699999809E+01 0.  1.
       -4    1    3    3    0  502  0.10516133888E+04 -0.13504922837E+04 -0.68639003966E+03  0.18441401864E+04  0.12699999809E+01 0. -1.
</event>
<event>
 5   0  0.8024500E-09  0.3599453E+04  0.7818609E-02  0.8090617E-01
        1   -1    0    0  501    0  0.00000000000E+00  0.00000000000E+00  0.29535175812E+04  0.29535175812E+04  0.50400001928E-02 0. -1.
       -1   -1    0    0    0  501  0.00000000000E+00  0.00000000000E+00 -0.10966639383E+04  0.10966639383E+04  0.50400001928E-02 0.  1.
    10030    2    1    2    0    0  0.00000000000E+00  0.00000000000E+00  0.18568536429E+04  0.40501815195E+04  0.35994534154E+04 0.  0.
        5    1    3    3  502    0 -0.73560175000E+03 -0.12586455457E+03 -0.91434152177E+03  0.11802518075E+04  0.46999998093E+01 0.  1.
       -5    1    3    3    0  502  0.73560175000E+03  0.12586455457E+03  0.27711951647E+04  0.28699297120E+04  0.46999998093E+01 0. -1.
</event>
<event>
 5   0  0.8024500E-09  0.3598117E+04  0.7818609E-02  0.8090923E-01
       -1   -1    0    0    0  501  0.00000000000E+00  0.00000000000E+00  0.29968344660E+04  0.29968344660E+04  0.50400001928E-02 0.  1.
        1   -1    0    0  501    0  0.00000000000E+00  0.00000000000E+00 -0.10800102287E+04  0.10800102287E+04  0.50400001928E-02 0. -1.
    10030    2    1    2    0    0  0.00000000000E+00  0.00000000000E+00  0.19168242373E+04  0.40768446948E+04  0.35981172172E+04 0.  0.
        5    1    3    3  502    0 -0.91269805887E+03  0.93497200369E+03 -0.44281752633E+03  0.13796013359E+04  0.46999998093E+01 0. -1.
       -5    1    3    3    0  502  0.91269805887E+03 -0.93497200369E+03  0.23596417636E+04  0.26972433589E+04  0.46999998093E+01 0.  1.
</event>
<event>
 5   0  0.8247570E-09  0.3603411E+04  0.7818609E-02  0.8089711E-01
        1   -1    0    0  501    0  0.00000000000E+00  0.00000000000E+00  0.18944745348E+04  0.18944745348E+04  0.50400001928E-02 0. -1.
       -1   -1    0    0    0  501  0.00000000000E+00  0.00000000000E+00 -0.17134795901E+04  0.17134795902E+04  0.50400001928E-02 0.  1.
    10030    2    1    2    0    0  0.00000000000E+00  0.00000000000E+00  0.18099494469E+03  0.36079541250E+04  0.36034114112E+04 0.  0.
        3    1    3    3  502    0  0.41643802728E+03  0.61083602043E+03  0.17356154231E+04  0.18865052827E+04  0.10100000352E+00 0. -1.
       -3    1    3    3    0  502 -0.41643802728E+03 -0.61083602043E+03 -0.15546204785E+04  0.17214488423E+04  0.10100000352E+00 0.  1.
</event>
<event>
 5   0  0.2494592E-08  0.3599422E+04  0.7818609E-02  0.8090624E-01
       -2   -1    0    0    0  501  0.00000000000E+00  0.00000000000E+00  0.17966092481E+04  0.17966092481E+04  0.25500000920E-02 0.  1.
        2   -1    0    0  501    0  0.00000000000E+00  0.00000000000E+00 -0.18028179739E+04  0.18028179739E+04  0.25500000920E-02 0. -1.
    10030    2    1    2    0    0  0.00000000000E+00  0.00000000000E+00 -0.62087257518E+01  0.35994272220E+04  0.35994218672E+04 0.  0.
        1    1    3    3  502    0  0.15064985308E+04  0.20357959360E+03  0.96021268327E+03  0.17980519657E+04  0.50400001928E-02 0.  1.
       -1    1    3    3    0  502 -0.15064985308E+04 -0.20357959360E+03 -0.96642140902E+03  0.18013752563E+04  0.50400001928E-02 0. -1.
</event>
<event>
 5   0  0.8063410E-09  0.3600251E+04  0.7818609E-02  0.8090434E-01
        1   -1    0    0  501    0  0.00000000000E+00  0.00000000000E+00  0.19049378195E+04  0.19049378195E+04  0.50400001928E-02 0. -1.
       -1   -1    0    0    0  501  0.00000000000E+00  0.00000000000E+00 -0.17010800755E+04  0.17010800755E+04  0.50400001928E-02 0.  1.
    10030    2    1    2    0    0  0.00000000000E+00  0.00000000000E+00  0.20385774397E+03  0.36060178950E+04  0.36002509745E+04 0.  0.
        2    1    3    3  502    0  0.88785044986E+02  0.34100341656E+03  0.18700569925E+04  0.19029659139E+04  0.25500000920E-02 0. -1.
       -2    1    3    3    0  502 -0.88785044986E+02 -0.34100341656E+03 -0.16661992486E+04  0.17030519811E+04  0.25500000920E-02 0.  1.
</event>
<event>
 5   0  0.8247570E-09  0.3596723E+04  0.7818609E-02  0.8091243E-01
        1   -1    0    0  501    0  0.00000000000E+00  0.00000000000E+00  0.23419937747E+04  0.23419937747E+04  0.50400001928E-02 0. -1.
       -1   -1    0    0    0  501  0.00000000000E+00  0.00000000000E+00 -0.13809192018E+04  0.13809192019E+04  0.50400001928E-02 0.  1.
    10030    2    1    2    0    0  0.00000000000E+00  0.00000000000E+00  0.96107457288E+03  0.37229129766E+04  0.35967230497E+04 0.  0.
        3    1    3    3  502    0  0.54106032586E+03  0.14025625672E+04  0.15021696194E+04  0.21251921341E+04  0.10100000352E+00 0. -1.
       -3    1    3    3    0  502 -0.54106032586E+03 -0.14025625672E+04 -0.54109504652E+03  0.15977208425E+04  0.10100000352E+00 0.  1.
</event>
<event>
 5   0  0.8063410E-09  0.3594184E+04  0.7818609E-02  0.8091825E-01
        1   -1    0    0  501    0  0.00000000000E+00  0.00000000000E+00  0.12258269399E+04  0.12258269399E+04  0.50400001928E-02 0. -1.
       -1   -1    0    0    0  501  0.00000000000E+00  0.00000000000E+00 -0.26345801841E+04  0.26345801841E+04  0.50400001928E-02 0.  1.
    10030    2    1    2    0    0  0.00000000000E+00  0.00000000000E+00 -0.14087532443E+04  0.38604071240E+04  0.35941838378E+04 0.  0.
        2    1    3    3  502    0 -0.16706577038E+04 -0.35938010239E+03 -0.10704644274E+03  0.17122237477E+04  0.25500000920E-02 0. -1.
       -2    1    3    3    0  502  0.16706577038E+04  0.35938010239E+03 -0.13017068015E+04  0.21481833763E+04  0.25500000920E-02 0.  1.
</event>
<event>
 5   0  0.8247570E-09  0.3599259E+04  0.7818609E-02  0.8090661E-01
       -1   -1    0    0    0  501  0.00000000000E+00  0.00000000000E+00  0.16744930741E+04  0.16744930741E+04  0.50400001928E-02 0. -1.
        1   -1    0    0  501    0  0.00000000000E+00  0.00000000000E+00 -0.19341175131E+04  0.19341175131E+04  0.50400001928E-02 0.  1.
    10030    2    1    2    0    0  0.00000000000E+00  0.00000000000E+00 -0.25962443904E+03  0.36086105872E+04  0.35992590239E+04 0.  0.
        3    1    3    3  502    0 -0.10742498812E+04 -0.14022910196E+04 -0.47455653573E+03  0.18291082053E+04  0.10100000352E+00 0.  1.
       -3    1    3    3    0  502  0.10742498812E+04  0.14022910196E+04  0.21493209669E+03  0.17795023819E+04  0.10100000352E+00 0. -1.
</event>
<event>
 5   0  0.2482243E-08  0.3616623E+04  0.7818609E-02  0.8086695E-01
        2   -1    0    0  501    0  0.00000000000E+00  0.00000000000E+00  0.27603755303E+04  0.27603755303E+04  0.25500000920E-02 0. -1.
       -2   -1    0    0    0  501  0.00000000000E+00  0.00000000000E+00 -0.11846180393E+04  0.11846180393E+04  0.25500000920E-02 0.  1.
    10030    2    1    2    0    0  0.00000000000E+00  0.00000000000E+00  0.15757574910E+04  0.39449935695E+04  0.36166230925E+04 0.  0.
        5    1    3    3  502    0  0.63984289316E+02  0.86828107143E+03  0.25166981514E+04  0.26630429369E+04  0.46999998093E+01 0. -1.
       -5    1    3    3    0  502 -0.63984289316E+02 -0.86828107143E+03 -0.94094066038E+03  0.12819506327E+04  0.46999998093E+01 0.  1.
</event>
<event>
 5   0  0.2494592E-08  0.3600763E+04  0.7818609E-02  0.8090317E-01
        2   -1    0    0  501    0  0.00000000000E+00  0.00000000000E+00  0.23889124854E+04  0.23889124854E+04  0.25500000920E-02 0.  1.
       -2   -1    0    0    0  501  0.00000000000E+00  0.00000000000E+00 -0.13568408308E+04  0.13568408308E+04  0.25500000920E-02 0. -1.
    10030    2    1    2    0    0  0.00000000000E+00  0.00000000000E+00  0.10320716546E+04  0.37457533162E+04  0.36007632532E+04 0.  0.
        1    1    3    3  502    0 -0.81915694579E+02 -0.17952222452E+04  0.40283824314E+03  0.18416871995E+04  0.50400001928E-02 0.  1.
       -1    1    3    3    0  502  0.81915694579E+02  0.17952222452E+04  0.62923341146E+03  0.19040661167E+04  0.50400001928E-02 0. -1.
</event>
<event>
 5   0  0.8024500E-09  0.3599712E+04  0.7818609E-02  0.8090558E-01
        1   -1    0    0  501    0  0.00000000000E+00  0.00000000000E+00  0.18313431542E+04  0.18313431542E+04  0.50400001928E-02 0.  1.
       -1   -1    0    0    0  501  0.00000000000E+00  0.00000000000E+00 -0.17689102854E+04  0.17689102854E+04  0.50400001928E-02 0. -1.
    10030    2    1    2    0    0  0.00000000000E+00  0.00000000000E+00  0.62432868806E+02  0.36002534396E+04  0.35997120672E+04 0.  0.
        1    1    3    3  502    0  0.10039572892E+04  0.11903691435E+04 -0.87145617298E+03  0.17844732550E+04  0.50400001928E-02 0. -1.
       -1    1    3    3    0  502 -0.10039572892E+04 -0.11903691435E+04  0.93388904178E+03  0.18157801846E+04  0.50400001928E-02 0.  1.
</event>
<event>
 5   0  0.2476968E-08  0.3607403E+04  0.7818609E-02  0.8088798E-01
       -2   -1    0    0    0  501  0.00000000000E+00  0.00000000000E+00  0.13698277963E+04  0.13698277963E+04  0.25500000920E-02 0.  1.
        2   -1    0    0  501    0  0.00000000000E+00  0.00000000000E+00 -0.23749990001E+04  0.23749990001E+04  0.25500000920E-02 0. -1.
    10030    2    1    2    0    0  0.00000000000E+00  0.00000000000E+00 -0.10051712038E+04  0.37448267964E+04  0.36074033024E+04 0.  0.
        2    1    3    3  502    0  0.10319015453E+04 -0.81430782712E+03  0.77954416883E+03  0.15282693309E+04  0.25500000920E-02 0.  1.
       -2    1    3    3    0  502 -0.10319015453E+04  0.81430782712E+03 -0.17847153726E+04  0.22165574655E+04  0.25500000920E-02 0. -1.
</event>
<event>
 5   0  0.2482243E-08  0.3603543E+04  0.7818609E-02  0.8089681E-01
       -2   -1    0    0    0  501  0.00000000000E+00  0.00000000000E+00  0.13608677297E+04  0.13608677297E+04  0.25500000920E-02 0.  1.
        2   -1    0    0  501    0  0.00000000000E+00  0.00000000000E+00 -0.23855226845E+04  0.23855226845E+04  0.25500000920E-02 0. -1.
    10030    2    1    2    0    0  0.00000000000E+00  0.00000000000E+00 -0.10246549547E+04  0.37463904142E+04  0.36035431674E+04 0.  0.
        5    1    3    3  502    0  0.60513926281E+03  0.13839737754E+04  0.50884207758E+03  0.15939006520E+04  0.46999998093E+01 0.  1.
       -5    1    3    3    0  502 -0.60513926281E+03 -0.13839737754E+04 -0.15334970323E+04  0.21524897622E+04  0.46999998093E+01 0. -1.
</event>
<event>
 5   0  0.8063410E-09  0.3600099E+04  0.7818609E-02  0.8090469E-01
        1   -1    0    0  501    0  0.00000000000E+00  0.00000000000E+00  0.24075218691E+04  0.24075218691E+04  0.50400001928E-02 0.  1.
       -1   -1    0    0    0  501  0.00000000000E+00  0.00000000000E+00 -0.13458559867E+04  0.13458559867E+04  0.50400001928E-02 0. -1.
    10030    2    1    2    0    0  0.00000000000E+00  0.00000000000E+00  0.10616658823E+04  0.37533778558E+04  0.36000987324E+04 0.  0.
        2    1    3    3  502    0  0.15900731121E+04  0.83108772859E+03  0.68241367185E+03  0.19195644646E+04  0.25500000920E-02 0.  1.
       -2    1    3    3    0  502 -0.15900731121E+04 -0.83108772859E+03  0.37925221049E+03  0.18338133912E+04  0.25500000920E-02 0. -1.
</event>
<event>
 5   0  0.2476968E-08  0.3598488E+04  0.7818609E-02  0.8090838E-01
        2   -1    0    0  501    0  0.00000000000E+00  0.00000000000E+00  0.29439593590E+04  0.29439593590E+04  0.25500000920E-02 0. -1.
       -2   -1    0    0    0  501  0.00000000000E+00  0.00000000000E+00 -0.10996343583E+04  0.10996343583E+04  0.25500000920E-02 0.  1.
    10030    2    1    2    0    0  0.00000000000E+00  0.00000000000E+00  0.18443250007E+04  0.40435937174E+04  0.35984879384E+04 0.  0.
        2    1    3    3  502    0  0.72999139033E+03 -0.16428349032E+04  0.83894162628E+03  0.19838389556E+04  0.25500000920E-02 0. -1.
       -2    1    3    3    0  502 -0.72999139033E+03  0.16428349032E+04  0.10053833744E+04  0.20597547618E+04  0.25500000920E-02 0.  1.
</event>
<event>
 5   0  0.2608070E-08  0.3599388E+04  0.7818609E-02  0.8090632E-01
       -2   -1    0    0    0  501  0.00000000000E+00  0.00000000000E+00  0.13869217801E+04  0.13869217801E+04  0.25500000920E-02 0. -1.
        2   -1    0    0  501    0  0.00000000000E+00  0.00000000000E+00 -0.23353146484E+04  0.23353146484E+04  0.25500000920E-02 0.  1.
    10030    2    1    2    0    0  0.00000000000E+00  0.00000000000E+00 -0.94839286829E+03  0.37222364285E+04  0.35993881420E+04 0.  0.
        3    1    3    3  502    0 -0.12136641877E+03  0.42938747999E+03 -0.22772035670E+04  0.23205084596E+04  0.10100000352E+00 0.  1.
       -3    1    3    3    0  502  0.12136641877E+03 -0.42938747999E+03  0.13288106987E+04  0.14017279689E+04  0.10100000352E+00 0. -1.
</event>
<event>
 5   0  0.8024500E-09  0.3585974E+04  0.7818609E-02  0.8093712E-01
       -3   -1    0    0    0  501  0.00000000000E+00  0.00000000000E+00  0.20632460089E+04  0.20632460113E+04  0.10100000352E+00 0. -1.
        3   -1    0    0  501    0  0.00000000000E+00  0.00000000000E+00 -0.15581284202E+04  0.15581284235E+04  0.10100000352E+00 0.  1.
    10030    2    1    2    0    0  0.00000000000E+00  0.00000000000E+00  0.50511758863E+03  0.36213744349E+04  0.35859739290E+04 0.  0.
        5    1    3    3  502    0 -0.16457716877E+04 -0.43542455143E+03 -0.31568706920E+03  0.17314269848E+04  0.46999998093E+01 0. -1.
       -5    1    3    3    0  502  0.16457716877E+04  0.43542455143E+03  0.82080465783E+03  0.18899474501E+04  0.46999998093E+01 0.  1.
</event>
<event>
 5   0  0.8024500E-09  0.3597479E+04  0.7818609E-02  0.8091069E-01
       -1   -1    0    0    0  501  0.00000000000E+00  0.00000000000E+00  0.15402823298E+04  0.15402823298E+04  0.50400001928E-02 0.  1.
        1   -1    0    0  501    0  0.00000000000E+00  0.00000000000E+00 -0.21005656030E+04  0.21005656030E+04  0.50400001928E-02 0. -1.
    10030    2    1    2    0    0  0.00000000000E+00  0.00000000000E+00 -0.56028327320E+03  0.36408479328E+04  0.35974791623E+04 0.  0.
        5    1    3    3  502    0  0.70209266315E+03 -0.64312976221E+03  0.12643264073E+04  0.15827486702E+04  0.46999998093E+01 0.  1.
       -5    1    3    3    0  502 -0.70209266315E+03  0.64312976221E+03 -0.18246096805E+04  0.20580992626E+04  0.46999998093E+01 0. -1.
</event>
<event>
 5   0  0.2494592E-08  0.3579130E+04  0.7818609E-02  0.8095289E-01
        2   -1    0    0  501    0  0.00000000000E+00  0.00000000000E+00  0.14774868049E+04  0.14774868049E+04  0.25500000920E-02 0.  1.
       -2   -1    0    0    0  501  0.00000000000E+00  0.00000000000E+00 -0.21675613701E+04  0.21675613702E+04  0.25500000920E-02 0. -1.
    10030    2    1    2    0    0  0.00000000000E+00  0.00000000000E+00 -0.69007456525E+03  0.36450481751E+04  0.35791302425E+04 0.  0.
        1    1    3    3  502    0 -0.17235694370E+04 -0.36009164236E+03 -0.19484889396E+02  0.17608910403E+04  0.50400001928E-02 0. -1.
       -1    1    3    3    0  502  0.17235694370E+04  0.36009164236E+03 -0.67058967585E+03  0.18841571347E+04  0.50400001928E-02 0.  1.
</event>
<event>
 5   0  0.8146881E-09  0.3600322E+04  0.7818609E-02  0.8090418E-01
       -1   -1    0    0    0  501  0.00000000000E+00  0.00000000000E+00  0.10625640252E+04  0.10625640252E+04  0.50400001928E-02 0.  1.
        1   -1    0    0  501    0  0.00000000000E+00  0.00000000000E+00 -0.30497739115E+04  0.30497739115E+04  0.50400001928E-02 0. -1.
    10030    2    1    2    0    0  0.00000000000E+00  0.00000000000E+00 -0.19872098863E+04  0.41123379367E+04  0.36003222318E+04 0.  0.
        4    1    3    3  502    0  0.79145469811E+03  0.16117818788E+04 -0.84761112626E+03  0.19856202049E+04  0.12699999809E+01 0. -1.
       -4    1    3    3    0  502 -0.79145469811E+03 -0.16117818788E+04 -0.11395987600E+04  0.21267177318E+04  0.12699999809E+01 0.  1.
</event>
<event>
 5   0  0.8063410E-09  0.3584169E+04  0.7818609E-02  0.8094128E-01
       -1   -1    0    0    0  501  0.00000000000E+00  0.00000000000E+00  0.22842191471E+04  0.22842191471E+04  0.50400001928E-02 0.  1.
        1   -1    0    0  501    0  0.00000000000E+00  0.00000000000E+00 -0.14059805038E+04  0.14059805038E+04  0.50400001928E-02 0. -1.
    10030    2    1    2    0    0  0.00000000000E+00  0.00000000000E+00  0.87823864331E+03  0.36901996509E+04  0.35841694085E+04 0.  0.
        2    1    3    3  502    0  0.17905389641E+04  0.85694792137E+01  0.36301113832E+03  0.18269866733E+04  0.25500000920E-02 0.  1.
       -2    1    3    3    0  502 -0.17905389641E+04 -0.85694792137E+01  0.51522750499E+03  0.18632129776E+04  0.25500000920E-02 0. -1.
</event>
<event>
 5   0  0.2590795E-08  0.3599747E+04  0.7818609E-02  0.8090550E-01
        2   -1    0    0  501    0  0.00000000000E+00  0.00000000000E+00  0.25396083634E+04  0.25396083634E+04  0.25500000920E-02 0.  1.
       -2   -1    0    0    0  501  0.00000000000E+00  0.00000000000E+00 -0.12756080924E+04  0.12756080924E+04  0.25500000920E-02 0. -1.
    10030    2    1    2    0    0  0.00000000000E+00  0.00000000000E+00  0.12640002710E+04  0.38152164558E+04  0.35997472021E+04 0.  0.
        4    1    3    3  502    0  0.56943966229E+02  0.14468299414E+04 -0.50109723327E+03  0.15322074091E+04  0.12699999809E+01 0. -1.
       -4    1    3    3    0  502 -0.56943966229E+02 -0.14468299414E+04  0.17650975043E+04  0.22830090467E+04  0.12699999809E+01 0.  1.
</event>
<event>
 5   0  0.2476968E-08  0.3600599E+04  0.7818609E-02  0.8090355E-01
       -2   -1    0    0    0  501  0.00000000000E+00  0.00000000000E+00  0.22320044181E+04  0.22320044181E+04  0.25500000920E-02 0.  1.
        2   -1    0    0  501    0  0.00000000000E+00  0.00000000000E+00 -0.14520929307E+04  0.14520929307E+04  0.25500000920E-02 0. -1.
    10030    2    1    2    0    0  0.00000000000E+00  0.00000000000E+00  0.77991148748E+03  0.36840973488E+04  0.36005987484E+04 0.  0.
        2    1    3    3  502    0  0.16572595313E+04  0.54696693086E+03 -0.62331198162E+02  0.17463009923E+04  0.25500000920E-02 0. -1.
       -2    1    3    3    0  502 -0.16572595313E+04 -0.54696693086E+03  0.84224268564E+03  0.19377963565E+04  0.25500000920E-02 0.  1.
</event>
<event>
 5   0  0.2482243E-08  0.3600221E+04  0.7818609E-02  0.8090441E-01
       -2   -1    0    0    0  501  0.00000000000E+00  0.00000000000E+00  0.15336422923E+04  0.15336422923E+04  0.25500000920E-02 0. -1.
        2   -1    0    0  501    0  0.00000000000E+00  0.00000000000E+00 -0.21128774688E+04  0.21128774688E+04  0.25500000920E-02 0.  1.
    10030    2    1    2    0    0  0.00000000000E+00  0.00000000000E+00 -0.57923517653E+03  0.36465197611E+04  0.36002212402E+04 0.  0.
        5    1    3    3  502    0 -0.45759261554E+03  0.16989070052E+04  0.95668969986E+02  0.17620586415E+04  0.46999998093E+01 0. -1.
       -5    1    3    3    0  502  0.45759261554E+03 -0.16989070052E+04 -0.67490414651E+03  0.18844611196E+04  0.46999998093E+01 0.  1.
</event>
<event>
 5   0  0.8063410E-09  0.3603066E+04  0.7818609E-02  0.8089790E-01
       -1   -1    0    0    0  501  0.00000000000E+00  0.00000000000E+00  0.21669175296E+04  0.21669175297E+04  0.50400001928E-02 0.  1.
        1   -1    0    0  501    0  0.00000000000E+00  0.00000000000E+00 -0.14977597165E+04  0.14977597165E+04  0.50400001928E-02 0. -1.
    10030    2    1    2    0    0  0.00000000000E+00  0.00000000000E+00  0.66915781316E+03  0.36646772462E+04  0.36030663524E+04 0.  0.
        2    1    3    3  502    0  0.95032533629E+03  0.12417462322E+04 -0.57540970445E+03  0.16661777450E+04  0.25500000920E-02 0.  1.
       -2    1    3    3    0  502 -0.95032533629E+03 -0.12417462322E+04  0.12445675176E+04  0.19984995011E+04  0.25500000920E-02 0. -1.
</event>
<event>
 5   0  0.2590795E-08  0.3599023E+04  0.7818609E-02  0.8090715E-01
        2   -1    0    0  501    0  0.00000000000E+00  0.00000000000E+00  0.24147374855E+04  0.24147374855E+04  0.25500000920E-02 0. -1.
       -2   -1    0    0    0  501  0.00000000000E+00  0.00000000000E+00 -0.13410327492E+04  0.13410327492E+04  0.25500000920E-02 0.  1.
    10030    2    1    2    0    0  0.00000000000E+00  0.00000000000E+00  0.10737047363E+04  0.37557702347E+04  0.35990232280E+04 0.  0.
        4    1    3    3  502    0  0.12859017788E+04  0.14404875792E+03 -0.76819231827E+03  0.15047971558E+04  0.12699999809E+01 0.  1.
       -4    1    3    3    0  502 -0.12859017788E+04 -0.14404875792E+03  0.18418970546E+04  0.22509730789E+04  0.12699999809E+01 0. -1.
</event>
<event>
 5   0  0.2608070E-08  0.3596196E+04  0.7818609E-02  0.8091364E-01
        2   -1    0    0  501    0  0.00000000000E+00  0.00000000000E+00  0.24199934931E+04  0.24199934931E+04  0.25500000920E-02 0.  1.
       -2   -1    0    0    0  501  0.00000000000E+00  0.00000000000E+00 -0.13360186585E+04  0.13360186585E+04  0.25500000920E-02 0. -1.
    10030    2    1    2    0    0  0.00000000000E+00  0.00000000000E+00  0.10839748346E+04  0.37560121515E+04  0.35961960236E+04 0.  0.
        3    1    3    3  502    0 -0.36653991130E+03  0.17269805467E+04  0.18573812342E+03  0.17751935038E+04  0.10100000352E+00 0.  1.
       -3    1    3    3    0  502  0.36653991130E+03 -0.17269805467E+04  0.89823671118E+03  0.19808186477E+04  0.10100000352E+00 0. -1.
</event>
<event>
 5   0  0.8247570E-09  0.3599818E+04  0.7818609E-02  0.8090533E-01
       -1   -1    0    0    0  501  0.00000000000E+00  0.00000000000E+00  0.13895961999E+04  0.13895961999E+04  0.50400001928E-02 0.  1.
        1   -1    0    0  501    0  0.00000000000E+00  0.00000000000E+00 -0.23313766601E+04  0.23313766601E+04  0.50400001928E-02 0. -1.
    10030    2    1    2    0    0  0.00000000000E+00  0.00000000000E+00 -0.94178046018E+03  0.37209728600E+04  0.35998178551E+04 0.  0.
        3    1    3    3  502    0 -0.78569973237E+03  0.16154415621E+04 -0.58736186155E+03  0.18899654697E+04  0.10100000352E+00 0.  1.
       -3    1    3    3    0  502  0.78569973237E+03 -0.16154415621E+04 -0.35441859863E+03  0.18310073903E+04  0.10100000352E+00 0. -1.
</event>
<event>
 5   0  0.2608070E-08  0.3604396E+04  0.7818609E-02  0.8089485E-01
       -2   -1    0    0    0  501  0.00000000000E+00  0.00000000000E+00  0.14727243863E+04  0.14727243863E+04  0.25500000920E-02 0. -1.
        2   -1    0    0  501    0  0.00000000000E+00  0.00000000000E+00 -0.22053809517E+04  0.22053809517E+04  0.25500000920E-02 0.  1.
    10030    2    1    2    0    0  0.00000000000E+00  0.00000000000E+00 -0.73265656536E+03  0.36781053380E+04  0.36043963760E+04 0.  0.
        3    1    3    3  502    0 -0.51010287042E+03 -0.29618029936E+03  0.13714321839E+04  0.14929011867E+04  0.10100000352E+00 0. -1.
       -3    1    3    3    0  502  0.51010287042E+03  0.29618029936E+03 -0.21040887492E+04  0.21852041513E+04  0.10100000352E+00 0.  1.
</event>
<event>
 5   0  0.8063410E-09  0.3597571E+04  0.7818609E-02  0.8091048E-01
       -1   -1    0    0    0  501  0.00000000000E+00  0.00000000000E+00  0.16266642770E+04  0.16266642770E+04  0.50400001928E-02 0.  1.
        1   -1    0    0  501    0  0.00000000000E+00  0.00000000000E+00 -0.19891195761E+04  0.19891195761E+04  0.50400001928E-02 0. -1.
    10030    2    1    2    0    0  0.00000000000E+00  0.00000000000E+00 -0.36245529909E+03  0.36157838531E+04  0.35975712680E+04 0.  0.
        2    1    3    3  502    0 -0.68752823369E+03  0.76730876741E+03  0.13007443501E+04  0.16593353130E+04  0.25500000920E-02 0.  1.
       -2    1    3    3    0  502  0.68752823369E+03 -0.76730876741E+03 -0.16631996492E+04  0.19564485400E+04  0.25500000920E-02 0. -1.
</event>
<event>
 5   0  0.8024500E-09  0.3600285E+04  0.7818609E-02  0.8090426E-01
        1   -1    0    0  501    0  0.00000000000E+00  0.00000000000E+00  0.20767081652E+04  0.20767081652E+04  0.50400001928E-02 0.  1.
       -1   -1    0    0    0  501  0.00000000000E+00  0.00000000000E+00 -0.15604085179E+04  0.15604085179E+04  0.50400001928E-02 0. -1.
    10030    2    1    2    0    0  0.00000000000E+00  0.00000000000E+00  0.51629964733E+03  0.36371166831E+04  0.36002850499E+04 0.  0.
        1    1    3    3  502    0 -0.80307232683E+03 -0.25972357566E+02  0.18855028653E+04  0.20495659981E+04  0.50400001928E-02 0.  1.
       -1    1    3    3    0  502  0.80307232683E+03  0.25972357566E+02 -0.13692032179E+04  0.15875506850E+04  0.50400001928E-02 0. -1.
</event>
<event>
 5   0  0.2590795E-08  0.3599646E+04  0.7818609E-02  0.8090573E-01
       -2   -1    0    0    0  501  0.00000000000E+00  0.00000000000E+00  0.15656946117E+04  0.15656946117E+04  0.25500000920E-02 0. -1.
        2   -1    0    0  501    0  0.00000000000E+00  0.00000000000E+00 -0.20689620189E+04  0.20689620189E+04  0.25500000920E-02 0.  1.
    10030    2    1    2    0    0  0.00000000000E+00  0.00000000000E+00 -0.50326740717E+03  0.36346566307E+04  0.35996459187E+04 0.  0.
        4    1    3    3  502    0 -0.36348543295E+03  0.95095829028E+03  0.12470250201E+04  0.16098187300E+04  0.12699999809E+01 0. -1.
       -4    1    3    3    0  502  0.36348543295E+03 -0.95095829028E+03 -0.17502924273E+04  0.20248379006E+04  0.12699999809E+01 0.  1.
</event>
<event>
 5   0  0.2590795E-08  0.3600460E+04  0.7818609E-02  0.8090386E-01
        2   -1    0    0  501    0  0.00000000000E+00  0.00000000000E+00  0.24889892259E+04  0.24889892259E+04  0.25500000920E-02 0.  1.
       -2   -1    0    0    0  501  0.00000000000E+00  0.00000000000E+00 -0.13020658500E+04  0.13020658500E+04  0.25500000920E-02 0. -1.
    10030    2    1    2    0    0  0.00000000000E+00  0.00000000000E+00  0.11869233759E+04  0.37910550759E+04  0.36004598995E+04 0.  0.
        4    1    3    3  502    0 -0.94256451200E+03 -0.64543062950E+03  0.20584506215E+04  0.23541939450E+04  0.12699999809E+01 0.  1.
       -4    1    3    3    0  502  0.94256451200E+03  0.64543062950E+03 -0.87152724557E+03  0.14368611309E+04  0.12699999809E+01 0. -1.
</event>
<event>
 5   0  0.2590795E-08  0.3599423E+04  0.7818609E-02  0.8090624E-01
       -2   -1    0    0    0  501  0.00000000000E+00  0.00000000000E+00  0.15451398162E+04  0.15451398162E+04  0.25500000920E-02 0. -1.
        2   -1    0    0  501    0  0.00000000000E+00  0.00000000000E+00 -0.20962252426E+04  0.20962252426E+04  0.25500000920E-02 0.  1.
    10030    2    1    2    0    0  0.00000000000E+00  0.00000000000E+00 -0.55108542634E+03  0.36413650588E+04  0.35994227793E+04 0.  0.
        4    1    3    3  502    0 -0.10547863193E+04  0.10206732725E+04 -0.13291249384E+04  0.19801320217E+04  0.12699999809E+01 0. -1.
       -4    1    3    3    0  502  0.10547863193E+04 -0.10206732725E+04  0.77803951204E+03  0.16612330371E+04  0.12699999809E+01 0.  1.
</event>
<event>
 5   0  0.8024500E-09  0.3598792E+04  0.7818609E-02  0.8090768E-01
       -1   -1    0    0    0  501  0.00000000000E+00  0.00000000000E+00  0.24210253524E+04  0.24210253524E+04  0.50400001928E-02 0. -1.
        1   -1    0    0  501    0  0.00000000000E+00  0.00000000000E+00 -0.13373779458E+04  0.13373779458E+04  0.50400001928E-02 0.  1.
    10030    2    1    2    0    0  0.00000000000E+00  0.00000000000E+00  0.10836474066E+04  0.37584032982E+04  0.35987919710E+04 0.  0.
        1    1    3    3  502    0 -0.88309666787E+03 -0.15214327248E+04  0.14661066320E+03  0.17652512420E+04  0.50400001928E-02 0.  1.
       -1    1    3    3    0  502  0.88309666787E+03  0.15214327248E+04  0.93703674344E+03  0.19931520562E+04  0.50400001928E-02 0. -1.
</event>
<event>
 5   0  0.2608070E-08  0.3599851E+04  0.7818609E-02  0.8090526E-01
       -2   -1    0    0    0  501  0.00000000000E+00  0.00000000000E+00  0.30446440899E+04  0.30446440899E+04  0.25500000920E-02 0. -1.
        2   -1    0    0  501    0  0.00000000000E+00  0.00000000000E+00 -0.10640759087E+04  0.10640759087E+04  0.25500000920E-02 0.  1.
    10030    2    1    2    0    0  0.00000000000E+00  0.00000000000E+00  0.19805681812E+04  0.41087199986E+04  0.35998513451E+04 0.  0.
        3    1    3    3  502    0 -0.18820348173E+03  0.10027902486E+04  0.26827007676E+04  0.28701728610E+04  0.10100000352E+00 0. -1.
       -3    1    3    3    0  502  0.18820348173E+03 -0.10027902486E+04 -0.70213258637E+03  0.12385471377E+04  0.10100000352E+00 0.  1.
</event>
<event>
 5   0  0.2494592E-08  0.3596387E+04  0.7818609E-02  0.8091320E-01
        2   -1    0    0  501    0  0.00000000000E+00  0.00000000000E+00  0.32912514478E+04  0.32912514478E+04  0.25500000920E-02 0. -1.
       -2   -1    0    0    0  501  0.00000000000E+00  0.00000000000E+00 -0.98245306648E+03  0.98245306648E+03  0.25500000920E-02 0.  1.
    10030    2    1    2    0    0  0.00000000000E+00  0.00000000000E+00  0.23087983814E+04  0.42737045143E+04  0.35963871190E+04 0.  0.
        1    1    3    3  502    0  0.76943495323E+03 -0.13000063871E+04  0.23135282717E+04  0.27630526267E+04  0.50400001928E-02 0. -1.
       -1    1    3    3    0  502 -0.76943495323E+03  0.13000063871E+04 -0.47298903550E+01  0.15106518876E+04  0.50400001928E-02 0.  1.
</event>
<event>
 5   0  0.8063410E-09  0.3600367E+04  0.7818609E-02  0.8090408E-01
       -1   -1    0    0    0  501  0.00000000000E+00  0.00000000000E+00  0.10789436944E+04  0.10789436944E+04  0.50400001928E-02 0.  1.
        1   -1    0    0  501    0  0.00000000000E+00  0.00000000000E+00 -0.30035497437E+04  0.30035497437E+04  0.50400001928E-02 0. -1.
    10030    2    1    2    0    0  0.00000000000E+00  0.00000000000E+00 -0.19246060494E+04  0.40824934381E+04  0.36003672350E+04 0.  0.
        2    1    3    3  502    0 -0.15341056671E+04 -0.43385725614E+03 -0.14318259915E+02  0.15943391513E+04  0.25500000920E-02 0.  1.
       -2    1    3    3    0  502  0.15341056671E+04  0.43385725614E+03 -0.19102877895E+04  0.24881542869E+04  0.25500000920E-02 0. -1.
</event>
<event>
 5   0  0.8024500E-09  0.3596660E+04  0.7818609E-02  0.8091257E-01
       -1   -1    0    0    0  501  0.00000000000E+00  0.00000000000E+00  0.13642613064E+04  0.13642613064E+04  0.50400001928E-02 0.  1.
        1   -1    0    0  501    0  0.00000000000E+00  0.00000000000E+00 -0.23705062913E+04  0.23705062913E+04  0.50400001928E-02 0. -1.
    10030    2    1    2    0    0  0.00000000000E+00  0.00000000000E+00 -0.10062449849E+04  0.37347675977E+04  0.35966595668E+04 0.  0.
        1    1    3    3  502    0  0.28252129583E+02 -0.70480943120E+03  0.12146152454E+04  0.14045799057E+04  0.50400001928E-02 0.  1.
       -1    1    3    3    0  502 -0.28252129583E+02  0.70480943120E+03 -0.22208602303E+04  0.23301876920E+04  0.50400001928E-02 0. -1.
</event>
<event>
 5   0  0.8063410E-09  0.3599493E+04  0.7818609E-02  0.8090608E-01
       -1   -1    0    0    0  501  0.00000000000E+00  0.00000000000E+00  0.18181391959E+04  0.18181391959E+04  0.50400001928E-02 0.  1.
        1   -1    0    0  501    0  0.00000000000E+00  0.00000000000E+00 -0.17815394697E+04  0.17815394697E+04  0.50400001928E-02 0. -1.
    10030    2    1    2    0    0  0.00000000000E+00  0.00000000000E+00  0.36599726155E+02  0.35996786656E+04  0.35994925970E+04 0.  0.
        2    1    3    3  502    0 -0.97716486484E+03  0.57970948999E+03  0.14141415060E+04  0.18140315501E+04  0.25500000920E-02 0.  1.
       -2    1    3    3    0  502  0.97716486484E+03 -0.57970948999E+03 -0.13775417799E+04  0.17856471155E+04  0.25500000920E-02 0. -1.
</event>
<event>
 5   0  0.2608070E-08  0.3599675E+04  0.7818609E-02  0.8090566E-01
       -2   -1    0    0    0  501  0.00000000000E+00  0.00000000000E+00  0.18225755961E+04  0.18225755961E+04  0.25500000920E-02 0. -1.
        2   -1    0    0  501    0  0.00000000000E+00  0.00000000000E+00 -0.17773828872E+04  0.17773828872E+04  0.25500000920E-02 0.  1.
    10030    2    1    2    0    0  0.00000000000E+00  0.00000000000E+00  0.45192708942E+02  0.35999584833E+04  0.35996748048E+04 0.  0.
        3    1    3    3  502    0 -0.11693488026E+03  0.17662761941E+04 -0.30302000569E+03  0.17958915597E+04  0.10100000352E+00 0.  1.
       -3    1    3    3    0  502  0.11693488026E+03 -0.17662761941E+04  0.34821271464E+03  0.18040669236E+04  0.10100000352E+00 0. -1.
</event>
<event>
 5   0  0.8063410E-09  0.3600305E+04  0.7818609E-02  0.8090422E-01
       -1   -1    0    0    0  501  0.00000000000E+00  0.00000000000E+00  0.13682825600E+04  0.13682825600E+04  0.50400001928E-02 0.  1.
        1   -1    0    0  501    0  0.00000000000E+00  0.00000000000E+00 -0.23683328702E+04  0.23683328702E+04  0.50400001928E-02 0. -1.
    10030    2    1    2    0    0  0.00000000000E+00  0.00000000000E+00 -0.10000503103E+04  0.37366154302E+04  0.36003047441E+04 0.  0.
        2    1    3    3  502    0 -0.14762961035E+04 -0.20695861230E+03 -0.15473221813E+04  0.21486014021E+04  0.25500000920E-02 0. -1.
       -2    1    3    3    0  502  0.14762961035E+04  0.20695861230E+03  0.54727187107E+03  0.15880140281E+04  0.25500000920E-02 0.  1.
</event>
<event>
 5   0  0.2476968E-08  0.3601000E+04  0.7818609E-02  0.8090263E-01
       -2   -1    0    0    0  501  0.00000000000E+00  0.00000000000E+00  0.15846516397E+04  0.15846516397E+04  0.25500000920E-02 0.  1.
        2   -1    0    0  501    0  0.00000000000E+00  0.00000000000E+00 -0.20457497953E+04  0.20457497953E+04  0.25500000920E-02 0. -1.
    10030    2    1    2    0    0  0.00000000000E+00  0.00000000000E+00 -0.46109815560E+03  0.36304014351E+04  0.36010002875E+04 0.  0.
        2    1    3    3  502    0 -0.86489979350E+03 -0.15658724900E+04 -0.43665024958E+03  0.18413776767E+04  0.25500000920E-02 0. -1.
       -2    1    3    3    0  502  0.86489979350E+03  0.15658724900E+04 -0.24447906027E+02  0.17890237584E+04  0.25500000920E-02 0.  1.
</event>
<event>
 5   0  0.8247570E-09  0.3599198E+04  0.7818609E-02  0.8090675E-01
        1   -1    0    0  501    0  0.00000000000E+00  0.00000000000E+00  0.23691713165E+04  0.23691713165E+04  0.50400001928E-02 0. -1.
       -1   -1    0    0    0  501  0.00000000000E+00  0.00000000000E+00 -0.13669574892E+04  0.13669574892E+04  0.50400001928E-02 0.  1.
    10030    2    1    2    0    0  0.00000000000E+00  0.00000000000E+00  0.10022138272E+04  0.37361288057E+04  0.35991979519E+04 0.  0.
        3    1    3    3  502    0  0.82391738996E+03 -0.10122522629E+04  0.17872197164E+04  0.22130632242E+04  0.10100000352E+00 0. -1.
       -3    1    3    3    0  502 -0.82391738996E+03  0.10122522629E+04 -0.78500588919E+03  0.15230655815E+04  0.10100000352E+00 0.  1.
</event>
<event>
 5   0  0.8024500E-09  0.3593821E+04  0.7818609E-02  0.8091908E-01
       -1   -1    0    0    0  501  0.00000000000E+00  0.00000000000E+00  0.16546994756E+04  0.16546994756E+04  0.50400001928E-02 0.  1.
        1   -1    0    0  501    0  0.00000000000E+00  0.00000000000E+00 -0.19513438263E+04  0.19513438263E+04  0.50400001928E-02 0. -1.
    10030    2    1    2    0    0  0.00000000000E+00  0.00000000000E+00 -0.29664435077E+03  0.36060433019E+04  0.35938211453E+04 0.  0.
        1    1    3    3  502    0  0.63244585829E+02 -0.27160553053E+03  0.16328537742E+04  0.16564965710E+04  0.50400001928E-02 0.  1.
       -1    1    3    3    0  502 -0.63244585829E+02  0.27160553053E+03 -0.19294981249E+04  0.19495467309E+04  0.50400001928E-02 0. -1.
</event>
<event>
 5   0  0.2590795E-08  0.3600393E+04  0.7818609E-02  0.8090402E-01
       -2   -1    0    0    0  501  0.00000000000E+00  0.00000000000E+00  0.19656696150E+04  0.19656696150E+04  0.25500000920E-02 0.  1.
        2   -1    0    0  501    0  0.00000000000E+00  0.00000000000E+00 -0.16486528347E+04  0.16486528347E+04  0.25500000920E-02 0. -1.
    10030    2    1    2    0    0  0.00000000000E+00  0.00000000000E+00  0.31701678025E+03  0.36143224497E+04  0.36003926357E+04 0.  0.
        4    1    3    3  502    0 -0.26317700460E+03  0.17664651978E+04  0.38531111617E+03  0.18270543780E+04  0.12699999809E+01 0. -1.
       -4    1    3    3    0  502  0.26317700460E+03 -0.17664651978E+04 -0.68294335916E+02  0.17872680717E+04  0.12699999809E+01 0.  1.
</event>
<event>
 5   0  0.2482243E-08  0.3594114E+04  0.7818609E-02  0.8091841E-01
        2   -1    0    0  501    0  0.00000000000E+00  0.00000000000E+00  0.21950061852E+04  0.21950061852E+04  0.25500000920E-02 0.  1.
       -2   -1    0    0    0  501  0.00000000000E+00  0.00000000000E+00 -0.14712549100E+04  0.14712549100E+04  0.25500000920E-02 0. -1.
    10030    2    1    2    0    0  0.00000000000E+00  0.00000000000E+00  0.72375127514E+03  0.36662610952E+04  0.35941138699E+04 0.  0.
        5    1    3    3  502    0  0.11469998021E+04 -0.92886054115E+03  0.14076383204E+04  0.20395730392E+04  0.46999998093E+01 0.  1.
       -5    1    3    3    0  502 -0.11469998021E+04  0.92886054115E+03 -0.68388704530E+03  0.16266880560E+04  0.46999998093E+01 0. -1.
</event>
<event>
 5   0  0.8063410E-09  0.3598902E+04  0.7818609E-02  0.8090743E-01
        1   -1    0    0  501    0  0.00000000000E+00  0.00000000000E+00  0.24509449908E+04  0.24509449908E+04  0.50400001928E-02 0.  1.
       -1   -1    0    0    0  501  0.00000000000E+00  0.00000000000E+00 -0.13211326242E+04  0.13211326242E+04  0.50400001928E-02 0. -1.
    10030    2    1    2    0    0  0.00000000000E+00  0.00000000000E+00  0.11298123666E+04  0.37720776150E+04  0.35989017144E+04 0.  0.
        2    1    3    3  502    0 -0.20792143317E+03 -0.14286596773E+03  0.24323183565E+04  0.24453659429E+04  0.25500000920E-02 0.  1.
       -2    1    3    3    0  502  0.20792143317E+03  0.14286596773E+03 -0.13025059899E+04  0.13267116721E+04  0.25500000920E-02 0. -1.
</event>
<event>
 5   0  0.8146881E-09  0.3600743E+04  0.7818609E-02  0.8090322E-01
        1   -1    0    0  501    0  0.00000000000E+00  0.00000000000E+00  0.18821759202E+04  0.18821759202E+04  0.50400001928E-02 0.  1.
       -1   -1    0    0    0  501  0.00000000000E+00  0.00000000000E+00 -0.17221223696E+04  0.17221223696E+04  0.50400001928E-02 0. -1.
    10030    2    1    2    0    0  0.00000000000E+00  0.00000000000E+00  0.16005355060E+03  0.36042982898E+04  0.36007428432E+04 0.  0.
        4    1    3    3  502    0  0.87987665115E+03 -0.17223335860E+02  0.16522004715E+04  0.18719635615E+04  0.12699999809E+01 0.  1.
       -4    1    3    3    0  502 -0.87987665115E+03  0.17223335860E+02 -0.14921469209E+04  0.17323347283E+04  0.12699999809E+01 0. -1.
</event>
<event>
 5   0  0.8024500E-09  0.3621812E+04  0.7818609E-02  0.8085514E-01
        1   -1    0    0  501    0  0.00000000000E+00  0.00000000000E+00  0.21084334527E+04  0.21084334527E+04  0.50400001928E-02 0.  1.
       -1   -1    0    0    0  501  0.00000000000E+00  0.00000000000E+00 -0.15553634662E+04  0.15553634662E+04  0.50400001928E-02 0. -1.
    10030    2    1    2    0    0  0.00000000000E+00  0.00000000000E+00  0.55306998643E+03  0.36637969189E+04  0.36218119019E+04 0.  0.
        1    1    3    3  502    0  0.48061398022E+03 -0.16855204908E+04 -0.18416864913E+03  0.17623527497E+04  0.50400001928E-02 0. -1.
       -1    1    3    3    0  502 -0.48061398022E+03  0.16855204908E+04  0.73723863556E+03  0.19014441692E+04  0.50400001928E-02 0.  1.
</event>
<event>
 5   0  0.8024500E-09  0.3600492E+04  0.7818609E-02  0.8090379E-01
        1   -1    0    0  501    0  0.00000000000E+00  0.00000000000E+00  0.17620224508E+04  0.17620224508E+04  0.50400001928E-02 0.  1.
       -1   -1    0    0    0  501  0.00000000000E+00  0.00000000000E+00 -0.18392992369E+04  0.18392992369E+04  0.50400001928E-02 0. -1.
    10030    2    1    2    0    0  0.00000000000E+00  0.00000000000E+00 -0.77276786119E+02  0.36013216878E+04  0.36004924937E+04 0.  0.
        5    1    3    3  502    0  0.12278561434E+04  0.28869685070E+03 -0.13234138229E+04  0.18282294214E+04  0.46999998093E+01 0. -1.
       -5    1    3    3    0  502 -0.12278561434E+04 -0.28869685070E+03  0.12461370368E+04  0.17730922664E+04  0.46999998093E+01 0.  1.
</event>
<event>
 5   0  0.8247570E-09  0.3590121E+04  0.7818609E-02  0.8092758E-01
       -1   -1    0    0    0  501  0.00000000000E+00  0.00000000000E+00  0.14903971911E+04  0.14903971911E+04  0.50400001928E-02 0. -1.
        1   -1    0    0  501    0  0.00000000000E+00  0.00000000000E+00 -0.21620018238E+04  0.21620018238E+04  0.50400001928E-02 0.  1.
    10030    2    1    2    0    0  0.00000000000E+00  0.00000000000E+00 -0.67160463270E+03  0.36523990149E+04  0.35901205804E+04 0.  0.
        3    1    3    3  502    0 -0.44931565582E+03  0.15755024574E+04  0.41050964685E+03  0.16889673568E+04  0.10100000352E+00 0. -1.
       -3    1    3    3    0  502  0.44931565582E+03 -0.15755024574E+04 -0.10821142795E+04  0.19634316581E+04  0.10100000352E+00 0.  1.
</event>
<event>
 5   0  0.2494592E-08  0.3600642E+04  0.7818609E-02  0.8090345E-01
       -2   -1    0    0    0  501  0.00000000000E+00  0.00000000000E+00  0.24104752748E+04  0.24104752748E+04  0.25500000920E-02 0. -1.
        2   -1    0    0  501    0  0.00000000000E+00  0.00000000000E+00 -0.13446129733E+04  0.13446129733E+04  0.25500000920E-02 0.  1.
    10030    2    1    2    0    0  0.00000000000E+00  0.00000000000E+00  0.10658623015E+04  0.37550882481E+04  0.36006423462E+04 0.  0.
        1    1    3    3  502    0 -0.12508888927E+04  0.12451473297E+04  0.90318265097E+03  0.19826380899E+04  0.50400001928E-02 0. -1.
       -1    1    3    3    0  502  0.12508888927E+04 -0.12451473297E+04  0.16267965048E+03  0.17724501582E+04  0.50400001928E-02 0.  1.
</event>
<event>
 5   0  0.8024500E-09  0.3601343E+04  0.7818609E-02  0.8090184E-01
       -1   -1    0    0    0  501  0.00000000000E+00  0.00000000000E+00  0.14988546476E+04  0.14988546476E+04  0.50400001928E-02 0.  1.
        1   -1    0    0  501    0  0.00000000000E+00  0.00000000000E+00 -0.21632638750E+04  0.21632638750E+04  0.50400001928E-02 0. -1.
    10030    2    1    2    0    0  0.00000000000E+00  0.00000000000E+00 -0.66440922742E+03  0.36621185226E+04  0.36013431456E+04 0.  0.
        5    1    3    3  502    0 -0.28993416303E+03 -0.59115961836E+03  0.13720453257E+04  0.15218613534E+04  0.46999998093E+01 0.  1.
       -5    1    3    3    0  502  0.28993416303E+03  0.59115961836E+03 -0.20364545531E+04  0.21402571692E+04  0.46999998093E+01 0. -1.
</event>
<event>
 5   0  0.8024500E-09  0.3601264E+04  0.7818609E-02  0.8090202E-01
       -1   -1    0    0    0  501  0.00000000000E+00  0.00000000000E+00  0.15603498448E+04  0.15603498448E+04  0.50400001928E-02 0. -1.
        1   -1    0    0  501    0  0.00000000000E+00  0.00000000000E+00 -0.20779152582E+04  0.20779152582E+04  0.50400001928E-02 0.  1.
    10030    2    1    2    0    0  0.00000000000E+00  0.00000000000E+00 -0.51756541342E+03  0.36382651030E+04  0.36012635286E+04 0.  0.
        1    1    3    3  502    0 -0.17452157052E+04 -0.29045180983E+03 -0.59708842033E+03  0.18672586038E+04  0.50400001928E-02 0. -1.
       -1    1    3    3    0  502  0.17452157052E+04  0.29045180983E+03  0.79523006918E+02  0.17710064992E+04  0.50400001928E-02 0.  1.
</event>
<event>
 5   0  0.8247570E-09  0.3600412E+04  0.7818609E-02  0.8090397E-01
        1   -1    0    0  501    0  0.00000000000E+00  0.00000000000E+00  0.24916865999E+04  0.24916866000E+04  0.50400001928E-02 0.  1.
       -1   -1    0    0    0  501  0.00000000000E+00  0.00000000000E+00 -0.13006219301E+04  0.13006219301E+04  0.50400001928E-02 0. -1.
    10030    2    1    2    0    0  0.00000000000E+00  0.00000000000E+00  0.11910646698E+04  0.37923085301E+04  0.36004123291E+04 0.  0.
        3    1    3    3  502    0  0.10565623823E+04  0.14548625340E+04  0.68851635850E+03  0.19253581087E+04  0.10100000352E+00 0.  1.
       -3    1    3    3    0  502 -0.10565623823E+04 -0.14548625340E+04  0.50254831134E+03  0.18669504214E+04  0.10100000352E+00 0. -1.
</event>
<event>
 5   0  0.8146881E-09  0.3600229E+04  0.7818609E-02  0.8090439E-01
        1   -1    0    0  501    0  0.00000000000E+00  0.00000000000E+00  0.12911829075E+04  0.12911829075E+04  0.50400001928E-02 0.  1.
       -1   -1    0    0    0  501  0.00000000000E+00  0.00000000000E+00 -0.25096464573E+04  0.25096464573E+04  0.50400001928E-02 0. -1.
    10030    2    1    2    0    0  0.00000000000E+00  0.00000000000E+00 -0.12184635498E+04  0.38008293648E+04  0.36002292202E+04 0.  0.
        4    1    3    3  502    0  0.22978636485E+03  0.15840824990E+04 -0.14787056207E+04  0.21791491603E+04  0.12699999809E+01 0. -1.
       -4    1    3    3    0  502 -0.22978636485E+03 -0.15840824990E+04  0.26024207090E+03  0.16216802045E+04  0.12699999809E+01 0.  1.
</event>
<event>
 5   0  0.8247570E-09  0.3600604E+04  0.7818609E-02  0.8090353E-01
       -1   -1    0    0    0  501  0.00000000000E+00  0.00000000000E+00  0.27720225058E+04  0.27720225058E+04  0.50400001928E-02 0.  1.
        1   -1    0    0  501    0  0.00000000000E+00  0.00000000000E+00 -0.11692140636E+04  0.11692140636E+04  0.50400001928E-02 0. -1.
    10030    2    1    2    0    0  0.00000000000E+00  0.00000000000E+00  0.16028084421E+04  0.39412365694E+04  0.36006042262E+04 0.  0.
        3    1    3    3  502    0 -0.13598213102E+04 -0.11183297827E+03  0.20870247152E+04  0.24934499760E+04  0.10100000352E+00 0.  1.
       -3    1    3    3    0  502  0.13598213102E+04  0.11183297827E+03 -0.48421627312E+03  0.14477865934E+04  0.10100000352E+00 0. -1.
</event>
<event>
 5   0  0.2494592E-08  0.3598981E+04  0.7818609E-02  0.8090725E-01
        2   -1    0    0  501    0  0.00000000000E+00  0.00000000000E+00  0.24196960479E+04  0.24196960479E+04  0.25500000920E-02 0. -1.
       -2   -1    0    0    0  501  0.00000000000E+00  0.00000000000E+00 -0.13382535954E+04  0.13382535954E+04  0.25500000920E-02 0.  1.
    10030    2    1    2    0    0  0.00000000000E+00  0.00000000000E+00  0.10814424524E+04  0.37579496433E+04  0.35989814870E+04 0.  0.
        1    1    3    3  502    0  0.12435297289E+04 -0.47871998444E+03 -0.72208953493E+03  0.15155699610E+04  0.50400001928E-02 0.  1.
       -1    1    3    3    0  502 -0.12435297289E+04  0.47871998444E+03  0.18035319874E+04  0.22423796823E+04  0.50400001928E-02 0. -1.
</event>
<event>
 5   0  0.2608070E-08  0.3598645E+04  0.7818609E-02  0.8090802E-01
        2   -1    0    0  501    0  0.00000000000E+00  0.00000000000E+00  0.34425919749E+04  0.34425919749E+04  0.25500000920E-02 0.  1.
       -2   -1    0    0    0  501  0.00000000000E+00  0.00000000000E+00 -0.94044310461E+03  0.94044310461E+03  0.25500000920E-02 0. -1.
    10030    2    1    2    0    0  0.00000000000E+00  0.00000000000E+00  0.25021488703E+04  0.43830350795E+04  0.35986452366E+04 0.  0.
        3    1    3    3  502    0  0.59996214012E+03  0.15633330928E+04  0.20530830233E+04  0.26493612134E+04  0.10100000352E+00 0.  1.
       -3    1    3    3    0  502 -0.59996214012E+03 -0.15633330928E+04  0.44906584701E+03  0.17336738661E+04  0.10100000352E+00 0. -1.
</event>
<event>
 5   0  0.8247570E-09  0.3599003E+04  0.7818609E-02  0.8090720E-01
        1   -1    0    0  501    0  0.00000000000E+00  0.00000000000E+00  0.23455640943E+04  0.23455640943E+04  0.50400001928E-02 0.  1.
       -1   -1    0    0    0  501  0.00000000000E+00  0.00000000000E+00 -0.13805658969E+04  0.13805658969E+04  0.50400001928E-02 0. -1.
    10030    2    1    2    0    0  0.00000000000E+00  0.00000000000E+00  0.96499819737E+03  0.37261299912E+04  0.35990030828E+04 0.  0.
        3    1    3    3  502    0  0.12515042188E+04  0.11350410623E+04  0.11237516419E+04  0.20291374487E+04  0.10100000352E+00 0.  1.
       -3    1    3    3    0  502 -0.12515042188E+04 -0.11350410623E+04 -0.15875344453E+03  0.16969925425E+04  0.10100000352E+00 0. -1.
</event>
<event>
 5   0  0.8024500E-09  0.3599211E+04  0.7818609E-02  0.8090672E-01
       -4   -1    0    0    0  501  0.00000000000E+00  0.00000000000E+00  0.16745833742E+04  0.16745838558E+04  0.12699999809E+01 0. -1.
        4   -1    0    0  501    0  0.00000000000E+00  0.00000000000E+00 -0.19339604202E+04  0.19339608372E+04  0.12699999809E+01 0.  1.
    10030    2    1    2    0    0  0.00000000000E+00  0.00000000000E+00 -0.25937704599E+03  0.36085446930E+04  0.35992107953E+04 0.  0.
        2    1    3    3  502    0 -0.68135902476E+03 -0.81651542983E+03 -0.15852220037E+04  0.19088940172E+04  0.25500000920E-02 0.  1.
       -2    1    3    3    0  502  0.68135902476E+03  0.81651542983E+03  0.13258449577E+04  0.16996506758E+04  0.25500000920E-02 0. -1.
</event>
<event>
 5   0  0.8146881E-09  0.3601011E+04  0.7818609E-02  0.8090260E-01
        1   -1    0    0  501    0  0.00000000000E+00  0.00000000000E+00  0.29831634030E+04  0.29831634030E+04  0.50400001928E-02 0. -1.
       -1   -1    0    0    0  501  0.00000000000E+00  0.00000000000E+00 -0.10867057287E+04  0.10867057287E+04  0.50400001928E-02 0.  1.
    10030    2    1    2    0    0  0.00000000000E+00  0.00000000000E+00  0.18964576743E+04  0.40698691317E+04  0.36010113911E+04 0.  0.
        4    1    3    3  502    0 -0.62722670207E+03 -0.15885476998E+04  0.15924656228E+04  0.23351328662E+04  0.12699999809E+01 0.  1.
       -4    1    3    3    0  502  0.62722670207E+03  0.15885476998E+04  0.30399205151E+03  0.17347362654E+04  0.12699999809E+01 0. -1.
</event>
<event>
 5   0  0.8063410E-09  0.3598956E+04  0.7818609E-02  0.8090731E-01
       -1   -1    0    0    0  501  0.00000000000E+00  0.00000000000E+00  0.13615630493E+04  0.13615630493E+04  0.50400001928E-02 0. -1.
        1   -1    0    0  501    0  0.00000000000E+00  0.00000000000E+00 -0.23782378870E+04  0.23782378870E+04  0.50400001928E-02 0.  1.
    10030    2    1    2    0    0  0.00000000000E+00  0.00000000000E+00 -0.10166748378E+04  0.37398009363E+04  0.35989558649E+04 0.  0.
        2    1    3    3  502    0 -0.67620187261E+03 -0.39877388265E+03 -0.21909184528E+04  0.23273146003E+04  0.25500000920E-02 0.  1.
       -2    1    3    3    0  502  0.67620187261E+03  0.39877388265E+03  0.11742436150E+04  0.14124863360E+04  0.25500000920E-02 0. -1.
</event>
<event>
 5   0  0.8024500E-09  0.3599215E+04  0.7818609E-02  0.8090672E-01
        1   -1    0    0  501    0  0.00000000000E+00  0.00000000000E+00  0.25326944346E+04  0.25326944346E+04  0.50400001928E-02 0. -1.
       -1   -1    0    0    0  501  0.00000000000E+00  0.00000000000E+00 -0.12787121062E+04  0.12787121062E+04  0.50400001928E-02 0.  1.
    10030    2    1    2    0    0  0.00000000000E+00  0.00000000000E+00  0.12539823284E+04  0.38114065408E+04  0.35992149337E+04 0.  0.
        1    1    3    3  502    0 -0.49142160251E+02  0.17611131514E+04  0.23840727971E+03  0.17778561570E+04  0.50400001928E-02 0.  1.
       -1    1    3    3    0  502  0.49142160251E+02 -0.17611131514E+04  0.10155750487E+04  0.20335503838E+04  0.50400001928E-02 0. -1.
</event>
<event>
 5   0  0.8024500E-09  0.3600615E+04  0.7818609E-02  0.8090351E-01
       -1   -1    0    0    0  501  0.00000000000E+00  0.00000000000E+00  0.16465384366E+04  0.16465384366E+04  0.50400001928E-02 0. -1.
        1   -1    0    0  501    0  0.00000000000E+00  0.00000000000E+00 -0.19684368552E+04  0.19684368552E+04  0.50400001928E-02 0.  1.
    10030    2    1    2    0    0  0.00000000000E+00  0.00000000000E+00 -0.32189841856E+03  0.36149752919E+04  0.36006149154E+04 0.  0.
        5    1    3    3  502    0  0.14994807243E+04 -0.73112801601E+03  0.51857677720E+03  0.17469787011E+04  0.46999998093E+01 0. -1.
       -5    1    3    3    0  502 -0.14994807243E+04  0.73112801601E+03 -0.84047519576E+03  0.18679965907E+04  0.46999998093E+01 0.  1.
</event>
<event>
 5   0  0.2482243E-08  0.3601211E+04  0.7818609E-02  0.8090214E-01
       -2   -1    0    0    0  501  0.00000000000E+00  0.00000000000E+00  0.14592336179E+04  0.14592336179E+04  0.25500000920E-02 0.  1.
        2   -1    0    0  501    0  0.00000000000E+00  0.00000000000E+00 -0.22218379136E+04  0.22218379136E+04  0.25500000920E-02 0. -1.
    10030    2    1    2    0    0  0.00000000000E+00  0.00000000000E+00 -0.76260429572E+03  0.36810715315E+04  0.36012112279E+04 0.  0.
        5    1    3    3  502    0 -0.15465522248E+04  0.41754635148E+03 -0.12217208646E+04  0.20146445594E+04  0.46999998093E+01 0. -1.
       -5    1    3    3    0  502  0.15465522248E+04 -0.41754635148E+03  0.45911656893E+03  0.16664269721E+04  0.46999998093E+01 0.  1.
</event>
<event>
 5   0  0.2590795E-08  0.3599042E+04  0.7818609E-02  0.8090711E-01
        2   -1    0    0  501    0  0.00000000000E+00  0.00000000000E+00  0.22911307245E+04  0.22911307245E+04  0.25500000920E-02 0.  1.
       -2   -1    0    0    0  501  0.00000000000E+00  0.00000000000E+00 -0.14133963247E+04  0.14133963247E+04  0.25500000920E-02 0. -1.
    10030    2    1    2    0    0  0.00000000000E+00  0.00000000000E+00  0.87773439984E+03  0.37045270492E+04  0.35990419533E+04 0.  0.
        4    1    3    3  502    0  0.14394025706E+04 -0.16536589178E+03 -0.65967556495E+03  0.15919796175E+04  0.12699999809E+01 0. -1.
       -4    1    3    3    0  502 -0.14394025706E+04  0.16536589178E+03  0.15374099648E+04  0.21125474317E+04  0.12699999809E+01 0.  1.
</event>
<event>
 5   0  0.8024500E-09  0.3604125E+04  0.7818609E-02  0.8089547E-01
        1   -1    0    0  501    0  0.00000000000E+00  0.00000000000E+00  0.16750017188E+04  0.16750017188E+04  0.50400001928E-02 0.  1.
       -1   -1    0    0    0  501  0.00000000000E+00  0.00000000000E+00 -0.19387622426E+04  0.19387622426E+04  0.50400001928E-02 0. -1.
    10030    2    1    2    0    0  0.00000000000E+00  0.00000000000E+00 -0.26376052380E+03  0.36137639614E+04  0.36041254633E+04 0.  0.
        5    1    3    3  502    0 -0.90827534609E+03 -0.15445549532E+04 -0.32421057584E+03  0.18209197388E+04  0.46999998093E+01 0. -1.
       -5    1    3    3    0  502  0.90827534609E+03  0.15445549532E+04  0.60450052040E+02  0.17928442226E+04  0.46999998093E+01 0.  1.
</event>
<event>
 5   0  0.2494592E-08  0.3601060E+04  0.7818609E-02  0.8090249E-01
        2   -1    0    0  501    0  0.00000000000E+00  0.00000000000E+00  0.19401777168E+04  0.19401777168E+04  0.25500000920E-02 0. -1.
       -2   -1    0    0    0  501  0.00000000000E+00  0.00000000000E+00 -0.16709334754E+04  0.16709334754E+04  0.25500000920E-02 0.  1.
    10030    2    1    2    0    0  0.00000000000E+00  0.00000000000E+00  0.26924424141E+03  0.36111111921E+04  0.36010597857E+04 0.  0.
        1    1    3    3  502    0  0.16318503056E+04  0.62683577729E+02  0.89505481773E+03  0.18622534139E+04  0.50400001928E-02 0.  1.
       -1    1    3    3    0  502 -0.16318503056E+04 -0.62683577729E+02 -0.62581057632E+03  0.17488577782E+04  0.50400001928E-02 0. -1.
</event>
<event>
 5   0  0.2590795E-08  0.3599628E+04  0.7818609E-02  0.8090577E-01
        2   -1    0    0  501    0  0.00000000000E+00  0.00000000000E+00  0.20210179212E+04  0.20210179212E+04  0.25500000920E-02 0. -1.
       -2   -1    0    0    0  501  0.00000000000E+00  0.00000000000E+00 -0.16028213674E+04  0.16028213674E+04  0.25500000920E-02 0.  1.
    10030    2    1    2    0    0  0.00000000000E+00  0.00000000000E+00  0.41819655385E+03  0.36238392886E+04  0.35996281519E+04 0.  0.
        4    1    3    3  502    0  0.13353074855E+04  0.34423620372E+03 -0.95530752648E+03  0.16775454473E+04  0.12699999809E+01 0.  1.
       -4    1    3    3    0  502 -0.13353074855E+04 -0.34423620372E+03  0.13735040803E+04  0.19462938412E+04  0.12699999809E+01 0. -1.
</event>
<event>
 5   0  0.2590795E-08  0.3601075E+04  0.7818609E-02  0.8090245E-01
       -2   -1    0    0    0  501  0.00000000000E+00  0.00000000000E+00  0.21509695032E+04  0.21509695032E+04  0.25500000920E-02 0.  1.
        2   -1    0    0  501    0  0.00000000000E+00  0.00000000000E+00 -0.15071975038E+04  0.15071975038E+04  0.25500000920E-02 0. -1.
    10030    2    1    2    0    0  0.00000000000E+00  0.00000000000E+00  0.64377199937E+03  0.36581670070E+04  0.36010753205E+04 0.  0.
        4    1    3    3  502    0 -0.94056764015E+03  0.10706078341E+04 -0.79604542281E+03  0.16323475575E+04  0.12699999809E+01 0. -1.
       -4    1    3    3    0  502  0.94056764015E+03 -0.10706078341E+04  0.14398174222E+04  0.20258194496E+04  0.12699999809E+01 0.  1.
</event>
<event>
 5   0  0.8024500E-09  0.3600768E+04  0.7818609E-02  0.8090316E-01
        1   -1    0    0  501    0  0.00000000000E+00  0.00000000000E+00  0.17233250846E+04  0.17233250847E+04  0.50400001928E-02 0.  1.
       -1   -1    0    0    0  501  0.00000000000E+00  0.00000000000E+00 -0.18808888833E+04  0.18808888833E+04  0.50400001928E-02 0. -1.
    10030    2    1    2    0    0  0.00000000000E+00  0.00000000000E+00 -0.15756379863E+03  0.36042139679E+04  0.36007682480E+04 0.  0.
        1    1    3    3  502    0 -0.66202405670E+03  0.15959356963E+04  0.42776204534E+03  0.17799626305E+04  0.50400001928E-02 0.  1.
       -1    1    3    3    0  502  0.66202405670E+03 -0.15959356963E+04 -0.58532584397E+03  0.18242513374E+04  0.50400001928E-02 0. -1.
</event>
<event>
 5   0  0.8024500E-09  0.3613543E+04  0.7818609E-02  0.8087397E-01
       -1   -1    0    0    0  501  0.00000000000E+00  0.00000000000E+00  0.16630005881E+04  0.16630005881E+04  0.50400001928E-02 0.  1.
        1   -1    0    0  501    0  0.00000000000E+00  0.00000000000E+00 -0.19629713045E+04  0.19629713045E+04  0.50400001928E-02 0. -1.
    10030    2    1    2    0    0  0.00000000000E+00  0.00000000000E+00 -0.29997071637E+03  0.36259718926E+04  0.36135425465E+04 0.  0.
        5    1    3    3  502    0 -0.95536808619E+03  0.12938740463E+04  0.67598758007E+03  0.17446545578E+04  0.46999998093E+01 0.  1.
       -5    1    3    3    0  502  0.95536808619E+03 -0.12938740463E+04 -0.97595829643E+03  0.18813173348E+04  0.46999998093E+01 0. -1.
</event>
<event>
 5   0  0.8247570E-09  0.3600228E+04  0.7818609E-02  0.8090439E-01
        1   -1    0    0  501    0  0.00000000000E+00  0.00000000000E+00  0.15772074888E+04  0.15772074888E+04  0.50400001928E-02 0.  1.
       -1   -1    0    0    0  501  0.00000000000E+00  0.00000000000E+00 -0.20545243122E+04  0.20545243122E+04  0.50400001928E-02 0. -1.
    10030    2    1    2    0    0  0.00000000000E+00  0.00000000000E+00 -0.47731682337E+03  0.36317318010E+04  0.36002283990E+04 0.  0.
        3    1    3    3  502    0  0.18084011069E+03 -0.44539830416E+03 -0.19885796500E+04  0.20458572359E+04  0.10100000352E+00 0. -1.
       -3    1    3    3    0  502 -0.18084011069E+03  0.44539830416E+03  0.15112628266E+04  0.15858745651E+04  0.10100000352E+00 0.  1.
</event>
<event>
 5   0  0.2590795E-08  0.3593108E+04  0.7818609E-02  0.8092072E-01
       -2   -1    0    0    0  501  0.00000000000E+00  0.00000000000E+00  0.14936201862E+04  0.14936201862E+04  0.25500000920E-02 0.  1.
        2   -1    0    0  501    0  0.00000000000E+00  0.00000000000E+00 -0.21609286914E+04  0.21609286914E+04  0.25500000920E-02 0. -1.
    10030    2    1    2    0    0  0.00000000000E+00  0.00000000000E+00 -0.66730850521E+03  0.36545488776E+04  0.35931082446E+04 0.  0.
        4    1    3    3  502    0  0.10375633664E+04  0.14557013049E+04 -0.51560160674E+03  0.18604974223E+04  0.12699999809E+01 0. -1.
       -4    1    3    3    0  502 -0.10375633664E+04 -0.14557013049E+04 -0.15170689848E+03  0.17940514553E+04  0.12699999809E+01 0.  1.
</event>
<event>
 5   0  0.8146881E-09  0.3597485E+04  0.7818609E-02  0.8091068E-01
        1   -1    0    0  501    0  0.00000000000E+00  0.00000000000E+00  0.27549334281E+04  0.27549334281E+04  0.50400001928E-02 0.  1.
       -1   -1    0    0    0  501  0.00000000000E+00  0.00000000000E+00 -0.11744293257E+04  0.11744293257E+04  0.50400001928E-02 0. -1.
    10030    2    1    2    0    0  0.00000000000E+00  0.00000000000E+00  0.15805041024E+04  0.39293627538E+04  0.35974850151E+04 0.  0.
        4    1    3    3  502    0  0.17101523289E+04  0.47117408417E+03  0.46468196822E+03  0.18337276106E+04  0.12699999809E+01 0. -1.
       -4    1    3    3    0  502 -0.17101523289E+04 -0.47117408417E+03  0.11158221342E+04  0.20956351432E+04  0.12699999809E+01 0.  1.
</event>
<event>
 5   0  0.2494592E-08  0.3604311E+04  0.7818609E-02  0.8089505E-01
        2   -1    0    0  501    0  0.00000000000E+00  0.00000000000E+00  0.18975118894E+04  0.18975118894E+04  0.25500000920E-02 0. -1.
       -2   -1    0    0    0  501  0.00000000000E+00  0.00000000000E+00 -0.17115907430E+04  0.17115907430E+04  0.25500000920E-02 0.  1.
    10030    2    1    2    0    0  0.00000000000E+00  0.00000000000E+00  0.18592114636E+03  0.36091026324E+04  0.36043106329E+04 0.  0.
        1    1    3    3  502    0 -0.22889135098E+03  0.26071876031E+03  0.18637569085E+04  0.18957730182E+04  0.50400001928E-02 0. -1.
       -1    1    3    3    0  502  0.22889135098E+03 -0.26071876031E+03 -0.16778357621E+04  0.17133296143E+04  0.50400001928E-02 0.  1.
</event>
<event>
 5   0  0.8024500E-09  0.3599513E+04  0.7818609E-02  0.8090603E-01
       -1   -1    0    0    0  501  0.00000000000E+00  0.00000000000E+00  0.24228381987E+04  0.24228381987E+04  0.50400001928E-02 0.  1.
        1   -1    0    0  501    0  0.00000000000E+00  0.00000000000E+00 -0.13369131354E+04  0.13369131355E+04  0.50400001928E-02 0. -1.
    10030    2    1    2    0    0  0.00000000000E+00  0.00000000000E+00  0.10859250632E+04  0.37597513341E+04  0.35995134187E+04 0.  0.
        5    1    3    3  502    0 -0.52162510436E+03  0.45502625606E+03 -0.11923062628E+04  0.13786797879E+04  0.46999998093E+01 0. -1.
       -5    1    3    3    0  502  0.52162510436E+03 -0.45502625606E+03  0.22782313261E+04  0.23810715462E+04  0.46999998093E+01 0.  1.
</event>
<event>
 5   0  0.2608070E-08  0.3600229E+04  0.7818609E-02  0.8090439E-01
        2   -1    0    0  501    0  0.00000000000E+00  0.00000000000E+00  0.22976366211E+04  0.22976366211E+04  0.25500000920E-02 0. -1.
       -2   -1    0    0    0  501  0.00000000000E+00  0.00000000000E+00 -0.14103240630E+04  0.14103240630E+04  0.25500000920E-02 0.  1.
    10030    2    1    2    0    0  0.00000000000E+00  0.00000000000E+00  0.88731255809E+03  0.37079606842E+04  0.36002290010E+04 0.  0.
        3    1    3    3  502    0 -0.82374395225E+03 -0.80627978593E+03  0.18676987134E+04  0.21947527620E+04  0.10100000352E+00 0. -1.
       -3    1    3    3    0  502  0.82374395225E+03  0.80627978593E+03 -0.98038615530E+03  0.15132079222E+04  0.10100000352E+00 0.  1.
</event>
<event>
 5   0  0.2494592E-08  0.3601870E+04  0.7818609E-02  0.8090064E-01
       -2   -1    0    0    0  501  0.00000000000E+00  0.00000000000E+00  0.14949382537E+04  0.14949382537E+04  0.25500000920E-02 0.  1.
        2   -1    0    0  501    0  0.00000000000E+00  0.00000000000E+00 -0.21695655316E+04  0.21695655316E+04  0.25500000920E-02 0. -1.
    10030    2    1    2    0    0  0.00000000000E+00  0.00000000000E+00 -0.67462727792E+03  0.36645037854E+04  0.36018697962E+04 0.  0.
        1    1    3    3  502    0  0.75050527321E+03  0.16274109484E+04 -0.51828871381E+03  0.18655690154E+04  0.50400001928E-02 0. -1.
       -1    1    3    3    0  502 -0.75050527321E+03 -0.16274109484E+04 -0.15633856410E+03  0.17989347700E+04  0.50400001928E-02 0.  1.
</event>
<event>
 5   0  0.8024500E-09  0.3600639E+04  0.7818609E-02  0.8090345E-01
        1   -1    0    0  501    0  0.00000000000E+00  0.00000000000E+00  0.26019945290E+04  0.26019945290E+04  0.50400001928E-02 0.  1.
       -1   -1    0    0    0  501  0.00000000000E+00  0.00000000000E+00 -0.12456404598E+04  0.12456404598E+04  0.50400001928E-02 0. -1.
    10030    2    1    2    0    0  0.00000000000E+00  0.00000000000E+00  0.13563540692E+04  0.38476349889E+04  0.36006386442E+04 0.  0.
        5    1    3    3  502    0 -0.28372561688E+03 -0.88820342465E+03  0.23238601760E+04  0.25039476346E+04  0.46999998093E+01 0.  1.
       -5    1    3    3    0  502  0.28372561688E+03  0.88820342465E+03 -0.96750610680E+03  0.13436873542E+04  0.46999998093E+01 0. -1.
</event>
<event>
 5   0  0.8063410E-09  0.3600766E+04  0.7818609E-02  0.8090316E-01
        1   -1    0    0  501    0  0.00000000000E+00  0.00000000000E+00  0.23482219381E+04  0.23482219381E+04  0.50400001928E-02 0. -1.
       -1   -1    0    0    0  501  0.00000000000E+00  0.00000000000E+00 -0.13803546541E+04  0.13803546541E+04  0.50400001928E-02 0.  1.
    10030    2    1    2    0    0  0.00000000000E+00  0.00000000000E+00  0.96786728399E+03  0.37285765923E+04  0.36007660747E+04 0.  0.
        2    1    3    3  502    0  0.16977793077E+04  0.57924118824E+03  0.64234801828E+03  0.19054096432E+04  0.25500000920E-02 0.  1.
       -2    1    3    3    0  502 -0.16977793077E+04 -0.57924118824E+03  0.32551926571E+03  0.18231669491E+04  0.25500000920E-02 0. -1.
</event>
<event>
 5   0  0.2476968E-08  0.3595792E+04  0.7818609E-02  0.8091456E-01
        2   -1    0    0  501    0  0.00000000000E+00  0.00000000000E+00  0.20776402936E+04  0.20776402936E+04  0.25500000920E-02 0.  1.
       -2   -1    0    0    0  501  0.00000000000E+00  0.00000000000E+00 -0.15558176746E+04  0.15558176746E+04  0.25500000920E-02 0. -1.
    10030    2    1    2    0    0  0.00000000000E+00  0.00000000000E+00  0.52182261893E+03  0.36334579682E+04  0.35957917016E+04 0.  0.
        2    1    3    3  502    0 -0.15649153518E+04  0.88513168150E+03  0.25750876204E+03  0.18162403239E+04  0.25500000920E-02 0.  1.
       -2    1    3    3    0  502  0.15649153518E+04 -0.88513168150E+03  0.26431385689E+03  0.18172176443E+04  0.25500000920E-02 0. -1.
</event>
<event>
 5   0  0.2476968E-08  0.3599064E+04  0.7818609E-02  0.8090706E-01
        2   -1    0    0  501    0  0.00000000000E+00  0.00000000000E+00  0.17465469444E+04  0.17465469444E+04  0.25500000920E-02 0.  1.
       -2   -1    0    0    0  501  0.00000000000E+00  0.00000000000E+00 -0.18541244654E+04  0.18541244654E+04  0.25500000920E-02 0. -1.
    10030    2    1    2    0    0  0.00000000000E+00  0.00000000000E+00 -0.10757752102E+03  0.36006714097E+04  0.35990640002E+04 0.  0.
        2    1    3    3  502    0 -0.15214131612E+03  0.67216642584E+03 -0.17168671183E+04  0.18500236177E+04  0.25500000920E-02 0. -1.
       -2    1    3    3    0  502  0.15214131612E+03 -0.67216642584E+03  0.16092895972E+04  0.17506477921E+04  0.25500000920E-02 0.  1.
</event>
<event>
 5   0  0.8247570E-09  0.3599332E+04  0.7818609E-02  0.8090645E-01
        1   -1    0    0  501    0  0.00000000000E+00  0.00000000000E+00  0.14607111047E+04  0.14607111048E+04  0.50400001928E-02 0. -1.
       -1   -1    0    0    0  501  0.00000000000E+00  0.00000000000E+00 -0.22172748974E+04  0.22172748974E+04  0.50400001928E-02 0.  1.
    10030    2    1    2    0    0  0.00000000000E+00  0.00000000000E+00 -0.75656379266E+03  0.36779860022E+04  0.35993321964E+04 0.  0.
        3    1    3    3  502    0  0.11905678377E+04 -0.13477416608E+04 -0.45009343185E+03  0.18537646744E+04  0.10100000352E+00 0. -1.
       -3    1    3    3    0  502 -0.11905678377E+04  0.13477416608E+04 -0.30647036082E+03  0.18242213278E+04  0.10100000352E+00 0.  1.
</event>
<event>
 5   0  0.8063410E-09  0.3600428E+04  0.7818609E-02  0.8090394E-01
        1   -1    0    0  501    0  0.00000000000E+00  0.00000000000E+00  0.18394804542E+04  0.18394804542E+04  0.50400001928E-02 0.  1.
       -1   -1    0    0    0  501  0.00000000000E+00  0.00000000000E+00 -0.17617854776E+04  0.17617854776E+04  0.50400001928E-02 0. -1.
    10030    2    1    2    0    0  0.00000000000E+00  0.00000000000E+00  0.77694976613E+02  0.36012659318E+04  0.36004277248E+04 0.  0.
        2    1    3    3  502    0  0.94975637035E+03  0.78714304706E+03 -0.12726170217E+04  0.17723389697E+04  0.25500000920E-02 0. -1.
       -2    1    3    3    0  502 -0.94975637035E+03 -0.78714304706E+03  0.13503119984E+04  0.18289269620E+04  0.25500000920E-02 0.  1.
</event>
<event>
 5   0  0.2494592E-08  0.3599881E+04  0.7818609E-02  0.8090519E-01
       -2   -1    0    0    0  501  0.00000000000E+00  0.00000000000E+00  0.17916293264E+04  0.17916293264E+04  0.25500000920E-02 0.  1.
        2   -1    0    0  501    0  0.00000000000E+00  0.00000000000E+00 -0.18082902046E+04  0.18082902046E+04  0.25500000920E-02 0. -1.
    10030    2    1    2    0    0  0.00000000000E+00  0.00000000000E+00 -0.16660878185E+02  0.35999195309E+04  0.35998809764E+04 0.  0.
        1    1    3    3  502    0 -0.46286973374E+03  0.41100502046E+03  0.16818392070E+04  0.17921374488E+04  0.50400001928E-02 0.  1.
       -1    1    3    3    0  502  0.46286973374E+03 -0.41100502046E+03 -0.16985000851E+04  0.18077820821E+04  0.50400001928E-02 0. -1.
</event>
<event>
 5   0  0.8146881E-09  0.3599682E+04  0.7818609E-02  0.8090565E-01
       -1   -1    0    0    0  501  0.00000000000E+00  0.00000000000E+00  0.16892316663E+04  0.16892316663E+04  0.50400001928E-02 0. -1.
        1   -1    0    0  501    0  0.00000000000E+00  0.00000000000E+00 -0.19176926901E+04  0.19176926901E+04  0.50400001928E-02 0.  1.
    10030    2    1    2    0    0  0.00000000000E+00  0.00000000000E+00 -0.22846102374E+03  0.36069243564E+04  0.35996817739E+04 0.  0.
        4    1    3    3  502    0  0.64816576377E+03 -0.14910280189E+04  0.65942541420E+03  0.17544591475E+04  0.12699999809E+01 0. -1.
       -4    1    3    3    0  502 -0.64816576377E+03  0.14910280189E+04 -0.88788643794E+03  0.18524652089E+04  0.12699999809E+01 0.  1.
</event>
<event>
 5   0  0.2494592E-08  0.3622303E+04  0.7818609E-02  0.8085402E-01
        2   -1    0    0  501    0  0.00000000000E+00  0.00000000000E+00  0.17347404062E+04  0.17347404062E+04  0.25500000920E-02 0.  1.
       -2   -1    0    0    0  501  0.00000000000E+00  0.00000000000E+00 -0.18909284859E+04  0.18909284859E+04  0.25500000920E-02 0. -1.
    10030    2    1    2    0    0  0.00000000000E+00  0.00000000000E+00 -0.15618807965E+03  0.36256688921E+04  0.36223031622E+04 0.  0.
        1    1    3    3  502    0 -0.54603901142E+02 -0.10796727716E+04 -0.15325771261E+04  0.18754912762E+04  0.50400001928E-02 0. -1.
       -1    1    3    3    0  502  0.54603901142E+02  0.10796727716E+04  0.13763890465E+04  0.17501776158E+04  0.50400001928E-02 0.  1.
</event>
<event>
 5   0  0.8024500E-09  0.3594686E+04  0.7818609E-02  0.8091710E-01
        1   -1    0    0  501    0  0.00000000000E+00  0.00000000000E+00  0.22485430287E+04  0.22485430287E+04  0.50400001928E-02 0.  1.
       -1   -1    0    0    0  501  0.00000000000E+00  0.00000000000E+00 -0.14366823701E+04  0.14366823701E+04  0.50400001928E-02 0. -1.
    10030    2    1    2    0    0  0.00000000000E+00  0.00000000000E+00  0.81186065863E+03  0.36852253988E+04  0.35946861491E+04 0.  0.
        1    1    3    3  502    0  0.10634543934E+04  0.25458299046E+03  0.18682848445E+04  0.21647715829E+04  0.50400001928E-02 0.  1.
       -1    1    3    3    0  502 -0.10634543934E+04 -0.25458299046E+03 -0.10564241858E+04  0.15204538159E+04  0.50400001928E-02 0. -1.
</event>
<event>
 5   0  0.2590795E-08  0.3599572E+04  0.7818609E-02  0.8090590E-01
       -2   -1    0    0    0  501  0.00000000000E+00  0.00000000000E+00  0.12733142416E+04  0.12733142416E+04  0.25500000920E-02 0. -1.
        2   -1    0    0  501    0  0.00000000000E+00  0.00000000000E+00 -0.25439359685E+04  0.25439359685E+04  0.25500000920E-02 0.  1.
    10030    2    1    2    0    0  0.00000000000E+00  0.00000000000E+00 -0.12706217269E+04  0.38172502101E+04  0.35995721403E+04 0.  0.
        4    1    3    3  502    0  0.38484977364E+03  0.81563938396E+03  0.10163916768E+04  0.13588342822E+04  0.12699999809E+01 0. -1.
       -4    1    3    3    0  502 -0.38484977364E+03 -0.81563938396E+03 -0.22870134037E+04  0.24584159279E+04  0.12699999809E+01 0.  1.
</event>
<event>
 5   0  0.2608070E-08  0.3600395E+04  0.7818609E-02  0.8090401E-01
        2   -1    0    0  501    0  0.00000000000E+00  0.00000000000E+00  0.23316897200E+04  0.23316897200E+04  0.25500000920E-02 0. -1.
       -2   -1    0    0    0  501  0.00000000000E+00  0.00000000000E+00 -0.13898551592E+04  0.13898551592E+04  0.25500000920E-02 0.  1.
    10030    2    1    2    0    0  0.00000000000E+00  0.00000000000E+00  0.94183456077E+03  0.37215448792E+04  0.36003949711E+04 0.  0.
        3    1    3    3  502    0 -0.48831930512E+03 -0.17238485866E+04  0.29009874976E+03  0.18150115669E+04  0.10100000352E+00 0. -1.
       -3    1    3    3    0  502  0.48831930512E+03  0.17238485866E+04  0.65173581102E+03  0.19065333123E+04  0.10100000352E+00 0.  1.
</event>
<event>
 5   0  0.2476968E-08  0.3598198E+04  0.7818609E-02  0.8090905E-01
        2   -1    0    0  501    0  0.00000000000E+00  0.00000000000E+00  0.26038688646E+04  0.26038688646E+04  0.25500000920E-02 0. -1.
       -2   -1    0    0    0  501  0.00000000000E+00  0.00000000000E+00 -0.12430570579E+04  0.12430570579E+04  0.25500000920E-02 0.  1.
    10030    2    1    2    0    0  0.00000000000E+00  0.00000000000E+00  0.13608118067E+04  0.38469259225E+04  0.35981981990E+04 0.  0.
        2    1    3    3  502    0 -0.69066987322E+03  0.63717865522E+03  0.23206467462E+04  0.25036818554E+04  0.25500000920E-02 0. -1.
       -2    1    3    3    0  502  0.69066987322E+03 -0.63717865522E+03 -0.95983493951E+03  0.13432440670E+04  0.25500000920E-02 0.  1.
</event>
<event>
 5   0  0.2494592E-08  0.3600381E+04  0.7818609E-02  0.8090404E-01
        2   -1    0    0  501    0  0.00000000000E+00  0.00000000000E+00  0.21971654532E+04  0.21971654532E+04  0.25500000920E-02 0. -1.
       -2   -1    0    0    0  501  0.00000000000E+00  0.00000000000E+00 -0.14749391291E+04  0.14749391291E+04  0.25500000920E-02 0.  1.
    10030    2    1    2    0    0  0.00000000000E+00  0.00000000000E+00  0.72222632404E+03  0.36721045823E+04  0.36003807022E+04 0.  0.
        1    1    3    3  502    0  0.63977414990E+03 -0.59651106260E+03 -0.12436183099E+04  0.15204351060E+04  0.50400001928E-02 0.  1.
       -1    1    3    3    0  502 -0.63977414990E+03  0.59651106260E+03  0.19658446339E+04  0.21516694764E+04  0.50400001928E-02 0. -1.
</event>
<event>
 5   0  0.8146881E-09  0.3597868E+04  0.7818609E-02  0.8090980E-01
        1   -1    0    0  501    0  0.00000000000E+00  0.00000000000E+00  0.21057379015E+04  0.21057379015E+04  0.50400001928E-02 0.  1.
       -1   -1    0    0    0  501  0.00000000000E+00  0.00000000000E+00 -0.15368313360E+04  0.15368313360E+04  0.50400001928E-02 0. -1.
    10030    2    1    2    0    0  0.00000000000E+00  0.00000000000E+00  0.56890656554E+03  0.36425692375E+04  0.35978682535E+04 0.  0.
        4    1    3    3  502    0 -0.11338681981E+04  0.12102080056E+04  0.99018046510E+03  0.19315070473E+04  0.12699999809E+01 0.  1.
       -4    1    3    3    0  502  0.11338681981E+04 -0.12102080056E+04 -0.42127389957E+03  0.17110621902E+04  0.12699999809E+01 0. -1.
</event>
<event>
 5   0  0.2476968E-08  0.3588308E+04  0.7818609E-02  0.8093175E-01
        2   -1    0    0  501    0  0.00000000000E+00  0.00000000000E+00  0.15022287371E+04  0.15022287371E+04  0.25500000920E-02 0.  1.
       -2   -1    0    0    0  501  0.00000000000E+00  0.00000000000E+00 -0.21428083761E+04  0.21428083761E+04  0.25500000920E-02 0. -1.
    10030    2    1    2    0    0  0.00000000000E+00  0.00000000000E+00 -0.64057963901E+03  0.36450371131E+04  0.35883078578E+04 0.  0.
        2    1    3    3  502    0  0.11088571370E+04 -0.65508348141E+03 -0.15891532869E+04  0.20455089066E+04  0.25500000920E-02 0. -1.
       -2    1    3    3    0  502 -0.11088571370E+04  0.65508348141E+03  0.94857364786E+03  0.15995282065E+04  0.25500000920E-02 0.  1.
</event>
<event>
 5   0  0.8024500E-09  0.3599897E+04  0.7818609E-02  0.8090515E-01
        1   -1    0    0  501    0  0.00000000000E+00  0.00000000000E+00  0.10548769393E+04  0.10548769393E+04  0.50400001928E-02 0.  1.
       -1   -1    0    0    0  501  0.00000000000E+00  0.00000000000E+00 -0.30712724674E+04  0.30712724674E+04  0.50400001928E-02 0. -1.
    10030    2    1    2    0    0  0.00000000000E+00  0.00000000000E+00 -0.20163955282E+04  0.41261494067E+04  0.35998969430E+04 0.  0.
        5    1    3    3  502    0  0.16102514909E+04 -0.49745105646E+03 -0.28380767558E+03  0.17090746924E+04  0.46999998093E+01 0.  1.
       -5    1    3    3    0  502 -0.16102514909E+04  0.49745105646E+03 -0.17325878526E+04  0.24170747143E+04  0.46999998093E+01 0. -1.
</event>
<event>
 5   0  0.8146881E-09  0.3598136E+04  0.7818609E-02  0.8090919E-01
       -1   -1    0    0    0  501  0.00000000000E+00  0.00000000000E+00  0.18186909431E+04  0.18186909431E+04  0.50400001928E-02 0.  1.
        1   -1    0    0  501    0  0.00000000000E+00  0.00000000000E+00 -0.17796570376E+04  0.17796570376E+04  0.50400001928E-02 0. -1.
    10030    2    1    2    0    0  0.00000000000E+00  0.00000000000E+00  0.39033905502E+02  0.35983479807E+04  0.35981362598E+04 0.  0.
        4    1    3    3  502    0 -0.14808752305E+04 -0.91065300367E+03 -0.44350508746E+03  0.17941512525E+04  0.12699999809E+01 0.  1.
       -4    1    3    3    0  502  0.14808752305E+04  0.91065300367E+03  0.48253899297E+03  0.18041967282E+04  0.12699999809E+01 0. -1.
</event>
<event>
 5   0  0.8063410E-09  0.3599099E+04  0.7818609E-02  0.8090698E-01
       -1   -1    0    0    0  501  0.00000000000E+00  0.00000000000E+00  0.16163291410E+04  0.16163291410E+04  0.50400001928E-02 0.  1.
        1   -1    0    0  501    0  0.00000000000E+00  0.00000000000E+00 -0.20035388824E+04  0.20035388824E+04  0.50400001928E-02 0. -1.
    10030    2    1    2    0    0  0.00000000000E+00  0.00000000000E+00 -0.38720974144E+03  0.36198680234E+04  0.35990989321E+04 0.  0.
        2    1    3    3  502    0 -0.88431103873E+03 -0.12761780596E+04  0.72144845346E+03  0.17120526639E+04  0.25500000920E-02 0.  1.
       -2    1    3    3    0  502  0.88431103873E+03  0.12761780596E+04 -0.11086581949E+04  0.19078153595E+04  0.25500000920E-02 0. -1.
</event>
<event>
 5   0  0.8024500E-09  0.3599482E+04  0.7818609E-02  0.8090610E-01
       -1   -1    0    0    0  501  0.00000000000E+00  0.00000000000E+00  0.21068683726E+04  0.21068683726E+04  0.50400001928E-02 0. -1.
        1   -1    0    0  501    0  0.00000000000E+00  0.00000000000E+00 -0.15373848195E+04  0.15373848195E+04  0.50400001928E-02 0.  1.
    10030    2    1    2    0    0  0.00000000000E+00  0.00000000000E+00  0.56948355307E+03  0.36442531921E+04  0.35994818808E+04 0.  0.
        5    1    3    3  502    0 -0.11666540969E+04  0.47419683493E+03 -0.10169802028E+04  0.16187078930E+04  0.46999998093E+01 0.  1.
       -5    1    3    3    0  502  0.11666540969E+04 -0.47419683493E+03  0.15864637558E+04  0.20255452991E+04  0.46999998093E+01 0. -1.
</event>
<event>
 5   0  0.2494592E-08  0.3601058E+04  0.7818609E-02  0.8090249E-01
        2   -1    0    0  501    0  0.00000000000E+00  0.00000000000E+00  0.22183326535E+04  0.22183326535E+04  0.25500000920E-02 0. -1.
       -2   -1    0    0    0  501  0.00000000000E+00  0.00000000000E+00 -0.14614148122E+04  0.14614148122E+04  0.25500000920E-02 0.  1.
    10030    2    1    2    0    0  0.00000000000E+00  0.00000000000E+00  0.75691784126E+03  0.36797474658E+04  0.36010577326E+04 0.  0.
        1    1    3    3  502    0  0.11655899011E+04  0.13517500250E+04  0.62043777395E+03  0.18896483745E+04  0.50400001928E-02 0.  1.
       -1    1    3    3    0  502 -0.11655899011E+04 -0.13517500250E+04  0.13648006731E+03  0.17900990913E+04  0.50400001928E-02 0. -1.
</event>
<event>
 5   0  0.2590795E-08  0.3601007E+04  0.7818609E-02  0.8090261E-01
        2   -1    0    0  501    0  0.00000000000E+00  0.00000000000E+00  0.27043851504E+04  0.27043851504E+04  0.25500000920E-02 0.  1.
       -2   -1    0    0    0  501  0.00000000000E+00  0.00000000000E+00 -0.11987247396E+04  0.11987247396E+04  0.25500000920E-02 0. -1.
    10030    2    1    2    0    0  0.00000000000E+00  0.00000000000E+00  0.15056604108E+04  0.39031098900E+04  0.36010072953E+04 0.  0.
        4    1    3    3  502    0  0.97090952761E+03  0.49117480876E+03  0.23077151327E+04  0.25513660557E+04  0.12699999809E+01 0.  1.
       -4    1    3    3    0  502 -0.97090952761E+03 -0.49117480876E+03 -0.80205472199E+03  0.13517438343E+04  0.12699999809E+01 0. -1.
</event>
<event>
 5   0  0.2482243E-08  0.3600511E+04  0.7818609E-02  0.8090375E-01
       -2   -1    0    0    0  501  0.00000000000E+00  0.00000000000E+00  0.15082596822E+04  0.15082596822E+04  0.25500000920E-02 0. -1.
        2   -1    0    0  501    0  0.00000000000E+00  0.00000000000E+00 -0.21487808944E+04  0.21487808944E+04  0.25500000920E-02 0.  1.
    10030    2    1    2    0    0  0.00000000000E+00  0.00000000000E+00 -0.64052121219E+03  0.36570405766E+04  0.36005108465E+04 0.  0.
        5    1    3    3  502    0  0.28197890572E+03  0.17440105413E+04  0.31313557155E+02  0.17669429816E+04  0.46999998093E+01 0. -1.
       -5    1    3    3    0  502 -0.28197890572E+03 -0.17440105413E+04 -0.67183476935E+03  0.18900975950E+04  0.46999998093E+01 0.  1.
</event>
<event>
 5   0  0.8063410E-09  0.3599667E+04  0.7818609E-02  0.8090568E-01
        1   -1    0    0  501    0  0.00000000000E+00  0.00000000000E+00  0.19586879517E+04  0.19586879518E+04  0.50400001928E-02 0.  1.
       -1   -1    0    0    0  501  0.00000000000E+00  0.00000000000E+00 -0.16538621034E+04  0.16538621034E+04  0.50400001928E-02 0. -1.
    10030    2    1    2    0    0  0.00000000000E+00  0.00000000000E+00  0.30482584834E+03  0.36125500552E+04  0.35996665267E+04 0.  0.
        2    1    3    3  502    0 -0.11030598893E+04 -0.11878196169E+04 -0.63252657529E+03  0.17400420771E+04  0.25500000920E-02 0. -1.
       -2    1    3    3    0  502  0.11030598893E+04  0.11878196169E+04  0.93735242363E+03  0.18725079780E+04  0.25500000920E-02 0.  1.
</event>
<event>
 5   0  0.8063410E-09  0.3602570E+04  0.7818609E-02  0.8089903E-01
        1   -1    0    0  501    0  0.00000000000E+00  0.00000000000E+00  0.17909941068E+04  0.17909941068E+04  0.50400001928E-02 0. -1.
       -1   -1    0    0    0  501  0.00000000000E+00  0.00000000000E+00 -0.18116347677E+04  0.18116347677E+04  0.50400001928E-02 0.  1.
    10030    2    1    2    0    0  0.00000000000E+00  0.00000000000E+00 -0.20640660839E+02  0.36026288745E+04  0.36025697454E+04 0.  0.
        2    1    3    3  502    0  0.14884830017E+04 -0.91905044977E+03  0.41909540064E+03  0.17988541715E+04  0.25500000920E-02 0.  1.
       -2    1    3    3    0  502 -0.14884830017E+04  0.91905044977E+03 -0.43973606148E+03  0.18037747030E+04  0.25500000920E-02 0. -1.
</event>
<event>
 5   0  0.8146881E-09  0.3599847E+04  0.7818609E-02  0.8090527E-01
       -1   -1    0    0    0  501  0.00000000000E+00  0.00000000000E+00  0.23838960683E+04  0.23838960683E+04  0.50400001928E-02 0. -1.
        1   -1    0    0  501    0  0.00000000000E+00  0.00000000000E+00 -0.13590043466E+04  0.13590043466E+04  0.50400001928E-02 0.  1.
    10030    2    1    2    0    0  0.00000000000E+00  0.00000000000E+00  0.10248917217E+04  0.37429004149E+04  0.35998472849E+04 0.  0.
        4    1    3    3  502    0  0.13334469789E+04  0.76198750039E+03  0.14883710200E+04  0.21386808323E+04  0.12699999809E+01 0. -1.
       -4    1    3    3    0  502 -0.13334469789E+04 -0.76198750039E+03 -0.46347929833E+03  0.16042195826E+04  0.12699999809E+01 0.  1.
</event>
<event>
 5   0  0.8247570E-09  0.3603019E+04  0.7818609E-02  0.8089800E-01
       -1   -1    0    0    0  501  0.00000000000E+00  0.00000000000E+00  0.11791833166E+04  0.11791833166E+04  0.50400001928E-02 0. -1.
        1   -1    0    0  501    0  0.00000000000E+00  0.00000000000E+00 -0.27522748321E+04  0.27522748321E+04  0.50400001928E-02 0.  1.
    10030    2    1    2    0    0  0.00000000000E+00  0.00000000000E+00 -0.15730915155E+04  0.39314581488E+04  0.36030190479E+04 0.  0.
        3    1    3    3  502    0 -0.93015943147E+02 -0.13937041558E+04  0.45486891517E+03  0.14690027160E+04  0.10100000352E+00 0. -1.
       -3    1    3    3    0  502  0.93015943147E+02  0.13937041558E+04 -0.20279604307E+04  0.24624554327E+04  0.10100000352E+00 0.  1.
</event>
<event>
 5   0  0.2590795E-08  0.3601944E+04  0.7818609E-02  0.8090047E-01
       -2   -1    0    0    0  501  0.00000000000E+00  0.00000000000E+00  0.14004884568E+04  0.14004884568E+04  0.25500000920E-02 0.  1.
        2   -1    0    0  501    0  0.00000000000E+00  0.00000000000E+00 -0.23159772673E+04  0.23159772673E+04  0.25500000920E-02 0. -1.
    10030    2    1    2    0    0  0.00000000000E+00  0.00000000000E+00 -0.91548881059E+03  0.37164657241E+04  0.36019436026E+04 0.  0.
        4    1    3    3  502    0 -0.14648194058E+04 -0.30724608017E+02 -0.15383529854E+04  0.21244226071E+04  0.12699999809E+01 0. -1.
       -4    1    3    3    0  502  0.14648194058E+04  0.30724608017E+02  0.62286417484E+03  0.15920431170E+04  0.12699999809E+01 0.  1.
</event>
<event>
 5   0  0.2482243E-08  0.3602442E+04  0.7818609E-02  0.8089933E-01
        2   -1    0    0  501    0  0.00000000000E+00  0.00000000000E+00  0.18463923897E+04  0.18463923897E+04  0.25500000920E-02 0. -1.
       -2   -1    0    0    0  501  0.00000000000E+00  0.00000000000E+00 -0.17571547595E+04  0.17571547595E+04  0.25500000920E-02 0.  1.
    10030    2    1    2    0    0  0.00000000000E+00  0.00000000000E+00  0.89237630244E+02  0.36035471492E+04  0.36024420469E+04 0.  0.
        5    1    3    3  502    0  0.15110801367E+04  0.97338518993E+03  0.16098668915E+03  0.18046552889E+04  0.46999998093E+01 0. -1.
       -5    1    3    3    0  502 -0.15110801367E+04 -0.97338518993E+03 -0.71749058911E+02  0.17988918603E+04  0.46999998093E+01 0.  1.
</event>
<event>
 5   0  0.8024500E-09  0.3599042E+04  0.7818609E-02  0.8090711E-01
        1   -1    0    0  501    0  0.00000000000E+00  0.00000000000E+00  0.12569848632E+04  0.12569848632E+04  0.50400001928E-02 0.  1.
       -1   -1    0    0    0  501  0.00000000000E+00  0.00000000000E+00 -0.25762257075E+04  0.25762257075E+04  0.50400001928E-02 0. -1.
    10030    2    1    2    0    0  0.00000000000E+00  0.00000000000E+00 -0.13192408443E+04  0.38332105707E+04  0.35990424941E+04 0.  0.
        5    1    3    3  502    0  0.10223928557E+04 -0.10876435004E+04  0.41075516339E+03  0.15482239598E+04  0.46999998093E+01 0.  1.
       -5    1    3    3    0  502 -0.10223928557E+04  0.10876435004E+04 -0.17299960077E+04  0.22849866109E+04  0.46999998093E+01 0. -1.
</event>
<event>
 5   0  0.2494592E-08  0.3599252E+04  0.7818609E-02  0.8090663E-01
       -2   -1    0    0    0  501  0.00000000000E+00  0.00000000000E+00  0.14744106741E+04  0.14744106741E+04  0.25500000920E-02 0.  1.
        2   -1    0    0  501    0  0.00000000000E+00  0.00000000000E+00 -0.21965746709E+04  0.21965746709E+04  0.25500000920E-02 0. -1.
    10030    2    1    2    0    0  0.00000000000E+00  0.00000000000E+00 -0.72216399673E+03  0.36709853450E+04  0.35992516674E+04 0.  0.
        1    1    3    3  502    0 -0.14929498943E+04  0.86813591895E+03 -0.87722489173E+03  0.19370293935E+04  0.50400001928E-02 0.  1.
       -1    1    3    3    0  502  0.14929498943E+04 -0.86813591895E+03  0.15506089499E+03  0.17339559515E+04  0.50400001928E-02 0. -1.
</event>
<event>
 5   0  0.2476968E-08  0.3599939E+04  0.7818609E-02  0.8090506E-01
       -2   -1    0    0    0  501  0.00000000000E+00  0.00000000000E+00  0.15459899560E+04  0.15459899560E+04  0.25500000920E-02 0.  1.
        2   -1    0    0  501    0  0.00000000000E+00  0.00000000000E+00 -0.20956734660E+04  0.20956734660E+04  0.25500000920E-02 0. -1.
    10030    2    1    2    0    0  0.00000000000E+00  0.00000000000E+00 -0.54968351001E+03  0.36416634220E+04  0.35999389603E+04 0.  0.
        2    1    3    3  502    0  0.54371781399E+03  0.36736575334E+03  0.14206824531E+04  0.15649042432E+04  0.25500000920E-02 0.  1.
       -2    1    3    3    0  502 -0.54371781399E+03 -0.36736575334E+03 -0.19703659631E+04  0.20767591788E+04  0.25500000920E-02 0. -1.
</event>
<event>
 5   0  0.2476968E-08  0.3598734E+04  0.7818609E-02  0.8090782E-01
       -2   -1    0    0    0  501  0.00000000000E+00  0.00000000000E+00  0.15268235831E+04  0.15268235831E+04  0.25500000920E-02 0.  1.
        2   -1    0    0  501    0  0.00000000000E+00  0.00000000000E+00 -0.21205598918E+04  0.21205598918E+04  0.25500000920E-02 0. -1.
    10030    2    1    2    0    0  0.00000000000E+00  0.00000000000E+00 -0.59373630876E+03  0.36473834749E+04  0.35987335840E+04 0.  0.
        2    1    3    3  502    0 -0.14878303229E+04  0.97959472573E+03 -0.39514331898E+02  0.17817986078E+04  0.25500000920E-02 0.  1.
       -2    1    3    3    0  502  0.14878303229E+04 -0.97959472573E+03 -0.55422197686E+03  0.18655848670E+04  0.25500000920E-02 0. -1.
</event>
<event>
 5   0  0.8146881E-09  0.3598480E+04  0.7818609E-02  0.8090840E-01
       -1   -1    0    0    0  501  0.00000000000E+00  0.00000000000E+00  0.17699928083E+04  0.17699928083E+04  0.50400001928E-02 0. -1.
        1   -1    0    0  501    0  0.00000000000E+00  0.00000000000E+00 -0.18289707279E+04  0.18289707279E+04  0.50400001928E-02 0.  1.
    10030    2    1    2    0    0  0.00000000000E+00  0.00000000000E+00 -0.58977919637E+02  0.35989635362E+04  0.35984802542E+04 0.  0.
        4    1    3    3  502    0  0.72250181556E+03  0.16696327383E+03  0.16100535682E+04  0.17726138084E+04  0.12699999809E+01 0. -1.
       -4    1    3    3    0  502 -0.72250181556E+03 -0.16696327383E+03 -0.16690314878E+04  0.18263497279E+04  0.12699999809E+01 0.  1.
</event>
<event>
 5   0  0.8024500E-09  0.3600633E+04  0.7818609E-02  0.8090347E-01
       -1   -1    0    0    0  501  0.00000000000E+00  0.00000000000E+00  0.19736280863E+04  0.19736280863E+04  0.50400001928E-02 0.  1.
        1   -1    0    0  501    0  0.00000000000E+00  0.00000000000E+00 -0.16422236522E+04  0.16422236522E+04  0.50400001928E-02 0. -1.
    10030    2    1    2    0    0  0.00000000000E+00  0.00000000000E+00  0.33140443410E+03  0.36158517386E+04  0.36006325689E+04 0.  0.
        1    1    3    3  502    0 -0.14504394000E+03 -0.78301747061E+03 -0.14557383846E+04  0.16593156264E+04  0.50400001928E-02 0. -1.
       -1    1    3    3    0  502  0.14504394000E+03  0.78301747061E+03  0.17871428187E+04  0.19565361121E+04  0.50400001928E-02 0.  1.
</event>
<event>
 5   0  0.2482243E-08  0.3600356E+04  0.7818609E-02  0.8090410E-01
       -2   -1    0    0    0  501  0.00000000000E+00  0.00000000000E+00  0.30278216671E+04  0.30278216671E+04  0.25500000920E-02 0. -1.
        2   -1    0    0  501    0  0.00000000000E+00  0.00000000000E+00 -0.10702881605E+04  0.10702881605E+04  0.25500000920E-02 0.  1.
    10030    2    1    2    0    0  0.00000000000E+00  0.00000000000E+00  0.19575335066E+04  0.40981098276E+04  0.36003564726E+04 0.  0.
        5    1    3    3  502    0 -0.16807345052E+04 -0.52993713279E+03  0.13968595035E+04  0.22487641949E+04  0.46999998093E+01 0. -1.
       -5    1    3    3    0  502  0.16807345052E+04  0.52993713279E+03  0.56067400310E+03  0.18493456328E+04  0.46999998093E+01 0.  1.
</event>
<event>
 5   0  0.8024500E-09  0.3601026E+04  0.7818609E-02  0.8090257E-01
       -1   -1    0    0    0  501  0.00000000000E+00  0.00000000000E+00  0.10638230014E+04  0.10638230014E+04  0.50400001928E-02 0.  1.
        1   -1    0    0  501    0  0.00000000000E+00  0.00000000000E+00 -0.30473554667E+04  0.30473554667E+04  0.50400001928E-02 0. -1.
    10030    2    1    2    0    0  0.00000000000E+00  0.00000000000E+00 -0.19835324652E+04  0.41111784681E+04  0.36010258755E+04 0.  0.
        5    1    3    3  502    0  0.12152549434E+04  0.10976128259E+04 -0.18462854176E+04  0.24678716389E+04  0.46999998093E+01 0. -1.
       -5    1    3    3    0  502 -0.12152549434E+04 -0.10976128259E+04 -0.13724704767E+03  0.16433068292E+04  0.46999998093E+01 0.  1.
</event>
<event>
 5   0  0.2476968E-08  0.3601452E+04  0.7818609E-02  0.8090159E-01
        2   -1    0    0  501    0  0.00000000000E+00  0.00000000000E+00  0.24451227790E+04  0.24451227790E+04  0.25500000920E-02 0. -1.
       -2   -1    0    0    0  501  0.00000000000E+00  0.00000000000E+00 -0.13261562337E+04  0.13261562337E+04  0.25500000920E-02 0.  1.
    10030    2    1    2    0    0  0.00000000000E+00  0.00000000000E+00  0.11189665452E+04  0.37712790127E+04  0.36014523824E+04 0.  0.
        2    1    3    3  502    0 -0.94483222801E+03 -0.15205621717E+04  0.76306690580E+03  0.19460442852E+04  0.25500000920E-02 0.  1.
       -2    1    3    3    0  502  0.94483222801E+03  0.15205621717E+04  0.35589963944E+03  0.18252347275E+04  0.25500000920E-02 0. -1.
</event>
<event>
 5   0  0.2590795E-08  0.3607499E+04  0.7818609E-02  0.8088776E-01
        2   -1    0    0  501    0  0.00000000000E+00  0.00000000000E+00  0.20835686286E+04  0.20835686286E+04  0.25500000920E-02 0.  1.
       -2   -1    0    0    0  501  0.00000000000E+00  0.00000000000E+00 -0.15615097221E+04  0.15615097221E+04  0.25500000920E-02 0. -1.
    10030    2    1    2    0    0  0.00000000000E+00  0.00000000000E+00  0.52205890652E+03  0.36450783508E+04  0.36074992282E+04 0.  0.
        4    1    3    3  502    0 -0.26594829768E+01  0.13200907988E+04  0.15030058608E+04  0.20004187113E+04  0.12699999809E+01 0. -1.
       -4    1    3    3    0  502  0.26594829768E+01 -0.13200907988E+04 -0.98094695428E+03  0.16446596395E+04  0.12699999809E+01 0.  1.
</event>
<event>
 5   0  0.8146881E-09  0.3598179E+04  0.7818609E-02  0.8090909E-01
       -1   -1    0    0    0  501  0.00000000000E+00  0.00000000000E+00  0.10835597457E+04  0.10835597457E+04  0.50400001928E-02 0. -1.
        1   -1    0    0  501    0  0.00000000000E+00  0.00000000000E+00 -0.29871201121E+04  0.29871201121E+04  0.50400001928E-02 0.  1.
    10030    2    1    2    0    0  0.00000000000E+00  0.00000000000E+00 -0.19035603665E+04  0.40706798578E+04  0.35981790445E+04 0.  0.
        4    1    3    3  502    0  0.11620427481E+04 -0.87049767992E+03  0.25008705810E+03  0.14733141921E+04  0.12699999809E+01 0.  1.
       -4    1    3    3    0  502 -0.11620427481E+04  0.87049767992E+03 -0.21536474246E+04  0.25973656657E+04  0.12699999809E+01 0. -1.
</event>
<event>
 5   0  0.2482243E-08  0.3596987E+04  0.7818609E-02  0.8091182E-01
       -2   -1    0    0    0  501  0.00000000000E+00  0.00000000000E+00  0.19661368049E+04  0.19661368049E+04  0.25500000920E-02 0. -1.
        2   -1    0    0  501    0  0.00000000000E+00  0.00000000000E+00 -0.16451440834E+04  0.16451440834E+04  0.25500000920E-02 0.  1.
    10030    2    1    2    0    0  0.00000000000E+00  0.00000000000E+00  0.32099272154E+03  0.36112808883E+04  0.35969867010E+04 0.  0.
        5    1    3    3  502    0  0.12874078703E+04 -0.95626712566E+03  0.97778935749E+03  0.18782864419E+04  0.46999998093E+01 0. -1.
       -5    1    3    3    0  502 -0.12874078703E+04  0.95626712566E+03 -0.65679663595E+03  0.17329944464E+04  0.46999998093E+01 0.  1.
</event>
<event>
 5   0  0.2608070E-08  0.3600036E+04  0.7818609E-02  0.8090483E-01
       -2   -1    0    0    0  501  0.00000000000E+00  0.00000000000E+00  0.11868209479E+04  0.11868209479E+04  0.25500000920E-02 0. -1.
        2   -1    0    0  501    0  0.00000000000E+00  0.00000000000E+00 -0.27300372222E+04  0.27300372222E+04  0.25500000920E-02 0.  1.
    10030    2    1    2    0    0  0.00000000000E+00  0.00000000000E+00 -0.15432162743E+04  0.39168581700E+04  0.36000363130E+04 0.  0.
        3    1    3    3  502    0  0.10845368141E+04  0.23181058378E+03  0.77094729676E+03  0.13506724223E+04  0.10100000352E+00 0. -1.
       -3    1    3    3    0  502 -0.10845368141E+04 -0.23181058378E+03 -0.23141635711E+04  0.25661857477E+04  0.10100000352E+00 0.  1.
</event>
<event>
 5   0  0.2590795E-08  0.3598894E+04  0.7818609E-02  0.8090745E-01
       -2   -1    0    0    0  501  0.00000000000E+00  0.00000000000E+00  0.21440203736E+04  0.21440203736E+04  0.25500000920E-02 0.  1.
        2   -1    0    0  501    0  0.00000000000E+00  0.00000000000E+00 -0.15102516022E+04  0.15102516022E+04  0.25500000920E-02 0. -1.
    10030    2    1    2    0    0  0.00000000000E+00  0.00000000000E+00  0.63376877141E+03  0.36542719758E+04  0.35988943882E+04 0.  0.
        4    1    3    3  502    0 -0.12448351316E+04  0.41690214968E+01 -0.10024851166E+04  0.15983147086E+04  0.12699999809E+01 0. -1.
       -4    1    3    3    0  502  0.12448351316E+04 -0.41690214968E+01  0.16362538880E+04  0.20559572672E+04  0.12699999809E+01 0.  1.
</event>
<event>
 5   0  0.8063410E-09  0.3617434E+04  0.7818609E-02  0.8086510E-01
        1   -1    0    0  501    0  0.00000000000E+00  0.00000000000E+00  0.15231085322E+04  0.15231085322E+04  0.50400001928E-02 0.  1.
       -1   -1    0    0    0  501  0.00000000000E+00  0.00000000000E+00 -0.21478823445E+04  0.21478823445E+04  0.50400001928E-02 0. -1.
    10030    2    1    2    0    0  0.00000000000E+00  0.00000000000E+00 -0.62477381227E+03  0.36709908768E+04  0.36174344086E+04 0.  0.
        2    1    3    3  502    0 -0.15739665482E+04  0.37072475240E+02 -0.12159127770E+04  0.19892684446E+04  0.25500000920E-02 0. -1.
       -2    1    3    3    0  502  0.15739665482E+04 -0.37072475240E+02  0.59113896472E+03  0.16817224322E+04  0.25500000920E-02 0.  1.
</event>
<event>
 5   0  0.2482243E-08  0.3600207E+04  0.7818609E-02  0.8090444E-01
        2   -1    0    0  501    0  0.00000000000E+00  0.00000000000E+00  0.15512724062E+04  0.15512724062E+04  0.25500000920E-02 0.  1.
       -2   -1    0    0    0  501  0.00000000000E+00  0.00000000000E+00 -0.20888486511E+04  0.20888486511E+04  0.25500000920E-02 0. -1.
    10030    2    1    2    0    0  0.00000000000E+00  0.00000000000E+00 -0.53757624493E+03  0.36401210573E+04  0.36002073681E+04 0.  0.
        5    1    3    3  502    0  0.50363637469E+02  0.50822973472E+03  0.14764764011E+04  0.15623183453E+04  0.46999998093E+01 0.  1.
       -5    1    3    3    0  502 -0.50363637469E+02 -0.50822973472E+03 -0.20140526460E+04  0.20778027120E+04  0.46999998093E+01 0. -1.
</event>
<event>
 5   0  0.8024500E-09  0.3598462E+04  0.7818609E-02  0.8090844E-01
       -1   -1    0    0    0  501  0.00000000000E+00  0.00000000000E+00  0.11220338511E+04  0.11220338512E+04  0.50400001928E-02 0. -1.
        1   -1    0    0  501    0  0.00000000000E+00  0.00000000000E+00 -0.28851462167E+04  0.28851462168E+04  0.50400001928E-02 0.  1.
    10030    2    1    2    0    0  0.00000000000E+00  0.00000000000E+00 -0.17631123656E+04  0.40071800679E+04  0.35984617384E+04 0.  0.
        5    1    3    3  502    0  0.34877728843E+03  0.85045999400E+03  0.84082051101E+03  0.12457644320E+04  0.46999998093E+01 0. -1.
       -5    1    3    3    0  502 -0.34877728843E+03 -0.85045999400E+03 -0.26039328766E+04  0.27614156359E+04  0.46999998093E+01 0.  1.
</event>
<event>
 5   0  0.2590795E-08  0.3598479E+04  0.7818609E-02  0.8090840E-01
        2   -1    0    0  501    0  0.00000000000E+00  0.00000000000E+00  0.17750657510E+04  0.17750657510E+04  0.25500000920E-02 0. -1.
       -2   -1    0    0    0  501  0.00000000000E+00  0.00000000000E+00 -0.18237419923E+04  0.18237419923E+04  0.25500000920E-02 0.  1.
    10030    2    1    2    0    0  0.00000000000E+00  0.00000000000E+00 -0.48676241225E+02  0.35988077433E+04  0.35984785392E+04 0.  0.
        4    1    3    3  502    0 -0.14809666135E+03  0.49887545999E+02  0.17682652441E+04  0.17751577324E+04  0.12699999809E+01 0. -1.
       -4    1    3    3    0  502  0.14809666135E+03 -0.49887545999E+02 -0.18169414853E+04  0.18236500109E+04  0.12699999809E+01 0.  1.
</event>
<event>
 5   0  0.8024500E-09  0.3598968E+04  0.7818609E-02  0.8090728E-01
       -1   -1    0    0    0  501  0.00000000000E+00  0.00000000000E+00  0.11358157481E+04  0.11358157481E+04  0.50400001928E-02 0. -1.
        1   -1    0    0  501    0  0.00000000000E+00  0.00000000000E+00 -0.28509399951E+04  0.28509399951E+04  0.50400001928E-02 0.  1.
    10030    2    1    2    0    0  0.00000000000E+00  0.00000000000E+00 -0.17151242470E+04  0.39867557432E+04  0.35989679317E+04 0.  0.
        1    1    3    3  502    0  0.41316714544E+03 -0.42760774141E+03 -0.27389722535E+04  0.28027708569E+04  0.50400001928E-02 0.  1.
       -1    1    3    3    0  502 -0.41316714544E+03  0.42760774141E+03  0.10238480065E+04  0.11839848863E+04  0.50400001928E-02 0. -1.
</event>
<event>
 5   0  0.2482243E-08  0.3601772E+04  0.7818609E-02  0.8090086E-01
       -2   -1    0    0    0  501  0.00000000000E+00  0.00000000000E+00  0.17562208279E+04  0.17562208279E+04  0.25500000920E-02 0.  1.
        2   -1    0    0  501    0  0.00000000000E+00  0.00000000000E+00 -0.18466871379E+04  0.18466871379E+04  0.25500000920E-02 0. -1.
    10030    2    1    2    0    0  0.00000000000E+00  0.00000000000E+00 -0.90466310047E+02  0.36029079658E+04  0.36017720162E+04 0.  0.
        5    1    3    3  502    0  0.15034220145E+04  0.40118388231E+03  0.86166298207E+03  0.17786825028E+04  0.46999998093E+01 0.  1.
       -5    1    3    3    0  502 -0.15034220145E+04 -0.40118388231E+03 -0.95212929212E+03  0.18242254630E+04  0.46999998093E+01 0. -1.
</event>
<event>
 5   0  0.8024500E-09  0.3599255E+04  0.7818609E-02  0.8090662E-01
        1   -1    0    0  501    0  0.00000000000E+00  0.00000000000E+00  0.30408614790E+04  0.30408614790E+04  0.50400001928E-02 0. -1.
       -1   -1    0    0    0  501  0.00000000000E+00  0.00000000000E+00 -0.10650467649E+04  0.10650467649E+04  0.50400001928E-02 0.  1.
    10030    2    1    2    0    0  0.00000000000E+00  0.00000000000E+00  0.19758147141E+04  0.41059082439E+04  0.35992553011E+04 0.  0.
        5    1    3    3  502    0 -0.90291127073E+03 -0.11755189552E+04 -0.17631356707E+03  0.14927163632E+04  0.46999998093E+01 0.  1.
       -5    1    3    3    0  502  0.90291127073E+03  0.11755189552E+04  0.21521282811E+04  0.26131918807E+04  0.46999998093E+01 0. -1.
</event>
<event>
 5   0  0.8024500E-09  0.3598777E+04  0.7818609E-02  0.8090772E-01
       -1   -1    0    0    0  501  0.00000000000E+00  0.00000000000E+00  0.13990758286E+04  0.13990758286E+04  0.50400001928E-02 0.  1.
        1   -1    0    0  501    0  0.00000000000E+00  0.00000000000E+00 -0.23142413798E+04  0.23142413798E+04  0.50400001928E-02 0. -1.
    10030    2    1    2    0    0  0.00000000000E+00  0.00000000000E+00 -0.91516555119E+03  0.37133172084E+04  0.35987771123E+04 0.  0.
        5    1    3    3  502    0  0.65492672249E+03 -0.11283920674E+04 -0.17362079223E+04  0.21717821505E+04  0.46999998093E+01 0. -1.
       -5    1    3    3    0  502 -0.65492672249E+03  0.11283920674E+04  0.82104237108E+03  0.15415350579E+04  0.46999998093E+01 0.  1.
</event>
<event>
 5   0  0.2482243E-08  0.3598254E+04  0.7818609E-02  0.8090892E-01
       -2   -1    0    0    0  501  0.00000000000E+00  0.00000000000E+00  0.13057828973E+04  0.13057828973E+04  0.25500000920E-02 0. -1.
        2   -1    0    0  501    0  0.00000000000E+00  0.00000000000E+00 -0.24788642337E+04  0.24788642337E+04  0.25500000920E-02 0.  1.
    10030    2    1    2    0    0  0.00000000000E+00  0.00000000000E+00 -0.11730813364E+04  0.37846471310E+04  0.35982543107E+04 0.  0.
        5    1    3    3  502    0 -0.98527167931E+03  0.65842154038E+03 -0.20103843472E+04  0.23336551845E+04  0.46999998093E+01 0.  1.
       -5    1    3    3    0  502  0.98527167931E+03 -0.65842154038E+03  0.83730301081E+03  0.14509919465E+04  0.46999998093E+01 0. -1.
</event>
<event>
 5   0  0.8024500E-09  0.3597713E+04  0.7818609E-02  0.8091016E-01
        1   -1    0    0  501    0  0.00000000000E+00  0.00000000000E+00  0.21175346305E+04  0.21175346305E+04  0.50400001928E-02 0. -1.
       -1   -1    0    0    0  501  0.00000000000E+00  0.00000000000E+00 -0.15281376958E+04  0.15281376958E+04  0.50400001928E-02 0.  1.
    10030    2    1    2    0    0  0.00000000000E+00  0.00000000000E+00  0.58939693478E+03  0.36456723263E+04  0.35977128796E+04 0.  0.
        1    1    3    3  502    0  0.18962118861E+03  0.17739291837E+04  0.52821245294E+03  0.18605884390E+04  0.50400001928E-02 0. -1.
       -1    1    3    3    0  502 -0.18962118861E+03 -0.17739291837E+04  0.61184481845E+02  0.17850838873E+04  0.50400001928E-02 0.  1.
</event>
<event>
 5   0  0.8146881E-09  0.3595619E+04  0.7818609E-02  0.8091496E-01
        1   -1    0    0  501    0  0.00000000000E+00  0.00000000000E+00  0.28905962251E+04  0.28905962251E+04  0.50400001928E-02 0. -1.
       -1   -1    0    0    0  501  0.00000000000E+00  0.00000000000E+00 -0.11181495253E+04  0.11181495253E+04  0.50400001928E-02 0.  1.
    10030    2    1    2    0    0  0.00000000000E+00  0.00000000000E+00  0.17724466998E+04  0.40087457504E+04  0.35956188880E+04 0.  0.
        4    1    3    3  502    0  0.12969671672E+04 -0.39572315073E+03 -0.42982614606E+03  0.14224882332E+04  0.12699999809E+01 0.  1.
       -4    1    3    3    0  502 -0.12969671672E+04  0.39572315073E+03  0.22022728458E+04  0.25862575172E+04  0.12699999809E+01 0. -1.
</event>
<event>
 5   0  0.8024500E-09  0.3602362E+04  0.7818609E-02  0.8089951E-01
        1   -1    0    0  501    0  0.00000000000E+00  0.00000000000E+00  0.15104606158E+04  0.15104606158E+04  0.50400001928E-02 0. -1.
       -1   -1    0    0    0  501  0.00000000000E+00  0.00000000000E+00 -0.21478570949E+04  0.21478570949E+04  0.50400001928E-02 0.  1.
    10030    2    1    2    0    0  0.00000000000E+00  0.00000000000E+00 -0.63739647915E+03  0.36583177107E+04  0.36023623084E+04 0.  0.
        5    1    3    3  502    0  0.15007413665E+04  0.19319840311E+02 -0.13299740908E+04  0.20053555988E+04  0.46999998093E+01 0.  1.
       -5    1    3    3    0  502 -0.15007413665E+04 -0.19319840311E+02  0.69257761161E+03  0.16529621119E+04  0.46999998093E+01 0. -1.
</event>
<event>
 5   0  0.8146881E-09  0.3599902E+04  0.7818609E-02  0.8090514E-01
       -1   -1    0    0    0  501  0.00000000000E+00  0.00000000000E+00  0.12367943643E+04  0.12367943643E+04  0.50400001928E-02 0.  1.
        1   -1    0    0  501    0  0.00000000000E+00  0.00000000000E+00 -0.26195324535E+04  0.26195324535E+04  0.50400001928E-02 0. -1.
    10030    2    1    2    0    0  0.00000000000E+00  0.00000000000E+00 -0.13827380892E+04  0.38563268178E+04  0.35999016518E+04 0.  0.
        4    1    3    3  502    0 -0.75330143917E+03 -0.29111206782E+03 -0.24145575161E+04  0.25460359200E+04  0.12699999809E+01 0. -1.
       -4    1    3    3    0  502  0.75330143917E+03  0.29111206782E+03  0.10318194270E+04  0.13102908979E+04  0.12699999809E+01 0.  1.
</event>
<event>
 5   0  0.8146881E-09  0.3597792E+04  0.7818609E-02  0.8090998E-01
       -1   -1    0    0    0  501  0.00000000000E+00  0.00000000000E+00  0.15167029757E+04  0.15167029757E+04  0.50400001928E-02 0.  1.
        1   -1    0    0  501    0  0.00000000000E+00  0.00000000000E+00 -0.21335930087E+04  0.21335930087E+04  0.50400001928E-02 0. -1.
    10030    2    1    2    0    0  0.00000000000E+00  0.00000000000E+00 -0.61689003305E+03  0.36502959844E+04  0.35977920258E+04 0.  0.
        4    1    3    3  502    0 -0.97202968885E+03  0.14930147609E+04 -0.55629069805E+02  0.17824227890E+04  0.12699999809E+01 0.  1.
       -4    1    3    3    0  502  0.97202968885E+03 -0.14930147609E+04 -0.56126096324E+03  0.18678731954E+04  0.12699999809E+01 0. -1.
</event>
<event>
 5   0  0.8146881E-09  0.3598498E+04  0.7818609E-02  0.8090836E-01
        1   -1    0    0  501    0  0.00000000000E+00  0.00000000000E+00  0.24539336175E+04  0.24539336175E+04  0.50400001928E-02 0. -1.
       -1   -1    0    0    0  501  0.00000000000E+00  0.00000000000E+00 -0.13192275343E+04  0.13192275343E+04  0.50400001928E-02 0.  1.
    10030    2    1    2    0    0  0.00000000000E+00  0.00000000000E+00  0.11347060832E+04  0.37731611519E+04  0.35984979064E+04 0.  0.
        4    1    3    3  502    0  0.67650542075E+01  0.16850145844E+04  0.12288260715E+04  0.20855059440E+04  0.12699999809E+01 0. -1.
       -4    1    3    3    0  502 -0.67650542075E+01 -0.16850145844E+04 -0.94119988311E+02  0.16876552079E+04  0.12699999809E+01 0.  1.
</event>
<event>
 5   0  0.8247570E-09  0.3597806E+04  0.7818609E-02  0.8090994E-01
       -1   -1    0    0    0  501  0.00000000000E+00  0.00000000000E+00  0.15302987197E+04  0.15302987197E+04  0.50400001928E-02 0.  1.
        1   -1    0    0  501    0  0.00000000000E+00  0.00000000000E+00 -0.21146542230E+04  0.21146542230E+04  0.50400001928E-02 0. -1.
    10030    2    1    2    0    0  0.00000000000E+00  0.00000000000E+00 -0.58435550331E+03  0.36449529427E+04  0.35978063595E+04 0.  0.
        3    1    3    3  502    0  0.35557274905E+03 -0.95662225736E+03 -0.17929728089E+04  0.20630825546E+04  0.10100000352E+00 0. -1.
       -3    1    3    3    0  502 -0.35557274905E+03  0.95662225736E+03  0.12086173056E+04  0.15818703881E+04  0.10100000352E+00 0.  1.
</event>
<event>
 5   0  0.2476968E-08  0.3600511E+04  0.7818609E-02  0.8090375E-01
        2   -1    0    0  501    0  0.00000000000E+00  0.00000000000E+00  0.22061507150E+04  0.22061507150E+04  0.25500000920E-02 0. -1.
       -2   -1    0    0    0  501  0.00000000000E+00  0.00000000000E+00 -0.14690381442E+04  0.14690381442E+04  0.25500000920E-02 0.  1.
    10030    2    1    2    0    0  0.00000000000E+00  0.00000000000E+00  0.73711257083E+03  0.36751888592E+04  0.36005108261E+04 0.  0.
        2    1    3    3  502    0 -0.73997371916E+03 -0.16250689471E+03  0.20355078211E+04  0.21719258011E+04  0.25500000920E-02 0. -1.
       -2    1    3    3    0  502  0.73997371916E+03  0.16250689471E+03 -0.12983952503E+04  0.15032630581E+04  0.25500000920E-02 0.  1.
</event>
<event>
 5   0  0.8024500E-09  0.3598080E+04  0.7818609E-02  0.8090932E-01
        1   -1    0    0  501    0  0.00000000000E+00  0.00000000000E+00  0.17905157382E+04  0.17905157383E+04  0.50400001928E-02 0. -1.
       -1   -1    0    0    0  501  0.00000000000E+00  0.00000000000E+00 -0.18076044256E+04  0.18076044256E+04  0.50400001928E-02 0.  1.
    10030    2    1    2    0    0  0.00000000000E+00  0.00000000000E+00 -0.17088687370E+02  0.35981201639E+04  0.35980795837E+04 0.  0.
        1    1    3    3  502    0 -0.14661694847E+04  0.89064204343E+03 -0.55044340162E+03  0.18016337435E+04  0.50400001928E-02 0.  1.
       -1    1    3    3    0  502  0.14661694847E+04 -0.89064204343E+03  0.53335471425E+03  0.17964864204E+04  0.50400001928E-02 0. -1.
</event>
<event>
 5   0  0.8024500E-09  0.3601164E+04  0.7818609E-02  0.8090225E-01
        1   -1    0    0  501    0  0.00000000000E+00  0.00000000000E+00  0.26361457972E+04  0.26361457972E+04  0.50400001928E-02 0.  1.
       -1   -1    0    0    0  501  0.00000000000E+00  0.00000000000E+00 -0.12298619049E+04  0.12298619049E+04  0.50400001928E-02 0. -1.
    10030    2    1    2    0    0  0.00000000000E+00  0.00000000000E+00  0.14062838923E+04  0.38660077021E+04  0.36011638628E+04 0.  0.
        1    1    3    3  502    0  0.75583001023E+03 -0.96411040027E+02  0.24545397320E+04  0.25700854828E+04  0.50400001928E-02 0.  1.
       -1    1    3    3    0  502 -0.75583001023E+03  0.96411040027E+02 -0.10482558397E+04  0.12959222193E+04  0.50400001928E-02 0. -1.
</event>
<event>
 5   0  0.2482243E-08  0.3602920E+04  0.7818609E-02  0.8089823E-01
        2   -1    0    0  501    0  0.00000000000E+00  0.00000000000E+00  0.21855039408E+04  0.21855039408E+04  0.25500000920E-02 0.  1.
       -2   -1    0    0    0  501  0.00000000000E+00  0.00000000000E+00 -0.14849011439E+04  0.14849011439E+04  0.25500000920E-02 0. -1.
    10030    2    1    2    0    0  0.00000000000E+00  0.00000000000E+00  0.70060279694E+03  0.36704050847E+04  0.36029195394E+04 0.  0.
        5    1    3    3  502    0 -0.11212960236E+04  0.10535626282E+04 -0.60423154032E+03  0.16530023679E+04  0.46999998093E+01 0. -1.
       -5    1    3    3    0  502  0.11212960236E+04 -0.10535626282E+04  0.13048343373E+04  0.20174027168E+04  0.46999998093E+01 0.  1.
</event>
<event>
 5   0  0.8063410E-09  0.3600337E+04  0.7818609E-02  0.8090415E-01
       -1   -1    0    0    0  501  0.00000000000E+00  0.00000000000E+00  0.18359645867E+04  0.18359645867E+04  0.50400001928E-02 0. -1.
        1   -1    0    0  501    0  0.00000000000E+00  0.00000000000E+00 -0.17650702924E+04  0.17650702924E+04  0.50400001928E-02 0.  1.
    10030    2    1    2    0    0  0.00000000000E+00  0.00000000000E+00  0.70894294281E+02  0.36010348791E+04  0.36003369564E+04 0.  0.
        2    1    3    3  502    0  0.33962463149E+03  0.22761288833E+03  0.17889139195E+04  0.18350382908E+04  0.25500000920E-02 0. -1.
       -2    1    3    3    0  502 -0.33962463149E+03 -0.22761288833E+03 -0.17180196252E+04  0.17659965883E+04  0.25500000920E-02 0.  1.
</event>
<event>
 5   0  0.8024500E-09  0.3599430E+04  0.7818609E-02  0.8090622E-01
       -1   -1    0    0    0  501  0.00000000000E+00  0.00000000000E+00  0.12186779054E+04  0.12186779054E+04  0.50400001928E-02 0. -1.
        1   -1    0    0  501    0  0.00000000000E+00  0.00000000000E+00 -0.26577764489E+04  0.26577764489E+04  0.50400001928E-02 0.  1.
    10030    2    1    2    0    0  0.00000000000E+00  0.00000000000E+00 -0.14390985435E+04  0.38764543544E+04  0.35994296414E+04 0.  0.
        5    1    3    3  502    0  0.46053000013E+03  0.17110271502E+04 -0.10588347507E+04  0.20641838360E+04  0.46999998093E+01 0. -1.
       -5    1    3    3    0  502 -0.46053000013E+03 -0.17110271502E+04 -0.38026379282E+03  0.18122705184E+04  0.46999998093E+01 0.  1.
</event>
<event>
 5   0  0.8146881E-09  0.3596470E+04  0.7818609E-02  0.8091301E-01
       -1   -1    0    0    0  501  0.00000000000E+00  0.00000000000E+00  0.30781986814E+04  0.30781986815E+04  0.50400001928E-02 0.  1.
        1   -1    0    0  501    0  0.00000000000E+00  0.00000000000E+00 -0.10505001990E+04  0.10505001990E+04  0.50400001928E-02 0. -1.
    10030    2    1    2    0    0  0.00000000000E+00  0.00000000000E+00  0.20276984824E+04  0.41286988805E+04  0.35964695620E+04 0.  0.
        4    1    3    3  502    0 -0.16874641604E+04 -0.33766481387E+03  0.41502934797E+03  0.17702552900E+04  0.12699999809E+01 0. -1.
       -4    1    3    3    0  502  0.16874641604E+04  0.33766481387E+03  0.16126691344E+04  0.23584435905E+04  0.12699999809E+01 0.  1.
</event>
<event>
 5   0  0.8146881E-09  0.3599611E+04  0.7818609E-02  0.8090581E-01
        1   -1    0    0  501    0  0.00000000000E+00  0.00000000000E+00  0.27581453157E+04  0.27581453157E+04  0.50400001928E-02 0. -1.
       -1   -1    0    0    0  501  0.00000000000E+00  0.00000000000E+00 -0.11744485188E+04  0.11744485189E+04  0.50400001928E-02 0.  1.
    10030    2    1    2    0    0  0.00000000000E+00  0.00000000000E+00  0.15836967968E+04  0.39325938345E+04  0.35996109127E+04 0.  0.
        4    1    3    3  502    0 -0.39031773920E+03 -0.16124684053E+04  0.29520987438E+02  0.16592996707E+04  0.12699999809E+01 0. -1.
       -4    1    3    3    0  502  0.39031773920E+03  0.16124684053E+04  0.15541758094E+04  0.22732941638E+04  0.12699999809E+01 0.  1.
</event>
<event>
 5   0  0.2590795E-08  0.3598509E+04  0.7818609E-02  0.8090833E-01
        2   -1    0    0  501    0  0.00000000000E+00  0.00000000000E+00  0.15715932124E+04  0.15715932124E+04  0.25500000920E-02 0.  1.
       -2   -1    0    0    0  501  0.00000000000E+00  0.00000000000E+00 -0.20598951917E+04  0.20598951917E+04  0.25500000920E-02 0. -1.
    10030    2    1    2    0    0  0.00000000000E+00  0.00000000000E+00 -0.48830197936E+03  0.36314884041E+04  0.35985093033E+04 0.  0.
        4    1    3    3  502    0  0.34451286988E+03  0.11307557667E+04  0.11247532350E+04  0.16316767983E+04  0.12699999809E+01 0.  1.
       -4    1    3    3    0  502 -0.34451286988E+03 -0.11307557667E+04 -0.16130552144E+04  0.19998116059E+04  0.12699999809E+01 0. -1.
</event>
<event>
 5   0  0.8247570E-09  0.3600307E+04  0.7818609E-02  0.8090421E-01
        1   -1    0    0  501    0  0.00000000000E+00  0.00000000000E+00  0.26727223959E+04  0.26727223959E+04  0.50400001928E-02 0.  1.
       -1   -1    0    0    0  501  0.00000000000E+00  0.00000000000E+00 -0.12124536413E+04  0.12124536413E+04  0.50400001928E-02 0. -1.
    10030    2    1    2    0    0  0.00000000000E+00  0.00000000000E+00  0.14602687545E+04  0.38851760372E+04  0.36003066542E+04 0.  0.
        3    1    3    3  502    0 -0.11039674723E+04 -0.14179900720E+04  0.84388837676E+03  0.19853432013E+04  0.10100000352E+00 0. -1.
       -3    1    3    3    0  502  0.11039674723E+04  0.14179900720E+04  0.61638037778E+03  0.18998328359E+04  0.10100000352E+00 0.  1.
</event>
<event>
 5   0  0.2476968E-08  0.3599881E+04  0.7818609E-02  0.8090519E-01
       -2   -1    0    0    0  501  0.00000000000E+00  0.00000000000E+00  0.21957183932E+04  0.21957183932E+04  0.25500000920E-02 0.  1.
        2   -1    0    0  501    0  0.00000000000E+00  0.00000000000E+00 -0.14755014286E+04  0.14755014286E+04  0.25500000920E-02 0. -1.
    10030    2    1    2    0    0  0.00000000000E+00  0.00000000000E+00  0.72021696457E+03  0.36712198218E+04  0.35998809013E+04 0.  0.
        2    1    3    3  502    0  0.11905230694E+04  0.71779671232E+02  0.17348914761E+04  0.21053137376E+04  0.25500000920E-02 0.  1.
       -2    1    3    3    0  502 -0.11905230694E+04 -0.71779671232E+02 -0.10146745115E+04  0.15659060841E+04  0.25500000920E-02 0. -1.
</event>
<event>
 5   0  0.2482243E-08  0.3628284E+04  0.7818609E-02  0.8084044E-01
        2   -1    0    0  501    0  0.00000000000E+00  0.00000000000E+00  0.24722199088E+04  0.24722199088E+04  0.25500000920E-02 0.  1.
       -2   -1    0    0    0  501  0.00000000000E+00  0.00000000000E+00 -0.13312368996E+04  0.13312368996E+04  0.25500000920E-02 0. -1.
    10030    2    1    2    0    0  0.00000000000E+00  0.00000000000E+00  0.11409830092E+04  0.38034568084E+04  0.36282835426E+04 0.  0.
        5    1    3    3  502    0  0.14560020590E+03 -0.70156756489E+03  0.23175976806E+04  0.24258354369E+04  0.46999998093E+01 0.  1.
       -5    1    3    3    0  502 -0.14560020590E+03  0.70156756489E+03 -0.11766146714E+04  0.13776213714E+04  0.46999998093E+01 0. -1.
</event>
<event>
 5   0  0.2608070E-08  0.3600971E+04  0.7818609E-02  0.8090269E-01
        2   -1    0    0  501    0  0.00000000000E+00  0.00000000000E+00  0.23172567910E+04  0.23172567910E+04  0.25500000920E-02 0.  1.
       -2   -1    0    0    0  501  0.00000000000E+00  0.00000000000E+00 -0.13989590341E+04  0.13989590341E+04  0.25500000920E-02 0. -1.
    10030    2    1    2    0    0  0.00000000000E+00  0.00000000000E+00  0.91829775690E+03  0.37162158251E+04  0.36009706037E+04 0.  0.
        3    1    3    3  502    0 -0.14401677977E+04 -0.53270201048E+03  0.14293931783E+04  0.20978607165E+04  0.10100000352E+00 0.  1.
       -3    1    3    3    0  502  0.14401677977E+04  0.53270201048E+03 -0.51109542140E+03  0.16183551086E+04  0.10100000352E+00 0. -1.
</event>
<event>
 5   0  0.8063410E-09  0.3600197E+04  0.7818609E-02  0.8090447E-01
        1   -1    0    0  501    0  0.00000000000E+00  0.00000000000E+00  0.19437160049E+04  0.19437160049E+04  0.50400001928E-02 0.  1.
       -1   -1    0    0    0  501  0.00000000000E+00  0.00000000000E+00 -0.16670923400E+04  0.16670923401E+04  0.50400001928E-02 0. -1.
    10030    2    1    2    0    0  0.00000000000E+00  0.00000000000E+00  0.27662366482E+03  0.36108083449E+04  0.36001966963E+04 0.  0.
        2    1    3    3  502    0  0.76182303372E+03  0.15499847021E+04 -0.37065527976E+03  0.17664122531E+04  0.25500000920E-02 0. -1.
       -2    1    3    3    0  502 -0.76182303372E+03 -0.15499847021E+04  0.64727894459E+03  0.18443960918E+04  0.25500000920E-02 0.  1.
</event>
<event>
 5   0  0.2608070E-08  0.3607292E+04  0.7818609E-02  0.8088823E-01
        2   -1    0    0  501    0  0.00000000000E+00  0.00000000000E+00  0.28982326037E+04  0.28982326037E+04  0.25500000920E-02 0.  1.
       -2   -1    0    0    0  501  0.00000000000E+00  0.00000000000E+00 -0.11224562539E+04  0.11224562539E+04  0.25500000920E-02 0. -1.
    10030    2    1    2    0    0  0.00000000000E+00  0.00000000000E+00  0.17757763498E+04  0.40206888577E+04  0.36072922318E+04 0.  0.
        3    1    3    3  502    0 -0.16978335737E+04  0.10151599114E+03  0.21894695772E+03  0.17149000324E+04  0.10100000352E+00 0. -1.
       -3    1    3    3    0  502  0.16978335737E+04 -0.10151599114E+03  0.15568293921E+04  0.23057888253E+04  0.10100000352E+00 0.  1.
</event>
<event>
 5   0  0.8024500E-09  0.3600450E+04  0.7818609E-02  0.8090389E-01
        1   -1    0    0  501    0  0.00000000000E+00  0.00000000000E+00  0.16584202274E+04  0.16584202274E+04  0.50400001928E-02 0. -1.
       -1   -1    0    0    0  501  0.00000000000E+00  0.00000000000E+00 -0.19541545911E+04  0.19541545911E+04  0.50400001928E-02 0.  1.
    10030    2    1    2    0    0  0.00000000000E+00  0.00000000000E+00 -0.29573436363E+03  0.36125748185E+04  0.36004496949E+04 0.  0.
        5    1    3    3  502    0  0.15963704140E+04 -0.76031731542E+03  0.19136383368E+03  0.17785171142E+04  0.46999998093E+01 0. -1.
       -5    1    3    3    0  502 -0.15963704140E+04  0.76031731542E+03 -0.48709819732E+03  0.18340577043E+04  0.46999998093E+01 0.  1.
</event>
<event>
 5   0  0.8247570E-09  0.3596320E+04  0.7818609E-02  0.8091335E-01
        1   -1    0    0  501    0  0.00000000000E+00  0.00000000000E+00  0.21246305107E+04  0.21246305107E+04  0.50400001928E-02 0.  1.
       -1   -1    0    0    0  501  0.00000000000E+00  0.00000000000E+00 -0.15218551111E+04  0.15218551111E+04  0.50400001928E-02 0. -1.
    10030    2    1    2    0    0  0.00000000000E+00  0.00000000000E+00  0.60277539955E+03  0.36464856218E+04  0.35963202316E+04 0.  0.
        3    1    3    3  502    0  0.12818552646E+02  0.11978990649E+04 -0.10583075586E+04  0.15984809614E+04  0.10100000352E+00 0.  1.
       -3    1    3    3    0  502 -0.12818552646E+02 -0.11978990649E+04  0.16610829582E+04  0.20480046604E+04  0.10100000352E+00 0. -1.
</event>
<event>
 5   0  0.8024500E-09  0.3599463E+04  0.7818609E-02  0.8090615E-01
        1   -1    0    0  501    0  0.00000000000E+00  0.00000000000E+00  0.20859064587E+04  0.20859064587E+04  0.50400001928E-02 0. -1.
       -1   -1    0    0    0  501  0.00000000000E+00  0.00000000000E+00 -0.15528177536E+04  0.15528177536E+04  0.50400001928E-02 0.  1.
    10030    2    1    2    0    0  0.00000000000E+00  0.00000000000E+00  0.53308870505E+03  0.36387242123E+04  0.35994625051E+04 0.  0.
        1    1    3    3  502    0 -0.93916893401E+03  0.11259932476E+04  0.13215433455E+04  0.19739239839E+04  0.50400001928E-02 0. -1.
       -1    1    3    3    0  502  0.93916893401E+03 -0.11259932476E+04 -0.78845464040E+03  0.16648002284E+04  0.50400001928E-02 0.  1.
</event>
<event>
 5   0  0.2590795E-08  0.3601213E+04  0.7818609E-02  0.8090214E-01
        2   -1    0    0  501    0  0.00000000000E+00  0.00000000000E+00  0.25979879288E+04  0.25979879288E+04  0.25500000920E-02 0.  1.
       -2   -1    0    0    0  501  0.00000000000E+00  0.00000000000E+00 -0.12479592963E+04  0.12479592963E+04  0.25500000920E-02 0. -1.
    10030    2    1    2    0    0  0.00000000000E+00  0.00000000000E+00  0.13500286324E+04  0.38459472251E+04  0.36012126777E+04 0.  0.
        4    1    3    3  502    0 -0.85209734101E+03  0.14720409221E+04  0.43917255957E+02  0.17014419452E+04  0.12699999809E+01 0.  1.
       -4    1    3    3    0  502  0.85209734101E+03 -0.14720409221E+04  0.13061113765E+04  0.21445052799E+04  0.12699999809E+01 0. -1.
</event>
<event>
 5   0  0.8146881E-09  0.3600876E+04  0.7818609E-02  0.8090291E-01
        1   -1    0    0  501    0  0.00000000000E+00  0.00000000000E+00  0.32109066760E+04  0.32109066760E+04  0.50400001928E-02 0. -1.
       -1   -1    0    0    0  501  0.00000000000E+00  0.00000000000E+00 -0.10095521414E+04  0.10095521414E+04  0.50400001928E-02 0.  1.
    10030    2    1    2    0    0  0.00000000000E+00  0.00000000000E+00  0.22013545346E+04  0.42204588174E+04  0.36008763992E+04 0.  0.
        4    1    3    3  502    0  0.92204328831E+03 -0.28502525577E+03 -0.68077295894E+03  0.11810404974E+04  0.12699999809E+01 0.  1.
       -4    1    3    3    0  502 -0.92204328831E+03  0.28502525577E+03  0.28821274935E+04  0.30394183200E+04  0.12699999809E+01 0. -1.
</event>
<event>
 5   0  0.2482243E-08  0.3600581E+04  0.7818609E-02  0.8090359E-01
       -2   -1    0    0    0  501  0.00000000000E+00  0.00000000000E+00  0.25039913990E+04  0.25039913990E+04  0.25500000920E-02 0.  1.
        2   -1    0    0  501    0  0.00000000000E+00  0.00000000000E+00 -0.12943519744E+04  0.12943519744E+04  0.25500000920E-02 0. -1.
    10030    2    1    2    0    0  0.00000000000E+00  0.00000000000E+00  0.12096394246E+04  0.37983433735E+04  0.36005811816E+04 0.  0.
        5    1    3    3  502    0  0.97044990680E+03 -0.14926986454E+04  0.88611475380E+03  0.19887543123E+04  0.46999998093E+01 0. -1.
       -5    1    3    3    0  502 -0.97044990680E+03  0.14926986454E+04  0.32352467081E+03  0.18095890612E+04  0.46999998093E+01 0.  1.
</event>
<event>
 5   0  0.8024500E-09  0.3599815E+04  0.7818609E-02  0.8090534E-01
        1   -1    0    0  501    0  0.00000000000E+00  0.00000000000E+00  0.13602769993E+04  0.13602769993E+04  0.50400001928E-02 0.  1.
       -1   -1    0    0    0  501  0.00000000000E+00  0.00000000000E+00 -0.23816231643E+04  0.23816231643E+04  0.50400001928E-02 0. -1.
    10030    2    1    2    0    0  0.00000000000E+00  0.00000000000E+00 -0.10213461650E+04  0.37419001637E+04  0.35998151128E+04 0.  0.
        5    1    3    3  502    0 -0.37564863385E+03 -0.17199357785E+04 -0.90009879100E+03  0.19772432582E+04  0.46999998093E+01 0. -1.
       -5    1    3    3    0  502  0.37564863385E+03  0.17199357785E+04 -0.12124737398E+03  0.17646569055E+04  0.46999998093E+01 0.  1.
</event>
<event>
 5   0  0.2476968E-08  0.3601005E+04  0.7818609E-02  0.8090262E-01
       -2   -1    0    0    0  501  0.00000000000E+00  0.00000000000E+00  0.13462956712E+04  0.13462956712E+04  0.25500000920E-02 0.  1.
        2   -1    0    0  501    0  0.00000000000E+00  0.00000000000E+00 -0.24079470473E+04  0.24079470473E+04  0.25500000920E-02 0. -1.
    10030    2    1    2    0    0  0.00000000000E+00  0.00000000000E+00 -0.10616513760E+04  0.37542427185E+04  0.36010046855E+04 0.  0.
        2    1    3    3  502    0  0.14050768177E+04 -0.81304965092E+03  0.28110795897E+03  0.16475170054E+04  0.25500000920E-02 0.  1.
       -2    1    3    3    0  502 -0.14050768177E+04  0.81304965092E+03 -0.13427593350E+04  0.21067257131E+04  0.25500000920E-02 0. -1.
</event>
<event>
 5   0  0.2590795E-08  0.3597925E+04  0.7818609E-02  0.8090967E-01
       -2   -1    0    0    0  501  0.00000000000E+00  0.00000000000E+00  0.11789515377E+04  0.11789515377E+04  0.25500000920E-02 0. -1.
        2   -1    0    0  501    0  0.00000000000E+00  0.00000000000E+00 -0.27450379466E+04  0.27450379466E+04  0.25500000920E-02 0.  1.
    10030    2    1    2    0    0  0.00000000000E+00  0.00000000000E+00 -0.15660864089E+04  0.39239894843E+04  0.35979253512E+04 0.  0.
        4    1    3    3  502    0  0.11220790527E+03  0.99876248497E+03  0.84420087997E+03  0.13125524195E+04  0.12699999809E+01 0. -1.
       -4    1    3    3    0  502 -0.11220790527E+03 -0.99876248497E+03 -0.24102872889E+04  0.26114370647E+04  0.12699999809E+01 0.  1.
</event>
<event>
 5   0  0.2476968E-08  0.3594774E+04  0.7818609E-02  0.8091690E-01
       -2   -1    0    0    0  501  0.00000000000E+00  0.00000000000E+00  0.17768433355E+04  0.17768433355E+04  0.25500000920E-02 0. -1.
        2   -1    0    0  501    0  0.00000000000E+00  0.00000000000E+00 -0.18181682683E+04  0.18181682683E+04  0.25500000920E-02 0.  1.
    10030    2    1    2    0    0  0.00000000000E+00  0.00000000000E+00 -0.41324932761E+02  0.35950116038E+04  0.35947740794E+04 0.  0.
        2    1    3    3  502    0 -0.53190752916E+03 -0.16482073408E+04 -0.50140943900E+03  0.18030320251E+04  0.25500000920E-02 0.  1.
       -2    1    3    3    0  502  0.53190752916E+03  0.16482073408E+04  0.46008450624E+03  0.17919795788E+04  0.25500000920E-02 0. -1.
</event>
<event>
 5   0  0.8146881E-09  0.3595108E+04  0.7818609E-02  0.8091613E-01
        1   -1    0    0  501    0  0.00000000000E+00  0.00000000000E+00  0.22533718485E+04  0.22533718485E+04  0.50400001928E-02 0.  1.
       -1   -1    0    0    0  501  0.00000000000E+00  0.00000000000E+00 -0.14339399333E+04  0.14339399334E+04  0.50400001928E-02 0. -1.
    10030    2    1    2    0    0  0.00000000000E+00  0.00000000000E+00  0.81943191515E+03  0.36873117819E+04  0.35951077193E+04 0.  0.
        4    1    3    3  502    0 -0.88021216920E+03 -0.91903238824E+03  0.17118452378E+04  0.21330282991E+04  0.12699999809E+01 0.  1.
       -4    1    3    3    0  502  0.88021216920E+03  0.91903238824E+03 -0.89241332270E+03  0.15542834828E+04  0.12699999809E+01 0. -1.
</event>
<event>
 5   0  0.2482243E-08  0.3599492E+04  0.7818609E-02  0.8090608E-01
       -2   -1    0    0    0  501  0.00000000000E+00  0.00000000000E+00  0.19254902894E+04  0.19254902894E+04  0.25500000920E-02 0. -1.
        2   -1    0    0  501    0  0.00000000000E+00  0.00000000000E+00 -0.16822133283E+04  0.16822133283E+04  0.25500000920E-02 0.  1.
    10030    2    1    2    0    0  0.00000000000E+00  0.00000000000E+00  0.24327696118E+03  0.36077036177E+04  0.35994918688E+04 0.  0.
        5    1    3    3  502    0  0.13090082349E+04  0.12194412069E+04 -0.75084412570E+02  0.17905862658E+04  0.46999998093E+01 0.  1.
       -5    1    3    3    0  502 -0.13090082349E+04 -0.12194412069E+04  0.31836137375E+03  0.18171173519E+04  0.46999998093E+01 0. -1.
</event>
<event>
 5   0  0.8063410E-09  0.3600138E+04  0.7818609E-02  0.8090460E-01
        1   -1    0    0  501    0  0.00000000000E+00  0.00000000000E+00  0.24353260897E+04  0.24353260898E+04  0.50400001928E-02 0.  1.
       -1   -1    0    0    0  501  0.00000000000E+00  0.00000000000E+00 -0.13305193449E+04  0.13305193449E+04  0.50400001928E-02 0. -1.
    10030    2    1    2    0    0  0.00000000000E+00  0.00000000000E+00  0.11048067449E+04  0.37658454346E+04  0.36001380382E+04 0.  0.
        2    1    3    3  502    0 -0.16331519741E+04  0.11124196112E+03 -0.23085328687E+03  0.16531344121E+04  0.25500000920E-02 0. -1.
       -2    1    3    3    0  502  0.16331519741E+04 -0.11124196112E+03  0.13356600317E+04  0.21127110225E+04  0.25500000920E-02 0.  1.
</event>
<event>
 5   0  0.8024500E-09  0.3598995E+04  0.7818609E-02  0.8090722E-01
        1   -1    0    0  501    0  0.00000000000E+00  0.00000000000E+00  0.25031073659E+04  0.25031073659E+04  0.50400001928E-02 0.  1.
       -1   -1    0    0    0  501  0.00000000000E+00  0.00000000000E+00 -0.12936684757E+04  0.12936684758E+04  0.50400001928E-02 0. -1.
    10030    2    1    2    0    0  0.00000000000E+00  0.00000000000E+00  0.12094388902E+04  0.37967758417E+04  0.35989949101E+04 0.  0.
        1    1    3    3  502    0 -0.16010658463E+04  0.17253827897E+03  0.14519797856E+04  0.21682773346E+04  0.50400001928E-02 0.  1.
       -1    1    3    3    0  502  0.16010658463E+04 -0.17253827897E+03 -0.24254089537E+03  0.16284985071E+04  0.50400001928E-02 0. -1.
</event>
<event>
 5   0  0.8024500E-09  0.3599285E+04  0.7818609E-02  0.8090655E-01
       -1   -1    0    0    0  501  0.00000000000E+00  0.00000000000E+00  0.30034022802E+04  0.30034022802E+04  0.50400001928E-02 0.  1.
        1   -1    0    0  501    0  0.00000000000E+00  0.00000000000E+00 -0.10783483665E+04  0.10783483665E+04  0.50400001928E-02 0. -1.
    10030    2    1    2    0    0  0.00000000000E+00  0.00000000000E+00  0.19250539137E+04  0.40817506467E+04  0.35992854529E+04 0.  0.
        5    1    3    3  502    0 -0.16034294621E+04  0.65282939799E+03  0.40520473432E+03  0.17780284670E+04  0.46999998093E+01 0. -1.
       -5    1    3    3    0  502  0.16034294621E+04 -0.65282939799E+03  0.15198491794E+04  0.23037221796E+04  0.46999998093E+01 0.  1.
</event>
<event>
 5   0  0.8146881E-09  0.3598403E+04  0.7818609E-02  0.8090858E-01
        1   -1    0    0  501    0  0.00000000000E+00  0.00000000000E+00  0.25810592338E+04  0.25810592338E+04  0.50400001928E-02 0.  1.
       -1   -1    0    0    0  501  0.00000000000E+00  0.00000000000E+00 -0.12541853139E+04  0.12541853139E+04  0.50400001928E-02 0. -1.
    10030    2    1    2    0    0  0.00000000000E+00  0.00000000000E+00  0.13268739199E+04  0.38352445477E+04  0.35984033044E+04 0.  0.
        4    1    3    3  502    0  0.70991901230E+03 -0.15877705204E+04  0.11543209735E+04  0.20874526946E+04  0.12699999809E+01 0.  1.
       -4    1    3    3    0  502 -0.70991901230E+03  0.15877705204E+04  0.17255294640E+03  0.17477918531E+04  0.12699999809E+01 0. -1.
</event>
<event>
 5   0  0.2494592E-08  0.3601793E+04  0.7818609E-02  0.8090081E-01
        2   -1    0    0  501    0  0.00000000000E+00  0.00000000000E+00  0.31782219133E+04  0.31782219133E+04  0.25500000920E-02 0.  1.
       -2   -1    0    0    0  501  0.00000000000E+00  0.00000000000E+00 -0.10204534622E+04  0.10204534623E+04  0.25500000920E-02 0. -1.
    10030    2    1    2    0    0  0.00000000000E+00  0.00000000000E+00  0.21577684511E+04  0.41986753756E+04  0.36017926399E+04 0.  0.
        1    1    3    3  502    0 -0.37887575653E+02  0.12547872556E+04  0.25841063772E+04  0.28728961509E+04  0.50400001928E-02 0.  1.
       -1    1    3    3    0  502  0.37887575653E+02 -0.12547872556E+04 -0.42633792616E+03  0.13257792246E+04  0.50400001928E-02 0. -1.
</event>
<event>
 5   0  0.8024500E-09  0.3599164E+04  0.7818609E-02  0.8090683E-01
        1   -1    0    0  501    0  0.00000000000E+00  0.00000000000E+00  0.17133795317E+04  0.17133795318E+04  0.50400001928E-02 0. -1.
       -1   -1    0    0    0  501  0.00000000000E+00  0.00000000000E+00 -0.18901214362E+04  0.18901214362E+04  0.50400001928E-02 0.  1.
    10030    2    1    2    0    0  0.00000000000E+00  0.00000000000E+00 -0.17674190443E+03  0.36035009679E+04  0.35991640036E+04 0.  0.
        1    1    3    3  502    0  0.42017041168E+03  0.15975022861E+04 -0.80333132660E+03  0.18368173424E+04  0.50400001928E-02 0.  1.
       -1    1    3    3    0  502 -0.42017041168E+03 -0.15975022861E+04  0.62658942218E+03  0.17666836256E+04  0.50400001928E-02 0. -1.
</event>
<event>
 5   0  0.2608070E-08  0.3600222E+04  0.7818609E-02  0.8090441E-01
        2   -1    0    0  501    0  0.00000000000E+00  0.00000000000E+00  0.23036450102E+04  0.23036450102E+04  0.25500000920E-02 0.  1.
       -2   -1    0    0    0  501  0.00000000000E+00  0.00000000000E+00 -0.14066402528E+04  0.14066402528E+04  0.25500000920E-02 0. -1.
    10030    2    1    2    0    0  0.00000000000E+00  0.00000000000E+00  0.89700475739E+03  0.37102852630E+04  0.36002221040E+04 0.  0.
        3    1    3    3  502    0 -0.13161204655E+04 -0.63994605966E+03 -0.63172885371E+03  0.15939841259E+04  0.10100000352E+00 0. -1.
       -3    1    3    3    0  502  0.13161204655E+04  0.63994605966E+03  0.15287336111E+04  0.21163011371E+04  0.10100000352E+00 0.  1.
</event>
<event>
 5   0  0.2494592E-08  0.3597270E+04  0.7818609E-02  0.8091117E-01
        2   -1    0    0  501    0  0.00000000000E+00  0.00000000000E+00  0.18899933166E+04  0.18899933166E+04  0.25500000920E-02 0.  1.
       -2   -1    0    0    0  501  0.00000000000E+00  0.00000000000E+00 -0.17116926316E+04  0.17116926316E+04  0.25500000920E-02 0. -1.
    10030    2    1    2    0    0  0.00000000000E+00  0.00000000000E+00  0.17830068505E+03  0.36016859482E+04  0.35972698725E+04 0.  0.
        1    1    3    3  502    0 -0.42321478106E+03 -0.93201400815E+03  0.15699273259E+04  0.18741485189E+04  0.50400001928E-02 0.  1.
       -1    1    3    3    0  502  0.42321478106E+03  0.93201400815E+03 -0.13916266408E+04  0.17275374293E+04  0.50400001928E-02 0. -1.
</event>
<event>
 5   0  0.2494592E-08  0.3602063E+04  0.7818609E-02  0.8090019E-01
        2   -1    0    0  501    0  0.00000000000E+00  0.00000000000E+00  0.25221063381E+04  0.25221063381E+04  0.25500000920E-02 0. -1.
       -2   -1    0    0    0  501  0.00000000000E+00  0.00000000000E+00 -0.12861129526E+04  0.12861129526E+04  0.25500000920E-02 0.  1.
    10030    2    1    2    0    0  0.00000000000E+00  0.00000000000E+00  0.12359933855E+04  0.38082192907E+04  0.36020625365E+04 0.  0.
        1    1    3    3  502    0  0.10181506461E+04 -0.23869742488E+03 -0.93224952057E+03  0.14009626574E+04  0.50400001928E-02 0.  1.
       -1    1    3    3    0  502 -0.10181506461E+04  0.23869742488E+03  0.21682429061E+04  0.24072566333E+04  0.50400001928E-02 0. -1.
</event>
<event>
 5   0  0.2482243E-08  0.3602689E+04  0.7818609E-02  0.8089876E-01
        2   -1    0    0  501    0  0.00000000000E+00  0.00000000000E+00  0.10141147545E+04  0.10141147545E+04  0.25500000920E-02 0. -1.
       -2   -1    0    0    0  501  0.00000000000E+00  0.00000000000E+00 -0.31996786590E+04  0.31996786590E+04  0.25500000920E-02 0.  1.
    10030    2    1    2    0    0  0.00000000000E+00  0.00000000000E+00 -0.21855639045E+04  0.42137934135E+04  0.36026886282E+04 0.  0.
        5    1    3    3  502    0  0.14123937310E+04  0.36677994630E+02  0.21417503003E+03  0.14290186703E+04  0.46999998093E+01 0. -1.
       -5    1    3    3    0  502 -0.14123937310E+04 -0.36677994630E+02 -0.23997389345E+04  0.27847747432E+04  0.46999998093E+01 0.  1.
</event>
<event>
 5   0  0.8024500E-09  0.3599784E+04  0.7818609E-02  0.8090541E-01
        1   -1    0    0  501    0  0.00000000000E+00  0.00000000000E+00  0.23283733213E+04  0.23283733213E+04  0.50400001928E-02 0. -1.
       -1   -1    0    0    0  501  0.00000000000E+00  0.00000000000E+00 -0.13913621989E+04  0.13913621989E+04  0.50400001928E-02 0.  1.
    10030    2    1    2    0    0  0.00000000000E+00  0.00000000000E+00  0.93701112242E+03  0.37197355203E+04  0.35997836737E+04 0.  0.
        5    1    3    3  502    0  0.85542155684E+03  0.91419071318E+03  0.18046902814E+04  0.21964561917E+04  0.46999998093E+01 0. -1.
       -5    1    3    3    0  502 -0.85542155684E+03 -0.91419071318E+03 -0.86767915902E+03  0.15232793286E+04  0.46999998093E+01 0.  1.
</event>
<event>
 5   0  0.2608070E-08  0.3601370E+04  0.7818609E-02  0.8090178E-01
       -2   -1    0    0    0  501  0.00000000000E+00  0.00000000000E+00  0.19551705894E+04  0.19551705894E+04  0.25500000920E-02 0.  1.
        2   -1    0    0  501    0  0.00000000000E+00  0.00000000000E+00 -0.16584054631E+04  0.16584054631E+04  0.25500000920E-02 0. -1.
    10030    2    1    2    0    0  0.00000000000E+00  0.00000000000E+00  0.29676512636E+03  0.36135760525E+04  0.36013695099E+04 0.  0.
        3    1    3    3  502    0 -0.55210947487E+03  0.47511947179E+03  0.18007496170E+04  0.19424887588E+04  0.10100000352E+00 0.  1.
       -3    1    3    3    0  502  0.55210947487E+03 -0.47511947179E+03 -0.15039844907E+04  0.16710872937E+04  0.10100000352E+00 0. -1.
</event>
<event>
 5   0  0.8063410E-09  0.3600061E+04  0.7818609E-02  0.8090478E-01
        1   -1    0    0  501    0  0.00000000000E+00  0.00000000000E+00  0.11604073675E+04  0.11604073676E+04  0.50400001928E-02 0. -1.
       -1   -1    0    0    0  501  0.00000000000E+00  0.00000000000E+00 -0.27922178020E+04  0.27922178020E+04  0.50400001928E-02 0.  1.
    10030    2    1    2    0    0  0.00000000000E+00  0.00000000000E+00 -0.16318104345E+04  0.39526251696E+04  0.36000611713E+04 0.  0.
        2    1    3    3  502    0  0.21659193422E+03 -0.13607678465E+04 -0.20875696730E+04  0.25013093247E+04  0.25500000920E-02 0.  1.
       -2    1    3    3    0  502 -0.21659193422E+03  0.13607678465E+04  0.45575923854E+03  0.14513158449E+04  0.25500000920E-02 0. -1.
</event>
<event>
 5   0  0.8024500E-09  0.3599746E+04  0.7818609E-02  0.8090550E-01
        1   -1    0    0  501    0  0.00000000000E+00  0.00000000000E+00  0.14983611002E+04  0.14983611002E+04  0.50400001928E-02 0.  1.
       -1   -1    0    0    0  501  0.00000000000E+00  0.00000000000E+00 -0.21620579355E+04  0.21620579355E+04  0.50400001928E-02 0. -1.
    10030    2    1    2    0    0  0.00000000000E+00  0.00000000000E+00 -0.66369683528E+03  0.36604190356E+04  0.35997463837E+04 0.  0.
        1    1    3    3  502    0 -0.10850384646E+04  0.14163936095E+03 -0.17849808673E+04  0.20936873871E+04  0.50400001928E-02 0. -1.
       -1    1    3    3    0  502  0.10850384646E+04 -0.14163936095E+03  0.11212840320E+04  0.15667316486E+04  0.50400001928E-02 0.  1.
</event>
<event>
 5   0  0.8247570E-09  0.3601355E+04  0.7818609E-02  0.8090181E-01
       -1   -1    0    0    0  501  0.00000000000E+00  0.00000000000E+00  0.17800153476E+04  0.17800153476E+04  0.50400001928E-02 0. -1.
        1   -1    0    0  501    0  0.00000000000E+00  0.00000000000E+00 -0.18215790751E+04  0.18215790751E+04  0.50400001928E-02 0.  1.
    10030    2    1    2    0    0  0.00000000000E+00  0.00000000000E+00 -0.41563727490E+02  0.36015944227E+04  0.36013545843E+04 0.  0.
        3    1    3    3  502    0  0.99135731603E+03 -0.12553327784E+04 -0.84775227852E+03  0.18103407548E+04  0.10100000352E+00 0.  1.
       -3    1    3    3    0  502 -0.99135731603E+03  0.12553327784E+04  0.80618855103E+03  0.17912536679E+04  0.10100000352E+00 0. -1.
</event>
<event>
 5   0  0.8247570E-09  0.3599372E+04  0.7818609E-02  0.8090635E-01
        1   -1    0    0  501    0  0.00000000000E+00  0.00000000000E+00  0.30229753550E+04  0.30229753550E+04  0.50400001928E-02 0.  1.
       -1   -1    0    0    0  501  0.00000000000E+00  0.00000000000E+00 -0.10714180779E+04  0.10714180779E+04  0.50400001928E-02 0. -1.
    10030    2    1    2    0    0  0.00000000000E+00  0.00000000000E+00  0.19515572771E+04  0.40943934329E+04  0.35993724143E+04 0.  0.
        3    1    3    3  502    0 -0.12489711821E+04  0.12731136994E+04  0.12500222585E+04  0.21779125699E+04  0.10100000352E+00 0.  1.
       -3    1    3    3    0  502  0.12489711821E+04 -0.12731136994E+04  0.70153501866E+03  0.19164808629E+04  0.10100000352E+00 0. -1.
</event>
<event>
 5   0  0.2476968E-08  0.3600547E+04  0.7818609E-02  0.8090366E-01
        2   -1    0    0  501    0  0.00000000000E+00  0.00000000000E+00  0.25342859605E+04  0.25342859605E+04  0.25500000920E-02 0. -1.
       -2   -1    0    0    0  501  0.00000000000E+00  0.00000000000E+00 -0.12788550812E+04  0.12788550812E+04  0.25500000920E-02 0.  1.
    10030    2    1    2    0    0  0.00000000000E+00  0.00000000000E+00  0.12554308793E+04  0.38131410417E+04  0.36005468905E+04 0.  0.
        2    1    3    3  502    0  0.38080504102E+03 -0.19542772722E+03 -0.12241844944E+04  0.12968547151E+04  0.25500000920E-02 0.  1.
       -2    1    3    3    0  502 -0.38080504102E+03  0.19542772722E+03  0.24796153737E+04  0.25162863266E+04  0.25500000920E-02 0. -1.
</event>
<event>
 5   0  0.8024500E-09  0.3599399E+04  0.7818609E-02  0.8090629E-01
       -1   -1    0    0    0  501  0.00000000000E+00  0.00000000000E+00  0.28728520060E+04  0.28728520060E+04  0.50400001928E-02 0.  1.
        1   -1    0    0  501    0  0.00000000000E+00  0.00000000000E+00 -0.11274227288E+04  0.11274227289E+04  0.50400001928E-02 0. -1.
    10030    2    1    2    0    0  0.00000000000E+00  0.00000000000E+00  0.17454292772E+04  0.40002747349E+04  0.35993991989E+04 0.  0.
        5    1    3    3  502    0  0.40794499287E+03  0.72169655534E+03 -0.90257322050E+03  0.12255307191E+04  0.46999998093E+01 0. -1.
       -5    1    3    3    0  502 -0.40794499287E+03 -0.72169655534E+03  0.26480024977E+04  0.27747440157E+04  0.46999998093E+01 0.  1.
</event>
<event>
 5   0  0.2482243E-08  0.3599661E+04  0.7818609E-02  0.8090569E-01
        2   -1    0    0  501    0  0.00000000000E+00  0.00000000000E+00  0.23350579064E+04  0.23350579064E+04  0.25500000920E-02 0. -1.
       -2   -1    0    0    0  501  0.00000000000E+00  0.00000000000E+00 -0.13872849224E+04  0.13872849224E+04  0.25500000920E-02 0.  1.
    10030    2    1    2    0    0  0.00000000000E+00  0.00000000000E+00  0.94777298400E+03  0.37223428288E+04  0.35996614432E+04 0.  0.
        5    1    3    3  502    0  0.66280635298E+03  0.13043648378E+04 -0.61002053292E+03  0.15851899042E+04  0.46999998093E+01 0. -1.
       -5    1    3    3    0  502 -0.66280635298E+03 -0.13043648378E+04  0.15577935169E+04  0.21371529246E+04  0.46999998093E+01 0.  1.
</event>
<event>
 5   0  0.8063410E-09  0.3599926E+04  0.7818609E-02  0.8090509E-01
       -1   -1    0    0    0  501  0.00000000000E+00  0.00000000000E+00  0.11499109067E+04  0.11499109067E+04  0.50400001928E-02 0. -1.
        1   -1    0    0  501    0  0.00000000000E+00  0.00000000000E+00 -0.28174932515E+04  0.28174932515E+04  0.50400001928E-02 0.  1.
    10030    2    1    2    0    0  0.00000000000E+00  0.00000000000E+00 -0.16675823448E+04  0.39674041582E+04  0.35999256767E+04 0.  0.
        2    1    3    3  502    0 -0.11506479439E+04  0.10167623859E+04  0.20126610000E+03  0.15486460161E+04  0.25500000920E-02 0. -1.
       -2    1    3    3    0  502  0.11506479439E+04 -0.10167623859E+04 -0.18688484448E+04  0.24187581421E+04  0.25500000920E-02 0.  1.
</event>
<event>
 5   0  0.8063410E-09  0.3598226E+04  0.7818609E-02  0.8090898E-01
       -1   -1    0    0    0  501  0.00000000000E+00  0.00000000000E+00  0.20252898566E+04  0.20252898566E+04  0.50400001928E-02 0.  1.
        1   -1    0    0  501    0  0.00000000000E+00  0.00000000000E+00 -0.15981943784E+04  0.15981943784E+04  0.50400001928E-02 0. -1.
    10030    2    1    2    0    0  0.00000000000E+00  0.00000000000E+00  0.42709547819E+03  0.36234842351E+04  0.35982255980E+04 0.  0.
        2    1    3    3  502    0 -0.10431827491E+04 -0.70623039438E+03 -0.10799201260E+04  0.16592827054E+04  0.25500000920E-02 0. -1.
       -2    1    3    3    0  502  0.10431827491E+04  0.70623039438E+03  0.15070156042E+04  0.19642015297E+04  0.25500000920E-02 0.  1.
</event>
<event>
 5   0  0.8024500E-09  0.3597776E+04  0.7818609E-02  0.8091001E-01
       -1   -1    0    0    0  501  0.00000000000E+00  0.00000000000E+00  0.18937552470E+04  0.18937552470E+04  0.50400001928E-02 0. -1.
        1   -1    0    0  501    0  0.00000000000E+00  0.00000000000E+00 -0.17087729870E+04  0.17087729870E+04  0.50400001928E-02 0.  1.
    10030    2    1    2    0    0  0.00000000000E+00  0.00000000000E+00  0.18498226002E+03  0.36025282341E+04  0.35977758742E+04 0.  0.
        1    1    3    3  502    0  0.16449093515E+04  0.71335917528E+03 -0.53954314032E+02  0.17937444510E+04  0.50400001928E-02 0.  1.
       -1    1    3    3    0  502 -0.16449093515E+04 -0.71335917528E+03  0.23893657405E+03  0.18087837831E+04  0.50400001928E-02 0. -1.
</event>
<event>
 5   0  0.8063410E-09  0.3601506E+04  0.7818609E-02  0.8090147E-01
        1   -1    0    0  501    0  0.00000000000E+00  0.00000000000E+00  0.14013337325E+04  0.14013337325E+04  0.50400001928E-02 0. -1.
       -1   -1    0    0    0  501  0.00000000000E+00  0.00000000000E+00 -0.23140174929E+04  0.23140174929E+04  0.50400001928E-02 0.  1.
    10030    2    1    2    0    0  0.00000000000E+00  0.00000000000E+00 -0.91268376044E+03  0.37153512254E+04  0.36015056687E+04 0.  0.
        2    1    3    3  502    0 -0.14084649485E+03  0.13513953275E+04 -0.16754784746E+04  0.21571590542E+04  0.25500000920E-02 0.  1.
       -2    1    3    3    0  502  0.14084649485E+03 -0.13513953275E+04  0.76279471413E+03  0.15581921712E+04  0.25500000920E-02 0. -1.
</event>
<event>
 5   0  0.2494592E-08  0.3599959E+04  0.7818609E-02  0.8090501E-01
        2   -1    0    0  501    0  0.00000000000E+00  0.00000000000E+00  0.17513934238E+04  0.17513934238E+04  0.25500000920E-02 0. -1.
       -2   -1    0    0    0  501  0.00000000000E+00  0.00000000000E+00 -0.18499130709E+04  0.18499130709E+04  0.25500000920E-02 0.  1.
    10030    2    1    2    0    0  0.00000000000E+00  0.00000000000E+00 -0.98519647125E+02  0.36013064946E+04  0.35999586591E+04 0.  0.
        1    1    3    3  502    0 -0.29280672201E+03  0.89000111418E+03 -0.15867437760E+04  0.18427136431E+04  0.50400001928E-02 0.  1.
       -1    1    3    3    0  502  0.29280672201E+03 -0.89000111418E+03  0.14882241289E+04  0.17585928516E+04  0.50400001928E-02 0. -1.
</event>
<event>
 5   0  0.2494592E-08  0.3600436E+04  0.7818609E-02  0.8090392E-01
       -2   -1    0    0    0  501  0.00000000000E+00  0.00000000000E+00  0.19708068325E+04  0.19708068325E+04  0.25500000920E-02 0. -1.
        2   -1    0    0  501    0  0.00000000000E+00  0.00000000000E+00 -0.16443949042E+04  0.16443949042E+04  0.25500000920E-02 0.  1.
    10030    2    1    2    0    0  0.00000000000E+00  0.00000000000E+00  0.32641192830E+03  0.36152017366E+04  0.36004359249E+04 0.  0.
        1    1    3    3  502    0  0.80081678721E+03 -0.12836249298E+04 -0.81638935637E+03  0.17191544632E+04  0.50400001928E-02 0.  1.
       -1    1    3    3    0  502 -0.80081678721E+03  0.12836249298E+04  0.11428012847E+04  0.18960472735E+04  0.50400001928E-02 0. -1.
</event>
<event>
 5   0  0.8146881E-09  0.3598486E+04  0.7818609E-02  0.8090839E-01
       -1   -1    0    0    0  501  0.00000000000E+00  0.00000000000E+00  0.14600008064E+04  0.14600008064E+04  0.50400001928E-02 0.  1.
        1   -1    0    0  501    0  0.00000000000E+00  0.00000000000E+00 -0.22173101119E+04  0.22173101119E+04  0.50400001928E-02 0. -1.
    10030    2    1    2    0    0  0.00000000000E+00  0.00000000000E+00 -0.75730930547E+03  0.36773109183E+04  0.35984855434E+04 0.  0.
        4    1    3    3  502    0  0.10903556665E+04  0.11970214753E+03 -0.18361038118E+04  0.21388040827E+04  0.12699999809E+01 0. -1.
       -4    1    3    3    0  502 -0.10903556665E+04 -0.11970214753E+03  0.10787945063E+04  0.15385068356E+04  0.12699999809E+01 0.  1.
</event>
<event>
 5   0  0.2482243E-08  0.3600905E+04  0.7818609E-02  0.8090284E-01
       -2   -1    0    0    0  501  0.00000000000E+00  0.00000000000E+00  0.17660837885E+04  0.17660837885E+04  0.25500000920E-02 0. -1.
        2   -1    0    0  501    0  0.00000000000E+00  0.00000000000E+00 -0.18354899080E+04  0.18354899080E+04  0.25500000920E-02 0.  1.
    10030    2    1    2    0    0  0.00000000000E+00  0.00000000000E+00 -0.69406119528E+02  0.36015736966E+04  0.36009048699E+04 0.  0.
        5    1    3    3  502    0 -0.15897404123E+04  0.84406177912E+03  0.88023200449E+01  0.17999484538E+04  0.46999998093E+01 0.  1.
       -5    1    3    3    0  502  0.15897404123E+04 -0.84406177912E+03 -0.78208439573E+02  0.18016252428E+04  0.46999998093E+01 0. -1.
</event>
<event>
 5   0  0.8024500E-09  0.3599696E+04  0.7818609E-02  0.8090561E-01
       -1   -1    0    0    0  501  0.00000000000E+00  0.00000000000E+00  0.12412185823E+04  0.12412185823E+04  0.50400001928E-02 0. -1.
        1   -1    0    0  501    0  0.00000000000E+00  0.00000000000E+00 -0.26098968098E+04  0.26098968098E+04  0.50400001928E-02 0.  1.
    10030    2    1    2    0    0  0.00000000000E+00  0.00000000000E+00 -0.13686782275E+04  0.38511153921E+04  0.35996957751E+04 0.  0.
        5    1    3    3  502    0  0.64235137812E+03  0.46273060080E+03 -0.24136183462E+04  0.25401398609E+04  0.46999998093E+01 0.  1.
       -5    1    3    3    0  502 -0.64235137812E+03 -0.46273060080E+03  0.10449401187E+04  0.13109755312E+04  0.46999998093E+01 0. -1.
</event>
<event>
 5   0  0.8063410E-09  0.3596924E+04  0.7818609E-02  0.8091197E-01
        1   -1    0    0  501    0  0.00000000000E+00  0.00000000000E+00  0.20703399716E+04  0.20703399716E+04  0.50400001928E-02 0.  1.
       -1   -1    0    0    0  501  0.00000000000E+00  0.00000000000E+00 -0.15622872463E+04  0.15622872463E+04  0.50400001928E-02 0. -1.
    10030    2    1    2    0    0  0.00000000000E+00  0.00000000000E+00  0.50805272525E+03  0.36326272179E+04  0.35969240932E+04 0.  0.
        2    1    3    3  502    0 -0.31414707901E+03 -0.35349111823E+03 -0.14983688378E+04  0.15712267602E+04  0.25500000920E-02 0. -1.
       -2    1    3    3    0  502  0.31414707901E+03  0.35349111823E+03  0.20064215631E+04  0.20614004576E+04  0.25500000920E-02 0.  1.
</event>
<event>
 5   0  0.2482243E-08  0.3599324E+04  0.7818609E-02  0.8090647E-01
       -2   -1    0    0    0  501  0.00000000000E+00  0.00000000000E+00  0.27238280302E+04  0.27238280302E+04  0.25500000920E-02 0.  1.
        2   -1    0    0  501    0  0.00000000000E+00  0.00000000000E+00 -0.11890556110E+04  0.11890556110E+04  0.25500000920E-02 0. -1.
    10030    2    1    2    0    0  0.00000000000E+00  0.00000000000E+00  0.15347724192E+04  0.39128836412E+04  0.35993238269E+04 0.  0.
        5    1    3    3  502    0 -0.67743895219E+03 -0.77700367528E+03 -0.83628636678E+03  0.13274242813E+04  0.46999998093E+01 0. -1.
       -5    1    3    3    0  502  0.67743895219E+03  0.77700367528E+03  0.23710587860E+04  0.25854593599E+04  0.46999998093E+01 0.  1.
</event>
<event>
 5   0  0.2494592E-08  0.3600213E+04  0.7818609E-02  0.8090443E-01
        2   -1    0    0  501    0  0.00000000000E+00  0.00000000000E+00  0.20933229803E+04  0.20933229803E+04  0.25500000920E-02 0.  1.
       -2   -1    0    0    0  501  0.00000000000E+00  0.00000000000E+00 -0.15479611642E+04  0.15479611642E+04  0.25500000920E-02 0. -1.
    10030    2    1    2    0    0  0.00000000000E+00  0.00000000000E+00  0.54536181614E+03  0.36412841445E+04  0.36002125924E+04 0.  0.
        1    1    3    3  502    0  0.65641687572E+03  0.12529671650E+04 -0.85338147437E+03  0.16519896404E+04  0.50400001928E-02 0. -1.
       -1    1    3    3    0  502 -0.65641687572E+03 -0.12529671650E+04  0.13987432905E+04  0.19892945041E+04  0.50400001928E-02 0.  1.
</event>
<event>
 5   0  0.8146881E-09  0.3593893E+04  0.7818609E-02  0.8091892E-01
       -1   -1    0    0    0  501  0.00000000000E+00  0.00000000000E+00  0.97430585822E+03  0.97430585823E+03  0.50400001928E-02 0.  1.
        1   -1    0    0  501    0  0.00000000000E+00  0.00000000000E+00 -0.33141722081E+04  0.33141722081E+04  0.50400001928E-02 0. -1.
    10030    2    1    2    0    0  0.00000000000E+00  0.00000000000E+00 -0.23398663499E+04  0.42884780663E+04  0.35938933749E+04 0.  0.
        4    1    3    3  502    0  0.11315001679E+04 -0.10156016464E+04 -0.23127802654E+04  0.27677957842E+04  0.12699999809E+01 0. -1.
       -4    1    3    3    0  502 -0.11315001679E+04  0.10156016464E+04 -0.27086084443E+02  0.15206822821E+04  0.12699999809E+01 0.  1.
</event>
<event>
 5   0  0.8024500E-09  0.3600066E+04  0.7818609E-02  0.8090477E-01
       -3   -1    0    0    0  501  0.00000000000E+00  0.00000000000E+00  0.14419840491E+04  0.14419840526E+04  0.10100000352E+00 0. -1.
        3   -1    0    0  501    0  0.00000000000E+00  0.00000000000E+00 -0.22469866401E+04  0.22469866424E+04  0.10100000352E+00 0.  1.
    10030    2    1    2    0    0  0.00000000000E+00  0.00000000000E+00 -0.80500259101E+03  0.36889706950E+04  0.36000660573E+04 0.  0.
        4    1    3    3  502    0  0.10882066756E+03 -0.14648295719E+04  0.66364954422E+03  0.16118312390E+04  0.12699999809E+01 0. -1.
       -4    1    3    3    0  502 -0.10882066756E+03  0.14648295719E+04 -0.14686521352E+04  0.20771394560E+04  0.12699999809E+01 0.  1.
</event>
<event>
 5   0  0.8024500E-09  0.3597052E+04  0.7818609E-02  0.8091167E-01
        1   -1    0    0  501    0  0.00000000000E+00  0.00000000000E+00  0.30143302739E+04  0.30143302739E+04  0.50400001928E-02 0. -1.
       -1   -1    0    0    0  501  0.00000000000E+00  0.00000000000E+00 -0.10731057813E+04  0.10731057813E+04  0.50400001928E-02 0.  1.
    10030    2    1    2    0    0  0.00000000000E+00  0.00000000000E+00  0.19412244926E+04  0.40874360552E+04  0.35970517059E+04 0.  0.
        5    1    3    3  502    0 -0.50834699641E+03  0.20285819207E+03 -0.97616434223E+03  0.11191456688E+04  0.46999998093E+01 0.  1.
       -5    1    3    3    0  502  0.50834699641E+03 -0.20285819207E+03  0.29173888348E+04  0.29682903865E+04  0.46999998093E+01 0. -1.
</event>
<event>
 5   0  0.8247570E-09  0.3597720E+04  0.7818609E-02  0.8091014E-01
        1   -1    0    0  501    0  0.00000000000E+00  0.00000000000E+00  0.10344587060E+04  0.10344587060E+04  0.50400001928E-02 0.  1.
       -1   -1    0    0    0  501  0.00000000000E+00  0.00000000000E+00 -0.31281060895E+04  0.31281060895E+04  0.50400001928E-02 0. -1.
    10030    2    1    2    0    0  0.00000000000E+00  0.00000000000E+00 -0.20936473835E+04  0.41625647955E+04  0.35977195986E+04 0.  0.
        3    1    3    3  502    0 -0.76350963915E+03  0.14739103083E+04 -0.24478085605E+03  0.16778784949E+04  0.10100000352E+00 0.  1.
       -3    1    3    3    0  502  0.76350963915E+03 -0.14739103083E+04 -0.18488665274E+04  0.24846863006E+04  0.10100000352E+00 0. -1.
</event>
<event>
 5   0  0.8024500E-09  0.3600352E+04  0.7818609E-02  0.8090411E-01
       -1   -1    0    0    0  501  0.00000000000E+00  0.00000000000E+00  0.16906058721E+04  0.16906058721E+04  0.50400001928E-02 0. -1.
        1   -1    0    0  501    0  0.00000000000E+00  0.00000000000E+00 -0.19168474906E+04  0.19168474906E+04  0.50400001928E-02 0.  1.
    10030    2    1    2    0    0  0.00000000000E+00  0.00000000000E+00 -0.22624161854E+03  0.36074533627E+04  0.36003519959E+04 0.  0.
        5    1    3    3  502    0 -0.27761223390E+03  0.61848845655E+03 -0.17840476263E+04  0.19085189405E+04  0.46999998093E+01 0.  1.
       -5    1    3    3    0  502  0.27761223390E+03 -0.61848845655E+03  0.15578060078E+04  0.16989344223E+04  0.46999998093E+01 0. -1.
</event>
<event>
 5   0  0.8146881E-09  0.3602701E+04  0.7818609E-02  0.8089873E-01
        1   -1    0    0  501    0  0.00000000000E+00  0.00000000000E+00  0.17114300147E+04  0.17114300147E+04  0.50400001928E-02 0. -1.
       -1   -1    0    0    0  501  0.00000000000E+00  0.00000000000E+00 -0.18959955036E+04  0.18959955036E+04  0.50400001928E-02 0.  1.
    10030    2    1    2    0    0  0.00000000000E+00  0.00000000000E+00 -0.18456548888E+03  0.36074255182E+04  0.36027009937E+04 0.  0.
        4    1    3    3  502    0  0.57766912299E+03 -0.13200857398E+04 -0.11746878566E+04  0.18590914849E+04  0.12699999809E+01 0.  1.
       -4    1    3    3    0  502 -0.57766912299E+03  0.13200857398E+04  0.99012236776E+03  0.17483340333E+04  0.12699999809E+01 0. -1.
</event>
<event>
 5   0  0.8024500E-09  0.3600855E+04  0.7818609E-02  0.8090296E-01
        1   -1    0    0  501    0  0.00000000000E+00  0.00000000000E+00  0.12668428311E+04  0.12668428311E+04  0.50400001928E-02 0.  1.
       -1   -1    0    0    0  501  0.00000000000E+00  0.00000000000E+00 -0.25587538732E+04  0.25587538732E+04  0.50400001928E-02 0. -1.
    10030    2    1    2    0    0  0.00000000000E+00  0.00000000000E+00 -0.12919110421E+04  0.38255967044E+04  0.36008548990E+04 0.  0.
        5    1    3    3  502    0 -0.16376697711E+04 -0.42194104484E+03 -0.13021800171E+04  0.21344065713E+04  0.46999998093E+01 0. -1.
       -5    1    3    3    0  502  0.16376697711E+04  0.42194104484E+03  0.10268975009E+02  0.16911901331E+04  0.46999998093E+01 0.  1.
</event>
<event>
 5   0  0.2590795E-08  0.3598779E+04  0.7818609E-02  0.8090771E-01
        2   -1    0    0  501    0  0.00000000000E+00  0.00000000000E+00  0.17141314232E+04  0.17141314232E+04  0.25500000920E-02 0. -1.
       -2   -1    0    0    0  501  0.00000000000E+00  0.00000000000E+00 -0.18888879553E+04  0.18888879553E+04  0.25500000920E-02 0.  1.
    10030    2    1    2    0    0  0.00000000000E+00  0.00000000000E+00 -0.17475653203E+03  0.36030193785E+04  0.35987787924E+04 0.  0.
        4    1    3    3  502    0  0.13061047273E+04 -0.54356906397E+03  0.10258778917E+04  0.17475136473E+04  0.12699999809E+01 0. -1.
       -4    1    3    3    0  502 -0.13061047273E+04  0.54356906397E+03 -0.12006344238E+04  0.18555057312E+04  0.12699999809E+01 0.  1.
</event>
<event>
 5   0  0.8024500E-09  0.3600561E+04  0.7818609E-02  0.8090363E-01
       -1   -1    0    0    0  501  0.00000000000E+00  0.00000000000E+00  0.21082757165E+04  0.21082757166E+04  0.50400001928E-02 0. -1.
        1   -1    0    0  501    0  0.00000000000E+00  0.00000000000E+00 -0.15372798203E+04  0.15372798203E+04  0.50400001928E-02 0.  1.
    10030    2    1    2    0    0  0.00000000000E+00  0.00000000000E+00  0.57099589622E+03  0.36455555369E+04  0.36005609089E+04 0.  0.
        5    1    3    3  502    0 -0.12085320336E+04 -0.22557834463E+02 -0.10653140438E+04  0.16112028531E+04  0.46999998093E+01 0.  1.
       -5    1    3    3    0  502  0.12085320336E+04  0.22557834463E+02  0.16363099400E+04  0.20343526837E+04  0.46999998093E+01 0. -1.
</event>
<event>
 5   0  0.2608070E-08  0.3601560E+04  0.7818609E-02  0.8090134E-01
        2   -1    0    0  501    0  0.00000000000E+00  0.00000000000E+00  0.24688869908E+04  0.24688869908E+04  0.25500000920E-02 0.  1.
       -2   -1    0    0    0  501  0.00000000000E+00  0.00000000000E+00 -0.13134698663E+04  0.13134698663E+04  0.25500000920E-02 0. -1.
    10030    2    1    2    0    0  0.00000000000E+00  0.00000000000E+00  0.11554171245E+04  0.37823568572E+04  0.36015600319E+04 0.  0.
        3    1    3    3  502    0 -0.11352772590E+04  0.11776662280E+04 -0.21312481924E+03  0.16495982536E+04  0.10100000352E+00 0. -1.
       -3    1    3    3    0  502  0.11352772590E+04 -0.11776662280E+04  0.13685419437E+04  0.21327586036E+04  0.10100000352E+00 0.  1.
</event>
<event>
 5   0  0.2608070E-08  0.3600482E+04  0.7818609E-02  0.8090381E-01
        2   -1    0    0  501    0  0.00000000000E+00  0.00000000000E+00  0.16656393175E+04  0.16656393175E+04  0.25500000920E-02 0.  1.
       -2   -1    0    0    0  501  0.00000000000E+00  0.00000000000E+00 -0.19457201669E+04  0.19457201669E+04  0.25500000920E-02 0. -1.
    10030    2    1    2    0    0  0.00000000000E+00  0.00000000000E+00 -0.28008084942E+03  0.36113594844E+04  0.36004821960E+04 0.  0.
        3    1    3    3  502    0 -0.79213641673E+03 -0.87094516626E+03  0.12260000362E+04  0.16997357690E+04  0.10100000352E+00 0.  1.
       -3    1    3    3    0  502  0.79213641673E+03  0.87094516626E+03 -0.15060808856E+04  0.19116237155E+04  0.10100000352E+00 0. -1.
</event>
<event>
 5   0  0.8063410E-09  0.3600115E+04  0.7818609E-02  0.8090465E-01
       -1   -1    0    0    0  501  0.00000000000E+00  0.00000000000E+00  0.10125116247E+04  0.10125116247E+04  0.50400001928E-02 0.  1.
        1   -1    0    0  501    0  0.00000000000E+00  0.00000000000E+00 -0.32001675534E+04  0.32001675534E+04  0.50400001928E-02 0. -1.
    10030    2    1    2    0    0  0.00000000000E+00  0.00000000000E+00 -0.21876559288E+04  0.42126791781E+04  0.36001149142E+04 0.  0.
        2    1    3    3  502    0  0.16003217004E+04 -0.24188684386E+03 -0.17195363720E+03  0.16276077056E+04  0.25500000920E-02 0.  1.
       -2    1    3    3    0  502 -0.16003217004E+04  0.24188684386E+03 -0.20157022916E+04  0.25850714725E+04  0.25500000920E-02 0. -1.
</event>
<event>
 5   0  0.2482243E-08  0.3599673E+04  0.7818609E-02  0.8090567E-01
       -2   -1    0    0    0  501  0.00000000000E+00  0.00000000000E+00  0.27376213963E+04  0.27376213963E+04  0.25500000920E-02 0.  1.
        2   -1    0    0  501    0  0.00000000000E+00  0.00000000000E+00 -0.11832940524E+04  0.11832940524E+04  0.25500000920E-02 0. -1.
    10030    2    1    2    0    0  0.00000000000E+00  0.00000000000E+00  0.15543273439E+04  0.39209154488E+04  0.35996728274E+04 0.  0.
        5    1    3    3  502    0 -0.14511640074E+04 -0.13933506804E+03 -0.37254049006E+03  0.15046925747E+04  0.46999998093E+01 0. -1.
       -5    1    3    3    0  502  0.14511640074E+04  0.13933506804E+03  0.19268678339E+04  0.24162228741E+04  0.46999998093E+01 0.  1.
</event>
<event>
 5   0  0.8024500E-09  0.3600876E+04  0.7818609E-02  0.8090291E-01
        1   -1    0    0  501    0  0.00000000000E+00  0.00000000000E+00  0.21642087662E+04  0.21642087662E+04  0.50400001928E-02 0. -1.
       -1   -1    0    0    0  501  0.00000000000E+00  0.00000000000E+00 -0.14978115151E+04  0.14978115151E+04  0.50400001928E-02 0.  1.
    10030    2    1    2    0    0  0.00000000000E+00  0.00000000000E+00  0.66639725106E+03  0.36620202813E+04  0.36008758996E+04 0.  0.
        5    1    3    3  502    0  0.53434170163E+03 -0.34782691662E+03  0.20455502902E+04  0.21426158540E+04  0.46999998093E+01 0. -1.
       -5    1    3    3    0  502 -0.53434170163E+03  0.34782691662E+03 -0.13791530392E+04  0.15194044272E+04  0.46999998093E+01 0.  1.
</event>
<event>
 5   0  0.8063410E-09  0.3599544E+04  0.7818609E-02  0.8090596E-01
       -1   -1    0    0    0  501  0.00000000000E+00  0.00000000000E+00  0.12848574634E+04  0.12848574634E+04  0.50400001928E-02 0.  1.
        1   -1    0    0  501    0  0.00000000000E+00  0.00000000000E+00 -0.25210413401E+04  0.25210413401E+04  0.50400001928E-02 0. -1.
    10030    2    1    2    0    0  0.00000000000E+00  0.00000000000E+00 -0.12361838767E+04  0.38058988035E+04  0.35995437385E+04 0.  0.
        2    1    3    3  502    0  0.16726886343E+03  0.17889375697E+04 -0.50769209520E+03  0.18670907221E+04  0.25500000920E-02 0.  1.
       -2    1    3    3    0  502 -0.16726886343E+03 -0.17889375697E+04 -0.72849178153E+03  0.19388080815E+04  0.25500000920E-02 0. -1.
</event>
<event>
 5   0  0.2482243E-08  0.3601084E+04  0.7818609E-02  0.8090243E-01
       -2   -1    0    0    0  501  0.00000000000E+00  0.00000000000E+00  0.25772874760E+04  0.25772874760E+04  0.25500000920E-02 0. -1.
        2   -1    0    0  501    0  0.00000000000E+00  0.00000000000E+00 -0.12578927739E+04  0.12578927739E+04  0.25500000920E-02 0.  1.
    10030    2    1    2    0    0  0.00000000000E+00  0.00000000000E+00  0.13193947022E+04  0.38351802499E+04  0.36010838881E+04 0.  0.
        5    1    3    3  502    0  0.58738951368E+03 -0.47982898667E+03  0.23988468953E+04  0.25158996033E+04  0.46999998093E+01 0. -1.
       -5    1    3    3    0  502 -0.58738951368E+03  0.47982898667E+03 -0.10794521931E+04  0.13192806466E+04  0.46999998093E+01 0.  1.
</event>
<event>
 5   0  0.2494592E-08  0.3595833E+04  0.7818609E-02  0.8091447E-01
       -2   -1    0    0    0  501  0.00000000000E+00  0.00000000000E+00  0.12683097120E+04  0.12683097120E+04  0.25500000920E-02 0.  1.
        2   -1    0    0  501    0  0.00000000000E+00  0.00000000000E+00 -0.25486704598E+04  0.25486704598E+04  0.25500000920E-02 0. -1.
    10030    2    1    2    0    0  0.00000000000E+00  0.00000000000E+00 -0.12803607477E+04  0.38169801718E+04  0.35958328642E+04 0.  0.
        1    1    3    3  502    0  0.12804326989E+03  0.10138877744E+04 -0.22103911700E+04  0.24351986824E+04  0.50400001928E-02 0. -1.
       -1    1    3    3    0  502 -0.12804326989E+03 -0.10138877744E+04  0.93003042231E+03  0.13817814894E+04  0.50400001928E-02 0.  1.
</event>
<event>
 5   0  0.8063410E-09  0.3599767E+04  0.7818609E-02  0.8090545E-01
        1   -1    0    0  501    0  0.00000000000E+00  0.00000000000E+00  0.20470021780E+04  0.20470021780E+04  0.50400001928E-02 0. -1.
       -1   -1    0    0    0  501  0.00000000000E+00  0.00000000000E+00 -0.15825979381E+04  0.15825979381E+04  0.50400001928E-02 0.  1.
    10030    2    1    2    0    0  0.00000000000E+00  0.00000000000E+00  0.46440423993E+03  0.36296001161E+04  0.35997674515E+04 0.  0.
        2    1    3    3  502    0 -0.55950565006E+03 -0.20103924333E+03 -0.14807348462E+04  0.15956312339E+04  0.25500000920E-02 0.  1.
       -2    1    3    3    0  502  0.55950565006E+03  0.20103924333E+03  0.19451390861E+04  0.20339688823E+04  0.25500000920E-02 0. -1.
</event>
<event>
 5   0  0.2494592E-08  0.3601883E+04  0.7818609E-02  0.8090061E-01
       -2   -1    0    0    0  501  0.00000000000E+00  0.00000000000E+00  0.12889464335E+04  0.12889464335E+04  0.25500000920E-02 0.  1.
        2   -1    0    0  501    0  0.00000000000E+00  0.00000000000E+00 -0.25163107120E+04  0.25163107120E+04  0.25500000920E-02 0. -1.
    10030    2    1    2    0    0  0.00000000000E+00  0.00000000000E+00 -0.12273642785E+04  0.38052571456E+04  0.36018826843E+04 0.  0.
        1    1    3    3  502    0 -0.59753680066E+03  0.86823574795E+03 -0.21564464920E+04  0.24002385330E+04  0.50400001928E-02 0. -1.
       -1    1    3    3    0  502  0.59753680066E+03 -0.86823574795E+03  0.92908221353E+03  0.14050186126E+04  0.50400001928E-02 0.  1.
</event>
<event>
 5   0  0.8146881E-09  0.3600563E+04  0.7818609E-02  0.8090363E-01
        1   -1    0    0  501    0  0.00000000000E+00  0.00000000000E+00  0.17538857844E+04  0.17538857844E+04  0.50400001928E-02 0.  1.
       -1   -1    0    0    0  501  0.00000000000E+00  0.00000000000E+00 -0.18479045100E+04  0.18479045100E+04  0.50400001928E-02 0. -1.
    10030    2    1    2    0    0  0.00000000000E+00  0.00000000000E+00 -0.94018725548E+02  0.36017902944E+04  0.36005629843E+04 0.  0.
        4    1    3    3  502    0 -0.92485730741E+03  0.88724620558E+03  0.12177178280E+04  0.17678815542E+04  0.12699999809E+01 0.  1.
       -4    1    3    3    0  502  0.92485730741E+03 -0.88724620558E+03 -0.13117365535E+04  0.18339087401E+04  0.12699999809E+01 0. -1.
</event>
<event>
 5   0  0.2608070E-08  0.3601556E+04  0.7818609E-02  0.8090135E-01
        2   -1    0    0  501    0  0.00000000000E+00  0.00000000000E+00  0.19141719719E+04  0.19141719719E+04  0.25500000920E-02 0.  1.
       -2   -1    0    0    0  501  0.00000000000E+00  0.00000000000E+00 -0.16941017905E+04  0.16941017905E+04  0.25500000920E-02 0. -1.
    10030    2    1    2    0    0  0.00000000000E+00  0.00000000000E+00  0.22007018139E+03  0.36082737623E+04  0.36015564218E+04 0.  0.
        3    1    3    3  502    0 -0.95236005545E+03 -0.71486047015E+02 -0.14194760790E+04  0.17108513317E+04  0.10100000352E+00 0. -1.
       -3    1    3    3    0  502  0.95236005545E+03  0.71486047015E+02  0.16395462604E+04  0.18974224306E+04  0.10100000352E+00 0.  1.
</event>
<event>
 5   0  0.8146881E-09  0.3599425E+04  0.7818609E-02  0.8090623E-01
       -1   -1    0    0    0  501  0.00000000000E+00  0.00000000000E+00  0.12001360873E+04  0.12001360873E+04  0.50400001928E-02 0. -1.
        1   -1    0    0  501    0  0.00000000000E+00  0.00000000000E+00 -0.26988310532E+04  0.26988310533E+04  0.50400001928E-02 0.  1.
    10030    2    1    2    0    0  0.00000000000E+00  0.00000000000E+00 -0.14986949660E+04  0.38989671406E+04  0.35994246988E+04 0.  0.
        4    1    3    3  502    0 -0.68582374922E+02 -0.92341363789E+02  0.11961499172E+04  0.12016683016E+04  0.12699999809E+01 0. -1.
       -4    1    3    3    0  502  0.68582374922E+02  0.92341363789E+02 -0.26948448832E+04  0.26972988390E+04  0.12699999809E+01 0.  1.
</event>
<event>
 5   0  0.2608070E-08  0.3597726E+04  0.7818609E-02  0.8091013E-01
       -2   -1    0    0    0  501  0.00000000000E+00  0.00000000000E+00  0.18100389065E+04  0.18100389065E+04  0.25500000920E-02 0. -1.
        2   -1    0    0  501    0  0.00000000000E+00  0.00000000000E+00 -0.17877558748E+04  0.17877558748E+04  0.25500000920E-02 0.  1.
    10030    2    1    2    0    0  0.00000000000E+00  0.00000000000E+00  0.22283031727E+02  0.35977947813E+04  0.35977257753E+04 0.  0.
        3    1    3    3  502    0  0.11229737824E+04 -0.13868749081E+04 -0.21561280930E+03  0.17974929821E+04  0.10100000352E+00 0.  1.
       -3    1    3    3    0  502 -0.11229737824E+04  0.13868749081E+04  0.23789584103E+03  0.18003017992E+04  0.10100000352E+00 0. -1.
</event>
<event>
 5   0  0.2590795E-08  0.3600209E+04  0.7818609E-02  0.8090444E-01
       -2   -1    0    0    0  501  0.00000000000E+00  0.00000000000E+00  0.18581218167E+04  0.18581218167E+04  0.25500000920E-02 0.  1.
        2   -1    0    0  501    0  0.00000000000E+00  0.00000000000E+00 -0.17438987438E+04  0.17438987438E+04  0.25500000920E-02 0. -1.
    10030    2    1    2    0    0  0.00000000000E+00  0.00000000000E+00  0.11422307288E+03  0.36020205605E+04  0.36002090506E+04 0.  0.
        4    1    3    3  502    0  0.10676364363E+04  0.14280458239E+04 -0.19042405584E+03  0.17931607204E+04  0.12699999809E+01 0. -1.
       -4    1    3    3    0  502 -0.10676364363E+04 -0.14280458239E+04  0.30464712872E+03  0.18088598401E+04  0.12699999809E+01 0.  1.
</event>
<event>
 5   0  0.2476968E-08  0.3599373E+04  0.7818609E-02  0.8090635E-01
        2   -1    0    0  501    0  0.00000000000E+00  0.00000000000E+00  0.22077311913E+04  0.22077311913E+04  0.25500000920E-02 0.  1.
       -2   -1    0    0    0  501  0.00000000000E+00  0.00000000000E+00 -0.14670584851E+04  0.14670584851E+04  0.25500000920E-02 0. -1.
    10030    2    1    2    0    0  0.00000000000E+00  0.00000000000E+00  0.74067270627E+03  0.36747896764E+04  0.35993725992E+04 0.  0.
        2    1    3    3  502    0  0.15958765589E+01  0.67731597290E+03 -0.13319662888E+04  0.14942870101E+04  0.25500000920E-02 0. -1.
       -2    1    3    3    0  502 -0.15958765589E+01 -0.67731597290E+03  0.20726389951E+04  0.21805026663E+04  0.25500000920E-02 0.  1.
</event>
<event>
 5   0  0.2476968E-08  0.3598844E+04  0.7818609E-02  0.8090757E-01
       -2   -1    0    0    0  501  0.00000000000E+00  0.00000000000E+00  0.15281204898E+04  0.15281204898E+04  0.25500000920E-02 0.  1.
        2   -1    0    0  501    0  0.00000000000E+00  0.00000000000E+00 -0.21188896486E+04  0.21188896486E+04  0.25500000920E-02 0. -1.
    10030    2    1    2    0    0  0.00000000000E+00  0.00000000000E+00 -0.59076915882E+03  0.36470101384E+04  0.35988435296E+04 0.  0.
        2    1    3    3  502    0  0.13564563755E+04 -0.11770747945E+04 -0.40841081334E+03  0.18418138785E+04  0.25500000920E-02 0. -1.
       -2    1    3    3    0  502 -0.13564563755E+04  0.11770747945E+04 -0.18235834548E+03  0.18051962599E+04  0.25500000920E-02 0.  1.
</event>
<event>
 5   0  0.8146881E-09  0.3603937E+04  0.7818609E-02  0.8089591E-01
        1   -1    0    0  501    0  0.00000000000E+00  0.00000000000E+00  0.16045401394E+04  0.16045401395E+04  0.50400001928E-02 0. -1.
       -1   -1    0    0    0  501  0.00000000000E+00  0.00000000000E+00 -0.20236887448E+04  0.20236887448E+04  0.50400001928E-02 0.  1.
    10030    2    1    2    0    0  0.00000000000E+00  0.00000000000E+00 -0.41914860534E+03  0.36282288843E+04  0.36039366370E+04 0.  0.
        4    1    3    3  502    0  0.23265530410E+02 -0.17967277872E+04 -0.34582382956E+03  0.18298545735E+04  0.12699999809E+01 0. -1.
       -4    1    3    3    0  502 -0.23265530410E+02  0.17967277872E+04 -0.73324775777E+02  0.17983743108E+04  0.12699999809E+01 0.  1.
</event>
<event>
 5   0  0.2476968E-08  0.3593969E+04  0.7818609E-02  0.8091875E-01
       -2   -1    0    0    0  501  0.00000000000E+00  0.00000000000E+00  0.15434727005E+04  0.15434727005E+04  0.25500000920E-02 0.  1.
        2   -1    0    0  501    0  0.00000000000E+00  0.00000000000E+00 -0.20921349104E+04  0.20921349104E+04  0.25500000920E-02 0. -1.
    10030    2    1    2    0    0  0.00000000000E+00  0.00000000000E+00 -0.54866220991E+03  0.36356076109E+04  0.35939689036E+04 0.  0.
        2    1    3    3  502    0  0.11746047640E+04  0.10675929065E+04  0.57786736596E+03  0.16891955654E+04  0.25500000920E-02 0.  1.
       -2    1    3    3    0  502 -0.11746047640E+04 -0.10675929065E+04 -0.11265295759E+04  0.19464120455E+04  0.25500000920E-02 0. -1.
</event>
<event>
 5   0  0.2482243E-08  0.3606691E+04  0.7818609E-02  0.8088961E-01
        2   -1    0    0  501    0  0.00000000000E+00  0.00000000000E+00  0.24237832750E+04  0.24237832750E+04  0.25500000920E-02 0. -1.
       -2   -1    0    0    0  501  0.00000000000E+00  0.00000000000E+00 -0.13417270264E+04  0.13417270264E+04  0.25500000920E-02 0.  1.
    10030    2    1    2    0    0  0.00000000000E+00  0.00000000000E+00  0.10820562486E+04  0.37655103015E+04  0.36066912961E+04 0.  0.
        5    1    3    3  502    0  0.97376869353E+03 -0.11455912729E+04 -0.49852237296E+03  0.15840301384E+04  0.46999998093E+01 0.  1.
       -5    1    3    3    0  502 -0.97376869353E+03  0.11455912729E+04  0.15805786215E+04  0.21814801631E+04  0.46999998093E+01 0. -1.
</event>
<event>
 5   0  0.2482243E-08  0.3600449E+04  0.7818609E-02  0.8090389E-01
        2   -1    0    0  501    0  0.00000000000E+00  0.00000000000E+00  0.23909312583E+04  0.23909312583E+04  0.25500000920E-02 0. -1.
       -2   -1    0    0    0  501  0.00000000000E+00  0.00000000000E+00 -0.13554587027E+04  0.13554587027E+04  0.25500000920E-02 0.  1.
    10030    2    1    2    0    0  0.00000000000E+00  0.00000000000E+00  0.10354725556E+04  0.37463899610E+04  0.36004491840E+04 0.  0.
        5    1    3    3  502    0 -0.14039523882E+04  0.11220641465E+04  0.41022219741E+03  0.18434789390E+04  0.46999998093E+01 0. -1.
       -5    1    3    3    0  502  0.14039523882E+04 -0.11220641465E+04  0.62525035817E+03  0.19029110220E+04  0.46999998093E+01 0.  1.
</event>
<event>
 5   0  0.2608070E-08  0.3600522E+04  0.7818609E-02  0.8090372E-01
       -2   -1    0    0    0  501  0.00000000000E+00  0.00000000000E+00  0.29273655557E+04  0.29273655557E+04  0.25500000920E-02 0.  1.
        2   -1    0    0  501    0  0.00000000000E+00  0.00000000000E+00 -0.11071181146E+04  0.11071181146E+04  0.25500000920E-02 0. -1.
    10030    2    1    2    0    0  0.00000000000E+00  0.00000000000E+00  0.18202474411E+04  0.40344836703E+04  0.36005218704E+04 0.  0.
        3    1    3    3  502    0 -0.42096173068E+03  0.11617005166E+04 -0.55694698201E+03  0.13553401123E+04  0.10100000352E+00 0. -1.
       -3    1    3    3    0  502  0.42096173068E+03 -0.11617005166E+04  0.23771944231E+04  0.26791435580E+04  0.10100000352E+00 0.  1.
</event>
<event>
 5   0  0.8024500E-09  0.3586578E+04  0.7818609E-02  0.8093573E-01
        1   -1    0    0  501    0  0.00000000000E+00  0.00000000000E+00  0.27862814457E+04  0.27862814457E+04  0.50400001928E-02 0. -1.
       -1   -1    0    0    0  501  0.00000000000E+00  0.00000000000E+00 -0.11541854526E+04  0.11541854526E+04  0.50400001928E-02 0.  1.
    10030    2    1    2    0    0  0.00000000000E+00  0.00000000000E+00  0.16320959931E+04  0.39404668983E+04  0.35865780412E+04 0.  0.
        5    1    3    3  502    0  0.13020604688E+04  0.11939119701E+04  0.11548166560E+04  0.21105475251E+04  0.46999998093E+01 0. -1.
       -5    1    3    3    0  502 -0.13020604688E+04 -0.11939119701E+04  0.47727933705E+03  0.18299193732E+04  0.46999998093E+01 0.  1.
</event>
<event>
 5   0  0.8024500E-09  0.3601267E+04  0.7818609E-02  0.8090201E-01
        1   -1    0    0  501    0  0.00000000000E+00  0.00000000000E+00  0.18473087011E+04  0.18473087011E+04  0.50400001928E-02 0.  1.
       -1   -1    0    0    0  501  0.00000000000E+00  0.00000000000E+00 -0.17551379952E+04  0.17551379952E+04  0.50400001928E-02 0. -1.
    10030    2    1    2    0    0  0.00000000000E+00  0.00000000000E+00  0.92170705891E+02  0.36024466963E+04  0.36012673825E+04 0.  0.
        1    1    3    3  502    0 -0.17174535561E+03  0.15185402897E+04  0.99866848590E+03  0.18255957448E+04  0.50400001928E-02 0.  1.
       -1    1    3    3    0  502  0.17174535561E+03 -0.15185402897E+04 -0.90649778001E+03  0.17768509515E+04  0.50400001928E-02 0. -1.
</event>
<event>
 5   0  0.2608070E-08  0.3601594E+04  0.7818609E-02  0.8090127E-01
       -2   -1    0    0    0  501  0.00000000000E+00  0.00000000000E+00  0.14517828082E+04  0.14517828082E+04  0.25500000920E-02 0. -1.
        2   -1    0    0  501    0  0.00000000000E+00  0.00000000000E+00 -0.22337158942E+04  0.22337158942E+04  0.25500000920E-02 0.  1.
    10030    2    1    2    0    0  0.00000000000E+00  0.00000000000E+00 -0.78193308601E+03  0.36854987025E+04  0.36015942768E+04 0.  0.
        3    1    3    3  502    0  0.86859982382E+03 -0.15732679292E+04 -0.50867985625E+03  0.18677239725E+04  0.10100000352E+00 0.  1.
       -3    1    3    3    0  502 -0.86859982382E+03  0.15732679292E+04 -0.27325322976E+03  0.18177747300E+04  0.10100000352E+00 0. -1.
</event>
<event>
 5   0  0.8063410E-09  0.3599308E+04  0.7818609E-02  0.8090650E-01
       -1   -1    0    0    0  501  0.00000000000E+00  0.00000000000E+00  0.16104320133E+04  0.16104320133E+04  0.50400001928E-02 0. -1.
        1   -1    0    0  501    0  0.00000000000E+00  0.00000000000E+00 -0.20111093614E+04  0.20111093614E+04  0.50400001928E-02 0.  1.
    10030    2    1    2    0    0  0.00000000000E+00  0.00000000000E+00 -0.40067734807E+03  0.36215413747E+04  0.35993082101E+04 0.  0.
        2    1    3    3  502    0  0.56506711628E+02  0.38805475744E+03 -0.19675979360E+04  0.20062953773E+04  0.25500000920E-02 0.  1.
       -2    1    3    3    0  502 -0.56506711628E+02 -0.38805475744E+03  0.15669205879E+04  0.16152459974E+04  0.25500000920E-02 0. -1.
</event>
<event>
 5   0  0.2590795E-08  0.3600323E+04  0.7818609E-02  0.8090418E-01
        2   -1    0    0  501    0  0.00000000000E+00  0.00000000000E+00  0.22467689348E+04  0.22467689348E+04  0.25500000920E-02 0.  1.
       -2   -1    0    0    0  501  0.00000000000E+00  0.00000000000E+00 -0.14423297938E+04  0.14423297938E+04  0.25500000920E-02 0. -1.
    10030    2    1    2    0    0  0.00000000000E+00  0.00000000000E+00  0.80443914101E+03  0.36890987286E+04  0.36003231935E+04 0.  0.
        4    1    3    3  502    0 -0.32304736132E+03  0.17627135930E+04  0.57689696482E+03  0.18826392457E+04  0.12699999809E+01 0.  1.
       -4    1    3    3    0  502  0.32304736132E+03 -0.17627135930E+04  0.22754217620E+03  0.18064594829E+04  0.12699999809E+01 0. -1.
</event>
<event>
 5   0  0.8146881E-09  0.3598726E+04  0.7818609E-02  0.8090784E-01
        1   -1    0    0  501    0  0.00000000000E+00  0.00000000000E+00  0.22036435920E+04  0.22036435920E+04  0.50400001928E-02 0.  1.
       -1   -1    0    0    0  501  0.00000000000E+00  0.00000000000E+00 -0.14692519182E+04  0.14692519182E+04  0.50400001928E-02 0. -1.
    10030    2    1    2    0    0  0.00000000000E+00  0.00000000000E+00  0.73439167387E+03  0.36728955102E+04  0.35987262050E+04 0.  0.
        4    1    3    3  502    0 -0.13226907706E+04 -0.41804434666E+03  0.15368673046E+04  0.20703223602E+04  0.12699999809E+01 0.  1.
       -4    1    3    3    0  502  0.13226907706E+04  0.41804434666E+03 -0.80247563070E+03  0.16025731500E+04  0.12699999809E+01 0. -1.
</event>
<event>
 5   0  0.2590795E-08  0.3600707E+04  0.7818609E-02  0.8090330E-01
        2   -1    0    0  501    0  0.00000000000E+00  0.00000000000E+00  0.18603824340E+04  0.18603824340E+04  0.25500000920E-02 0. -1.
       -2   -1    0    0    0  501  0.00000000000E+00  0.00000000000E+00 -0.17422612305E+04  0.17422612305E+04  0.25500000920E-02 0.  1.
    10030    2    1    2    0    0  0.00000000000E+00  0.00000000000E+00  0.11812120347E+03  0.36026436645E+04  0.36007067021E+04 0.  0.
        4    1    3    3  502    0  0.77303318006E+03 -0.80710910342E+03 -0.13531749262E+04  0.17550183463E+04  0.12699999809E+01 0.  1.
       -4    1    3    3    0  502 -0.77303318006E+03  0.80710910342E+03  0.14712961296E+04  0.18476253181E+04  0.12699999809E+01 0. -1.
</event>
<event>
 5   0  0.2494592E-08  0.3600516E+04  0.7818609E-02  0.8090374E-01
        2   -1    0    0  501    0  0.00000000000E+00  0.00000000000E+00  0.17989671542E+04  0.17989671542E+04  0.25500000920E-02 0. -1.
       -2   -1    0    0    0  501  0.00000000000E+00  0.00000000000E+00 -0.18015496285E+04  0.18015496285E+04  0.25500000920E-02 0.  1.
    10030    2    1    2    0    0  0.00000000000E+00  0.00000000000E+00 -0.25824743589E+01  0.36005167827E+04  0.36005158566E+04 0.  0.
        1    1    3    3  502    0 -0.35502731229E+03  0.81864359732E+03 -0.15648474831E+04  0.18013798537E+04  0.50400001928E-02 0.  1.
       -1    1    3    3    0  502  0.35502731229E+03 -0.81864359732E+03  0.15622650087E+04  0.17991369290E+04  0.50400001928E-02 0. -1.
</event>
<event>
 5   0  0.2476968E-08  0.3600841E+04  0.7818609E-02  0.8090299E-01
       -2   -1    0    0    0  501  0.00000000000E+00  0.00000000000E+00  0.17007566820E+04  0.17007566820E+04  0.25500000920E-02 0.  1.
        2   -1    0    0  501    0  0.00000000000E+00  0.00000000000E+00 -0.19059242037E+04  0.19059242037E+04  0.25500000920E-02 0. -1.
    10030    2    1    2    0    0  0.00000000000E+00  0.00000000000E+00 -0.20516752173E+03  0.36066808857E+04  0.36008406378E+04 0.  0.
        2    1    3    3  502    0 -0.41134268129E+03  0.95440982876E+03 -0.15751425307E+04  0.18871075525E+04  0.25500000920E-02 0. -1.
       -2    1    3    3    0  502  0.41134268129E+03 -0.95440982876E+03  0.13699750090E+04  0.17195733331E+04  0.25500000920E-02 0.  1.
</event>
<event>
 5   0  0.8247570E-09  0.3600776E+04  0.7818609E-02  0.8090314E-01
        1   -1    0    0  501    0  0.00000000000E+00  0.00000000000E+00  0.21016399534E+04  0.21016399534E+04  0.50400001928E-02 0.  1.
       -1   -1    0    0    0  501  0.00000000000E+00  0.00000000000E+00 -0.15423180718E+04  0.15423180719E+04  0.50400001928E-02 0. -1.
    10030    2    1    2    0    0  0.00000000000E+00  0.00000000000E+00  0.55932188157E+03  0.36439580253E+04  0.36007761834E+04 0.  0.
        3    1    3    3  502    0 -0.94843130360E+03 -0.11773375069E+04 -0.70968866297E+03  0.16701208194E+04  0.10100000352E+00 0. -1.
       -3    1    3    3    0  502  0.94843130360E+03  0.11773375069E+04  0.12690105445E+04  0.19738372059E+04  0.10100000352E+00 0.  1.
</event>
<event>
 5   0  0.8024500E-09  0.3599335E+04  0.7818609E-02  0.8090644E-01
        1   -1    0    0  501    0  0.00000000000E+00  0.00000000000E+00  0.22556084928E+04  0.22556084928E+04  0.50400001928E-02 0. -1.
       -1   -1    0    0    0  501  0.00000000000E+00  0.00000000000E+00 -0.14358887508E+04  0.14358887508E+04  0.50400001928E-02 0.  1.
    10030    2    1    2    0    0  0.00000000000E+00  0.00000000000E+00  0.81971974207E+03  0.36914972436E+04  0.35993348613E+04 0.  0.
        1    1    3    3  502    0 -0.16262676508E+04  0.24320684580E+03  0.11599602121E+04  0.20123130312E+04  0.50400001928E-02 0. -1.
       -1    1    3    3    0  502  0.16262676508E+04 -0.24320684580E+03 -0.34024047000E+03  0.16791842124E+04  0.50400001928E-02 0.  1.
</event>
<event>
 5   0  0.8063410E-09  0.3600538E+04  0.7818609E-02  0.8090368E-01
       -1   -1    0    0    0  501  0.00000000000E+00  0.00000000000E+00  0.27891445173E+04  0.27891445173E+04  0.50400001928E-02 0. -1.
        1   -1    0    0  501    0  0.00000000000E+00  0.00000000000E+00 -0.11619938688E+04  0.11619938688E+04  0.50400001928E-02 0.  1.
    10030    2    1    2    0    0  0.00000000000E+00  0.00000000000E+00  0.16271506485E+04  0.39511383860E+04  0.36005381976E+04 0.  0.
        2    1    3    3  502    0  0.44489232211E+03  0.17169410849E+04  0.11520810130E+04  0.21149719922E+04  0.25500000920E-02 0. -1.
       -2    1    3    3    0  502 -0.44489232211E+03 -0.17169410849E+04  0.47506963546E+03  0.18361663938E+04  0.25500000920E-02 0.  1.
</event>
<event>
 5   0  0.2476968E-08  0.3597573E+04  0.7818609E-02  0.8091048E-01
        2   -1    0    0  501    0  0.00000000000E+00  0.00000000000E+00  0.21968954194E+04  0.21968954194E+04  0.25500000920E-02 0. -1.
       -2   -1    0    0    0  501  0.00000000000E+00  0.00000000000E+00 -0.14728202344E+04  0.14728202345E+04  0.25500000920E-02 0.  1.
    10030    2    1    2    0    0  0.00000000000E+00  0.00000000000E+00  0.72407518493E+03  0.36697156538E+04  0.35975725297E+04 0.  0.
        2    1    3    3  502    0 -0.10883248781E+04 -0.54156638107E+03 -0.99040336234E+03  0.15680063793E+04  0.25500000920E-02 0.  1.
       -2    1    3    3    0  502  0.10883248781E+04  0.54156638107E+03  0.17144785473E+04  0.21017092745E+04  0.25500000920E-02 0. -1.
</event>
<event>
 5   0  0.2482243E-08  0.3599998E+04  0.7818609E-02  0.8090492E-01
       -2   -1    0    0    0  501  0.00000000000E+00  0.00000000000E+00  0.11161530062E+04  0.11161530062E+04  0.25500000920E-02 0.  1.
        2   -1    0    0  501    0  0.00000000000E+00  0.00000000000E+00 -0.29028240178E+04  0.29028240178E+04  0.25500000920E-02 0. -1.
    10030    2    1    2    0    0  0.00000000000E+00  0.00000000000E+00 -0.17866710116E+04  0.40189770240E+04  0.35999976411E+04 0.  0.
        5    1    3    3  502    0  0.13854735518E+04  0.86200324409E+03 -0.17416303915E+04  0.23866053436E+04  0.46999998093E+01 0. -1.
       -5    1    3    3    0  502 -0.13854735518E+04 -0.86200324409E+03 -0.45040620145E+02  0.16323716804E+04  0.46999998093E+01 0.  1.
</event>
<event>
 5   0  0.8024500E-09  0.3600207E+04  0.7818609E-02  0.8090444E-01
       -1   -1    0    0    0  501  0.00000000000E+00  0.00000000000E+00  0.18594492166E+04  0.18594492166E+04  0.50400001928E-02 0.  1.
        1   -1    0    0  501    0  0.00000000000E+00  0.00000000000E+00 -0.17426519255E+04  0.17426519255E+04  0.50400001928E-02 0. -1.
    10030    2    1    2    0    0  0.00000000000E+00  0.00000000000E+00  0.11679729106E+03  0.36021011421E+04  0.36002070817E+04 0.  0.
        1    1    3    3  502    0 -0.17064022024E+04  0.14351373103E+03  0.61363933031E+03  0.18190541210E+04  0.50400001928E-02 0.  1.
       -1    1    3    3    0  502  0.17064022024E+04 -0.14351373103E+03 -0.49684203925E+03  0.17830470211E+04  0.50400001928E-02 0. -1.
</event>
<event>
 5   0  0.2494592E-08  0.3598802E+04  0.7818609E-02  0.8090766E-01
       -2   -1    0    0    0  501  0.00000000000E+00  0.00000000000E+00  0.24690635661E+04  0.24690635661E+04  0.25500000920E-02 0.  1.
        2   -1    0    0  501    0  0.00000000000E+00  0.00000000000E+00 -0.13113655260E+04  0.13113655260E+04  0.25500000920E-02 0. -1.
    10030    2    1    2    0    0  0.00000000000E+00  0.00000000000E+00  0.11576980401E+04  0.37804290922E+04  0.35988024910E+04 0.  0.
        1    1    3    3  502    0  0.11035452760E+04  0.18778773506E+03  0.20587682253E+04  0.23434169529E+04  0.50400001928E-02 0.  1.
       -1    1    3    3    0  502 -0.11035452760E+04 -0.18778773506E+03 -0.90107018520E+03  0.14370121393E+04  0.50400001928E-02 0. -1.
</event>
<event>
 5   0  0.8024500E-09  0.3593960E+04  0.7818609E-02  0.8091877E-01
       -1   -1    0    0    0  501  0.00000000000E+00  0.00000000000E+00  0.16808088310E+04  0.16808088310E+04  0.50400001928E-02 0.  1.
        1   -1    0    0  501    0  0.00000000000E+00  0.00000000000E+00 -0.19211802674E+04  0.19211802674E+04  0.50400001928E-02 0. -1.
    10030    2    1    2    0    0  0.00000000000E+00  0.00000000000E+00 -0.24037143643E+03  0.36019890984E+04  0.35939597991E+04 0.  0.
        1    1    3    3  502    0  0.18659931909E+03 -0.10110700536E+04 -0.15972675905E+04  0.18995646119E+04  0.50400001928E-02 0. -1.
       -1    1    3    3    0  502 -0.18659931909E+03  0.10110700536E+04  0.13568961541E+04  0.17024244865E+04  0.50400001928E-02 0.  1.
</event>
<event>
 5   0  0.2482243E-08  0.3600274E+04  0.7818609E-02  0.8090429E-01
       -2   -1    0    0    0  501  0.00000000000E+00  0.00000000000E+00  0.27384559803E+04  0.27384559803E+04  0.25500000920E-02 0.  1.
        2   -1    0    0  501    0  0.00000000000E+00  0.00000000000E+00 -0.11833285832E+04  0.11833285832E+04  0.25500000920E-02 0. -1.
    10030    2    1    2    0    0  0.00000000000E+00  0.00000000000E+00  0.15551273971E+04  0.39217845635E+04  0.36002740092E+04 0.  0.
        5    1    3    3  502    0 -0.10504037409E+04 -0.38651251404E+03  0.23133366173E+04  0.25698809967E+04  0.46999998093E+01 0.  1.
       -5    1    3    3    0  502  0.10504037409E+04  0.38651251404E+03 -0.75820922018E+03  0.13519035668E+04  0.46999998093E+01 0. -1.
</event>
<event>
 5   0  0.2494592E-08  0.3600276E+04  0.7818609E-02  0.8090428E-01
       -2   -1    0    0    0  501  0.00000000000E+00  0.00000000000E+00  0.17373069190E+04  0.17373069190E+04  0.25500000920E-02 0.  1.
        2   -1    0    0  501    0  0.00000000000E+00  0.00000000000E+00 -0.18652416129E+04  0.18652416129E+04  0.25500000920E-02 0. -1.
    10030    2    1    2    0    0  0.00000000000E+00  0.00000000000E+00 -0.12793469393E+03  0.36025485319E+04  0.36002761893E+04 0.  0.
        1    1    3    3  502    0  0.16647304248E+04 -0.20834195708E+02 -0.74904222460E+03  0.18256028334E+04  0.50400001928E-02 0. -1.
       -1    1    3    3    0  502 -0.16647304248E+04  0.20834195708E+02  0.62110753067E+03  0.17769456986E+04  0.50400001928E-02 0.  1.
</event>
<event>
 5   0  0.2482243E-08  0.3599781E+04  0.7818609E-02  0.8090542E-01
        2   -1    0    0  501    0  0.00000000000E+00  0.00000000000E+00  0.19982768209E+04  0.19982768209E+04  0.25500000920E-02 0.  1.
       -2   -1    0    0    0  501  0.00000000000E+00  0.00000000000E+00 -0.16211999917E+04  0.16211999917E+04  0.25500000920E-02 0. -1.
    10030    2    1    2    0    0  0.00000000000E+00  0.00000000000E+00  0.37707682922E+03  0.36194768126E+04  0.35997813075E+04 0.  0.
        5    1    3    3  502    0 -0.23885624749E+03 -0.19197944672E+03 -0.15947708511E+04  0.16239533776E+04  0.46999998093E+01 0. -1.
       -5    1    3    3    0  502  0.23885624749E+03  0.19197944672E+03  0.19718476804E+04  0.19955234350E+04  0.46999998093E+01 0.  1.
</event>
<event>
 5   0  0.2482243E-08  0.3600841E+04  0.7818609E-02  0.8090299E-01
        2   -1    0    0  501    0  0.00000000000E+00  0.00000000000E+00  0.17202218237E+04  0.17202218237E+04  0.25500000920E-02 0.  1.
       -2   -1    0    0    0  501  0.00000000000E+00  0.00000000000E+00 -0.18843584622E+04  0.18843584622E+04  0.25500000920E-02 0. -1.
    10030    2    1    2    0    0  0.00000000000E+00  0.00000000000E+00 -0.16413663850E+03  0.36045802860E+04  0.36008413186E+04 0.  0.
        5    1    3    3  502    0  0.46387994909E+02  0.17923035534E+04 -0.24652093752E+03  0.18097785876E+04  0.46999998093E+01 0.  1.
       -5    1    3    3    0  502 -0.46387994909E+02 -0.17923035534E+04  0.82384299026E+02  0.17948016983E+04  0.46999998093E+01 0. -1.
</event>
<event>
 5   0  0.8063410E-09  0.3599850E+04  0.7818609E-02  0.8090526E-01
        1   -1    0    0  501    0  0.00000000000E+00  0.00000000000E+00  0.23903779790E+04  0.23903779790E+04  0.50400001928E-02 0. -1.
       -1   -1    0    0    0  501  0.00000000000E+00  0.00000000000E+00 -0.13553210769E+04  0.13553210769E+04  0.50400001928E-02 0.  1.
    10030    2    1    2    0    0  0.00000000000E+00  0.00000000000E+00  0.10350569021E+04  0.37456990559E+04  0.35998498061E+04 0.  0.
        2    1    3    3  502    0  0.10369869577E+04 -0.14667028856E+04  0.63694023458E+03  0.19058468374E+04  0.25500000920E-02 0.  1.
       -2    1    3    3    0  502 -0.10369869577E+04  0.14667028856E+04  0.39811666757E+03  0.18398522185E+04  0.25500000920E-02 0. -1.
</event>
<event>
 5   0  0.2494592E-08  0.3599695E+04  0.7818609E-02  0.8090562E-01
        2   -1    0    0  501    0  0.00000000000E+00  0.00000000000E+00  0.18043656537E+04  0.18043656537E+04  0.25500000920E-02 0. -1.
       -2   -1    0    0    0  501  0.00000000000E+00  0.00000000000E+00 -0.17953403563E+04  0.17953403563E+04  0.25500000920E-02 0.  1.
    10030    2    1    2    0    0  0.00000000000E+00  0.00000000000E+00  0.90252973471E+01  0.35997060100E+04  0.35996946958E+04 0.  0.
        1    1    3    3  502    0 -0.12222337427E+04 -0.78932135624E+03  0.10640285793E+04  0.18025094570E+04  0.50400001928E-02 0. -1.
       -1    1    3    3    0  502  0.12222337427E+04  0.78932135624E+03 -0.10550032819E+04  0.17971965530E+04  0.50400001928E-02 0.  1.
</event>
<event>
 5   0  0.8063410E-09  0.3600104E+04  0.7818609E-02  0.8090468E-01
        1   -1    0    0  501    0  0.00000000000E+00  0.00000000000E+00  0.15987605179E+04  0.15987605179E+04  0.50400001928E-02 0. -1.
       -1   -1    0    0    0  501  0.00000000000E+00  0.00000000000E+00 -0.20266865013E+04  0.20266865013E+04  0.50400001928E-02 0.  1.
    10030    2    1    2    0    0  0.00000000000E+00  0.00000000000E+00 -0.42792598342E+03  0.36254470192E+04  0.36001035321E+04 0.  0.
        2    1    3    3  502    0  0.18553508408E+03 -0.39646775822E+03 -0.19722716506E+04  0.20202636993E+04  0.25500000920E-02 0.  1.
       -2    1    3    3    0  502 -0.18553508408E+03  0.39646775822E+03  0.15443456672E+04  0.16051833199E+04  0.25500000920E-02 0. -1.
</event>
<event>
 5   0  0.2590795E-08  0.3598676E+04  0.7818609E-02  0.8090795E-01
       -2   -1    0    0    0  501  0.00000000000E+00  0.00000000000E+00  0.14951084953E+04  0.14951084953E+04  0.25500000920E-02 0.  1.
        2   -1    0    0  501    0  0.00000000000E+00  0.00000000000E+00 -0.21654726832E+04  0.21654726832E+04  0.25500000920E-02 0. -1.
    10030    2    1    2    0    0  0.00000000000E+00  0.00000000000E+00 -0.67036418783E+03  0.36605811785E+04  0.35986756481E+04 0.  0.
        4    1    3    3  502    0  0.16452532328E+04 -0.41385102465E+03 -0.94506602842E+03  0.19419789602E+04  0.12699999809E+01 0. -1.
       -4    1    3    3    0  502 -0.16452532328E+04  0.41385102465E+03  0.27470184058E+03  0.17186022183E+04  0.12699999809E+01 0.  1.
</event>
<event>
 5   0  0.8247570E-09  0.3600391E+04  0.7818609E-02  0.8090402E-01
        1   -1    0    0  501    0  0.00000000000E+00  0.00000000000E+00  0.16607866971E+04  0.16607866971E+04  0.50400001928E-02 0.  1.
       -1   -1    0    0    0  501  0.00000000000E+00  0.00000000000E+00 -0.19513069668E+04  0.19513069668E+04  0.50400001928E-02 0. -1.
    10030    2    1    2    0    0  0.00000000000E+00  0.00000000000E+00 -0.29052026975E+03  0.36120936639E+04  0.36003914523E+04 0.  0.
        3    1    3    3  502    0 -0.80583888366E+03 -0.10252093521E+04  0.10998514977E+04  0.17059026494E+04  0.10100000352E+00 0.  1.
       -3    1    3    3    0  502  0.80583888366E+03  0.10252093521E+04 -0.13903717674E+04  0.19061910145E+04  0.10100000352E+00 0. -1.
</event>
<event>
 5   0  0.2608070E-08  0.3593278E+04  0.7818609E-02  0.8092033E-01
        2   -1    0    0  501    0  0.00000000000E+00  0.00000000000E+00  0.23906576283E+04  0.23906576283E+04  0.25500000920E-02 0.  1.
       -2   -1    0    0    0  501  0.00000000000E+00  0.00000000000E+00 -0.13502191187E+04  0.13502191187E+04  0.25500000920E-02 0. -1.
    10030    2    1    2    0    0  0.00000000000E+00  0.00000000000E+00  0.10404385096E+04  0.37408767470E+04  0.35932779664E+04 0.  0.
        3    1    3    3  502    0  0.17700989569E+04  0.42811631807E+02  0.83741195789E+03  0.19586582015E+04  0.10100000352E+00 0. -1.
       -3    1    3    3    0  502 -0.17700989569E+04 -0.42811631807E+02  0.20302655170E+03  0.17822185455E+04  0.10100000352E+00 0.  1.
</event>
<event>
 5   0  0.8146881E-09  0.3600601E+04  0.7818609E-02  0.8090354E-01
       -1   -1    0    0    0  501  0.00000000000E+00  0.00000000000E+00  0.15782094604E+04  0.15782094604E+04  0.50400001928E-02 0.  1.
        1   -1    0    0  501    0  0.00000000000E+00  0.00000000000E+00 -0.20536446158E+04  0.20536446158E+04  0.50400001928E-02 0. -1.
    10030    2    1    2    0    0  0.00000000000E+00  0.00000000000E+00 -0.47543515546E+03  0.36318540762E+04  0.36006007060E+04 0.  0.
        4    1    3    3  502    0 -0.57106460172E+03 -0.55919742945E+02  0.14835049812E+04  0.15906069405E+04  0.12699999809E+01 0.  1.
       -4    1    3    3    0  502  0.57106460172E+03  0.55919742945E+02 -0.19589401367E+04  0.20412471357E+04  0.12699999809E+01 0. -1.
</event>
<event>
 5   0  0.2494592E-08  0.3600335E+04  0.7818609E-02  0.8090415E-01
       -2   -1    0    0    0  501  0.00000000000E+00  0.00000000000E+00  0.18530541257E+04  0.18530541257E+04  0.25500000920E-02 0.  1.
        2   -1    0    0  501    0  0.00000000000E+00  0.00000000000E+00 -0.17487907178E+04  0.17487907178E+04  0.25500000920E-02 0. -1.
    10030    2    1    2    0    0  0.00000000000E+00  0.00000000000E+00  0.10426340785E+03  0.36018448435E+04  0.36003354591E+04 0.  0.
        1    1    3    3  502    0 -0.51681912475E+03 -0.66867482471E+03  0.16422557736E+04  0.18469520987E+04  0.50400001928E-02 0.  1.
       -1    1    3    3    0  502  0.51681912475E+03  0.66867482471E+03 -0.15379923657E+04  0.17548927448E+04  0.50400001928E-02 0. -1.
</event>
<event>
 5   0  0.8024500E-09  0.3582413E+04  0.7818609E-02  0.8094532E-01
       -1   -1    0    0    0  501  0.00000000000E+00  0.00000000000E+00  0.13846025120E+04  0.13846025121E+04  0.50400001928E-02 0.  1.
        1   -1    0    0  501    0  0.00000000000E+00  0.00000000000E+00 -0.23172140298E+04  0.23172140298E+04  0.50400001928E-02 0. -1.
    10030    2    1    2    0    0  0.00000000000E+00  0.00000000000E+00 -0.93261151780E+03  0.37018165419E+04  0.35824127996E+04 0.  0.
        5    1    3    3  502    0 -0.74957594820E+03  0.16242027519E+04 -0.37103965960E+03  0.18269075512E+04  0.46999998093E+01 0.  1.
       -5    1    3    3    0  502  0.74957594820E+03 -0.16242027519E+04 -0.56157185820E+03  0.18749089907E+04  0.46999998093E+01 0. -1.
</event>
<event>
 5   0  0.8146881E-09  0.3605028E+04  0.7818609E-02  0.8089341E-01
       -1   -1    0    0    0  501  0.00000000000E+00  0.00000000000E+00  0.16480698295E+04  0.16480698296E+04  0.50400001928E-02 0. -1.
        1   -1    0    0  501    0  0.00000000000E+00  0.00000000000E+00 -0.19714312499E+04  0.19714312499E+04  0.50400001928E-02 0.  1.
    10030    2    1    2    0    0  0.00000000000E+00  0.00000000000E+00 -0.32336142035E+03  0.36195010795E+04  0.36050278024E+04 0.  0.
        4    1    3    3  502    0  0.23566351492E+03  0.10068411796E+04  0.13206573189E+04  0.16773204285E+04  0.12699999809E+01 0. -1.
       -4    1    3    3    0  502 -0.23566351492E+03 -0.10068411796E+04 -0.16440187392E+04  0.19421806510E+04  0.12699999809E+01 0.  1.
</event>
<event>
 5   0  0.2608070E-08  0.3600837E+04  0.7818609E-02  0.8090300E-01
        2   -1    0    0  501    0  0.00000000000E+00  0.00000000000E+00  0.28482605161E+04  0.28482605161E+04  0.25500000920E-02 0. -1.
       -2   -1    0    0    0  501  0.00000000000E+00  0.00000000000E+00 -0.11380653909E+04  0.11380653909E+04  0.25500000920E-02 0.  1.
    10030    2    1    2    0    0  0.00000000000E+00  0.00000000000E+00  0.17101951252E+04  0.39863259070E+04  0.36008369681E+04 0.  0.
        3    1    3    3  502    0 -0.95701243151E+03  0.15119915600E+04  0.10751634521E+04  0.20875746048E+04  0.10100000352E+00 0. -1.
       -3    1    3    3    0  502  0.95701243151E+03 -0.15119915600E+04  0.63503167314E+03  0.18987513022E+04  0.10100000352E+00 0.  1.
</event>
<event>
 5   0  0.8024500E-09  0.3600758E+04  0.7818609E-02  0.8090318E-01
       -1   -1    0    0    0  501  0.00000000000E+00  0.00000000000E+00  0.13573208880E+04  0.13573208880E+04  0.50400001928E-02 0.  1.
        1   -1    0    0  501    0  0.00000000000E+00  0.00000000000E+00 -0.23880605775E+04  0.23880605775E+04  0.50400001928E-02 0. -1.
    10030    2    1    2    0    0  0.00000000000E+00  0.00000000000E+00 -0.10307396895E+04  0.37453814654E+04  0.36007579777E+04 0.  0.
        5    1    3    3  502    0  0.16350508893E+04  0.44995730515E+03 -0.11442089399E+04  0.20457490499E+04  0.46999998093E+01 0.  1.
       -5    1    3    3    0  502 -0.16350508893E+04 -0.44995730515E+03  0.11346925042E+03  0.16996324155E+04  0.46999998093E+01 0. -1.
</event>
<event>
 5   0  0.8247570E-09  0.3600368E+04  0.7818609E-02  0.8090407E-01
        1   -1    0    0  501    0  0.00000000000E+00  0.00000000000E+00  0.13077324184E+04  0.13077324184E+04  0.50400001928E-02 0.  1.
       -1   -1    0    0    0  501  0.00000000000E+00  0.00000000000E+00 -0.24780773520E+04  0.24780773520E+04  0.50400001928E-02 0. -1.
    10030    2    1    2    0    0  0.00000000000E+00  0.00000000000E+00 -0.11703449335E+04  0.37858097704E+04  0.36003678082E+04 0.  0.
        3    1    3    3  502    0  0.31156961898E+03  0.29622205539E+03  0.12529614496E+04  0.13246643114E+04  0.10100000352E+00 0.  1.
       -3    1    3    3    0  502 -0.31156961898E+03 -0.29622205539E+03 -0.24233063831E+04  0.24611454590E+04  0.10100000352E+00 0. -1.
</event>
<event>
 5   0  0.8063410E-09  0.3599389E+04  0.7818609E-02  0.8090632E-01
        1   -1    0    0  501    0  0.00000000000E+00  0.00000000000E+00  0.27972705774E+04  0.27972705774E+04  0.50400001928E-02 0. -1.
       -1   -1    0    0    0  501  0.00000000000E+00  0.00000000000E+00 -0.11578791153E+04  0.11578791153E+04  0.50400001928E-02 0.  1.
    10030    2    1    2    0    0  0.00000000000E+00  0.00000000000E+00  0.16393914622E+04  0.39551496927E+04  0.35993894934E+04 0.  0.
        2    1    3    3  502    0 -0.17738901448E+04  0.22567610099E+03  0.59642517718E+03  0.18850302227E+04  0.25500000920E-02 0. -1.
       -2    1    3    3    0  502  0.17738901448E+04 -0.22567610099E+03  0.10429662850E+04  0.20701194700E+04  0.25500000920E-02 0.  1.
</event>
<event>
 5   0  0.2476968E-08  0.3599573E+04  0.7818609E-02  0.8090589E-01
       -2   -1    0    0    0  501  0.00000000000E+00  0.00000000000E+00  0.18283873255E+04  0.18283873255E+04  0.25500000920E-02 0. -1.
        2   -1    0    0  501    0  0.00000000000E+00  0.00000000000E+00 -0.17716332712E+04  0.17716332713E+04  0.25500000920E-02 0.  1.
    10030    2    1    2    0    0  0.00000000000E+00  0.00000000000E+00  0.56754054270E+02  0.36000205968E+04  0.35995732073E+04 0.  0.
        2    1    3    3  502    0  0.10288701704E+04  0.19858385817E+03 -0.14350964912E+04  0.17769387483E+04  0.25500000920E-02 0. -1.
       -2    1    3    3    0  502 -0.10288701704E+04 -0.19858385817E+03  0.14918505455E+04  0.18230818485E+04  0.25500000920E-02 0.  1.
</event>
<event>
 5   0  0.8146881E-09  0.3599684E+04  0.7818609E-02  0.8090564E-01
       -1   -1    0    0    0  501  0.00000000000E+00  0.00000000000E+00  0.18531480706E+04  0.18531480706E+04  0.50400001928E-02 0. -1.
        1   -1    0    0  501    0  0.00000000000E+00  0.00000000000E+00 -0.17480690688E+04  0.17480690688E+04  0.50400001928E-02 0.  1.
    10030    2    1    2    0    0  0.00000000000E+00  0.00000000000E+00  0.10507900183E+03  0.36012171393E+04  0.35996837761E+04 0.  0.
        4    1    3    3  502    0 -0.11500404635E+04 -0.13837221836E+04  0.98917204503E+02  0.18019618129E+04  0.12699999809E+01 0.  1.
       -4    1    3    3    0  502  0.11500404635E+04  0.13837221836E+04  0.61617973257E+01  0.17992553264E+04  0.12699999809E+01 0. -1.
</event>
<event>
 5   0  0.8063410E-09  0.3607817E+04  0.7818609E-02  0.8088704E-01
       -1   -1    0    0    0  501  0.00000000000E+00  0.00000000000E+00  0.15777732459E+04  0.15777732459E+04  0.50400001928E-02 0. -1.
        1   -1    0    0  501    0  0.00000000000E+00  0.00000000000E+00 -0.20624541496E+04  0.20624541496E+04  0.50400001928E-02 0.  1.
    10030    2    1    2    0    0  0.00000000000E+00  0.00000000000E+00 -0.48468090369E+03  0.36402273956E+04  0.36078165021E+04 0.  0.
        2    1    3    3  502    0 -0.65518334850E+02  0.61970658021E+03 -0.19504026622E+04  0.20475349673E+04  0.25500000920E-02 0.  1.
       -2    1    3    3    0  502  0.65518334850E+02 -0.61970658021E+03  0.14657217585E+04  0.15926924283E+04  0.25500000920E-02 0. -1.
</event>
<event>
 5   0  0.8247570E-09  0.3599578E+04  0.7818609E-02  0.8090588E-01
        1   -1    0    0  501    0  0.00000000000E+00  0.00000000000E+00  0.19128966418E+04  0.19128966418E+04  0.50400001928E-02 0.  1.
       -1   -1    0    0    0  501  0.00000000000E+00  0.00000000000E+00 -0.16933696265E+04  0.16933696265E+04  0.50400001928E-02 0. -1.
    10030    2    1    2    0    0  0.00000000000E+00  0.00000000000E+00  0.21952701529E+03  0.36062662684E+04  0.35995783486E+04 0.  0.
        3    1    3    3  502    0 -0.11954707121E+04 -0.61342597792E+03 -0.10898748874E+04  0.17301066251E+04  0.10100000352E+00 0. -1.
       -3    1    3    3    0  502  0.11954707121E+04  0.61342597792E+03  0.13094019027E+04  0.18761596432E+04  0.10100000352E+00 0.  1.
</event>
<event>
 5   0  0.2494592E-08  0.3601456E+04  0.7818609E-02  0.8090158E-01
        2   -1    0    0  501    0  0.00000000000E+00  0.00000000000E+00  0.17416965807E+04  0.17416965807E+04  0.25500000920E-02 0.  1.
       -2   -1    0    0    0  501  0.00000000000E+00  0.00000000000E+00 -0.18617602408E+04  0.18617602408E+04  0.25500000920E-02 0. -1.
    10030    2    1    2    0    0  0.00000000000E+00  0.00000000000E+00 -0.12006366016E+03  0.36034568215E+04  0.36014560641E+04 0.  0.
        1    1    3    3  502    0 -0.79045595127E+03 -0.15567077028E+04  0.38119156664E+03  0.17870272783E+04  0.50400001928E-02 0.  1.
       -1    1    3    3    0  502  0.79045595127E+03  0.15567077028E+04 -0.50125522679E+03  0.18164295432E+04  0.50400001928E-02 0. -1.
</event>
<event>
 5   0  0.2590795E-08  0.3599656E+04  0.7818609E-02  0.8090570E-01
       -2   -1    0    0    0  501  0.00000000000E+00  0.00000000000E+00  0.13012576085E+04  0.13012576085E+04  0.25500000920E-02 0.  1.
        2   -1    0    0  501    0  0.00000000000E+00  0.00000000000E+00 -0.24894233188E+04  0.24894233188E+04  0.25500000920E-02 0. -1.
    10030    2    1    2    0    0  0.00000000000E+00  0.00000000000E+00 -0.11881657102E+04  0.37906809273E+04  0.35996561138E+04 0.  0.
        4    1    3    3  502    0  0.30711101267E+03  0.34919943418E+03  0.12368990566E+04  0.13214304023E+04  0.12699999809E+01 0.  1.
       -4    1    3    3    0  502 -0.30711101267E+03 -0.34919943418E+03 -0.24250647669E+04  0.24692505250E+04  0.12699999809E+01 0. -1.
</event>
<event>
 5   0  0.8024500E-09  0.3603445E+04  0.7818609E-02  0.8089703E-01
        1   -1    0    0  501    0  0.00000000000E+00  0.00000000000E+00  0.13562206781E+04  0.13562206781E+04  0.50400001928E-02 0.  1.
       -1   -1    0    0    0  501  0.00000000000E+00  0.00000000000E+00 -0.23935662065E+04  0.23935662065E+04  0.50400001928E-02 0. -1.
    10030    2    1    2    0    0  0.00000000000E+00  0.00000000000E+00 -0.10373455284E+04  0.37497868847E+04  0.36034450093E+04 0.  0.
        1    1    3    3  502    0 -0.14464537472E+03 -0.83554408591E+03  0.11355881412E+04  0.14172567270E+04  0.50400001928E-02 0.  1.
       -1    1    3    3    0  502  0.14464537472E+03  0.83554408591E+03 -0.21729336696E+04  0.23325301576E+04  0.50400001928E-02 0. -1.
</event>
<event>
 5   0  0.2494592E-08  0.3609847E+04  0.7818609E-02  0.8088240E-01
       -2   -1    0    0    0  501  0.00000000000E+00  0.00000000000E+00  0.15799349632E+04  0.15799349632E+04  0.25500000920E-02 0.  1.
        2   -1    0    0  501    0  0.00000000000E+00  0.00000000000E+00 -0.20619513638E+04  0.20619513638E+04  0.25500000920E-02 0. -1.
    10030    2    1    2    0    0  0.00000000000E+00  0.00000000000E+00 -0.48201640056E+03  0.36418863270E+04  0.36098471171E+04 0.  0.
        1    1    3    3  502    0  0.25593524954E+03  0.17643131309E+04 -0.52537041673E+03  0.18585794980E+04  0.50400001928E-02 0.  1.
       -1    1    3    3    0  502 -0.25593524954E+03 -0.17643131309E+04  0.43354016177E+02  0.17833068290E+04  0.50400001928E-02 0. -1.
</event>
<event>
 5   0  0.2590795E-08  0.3596843E+04  0.7818609E-02  0.8091215E-01
        2   -1    0    0  501    0  0.00000000000E+00  0.00000000000E+00  0.18429845417E+04  0.18429845417E+04  0.25500000920E-02 0.  1.
       -2   -1    0    0    0  501  0.00000000000E+00  0.00000000000E+00 -0.17549364620E+04  0.17549364620E+04  0.25500000920E-02 0. -1.
    10030    2    1    2    0    0  0.00000000000E+00  0.00000000000E+00  0.88048079678E+02  0.35979210037E+04  0.35968434890E+04 0.  0.
        4    1    3    3  502    0 -0.13566490408E+04  0.52362253985E+03  0.11024723863E+04  0.18248627783E+04  0.12699999809E+01 0.  1.
       -4    1    3    3    0  502  0.13566490408E+04 -0.52362253985E+03 -0.10144243066E+04  0.17730582254E+04  0.12699999809E+01 0. -1.
</event>
<event>
 5   0  0.2482243E-08  0.3600506E+04  0.7818609E-02  0.8090376E-01
        2   -1    0    0  501    0  0.00000000000E+00  0.00000000000E+00  0.15443141145E+04  0.15443141145E+04  0.25500000920E-02 0.  1.
       -2   -1    0    0    0  501  0.00000000000E+00  0.00000000000E+00 -0.20986088843E+04  0.20986088843E+04  0.25500000920E-02 0. -1.
    10030    2    1    2    0    0  0.00000000000E+00  0.00000000000E+00 -0.55429476985E+03  0.36429229988E+04  0.36005062537E+04 0.  0.
        5    1    3    3  502    0  0.55275781304E+03 -0.11218734177E+04 -0.15872952967E+04  0.20208091484E+04  0.46999998093E+01 0. -1.
       -5    1    3    3    0  502 -0.55275781304E+03  0.11218734177E+04  0.10330005268E+04  0.16221138504E+04  0.46999998093E+01 0.  1.
</event>
<event>
 5   0  0.2494592E-08  0.3599227E+04  0.7818609E-02  0.8090669E-01
       -2   -1    0    0    0  501  0.00000000000E+00  0.00000000000E+00  0.14791616658E+04  0.14791616658E+04  0.25500000920E-02 0. -1.
        2   -1    0    0  501    0  0.00000000000E+00  0.00000000000E+00 -0.21894898235E+04  0.21894898235E+04  0.25500000920E-02 0.  1.
    10030    2    1    2    0    0  0.00000000000E+00  0.00000000000E+00 -0.71032815768E+03  0.36686514893E+04  0.35992273696E+04 0.  0.
        1    1    3    3  502    0  0.16150147670E+04  0.47763088129E+03 -0.10015935593E+04  0.19594881001E+04  0.50400001928E-02 0. -1.
       -1    1    3    3    0  502 -0.16150147670E+04 -0.47763088129E+03  0.29126540161E+03  0.17091633891E+04  0.50400001928E-02 0.  1.
</event>
<event>
 5   0  0.2482243E-08  0.3599197E+04  0.7818609E-02  0.8090676E-01
       -2   -1    0    0    0  501  0.00000000000E+00  0.00000000000E+00  0.13980747110E+04  0.13980747110E+04  0.25500000920E-02 0.  1.
        2   -1    0    0  501    0  0.00000000000E+00  0.00000000000E+00 -0.23164396133E+04  0.23164396133E+04  0.25500000920E-02 0. -1.
    10030    2    1    2    0    0  0.00000000000E+00  0.00000000000E+00 -0.91836490227E+03  0.37145143243E+04  0.35991974900E+04 0.  0.
        5    1    3    3  502    0 -0.94190291813E+03  0.13710818333E+03 -0.20353856122E+04  0.22469527012E+04  0.46999998093E+01 0. -1.
       -5    1    3    3    0  502  0.94190291813E+03 -0.13710818333E+03  0.11170207100E+04  0.14675616231E+04  0.46999998093E+01 0.  1.
</event>
<event>
 5   0  0.2494592E-08  0.3600113E+04  0.7818609E-02  0.8090466E-01
       -2   -1    0    0    0  501  0.00000000000E+00  0.00000000000E+00  0.12649111993E+04  0.12649111993E+04  0.25500000920E-02 0. -1.
        2   -1    0    0  501    0  0.00000000000E+00  0.00000000000E+00 -0.25616059862E+04  0.25616059862E+04  0.25500000920E-02 0.  1.
    10030    2    1    2    0    0  0.00000000000E+00  0.00000000000E+00 -0.12966947869E+04  0.38265171854E+04  0.36001133871E+04 0.  0.
        1    1    3    3  502    0 -0.45967707680E+03  0.31920538877E+03  0.11700948768E+04  0.12970416785E+04  0.50400001928E-02 0. -1.
       -1    1    3    3    0  502  0.45967707680E+03 -0.31920538877E+03 -0.24667896637E+04  0.25294755069E+04  0.50400001928E-02 0.  1.
</event>
<event>
 5   0  0.8146881E-09  0.3600815E+04  0.7818609E-02  0.8090305E-01
        1   -1    0    0  501    0  0.00000000000E+00  0.00000000000E+00  0.16923211897E+04  0.16923211897E+04  0.50400001928E-02 0.  1.
       -1   -1    0    0    0  501  0.00000000000E+00  0.00000000000E+00 -0.19153969173E+04  0.19153969173E+04  0.50400001928E-02 0. -1.
    10030    2    1    2    0    0  0.00000000000E+00  0.00000000000E+00 -0.22307572763E+03  0.36077181070E+04  0.36008147911E+04 0.  0.
        4    1    3    3  502    0  0.62415345944E+03 -0.44715478779E+03 -0.17431408708E+04  0.19047458238E+04  0.12699999809E+01 0. -1.
       -4    1    3    3    0  502 -0.62415345944E+03  0.44715478779E+03  0.15200651431E+04  0.17029722832E+04  0.12699999809E+01 0.  1.
</event>
<event>
 5   0  0.8247570E-09  0.3597207E+04  0.7818609E-02  0.8091132E-01
       -1   -1    0    0    0  501  0.00000000000E+00  0.00000000000E+00  0.29179996082E+04  0.29179996082E+04  0.50400001928E-02 0.  1.
        1   -1    0    0  501    0  0.00000000000E+00  0.00000000000E+00 -0.11086273000E+04  0.11086273000E+04  0.50400001928E-02 0. -1.
    10030    2    1    2    0    0  0.00000000000E+00  0.00000000000E+00  0.18093723082E+04  0.40266269082E+04  0.35972067092E+04 0.  0.
        3    1    3    3  502    0  0.11456206520E+04 -0.50329371428E+03 -0.54152979802E+03  0.13634536198E+04  0.10100000352E+00 0. -1.
       -3    1    3    3    0  502 -0.11456206520E+04  0.50329371428E+03  0.23509021062E+04  0.26631732884E+04  0.10100000352E+00 0.  1.
</event>
<event>
 5   0  0.2494592E-08  0.3598022E+04  0.7818609E-02  0.8090945E-01
       -2   -1    0    0    0  501  0.00000000000E+00  0.00000000000E+00  0.16126372149E+04  0.16126372149E+04  0.25500000920E-02 0.  1.
        2   -1    0    0  501    0  0.00000000000E+00  0.00000000000E+00 -0.20069239465E+04  0.20069239465E+04  0.25500000920E-02 0. -1.
    10030    2    1    2    0    0  0.00000000000E+00  0.00000000000E+00 -0.39428673158E+03  0.36195611614E+04  0.35980218140E+04 0.  0.
        1    1    3    3  502    0  0.50180064679E+03  0.59725088162E+03  0.14336496281E+04  0.16321347251E+04  0.50400001928E-02 0.  1.
       -1    1    3    3    0  502 -0.50180064679E+03 -0.59725088162E+03 -0.18279363597E+04  0.19874264363E+04  0.50400001928E-02 0. -1.
</event>
<event>
 5   0  0.8063410E-09  0.3610568E+04  0.7818609E-02  0.8088075E-01
        1   -1    0    0  501    0  0.00000000000E+00  0.00000000000E+00  0.19454866916E+04  0.19454866916E+04  0.50400001928E-02 0.  1.
       -1   -1    0    0    0  501  0.00000000000E+00  0.00000000000E+00 -0.16751852761E+04  0.16751852761E+04  0.50400001928E-02 0. -1.
    10030    2    1    2    0    0  0.00000000000E+00  0.00000000000E+00  0.27030141551E+03  0.36206719676E+04  0.36105681883E+04 0.  0.
        2    1    3    3  502    0 -0.79443772184E+03  0.13381336361E+04 -0.78246063675E+03  0.17418316709E+04  0.25500000920E-02 0. -1.
       -2    1    3    3    0  502  0.79443772184E+03 -0.13381336361E+04  0.10527620523E+04  0.18788402967E+04  0.25500000920E-02 0.  1.
</event>
<event>
 5   0  0.2476968E-08  0.3599059E+04  0.7818609E-02  0.8090707E-01
        2   -1    0    0  501    0  0.00000000000E+00  0.00000000000E+00  0.25091574299E+04  0.25091574299E+04  0.25500000920E-02 0.  1.
       -2   -1    0    0    0  501  0.00000000000E+00  0.00000000000E+00 -0.12905948439E+04  0.12905948439E+04  0.25500000920E-02 0. -1.
    10030    2    1    2    0    0  0.00000000000E+00  0.00000000000E+00  0.12185625860E+04  0.37997522739E+04  0.35990585667E+04 0.  0.
        2    1    3    3  502    0  0.14294632672E+04  0.10817466754E+04  0.77542408322E+03  0.19531573441E+04  0.25500000920E-02 0. -1.
       -2    1    3    3    0  502 -0.14294632672E+04 -0.10817466754E+04  0.44313850275E+03  0.18465949298E+04  0.25500000920E-02 0.  1.
</event>
<event>
 5   0  0.8146881E-09  0.3604603E+04  0.7818609E-02  0.8089438E-01
       -1   -1    0    0    0  501  0.00000000000E+00  0.00000000000E+00  0.18262649175E+04  0.18262649175E+04  0.50400001928E-02 0.  1.
        1   -1    0    0  501    0  0.00000000000E+00  0.00000000000E+00 -0.17786527388E+04  0.17786527388E+04  0.50400001928E-02 0. -1.
    10030    2    1    2    0    0  0.00000000000E+00  0.00000000000E+00  0.47612178751E+02  0.36049176563E+04  0.36046032222E+04 0.  0.
        4    1    3    3  502    0 -0.10565948336E+04  0.28320644366E+03 -0.14086913491E+04  0.17835390273E+04  0.12699999809E+01 0. -1.
       -4    1    3    3    0  502  0.10565948336E+04 -0.28320644366E+03  0.14563035278E+04  0.18213786290E+04  0.12699999809E+01 0.  1.
</event>
<event>
 5   0  0.2482243E-08  0.3600911E+04  0.7818609E-02  0.8090283E-01
        2   -1    0    0  501    0  0.00000000000E+00  0.00000000000E+00  0.14808664228E+04  0.14808664228E+04  0.25500000920E-02 0. -1.
       -2   -1    0    0    0  501  0.00000000000E+00  0.00000000000E+00 -0.21890153222E+04  0.21890153222E+04  0.25500000920E-02 0.  1.
    10030    2    1    2    0    0  0.00000000000E+00  0.00000000000E+00 -0.70814889939E+03  0.36698817450E+04  0.36009106013E+04 0.  0.
        5    1    3    3  502    0  0.23612081364E+03 -0.50243547181E+03 -0.20996034123E+04  0.21717621925E+04  0.46999998093E+01 0.  1.
       -5    1    3    3    0  502 -0.23612081364E+03  0.50243547181E+03  0.13914545129E+04  0.14981195524E+04  0.46999998093E+01 0. -1.
</event>
<event>
 5   0  0.8024500E-09  0.3601229E+04  0.7818609E-02  0.8090210E-01
        1   -1    0    0  501    0  0.00000000000E+00  0.00000000000E+00  0.15810578433E+04  0.15810578433E+04  0.50400001928E-02 0. -1.
       -1   -1    0    0    0  501  0.00000000000E+00  0.00000000000E+00 -0.20506600527E+04  0.20506600527E+04  0.50400001928E-02 0.  1.
    10030    2    1    2    0    0  0.00000000000E+00  0.00000000000E+00 -0.46960220939E+03  0.36317178960E+04  0.36012287683E+04 0.  0.
        1    1    3    3  502    0  0.13252829458E+04  0.11801510526E+04  0.72873301811E+02  0.17760748609E+04  0.50400001928E-02 0. -1.
       -1    1    3    3    0  502 -0.13252829458E+04 -0.11801510526E+04 -0.54247551120E+03  0.18556430351E+04  0.50400001928E-02 0.  1.
</event>
<event>
 5   0  0.2494592E-08  0.3599217E+04  0.7818609E-02  0.8090671E-01
        2   -1    0    0  501    0  0.00000000000E+00  0.00000000000E+00  0.20629068315E+04  0.20629068315E+04  0.25500000920E-02 0.  1.
       -2   -1    0    0    0  501  0.00000000000E+00  0.00000000000E+00 -0.15699161818E+04  0.15699161818E+04  0.25500000920E-02 0. -1.
    10030    2    1    2    0    0  0.00000000000E+00  0.00000000000E+00  0.49299064968E+03  0.36328230133E+04  0.35992170350E+04 0.  0.
        1    1    3    3  502    0  0.41202261813E+03 -0.16234817166E+04 -0.41777980252E+03  0.17262663426E+04  0.50400001928E-02 0. -1.
       -1    1    3    3    0  502 -0.41202261813E+03  0.16234817166E+04  0.91077045219E+03  0.19065566707E+04  0.50400001928E-02 0.  1.
</event>
<event>
 5   0  0.8063410E-09  0.3601005E+04  0.7818609E-02  0.8090261E-01
       -1   -1    0    0    0  501  0.00000000000E+00  0.00000000000E+00  0.23052511952E+04  0.23052511952E+04  0.50400001928E-02 0.  1.
        1   -1    0    0  501    0  0.00000000000E+00  0.00000000000E+00 -0.14062717714E+04  0.14062717714E+04  0.50400001928E-02 0. -1.
    10030    2    1    2    0    0  0.00000000000E+00  0.00000000000E+00  0.89897942381E+03  0.37115229667E+04  0.36010052385E+04 0.  0.
        2    1    3    3  502    0 -0.47884635886E+03  0.16992379827E+04  0.84930828761E+02  0.17674605520E+04  0.25500000920E-02 0.  1.
       -2    1    3    3    0  502  0.47884635886E+03 -0.16992379827E+04  0.81404859505E+03  0.19440624147E+04  0.25500000920E-02 0. -1.
</event>
<event>
 5   0  0.8063410E-09  0.3600571E+04  0.7818609E-02  0.8090361E-01
        1   -1    0    0  501    0  0.00000000000E+00  0.00000000000E+00  0.18530941362E+04  0.18530941362E+04  0.50400001928E-02 0. -1.
       -1   -1    0    0    0  501  0.00000000000E+00  0.00000000000E+00 -0.17489822447E+04  0.17489822447E+04  0.50400001928E-02 0.  1.
    10030    2    1    2    0    0  0.00000000000E+00  0.00000000000E+00  0.10411189148E+03  0.36020763809E+04  0.36005714779E+04 0.  0.
        2    1    3    3  502    0  0.14703996710E+04 -0.80144572752E+02 -0.98400734325E+03  0.17710925432E+04  0.25500000920E-02 0.  1.
       -2    1    3    3    0  502 -0.14703996710E+04  0.80144572752E+02  0.10881192347E+04  0.18309838377E+04  0.25500000920E-02 0. -1.
</event>
<event>
 5   0  0.8024500E-09  0.3600975E+04  0.7818609E-02  0.8090269E-01
       -1   -1    0    0    0  501  0.00000000000E+00  0.00000000000E+00  0.17428676764E+04  0.17428676764E+04  0.50400001928E-02 0. -1.
        1   -1    0    0  501    0  0.00000000000E+00  0.00000000000E+00 -0.18600117726E+04  0.18600117726E+04  0.50400001928E-02 0.  1.
    10030    2    1    2    0    0  0.00000000000E+00  0.00000000000E+00 -0.11714409620E+03  0.36028794491E+04  0.36009745327E+04 0.  0.
        5    1    3    3  502    0  0.69856723797E+03 -0.16592868304E+04 -0.81019044350E+02  0.18021695666E+04  0.46999998093E+01 0.  1.
       -5    1    3    3    0  502 -0.69856723797E+03  0.16592868304E+04 -0.36125051846E+02  0.18007098824E+04  0.46999998093E+01 0. -1.
</event>
<event>
 5   0  0.8024500E-09  0.3602036E+04  0.7818609E-02  0.8090025E-01
       -1   -1    0    0    0  501  0.00000000000E+00  0.00000000000E+00  0.18075554414E+04  0.18075554414E+04  0.50400001928E-02 0.  1.
        1   -1    0    0  501    0  0.00000000000E+00  0.00000000000E+00 -0.17945046194E+04  0.17945046194E+04  0.50400001928E-02 0. -1.
    10030    2    1    2    0    0  0.00000000000E+00  0.00000000000E+00  0.13050821963E+02  0.36020600609E+04  0.36020364182E+04 0.  0.
        5    1    3    3  502    0  0.28280293519E+03 -0.11202208553E+04 -0.13750668922E+04  0.17960243074E+04  0.46999998093E+01 0. -1.
       -5    1    3    3    0  502 -0.28280293519E+03  0.11202208553E+04  0.13881177141E+04  0.18060357535E+04  0.46999998093E+01 0.  1.
</event>
<event>
 5   0  0.8146881E-09  0.3594906E+04  0.7818609E-02  0.8091660E-01
       -1   -1    0    0    0  501  0.00000000000E+00  0.00000000000E+00  0.20685759895E+04  0.20685759895E+04  0.50400001928E-02 0.  1.
        1   -1    0    0  501    0  0.00000000000E+00  0.00000000000E+00 -0.15618651872E+04  0.15618651872E+04  0.50400001928E-02 0. -1.
    10030    2    1    2    0    0  0.00000000000E+00  0.00000000000E+00  0.50671080226E+03  0.36304411767E+04  0.35949057429E+04 0.  0.
        4    1    3    3  502    0  0.69985382796E+03  0.29861793542E+03  0.18979080408E+04  0.20447553878E+04  0.12699999809E+01 0.  1.
       -4    1    3    3    0  502 -0.69985382796E+03 -0.29861793542E+03 -0.13911972385E+04  0.15856857889E+04  0.12699999809E+01 0. -1.
</event>
<event>
 5   0  0.2590795E-08  0.3601053E+04  0.7818609E-02  0.8090250E-01
       -2   -1    0    0    0  501  0.00000000000E+00  0.00000000000E+00  0.14714149912E+04  0.14714149913E+04  0.25500000920E-02 0. -1.
        2   -1    0    0  501    0  0.00000000000E+00  0.00000000000E+00 -0.22032507348E+04  0.22032507348E+04  0.25500000920E-02 0.  1.
    10030    2    1    2    0    0  0.00000000000E+00  0.00000000000E+00 -0.73183574359E+03  0.36746657261E+04  0.36010532685E+04 0.  0.
        4    1    3    3  502    0 -0.14265583575E+04  0.95889490556E+03  0.18108693601E+03  0.17283929757E+04  0.12699999809E+01 0. -1.
       -4    1    3    3    0  502  0.14265583575E+04 -0.95889490556E+03 -0.91292267960E+03  0.19462727504E+04  0.12699999809E+01 0.  1.
</event>
<event>
 5   0  0.2494592E-08  0.3577791E+04  0.7818609E-02  0.8095598E-01
       -2   -1    0    0    0  501  0.00000000000E+00  0.00000000000E+00  0.13913350052E+04  0.13913350052E+04  0.25500000920E-02 0.  1.
        2   -1    0    0  501    0  0.00000000000E+00  0.00000000000E+00 -0.23000545415E+04  0.23000545415E+04  0.25500000920E-02 0. -1.
    10030    2    1    2    0    0  0.00000000000E+00  0.00000000000E+00 -0.90871953632E+03  0.36913895466E+04  0.35777906017E+04 0.  0.
        1    1    3    3  502    0  0.88639880024E+02 -0.13206584791E+04  0.78724055229E+03  0.15400466012E+04  0.50400001928E-02 0.  1.
       -1    1    3    3    0  502 -0.88639880024E+02  0.13206584791E+04 -0.16959600886E+04  0.21513429454E+04  0.50400001928E-02 0. -1.
</event>
<event>
 5   0  0.2482243E-08  0.3600445E+04  0.7818609E-02  0.8090390E-01
        2   -1    0    0  501    0  0.00000000000E+00  0.00000000000E+00  0.18555895572E+04  0.18555895572E+04  0.25500000920E-02 0. -1.
       -2   -1    0    0    0  501  0.00000000000E+00  0.00000000000E+00 -0.17465078955E+04  0.17465078955E+04  0.25500000920E-02 0.  1.
    10030    2    1    2    0    0  0.00000000000E+00  0.00000000000E+00  0.10908166174E+03  0.36020974527E+04  0.36004454238E+04 0.  0.
        5    1    3    3  502    0  0.11972089565E+04  0.10063407634E+03 -0.12867246106E+04  0.17604314290E+04  0.46999998093E+01 0.  1.
       -5    1    3    3    0  502 -0.11972089565E+04 -0.10063407634E+03  0.13958062724E+04  0.18416660237E+04  0.46999998093E+01 0. -1.
</event>
<event>
 5   0  0.2476968E-08  0.3599545E+04  0.7818609E-02  0.8090596E-01
       -2   -1    0    0    0  501  0.00000000000E+00  0.00000000000E+00  0.14489165570E+04  0.14489165570E+04  0.25500000920E-02 0. -1.
        2   -1    0    0  501    0  0.00000000000E+00  0.00000000000E+00 -0.22355887072E+04  0.22355887072E+04  0.25500000920E-02 0.  1.
    10030    2    1    2    0    0  0.00000000000E+00  0.00000000000E+00 -0.78667215015E+03  0.36845052642E+04  0.35995452450E+04 0.  0.
        2    1    3    3  502    0 -0.34609395016E+03  0.13071790763E+04 -0.16090917685E+04  0.21018264628E+04  0.25500000920E-02 0.  1.
       -2    1    3    3    0  502  0.34609395016E+03 -0.13071790763E+04  0.82241961838E+03  0.15826788015E+04  0.25500000920E-02 0. -1.
</event>
<event>
 5   0  0.8063410E-09  0.3600517E+04  0.7818609E-02  0.8090373E-01
        1   -1    0    0  501    0  0.00000000000E+00  0.00000000000E+00  0.17128677898E+04  0.17128677898E+04  0.50400001928E-02 0. -1.
       -1   -1    0    0    0  501  0.00000000000E+00  0.00000000000E+00 -0.18921074459E+04  0.18921074459E+04  0.50400001928E-02 0.  1.
    10030    2    1    2    0    0  0.00000000000E+00  0.00000000000E+00 -0.17923965610E+03  0.36049752357E+04  0.36005165734E+04 0.  0.
        2    1    3    3  502    0  0.62301120487E+02  0.17922316195E+04  0.68545065004E+02  0.17946236467E+04  0.25500000920E-02 0. -1.
       -2    1    3    3    0  502 -0.62301120487E+02 -0.17922316195E+04 -0.24778472110E+03  0.18103515889E+04  0.25500000920E-02 0.  1.
</event>
<event>
 5   0  0.8024500E-09  0.3600193E+04  0.7818609E-02  0.8090447E-01
        1   -1    0    0  501    0  0.00000000000E+00  0.00000000000E+00  0.20174177931E+04  0.20174177931E+04  0.50400001928E-02 0.  1.
       -1   -1    0    0    0  501  0.00000000000E+00  0.00000000000E+00 -0.16061857832E+04  0.16061857832E+04  0.50400001928E-02 0. -1.
    10030    2    1    2    0    0  0.00000000000E+00  0.00000000000E+00  0.41123200986E+03  0.36236035763E+04  0.36001932048E+04 0.  0.
        1    1    3    3  502    0 -0.45745797938E+03  0.17399494586E+04  0.26647285072E+03  0.18187082508E+04  0.50400001928E-02 0.  1.
       -1    1    3    3    0  502  0.45745797938E+03 -0.17399494586E+04  0.14475915914E+03  0.18048953254E+04  0.50400001928E-02 0. -1.
</event>
<event>
 5   0  0.2482243E-08  0.3599190E+04  0.7818609E-02  0.8090677E-01
        2   -1    0    0  501    0  0.00000000000E+00  0.00000000000E+00  0.18415828278E+04  0.18415828278E+04  0.25500000920E-02 0. -1.
       -2   -1    0    0    0  501  0.00000000000E+00  0.00000000000E+00 -0.17585645173E+04  0.17585645173E+04  0.25500000920E-02 0.  1.
    10030    2    1    2    0    0  0.00000000000E+00  0.00000000000E+00  0.83018310556E+02  0.36001473451E+04  0.35991900292E+04 0.  0.
        5    1    3    3  502    0 -0.15530042425E+04 -0.29903555320E+03  0.90038513112E+03  0.18198790932E+04  0.46999998093E+01 0. -1.
       -5    1    3    3    0  502  0.15530042425E+04  0.29903555320E+03 -0.81736682056E+03  0.17802682519E+04  0.46999998093E+01 0.  1.
</event>
<event>
 5   0  0.2494592E-08  0.3600971E+04  0.7818609E-02  0.8090269E-01
       -2   -1    0    0    0  501  0.00000000000E+00  0.00000000000E+00  0.14534295177E+04  0.14534295177E+04  0.25500000920E-02 0.  1.
        2   -1    0    0  501    0  0.00000000000E+00  0.00000000000E+00 -0.22304130010E+04  0.22304130010E+04  0.25500000920E-02 0. -1.
    10030    2    1    2    0    0  0.00000000000E+00  0.00000000000E+00 -0.77698348325E+03  0.36838425187E+04  0.36009710315E+04 0.  0.
        1    1    3    3  502    0 -0.15290364832E+04  0.94251638598E+03 -0.51568483405E+03  0.18687483920E+04  0.50400001928E-02 0.  1.
       -1    1    3    3    0  502  0.15290364832E+04 -0.94251638598E+03 -0.26129864920E+03  0.18150941267E+04  0.50400001928E-02 0. -1.
</event>
<event>
 5   0  0.8024500E-09  0.3599802E+04  0.7818609E-02  0.8090537E-01
       -3   -1    0    0    0  501  0.00000000000E+00  0.00000000000E+00  0.25342824905E+04  0.25342824925E+04  0.10100000352E+00 0.  1.
        3   -1    0    0  501    0  0.00000000000E+00  0.00000000000E+00 -0.12783276946E+04  0.12783276986E+04  0.10100000352E+00 0. -1.
    10030    2    1    2    0    0  0.00000000000E+00  0.00000000000E+00  0.12559547960E+04  0.38126101911E+04  0.35998019418E+04 0.  0.
        2    1    3    3  502    0  0.73031415105E+03 -0.77666474099E+03  0.21639071243E+04  0.24122729783E+04  0.25500000920E-02 0.  1.
       -2    1    3    3    0  502 -0.73031415105E+03  0.77666474099E+03 -0.90795232834E+03  0.14003372128E+04  0.25500000920E-02 0. -1.
</event>
<event>
 5   0  0.8247570E-09  0.3601106E+04  0.7818609E-02  0.8090238E-01
       -1   -1    0    0    0  501  0.00000000000E+00  0.00000000000E+00  0.17949929867E+04  0.17949929867E+04  0.50400001928E-02 0.  1.
        1   -1    0    0  501    0  0.00000000000E+00  0.00000000000E+00 -0.18061302646E+04  0.18061302646E+04  0.50400001928E-02 0. -1.
    10030    2    1    2    0    0  0.00000000000E+00  0.00000000000E+00 -0.11137277889E+02  0.36011232514E+04  0.36011060291E+04 0.  0.
        3    1    3    3  502    0  0.17750450482E+04  0.11189079289E+03  0.27494415566E+03  0.17996940772E+04  0.10100000352E+00 0.  1.
       -3    1    3    3    0  502 -0.17750450482E+04 -0.11189079289E+03 -0.28608143355E+03  0.18014291741E+04  0.10100000352E+00 0. -1.
</event>
<event>
 5   0  0.2482243E-08  0.3601254E+04  0.7818609E-02  0.8090205E-01
       -2   -1    0    0    0  501  0.00000000000E+00  0.00000000000E+00  0.13762532837E+04  0.13762532837E+04  0.25500000920E-02 0. -1.
        2   -1    0    0  501    0  0.00000000000E+00  0.00000000000E+00 -0.23558581286E+04  0.23558581287E+04  0.25500000920E-02 0.  1.
    10030    2    1    2    0    0  0.00000000000E+00  0.00000000000E+00 -0.97960484491E+03  0.37321114124E+04  0.36012539403E+04 0.  0.
        5    1    3    3  502    0  0.24107053993E+03  0.96683410914E+02 -0.23363358442E+04  0.23507339182E+04  0.46999998093E+01 0.  1.
       -5    1    3    3    0  502 -0.24107053993E+03 -0.96683410914E+02  0.13567309993E+04  0.13813774942E+04  0.46999998093E+01 0. -1.
</event>
<event>
 5   0  0.8247570E-09  0.3599933E+04  0.7818609E-02  0.8090507E-01
       -1   -1    0    0    0  501  0.00000000000E+00  0.00000000000E+00  0.21596502472E+04  0.21596502472E+04  0.50400001928E-02 0.  1.
        1   -1    0    0  501    0  0.00000000000E+00  0.00000000000E+00 -0.15001873333E+04  0.15001873333E+04  0.50400001928E-02 0. -1.
    10030    2    1    2    0    0  0.00000000000E+00  0.00000000000E+00  0.65946291392E+03  0.36598375805E+04  0.35999333023E+04 0.  0.
        3    1    3    3  502    0  0.46085927273E+03 -0.56049572009E+02  0.20977351799E+04  0.21484938257E+04  0.10100000352E+00 0.  1.
       -3    1    3    3    0  502 -0.46085927273E+03  0.56049572009E+02 -0.14382722660E+04  0.15113437548E+04  0.10100000352E+00 0. -1.
</event>
<event>
 5   0  0.2482243E-08  0.3597767E+04  0.7818609E-02  0.8091003E-01
       -2   -1    0    0    0  501  0.00000000000E+00  0.00000000000E+00  0.14993520333E+04  0.14993520333E+04  0.25500000920E-02 0. -1.
        2   -1    0    0  501    0  0.00000000000E+00  0.00000000000E+00 -0.21582532237E+04  0.21582532237E+04  0.25500000920E-02 0.  1.
    10030    2    1    2    0    0  0.00000000000E+00  0.00000000000E+00 -0.65890119038E+03  0.36576052570E+04  0.35977667291E+04 0.  0.
        5    1    3    3  502    0  0.36421082625E+03  0.81215462674E+03 -0.19186890821E+04  0.21150968175E+04  0.46999998093E+01 0.  1.
       -5    1    3    3    0  502 -0.36421082625E+03 -0.81215462674E+03  0.12597878917E+04  0.15425084395E+04  0.46999998093E+01 0. -1.
</event>
<event>
 5   0  0.8063410E-09  0.3600049E+04  0.7818609E-02  0.8090481E-01
       -1   -1    0    0    0  501  0.00000000000E+00  0.00000000000E+00  0.15467560080E+04  0.15467560080E+04  0.50400001928E-02 0.  1.
        1   -1    0    0  501    0  0.00000000000E+00  0.00000000000E+00 -0.20947633864E+04  0.20947633864E+04  0.50400001928E-02 0. -1.
    10030    2    1    2    0    0  0.00000000000E+00  0.00000000000E+00 -0.54800737840E+03  0.36415193945E+04  0.36000488071E+04 0.  0.
        2    1    3    3  502    0 -0.13342216170E+04 -0.38462085792E+03 -0.14326272845E+04  0.19951194109E+04  0.25500000920E-02 0. -1.
       -2    1    3    3    0  502  0.13342216170E+04  0.38462085792E+03  0.88461990607E+03  0.16463999836E+04  0.25500000920E-02 0.  1.
</event>
<event>
 5   0  0.2494592E-08  0.3599175E+04  0.7818609E-02  0.8090681E-01
        2   -1    0    0  501    0  0.00000000000E+00  0.00000000000E+00  0.27713648029E+04  0.27713648029E+04  0.25500000920E-02 0.  1.
       -2   -1    0    0    0  501  0.00000000000E+00  0.00000000000E+00 -0.11685632386E+04  0.11685632386E+04  0.25500000920E-02 0. -1.
    10030    2    1    2    0    0  0.00000000000E+00  0.00000000000E+00  0.16028015643E+04  0.39399280415E+04  0.35991749218E+04 0.  0.
        1    1    3    3  502    0  0.99623460001E+03 -0.70682632032E+03 -0.64523999997E+03  0.13814562906E+04  0.50400001928E-02 0. -1.
       -1    1    3    3    0  502 -0.99623460001E+03  0.70682632032E+03  0.22480415643E+04  0.25584717509E+04  0.50400001928E-02 0.  1.
</event>
<event>
 5   0  0.8063410E-09  0.3599540E+04  0.7818609E-02  0.8090597E-01
        1   -1    0    0  501    0  0.00000000000E+00  0.00000000000E+00  0.18088224294E+04  0.18088224294E+04  0.50400001928E-02 0. -1.
       -1   -1    0    0    0  501  0.00000000000E+00  0.00000000000E+00 -0.17907623923E+04  0.17907623923E+04  0.50400001928E-02 0.  1.
    10030    2    1    2    0    0  0.00000000000E+00  0.00000000000E+00  0.18060037119E+02  0.35995848217E+04  0.35995395156E+04 0.  0.
        2    1    3    3  502    0 -0.10718161394E+04  0.14453029307E+04 -0.29451406206E+02  0.17995993397E+04  0.25500000920E-02 0.  1.
       -2    1    3    3    0  502  0.10718161394E+04 -0.14453029307E+04  0.47511443325E+02  0.17999854820E+04  0.25500000920E-02 0. -1.
</event>
<event>
 5   0  0.2590795E-08  0.3599912E+04  0.7818609E-02  0.8090512E-01
       -2   -1    0    0    0  501  0.00000000000E+00  0.00000000000E+00  0.20039604778E+04  0.20039604778E+04  0.25500000920E-02 0.  1.
        2   -1    0    0  501    0  0.00000000000E+00  0.00000000000E+00 -0.16167191222E+04  0.16167191222E+04  0.25500000920E-02 0. -1.
    10030    2    1    2    0    0  0.00000000000E+00  0.00000000000E+00  0.38724135556E+03  0.36206796000E+04  0.35999117904E+04 0.  0.
        4    1    3    3  502    0  0.22456628430E+03 -0.91211180793E+03 -0.13506397893E+04  0.16451770177E+04  0.12699999809E+01 0. -1.
       -4    1    3    3    0  502 -0.22456628430E+03  0.91211180793E+03  0.17378811449E+04  0.19755025823E+04  0.12699999809E+01 0.  1.
</event>
<event>
 5   0  0.8146881E-09  0.3599879E+04  0.7818609E-02  0.8090519E-01
       -1   -1    0    0    0  501  0.00000000000E+00  0.00000000000E+00  0.19103362805E+04  0.19103362805E+04  0.50400001928E-02 0.  1.
        1   -1    0    0  501    0  0.00000000000E+00  0.00000000000E+00 -0.16959228421E+04  0.16959228421E+04  0.50400001928E-02 0. -1.
    10030    2    1    2    0    0  0.00000000000E+00  0.00000000000E+00  0.21441343839E+03  0.36062591226E+04  0.35998794059E+04 0.  0.
        4    1    3    3  502    0 -0.17489966753E+04  0.37206701284E+03  0.31338226692E+03  0.18153879173E+04  0.12699999809E+01 0.  1.
       -4    1    3    3    0  502  0.17489966753E+04 -0.37206701284E+03 -0.98968828525E+02  0.17908712053E+04  0.12699999809E+01 0. -1.
</event>
<event>
 5   0  0.8063410E-09  0.3599843E+04  0.7818609E-02  0.8090528E-01
        1   -1    0    0  501    0  0.00000000000E+00  0.00000000000E+00  0.11551037710E+04  0.11551037710E+04  0.50400001928E-02 0.  1.
       -1   -1    0    0    0  501  0.00000000000E+00  0.00000000000E+00 -0.28046980617E+04  0.28046980617E+04  0.50400001928E-02 0. -1.
    10030    2    1    2    0    0  0.00000000000E+00  0.00000000000E+00 -0.16495942907E+04  0.39598018327E+04  0.35998429452E+04 0.  0.
        2    1    3    3  502    0  0.11912194012E+04 -0.12854477212E+04 -0.37348115114E+03  0.17918894151E+04  0.25500000920E-02 0.  1.
       -2    1    3    3    0  502 -0.11912194012E+04  0.12854477212E+04 -0.12761131395E+04  0.21679124176E+04  0.25500000920E-02 0. -1.
</event>
<event>
 5   0  0.8024500E-09  0.3601825E+04  0.7818609E-02  0.8090074E-01
        1   -1    0    0  501    0  0.00000000000E+00  0.00000000000E+00  0.14350660958E+04  0.14350660958E+04  0.50400001928E-02 0.  1.
       -1   -1    0    0    0  501  0.00000000000E+00  0.00000000000E+00 -0.22600251096E+04  0.22600251096E+04  0.50400001928E-02 0. -1.
    10030    2    1    2    0    0  0.00000000000E+00  0.00000000000E+00 -0.82495901382E+03  0.36950912054E+04  0.36018247655E+04 0.  0.
        5    1    3    3  502    0  0.14161058699E+04  0.72884748043E+03 -0.12748952938E+04  0.20400869061E+04  0.46999998093E+01 0. -1.
       -5    1    3    3    0  502 -0.14161058699E+04 -0.72884748043E+03  0.44993628001E+03  0.16550042992E+04  0.46999998093E+01 0.  1.
</event>
<event>
 5   0  0.8063410E-09  0.3598717E+04  0.7818609E-02  0.8090786E-01
        1   -1    0    0  501    0  0.00000000000E+00  0.00000000000E+00  0.14076082907E+04  0.14076082908E+04  0.50400001928E-02 0. -1.
       -1   -1    0    0    0  501  0.00000000000E+00  0.00000000000E+00 -0.23001367857E+04  0.23001367857E+04  0.50400001928E-02 0.  1.
    10030    2    1    2    0    0  0.00000000000E+00  0.00000000000E+00 -0.89252849496E+03  0.37077450765E+04  0.35987173323E+04 0.  0.
        2    1    3    3  502    0  0.14774035397E+04 -0.54582895818E+03  0.45017708292E+03  0.16380811570E+04  0.25500000920E-02 0. -1.
       -2    1    3    3    0  502 -0.14774035397E+04  0.54582895818E+03 -0.13427055779E+04  0.20696639195E+04  0.25500000920E-02 0.  1.
</event>
<event>
 5   0  0.8247570E-09  0.3599322E+04  0.7818609E-02  0.8090647E-01
       -1   -1    0    0    0  501  0.00000000000E+00  0.00000000000E+00  0.14045251451E+04  0.14045251451E+04  0.50400001928E-02 0. -1.
        1   -1    0    0  501    0  0.00000000000E+00  0.00000000000E+00 -0.23059610631E+04  0.23059610631E+04  0.50400001928E-02 0.  1.
    10030    2    1    2    0    0  0.00000000000E+00  0.00000000000E+00 -0.90143591798E+03  0.37104862082E+04  0.35993223233E+04 0.  0.
        3    1    3    3  502    0  0.54893921036E+03 -0.43588581132E+03 -0.21594538753E+04  0.22703681963E+04  0.10100000352E+00 0.  1.
       -3    1    3    3    0  502 -0.54893921036E+03  0.43588581132E+03  0.12580179573E+04  0.14401180119E+04  0.10100000352E+00 0. -1.
</event>
<event>
 5   0  0.8024500E-09  0.3600734E+04  0.7818609E-02  0.8090324E-01
        1   -1    0    0  501    0  0.00000000000E+00  0.00000000000E+00  0.14771686454E+04  0.14771686454E+04  0.50400001928E-02 0. -1.
       -1   -1    0    0    0  501  0.00000000000E+00  0.00000000000E+00 -0.21942797313E+04  0.21942797313E+04  0.50400001928E-02 0.  1.
    10030    2    1    2    0    0  0.00000000000E+00  0.00000000000E+00 -0.71711108592E+03  0.36714483768E+04  0.36007339354E+04 0.  0.
        5    1    3    3  502    0  0.71573082573E+03 -0.16300421793E+04 -0.84974803407E+02  0.17822881160E+04  0.46999998093E+01 0.  1.
       -5    1    3    3    0  502 -0.71573082573E+03  0.16300421793E+04 -0.63213628252E+03  0.18891602608E+04  0.46999998093E+01 0. -1.
</event>
<event>
 5   0  0.8024500E-09  0.3608084E+04  0.7818609E-02  0.8088642E-01
       -1   -1    0    0    0  501  0.00000000000E+00  0.00000000000E+00  0.25058388637E+04  0.25058388637E+04  0.50400001928E-02 0. -1.
        1   -1    0    0  501    0  0.00000000000E+00  0.00000000000E+00 -0.12987939835E+04  0.12987939835E+04  0.50400001928E-02 0.  1.
    10030    2    1    2    0    0  0.00000000000E+00  0.00000000000E+00  0.12070448802E+04  0.38046328472E+04  0.36080845000E+04 0.  0.
        5    1    3    3  502    0  0.58137872369E+03 -0.16865218925E+04  0.88683881296E+03  0.19922004127E+04  0.46999998093E+01 0. -1.
       -5    1    3    3    0  502 -0.58137872369E+03  0.16865218925E+04  0.32020606723E+03  0.18124324345E+04  0.46999998093E+01 0.  1.
</event>
<event>
 5   0  0.8024500E-09  0.3597690E+04  0.7818609E-02  0.8091021E-01
       -1   -1    0    0    0  501  0.00000000000E+00  0.00000000000E+00  0.16216936185E+04  0.16216936185E+04  0.50400001928E-02 0. -1.
        1   -1    0    0  501    0  0.00000000000E+00  0.00000000000E+00 -0.19953478711E+04  0.19953478711E+04  0.50400001928E-02 0.  1.
    10030    2    1    2    0    0  0.00000000000E+00  0.00000000000E+00 -0.37365425258E+03  0.36170414896E+04  0.35976897639E+04 0.  0.
        5    1    3    3  502    0  0.65702808308E+03 -0.14595241141E+04  0.63851750537E+03  0.17232594802E+04  0.46999998093E+01 0. -1.
       -5    1    3    3    0  502 -0.65702808308E+03  0.14595241141E+04 -0.10121717579E+04  0.18937820094E+04  0.46999998093E+01 0.  1.
</event>
<event>
 5   0  0.2590795E-08  0.3599378E+04  0.7818609E-02  0.8090634E-01
        2   -1    0    0  501    0  0.00000000000E+00  0.00000000000E+00  0.21735105176E+04  0.21735105176E+04  0.25500000920E-02 0.  1.
       -2   -1    0    0    0  501  0.00000000000E+00  0.00000000000E+00 -0.14901611031E+04  0.14901611031E+04  0.25500000920E-02 0. -1.
    10030    2    1    2    0    0  0.00000000000E+00  0.00000000000E+00  0.68334941448E+03  0.36636716207E+04  0.35993781855E+04 0.  0.
        4    1    3    3  502    0  0.15272166008E+04 -0.90402473154E+03  0.37628539282E+02  0.17751250043E+04  0.12699999809E+01 0. -1.
       -4    1    3    3    0  502 -0.15272166008E+04  0.90402473154E+03  0.64572087520E+03  0.18885466164E+04  0.12699999809E+01 0.  1.
</event>
<event>
 5   0  0.8146881E-09  0.3599263E+04  0.7818609E-02  0.8090660E-01
        1   -1    0    0  501    0  0.00000000000E+00  0.00000000000E+00  0.25319179530E+04  0.25319179531E+04  0.50400001928E-02 0. -1.
       -1   -1    0    0    0  501  0.00000000000E+00  0.00000000000E+00 -0.12791386223E+04  0.12791386223E+04  0.50400001928E-02 0.  1.
    10030    2    1    2    0    0  0.00000000000E+00  0.00000000000E+00  0.12527793308E+04  0.38110565753E+04  0.35992632814E+04 0.  0.
        4    1    3    3  502    0  0.13461394212E+04 -0.11837022939E+04  0.45753825953E+03  0.18500230630E+04  0.12699999809E+01 0.  1.
       -4    1    3    3    0  502 -0.13461394212E+04  0.11837022939E+04  0.79524107125E+03  0.19610335123E+04  0.12699999809E+01 0. -1.
</event>
<event>
 5   0  0.2608070E-08  0.3599474E+04  0.7818609E-02  0.8090612E-01
       -2   -1    0    0    0  501  0.00000000000E+00  0.00000000000E+00  0.28478479325E+04  0.28478479325E+04  0.25500000920E-02 0. -1.
        2   -1    0    0  501    0  0.00000000000E+00  0.00000000000E+00 -0.11373688567E+04  0.11373688567E+04  0.25500000920E-02 0.  1.
    10030    2    1    2    0    0  0.00000000000E+00  0.00000000000E+00  0.17104790759E+04  0.39852167892E+04  0.35994741544E+04 0.  0.
        3    1    3    3  502    0 -0.60904359499E+03 -0.13121114871E+04 -0.33024714315E+03  0.14837903629E+04  0.10100000352E+00 0.  1.
       -3    1    3    3    0  502  0.60904359499E+03  0.13121114871E+04  0.20407262190E+04  0.25014264263E+04  0.10100000352E+00 0. -1.
</event>
<event>
 5   0  0.2494592E-08  0.3599025E+04  0.7818609E-02  0.8090715E-01
        2   -1    0    0  501    0  0.00000000000E+00  0.00000000000E+00  0.23598278507E+04  0.23598278507E+04  0.25500000920E-02 0.  1.
       -2   -1    0    0    0  501  0.00000000000E+00  0.00000000000E+00 -0.13722376120E+04  0.13722376120E+04  0.25500000920E-02 0. -1.
    10030    2    1    2    0    0  0.00000000000E+00  0.00000000000E+00  0.98759023866E+03  0.37320654627E+04  0.35990246093E+04 0.  0.
        1    1    3    3  502    0  0.56803366280E+03 -0.16810906359E+04  0.18354200918E+03  0.17839326326E+04  0.50400001928E-02 0. -1.
       -1    1    3    3    0  502 -0.56803366280E+03  0.16810906359E+04  0.80404822948E+03  0.19481328301E+04  0.50400001928E-02 0.  1.
</event>
<event>
 5   0  0.8146881E-09  0.3600443E+04  0.7818609E-02  0.8090390E-01
       -1   -1    0    0    0  501  0.00000000000E+00  0.00000000000E+00  0.14977699731E+04  0.14977699731E+04  0.50400001928E-02 0.  1.
        1   -1    0    0  501    0  0.00000000000E+00  0.00000000000E+00 -0.21637488806E+04  0.21637488806E+04  0.50400001928E-02 0. -1.
    10030    2    1    2    0    0  0.00000000000E+00  0.00000000000E+00 -0.66597890752E+03  0.36615188537E+04  0.36004433631E+04 0.  0.
        4    1    3    3  502    0 -0.26628542013E+03  0.92175716738E+03  0.12160871547E+04  0.15490041257E+04  0.12699999809E+01 0.  1.
       -4    1    3    3    0  502  0.26628542013E+03 -0.92175716738E+03 -0.18820660623E+04  0.21125147280E+04  0.12699999809E+01 0. -1.
</event>
<event>
 5   0  0.2494592E-08  0.3599075E+04  0.7818609E-02  0.8090704E-01
        2   -1    0    0  501    0  0.00000000000E+00  0.00000000000E+00  0.21209219803E+04  0.21209219803E+04  0.25500000920E-02 0.  1.
       -2   -1    0    0    0  501  0.00000000000E+00  0.00000000000E+00 -0.15268529006E+04  0.15268529006E+04  0.25500000920E-02 0. -1.
    10030    2    1    2    0    0  0.00000000000E+00  0.00000000000E+00  0.59406907971E+03  0.36477748809E+04  0.35990753688E+04 0.  0.
        1    1    3    3  502    0 -0.55195821509E+03 -0.38494788081E+03 -0.13945282893E+04  0.15484030134E+04  0.50400001928E-02 0. -1.
       -1    1    3    3    0  502  0.55195821509E+03  0.38494788081E+03  0.19885973690E+04  0.20993718676E+04  0.50400001928E-02 0.  1.
</event>
<event>
 5   0  0.2608070E-08  0.3604654E+04  0.7818609E-02  0.8089426E-01
        2   -1    0    0  501    0  0.00000000000E+00  0.00000000000E+00  0.20859811556E+04  0.20859811556E+04  0.25500000920E-02 0. -1.
       -2   -1    0    0    0  501  0.00000000000E+00  0.00000000000E+00 -0.15572448462E+04  0.15572448462E+04  0.25500000920E-02 0.  1.
    10030    2    1    2    0    0  0.00000000000E+00  0.00000000000E+00  0.52873630939E+03  0.36432260018E+04  0.36046544377E+04 0.  0.
        3    1    3    3  502    0 -0.54413141737E+03 -0.11775675819E+03 -0.14681616812E+04  0.15701733617E+04  0.10100000352E+00 0.  1.
       -3    1    3    3    0  502  0.54413141737E+03  0.11775675819E+03  0.19968979906E+04  0.20730526401E+04  0.10100000352E+00 0. -1.
</event>
<event>
 5   0  0.8063410E-09  0.3599434E+04  0.7818609E-02  0.8090621E-01
       -1   -1    0    0    0  501  0.00000000000E+00  0.00000000000E+00  0.11633801109E+04  0.11633801109E+04  0.50400001928E-02 0.  1.
        1   -1    0    0  501    0  0.00000000000E+00  0.00000000000E+00 -0.27841130285E+04  0.27841130285E+04  0.50400001928E-02 0. -1.
    10030    2    1    2    0    0  0.00000000000E+00  0.00000000000E+00 -0.16207329176E+04  0.39474931394E+04  0.35994342466E+04 0.  0.
        2    1    3    3  502    0  0.63411854150E+03  0.14804748433E+04 -0.16911930963E+04  0.23353899408E+04  0.25500000920E-02 0. -1.
       -2    1    3    3    0  502 -0.63411854150E+03 -0.14804748433E+04  0.70460178759E+02  0.16121031987E+04  0.25500000920E-02 0.  1.
</event>
<event>
 5   0  0.2608070E-08  0.3600973E+04  0.7818609E-02  0.8090269E-01
       -2   -1    0    0    0  501  0.00000000000E+00  0.00000000000E+00  0.11288406198E+04  0.11288406198E+04  0.25500000920E-02 0. -1.
        2   -1    0    0  501    0  0.00000000000E+00  0.00000000000E+00 -0.28717530032E+04  0.28717530032E+04  0.25500000920E-02 0.  1.
    10030    2    1    2    0    0  0.00000000000E+00  0.00000000000E+00 -0.17429123834E+04  0.40005936231E+04  0.36009728909E+04 0.  0.
        3    1    3    3  502    0 -0.10410594814E+04  0.89220482530E+03 -0.21679783055E+04  0.25651440968E+04  0.10100000352E+00 0.  1.
       -3    1    3    3    0  502  0.10410594814E+04 -0.89220482530E+03  0.42506592212E+03  0.14354495262E+04  0.10100000352E+00 0. -1.
</event>
<event>
 5   0  0.8024500E-09  0.3598045E+04  0.7818609E-02  0.8090940E-01
        1   -1    0    0  501    0  0.00000000000E+00  0.00000000000E+00  0.25478873029E+04  0.25478873029E+04  0.50400001928E-02 0.  1.
       -1   -1    0    0    0  501  0.00000000000E+00  0.00000000000E+00 -0.12702610793E+04  0.12702610793E+04  0.50400001928E-02 0. -1.
    10030    2    1    2    0    0  0.00000000000E+00  0.00000000000E+00  0.12776262235E+04  0.38181483822E+04  0.35980450666E+04 0.  0.
        1    1    3    3  502    0 -0.56057781671E+03 -0.10828307576E+04  0.20424976159E+04  0.23787741484E+04  0.50400001928E-02 0.  1.
       -1    1    3    3    0  502  0.56057781671E+03  0.10828307576E+04 -0.76487139237E+03  0.14393742338E+04  0.50400001928E-02 0. -1.
</event>
<event>
 5   0  0.8063410E-09  0.3603927E+04  0.7818609E-02  0.8089593E-01
       -1   -1    0    0    0  501  0.00000000000E+00  0.00000000000E+00  0.14082533422E+04  0.14082533422E+04  0.50400001928E-02 0. -1.
        1   -1    0    0  501    0  0.00000000000E+00  0.00000000000E+00 -0.23057439538E+04  0.23057439538E+04  0.50400001928E-02 0.  1.
    10030    2    1    2    0    0  0.00000000000E+00  0.00000000000E+00 -0.89749061157E+03  0.37139972961E+04  0.36039265416E+04 0.  0.
        2    1    3    3  502    0 -0.17841823751E+03  0.10653036938E+04 -0.19351449390E+04  0.22161883861E+04  0.25500000920E-02 0.  1.
       -2    1    3    3    0  502  0.17841823751E+03 -0.10653036938E+04  0.10376543275E+04  0.14978089100E+04  0.25500000920E-02 0. -1.
</event>
<event>
 5   0  0.8024500E-09  0.3602053E+04  0.7818609E-02  0.8090022E-01
        1   -1    0    0  501    0  0.00000000000E+00  0.00000000000E+00  0.19719561450E+04  0.19719561450E+04  0.50400001928E-02 0.  1.
       -1   -1    0    0    0  501  0.00000000000E+00  0.00000000000E+00 -0.16449133970E+04  0.16449133970E+04  0.50400001928E-02 0. -1.
    10030    2    1    2    0    0  0.00000000000E+00  0.00000000000E+00  0.32704274800E+03  0.36168695419E+04  0.36020533483E+04 0.  0.
        1    1    3    3  502    0 -0.81195199396E+03 -0.16045965239E+04  0.26242034285E+03  0.18173773635E+04  0.50400001928E-02 0. -1.
       -1    1    3    3    0  502  0.81195199396E+03  0.16045965239E+04  0.64622405154E+02  0.17994921784E+04  0.50400001928E-02 0.  1.
</event>
<event>
 5   0  0.2494592E-08  0.3600454E+04  0.7818609E-02  0.8090388E-01
        2   -1    0    0  501    0  0.00000000000E+00  0.00000000000E+00  0.28071409912E+04  0.28071409912E+04  0.25500000920E-02 0.  1.
       -2   -1    0    0    0  501  0.00000000000E+00  0.00000000000E+00 -0.11544900737E+04  0.11544900737E+04  0.25500000920E-02 0. -1.
    10030    2    1    2    0    0  0.00000000000E+00  0.00000000000E+00  0.16526509174E+04  0.39616310649E+04  0.36004535325E+04 0.  0.
        1    1    3    3  502    0 -0.12252673980E+04  0.91472663715E+03  0.18718045066E+04  0.24169520326E+04  0.50400001928E-02 0. -1.
       -1    1    3    3    0  502  0.12252673980E+04 -0.91472663715E+03 -0.21915358912E+03  0.15446790323E+04  0.50400001928E-02 0.  1.
</event>
<event>
 5   0  0.8024500E-09  0.3599935E+04  0.7818609E-02  0.8090507E-01
        1   -1    0    0  501    0  0.00000000000E+00  0.00000000000E+00  0.21496953179E+04  0.21496953179E+04  0.50400001928E-02 0.  1.
       -1   -1    0    0    0  501  0.00000000000E+00  0.00000000000E+00 -0.15071360181E+04  0.15071360181E+04  0.50400001928E-02 0. -1.
    10030    2    1    2    0    0  0.00000000000E+00  0.00000000000E+00  0.64255929981E+03  0.36568313360E+04  0.35999351336E+04 0.  0.
        1    1    3    3  502    0  0.96594332114E+03 -0.14902189632E+04  0.61931785337E+03  0.18807853842E+04  0.50400001928E-02 0.  1.
       -1    1    3    3    0  502 -0.96594332114E+03  0.14902189632E+04  0.23241446439E+02  0.17760459518E+04  0.50400001928E-02 0. -1.
</event>
<event>
 5   0  0.8146881E-09  0.3602023E+04  0.7818609E-02  0.8090028E-01
       -1   -1    0    0    0  501  0.00000000000E+00  0.00000000000E+00  0.16632600126E+04  0.16632600126E+04  0.50400001928E-02 0. -1.
        1   -1    0    0  501    0  0.00000000000E+00  0.00000000000E+00 -0.19501714815E+04  0.19501714815E+04  0.50400001928E-02 0.  1.
    10030    2    1    2    0    0  0.00000000000E+00  0.00000000000E+00 -0.28691146886E+03  0.36134314941E+04  0.36020228999E+04 0.  0.
        4    1    3    3  502    0 -0.69861259116E+03  0.15554161415E+04  0.43826167412E+03  0.17605265785E+04  0.12699999809E+01 0. -1.
       -4    1    3    3    0  502  0.69861259116E+03 -0.15554161415E+04 -0.72517314299E+03  0.18529049156E+04  0.12699999809E+01 0.  1.
</event>
<event>
 5   0  0.2476968E-08  0.3596541E+04  0.7818609E-02  0.8091284E-01
       -2   -1    0    0    0  501  0.00000000000E+00  0.00000000000E+00  0.15120080295E+04  0.15120080295E+04  0.25500000920E-02 0. -1.
        2   -1    0    0  501    0  0.00000000000E+00  0.00000000000E+00 -0.21387303194E+04  0.21387303194E+04  0.25500000920E-02 0.  1.
    10030    2    1    2    0    0  0.00000000000E+00  0.00000000000E+00 -0.62672228987E+03  0.36507383490E+04  0.35965413474E+04 0.  0.
        2    1    3    3  502    0 -0.38297443349E+02  0.28671130707E+03 -0.21149609544E+04  0.21346498323E+04  0.25500000920E-02 0.  1.
       -2    1    3    3    0  502  0.38297443349E+02 -0.28671130707E+03  0.14882386645E+04  0.15160885167E+04  0.25500000920E-02 0. -1.
</event>
<event>
 5   0  0.2476968E-08  0.3600545E+04  0.7818609E-02  0.8090367E-01
        2   -1    0    0  501    0  0.00000000000E+00  0.00000000000E+00  0.16262464672E+04  0.16262464672E+04  0.25500000920E-02 0. -1.
       -2   -1    0    0    0  501  0.00000000000E+00  0.00000000000E+00 -0.19929207307E+04  0.19929207307E+04  0.25500000920E-02 0.  1.
    10030    2    1    2    0    0  0.00000000000E+00  0.00000000000E+00 -0.36667426358E+03  0.36191671979E+04  0.36005445686E+04 0.  0.
        2    1    3    3  502    0 -0.52299984900E+03 -0.14883988254E+04 -0.10550714387E+04  0.18979029602E+04  0.25500000920E-02 0.  1.
       -2    1    3    3    0  502  0.52299984900E+03  0.14883988254E+04  0.68839717513E+03  0.17212642377E+04  0.25500000920E-02 0. -1.
</event>
<event>
 5   0  0.2482243E-08  0.3597405E+04  0.7818609E-02  0.8091086E-01
       -2   -1    0    0    0  501  0.00000000000E+00  0.00000000000E+00  0.14976348623E+04  0.14976348623E+04  0.25500000920E-02 0. -1.
        2   -1    0    0  501    0  0.00000000000E+00  0.00000000000E+00 -0.21602936765E+04  0.21602936765E+04  0.25500000920E-02 0.  1.
    10030    2    1    2    0    0  0.00000000000E+00  0.00000000000E+00 -0.66265881419E+03  0.36579285388E+04  0.35974052442E+04 0.  0.
        5    1    3    3  502    0  0.10881093908E+04  0.69442612350E+02  0.11232995464E+04  0.15654482693E+04  0.46999998093E+01 0. -1.
       -5    1    3    3    0  502 -0.10881093908E+04 -0.69442612350E+02 -0.17859583606E+04  0.20924802696E+04  0.46999998093E+01 0.  1.
</event>
<event>
 5   0  0.2494592E-08  0.3600835E+04  0.7818609E-02  0.8090300E-01
        2   -1    0    0  501    0  0.00000000000E+00  0.00000000000E+00  0.29575795185E+04  0.29575795185E+04  0.25500000920E-02 0.  1.
       -2   -1    0    0    0  501  0.00000000000E+00  0.00000000000E+00 -0.10959987495E+04  0.10959987496E+04  0.25500000920E-02 0. -1.
    10030    2    1    2    0    0  0.00000000000E+00  0.00000000000E+00  0.18615807690E+04  0.40535782681E+04  0.36008351554E+04 0.  0.
        1    1    3    3  502    0  0.12725673005E+04 -0.47326170898E+03 -0.40029013682E+03  0.14154986306E+04  0.50400001928E-02 0. -1.
       -1    1    3    3    0  502 -0.12725673005E+04  0.47326170898E+03  0.22618709058E+04  0.26380796375E+04  0.50400001928E-02 0.  1.
</event>
<event>
 5   0  0.8247570E-09  0.3588208E+04  0.7818609E-02  0.8093198E-01
       -1   -1    0    0    0  501  0.00000000000E+00  0.00000000000E+00  0.15767925341E+04  0.15767925341E+04  0.50400001928E-02 0.  1.
        1   -1    0    0  501    0  0.00000000000E+00  0.00000000000E+00 -0.20413647692E+04  0.20413647692E+04  0.50400001928E-02 0. -1.
    10030    2    1    2    0    0  0.00000000000E+00  0.00000000000E+00 -0.46457223514E+03  0.36181573033E+04  0.35882077573E+04 0.  0.
        3    1    3    3  502    0 -0.23867352371E+03 -0.14078774280E+04  0.86293099445E+03  0.16684525210E+04  0.10100000352E+00 0.  1.
       -3    1    3    3    0  502  0.23867352371E+03  0.14078774280E+04 -0.13275032296E+04  0.19497047823E+04  0.10100000352E+00 0. -1.
</event>
<event>
 5   0  0.2590795E-08  0.3598527E+04  0.7818609E-02  0.8090829E-01
       -2   -1    0    0    0  501  0.00000000000E+00  0.00000000000E+00  0.20577274535E+04  0.20577274535E+04  0.25500000920E-02 0. -1.
        2   -1    0    0  501    0  0.00000000000E+00  0.00000000000E+00 -0.15732646814E+04  0.15732646814E+04  0.25500000920E-02 0.  1.
    10030    2    1    2    0    0  0.00000000000E+00  0.00000000000E+00  0.48446277204E+03  0.36309921349E+04  0.35985274358E+04 0.  0.
        4    1    3    3  502    0 -0.47802154905E+03  0.16160070647E+03  0.19848701998E+04  0.20480065216E+04  0.12699999809E+01 0. -1.
       -4    1    3    3    0  502  0.47802154905E+03 -0.16160070647E+03 -0.15004074277E+04  0.15829856133E+04  0.12699999809E+01 0.  1.
</event>
<event>
 5   0  0.2482243E-08  0.3600343E+04  0.7818609E-02  0.8090413E-01
        2   -1    0    0  501    0  0.00000000000E+00  0.00000000000E+00  0.16689004718E+04  0.16689004718E+04  0.25500000920E-02 0. -1.
       -2   -1    0    0    0  501  0.00000000000E+00  0.00000000000E+00 -0.19417681207E+04  0.19417681207E+04  0.25500000920E-02 0.  1.
    10030    2    1    2    0    0  0.00000000000E+00  0.00000000000E+00 -0.27286764888E+03  0.36106685925E+04  0.36003431686E+04 0.  0.
        5    1    3    3  502    0  0.61224911958E+03  0.50990037403E+03 -0.17552963107E+04  0.19276759594E+04  0.46999998093E+01 0.  1.
       -5    1    3    3    0  502 -0.61224911958E+03 -0.50990037403E+03  0.14824286619E+04  0.16829926332E+04  0.46999998093E+01 0. -1.
</event>
<event>
 5   0  0.2608070E-08  0.3602683E+04  0.7818609E-02  0.8089877E-01
       -2   -1    0    0    0  501  0.00000000000E+00  0.00000000000E+00  0.16644646176E+04  0.16644646176E+04  0.25500000920E-02 0.  1.
        2   -1    0    0  501    0  0.00000000000E+00  0.00000000000E+00 -0.19494742548E+04  0.19494742548E+04  0.25500000920E-02 0. -1.
    10030    2    1    2    0    0  0.00000000000E+00  0.00000000000E+00 -0.28500963718E+03  0.36139388724E+04  0.36026828448E+04 0.  0.
        3    1    3    3  502    0  0.10906667495E+04 -0.24183638552E+03  0.12749890772E+04  0.16951802125E+04  0.10100000352E+00 0.  1.
       -3    1    3    3    0  502 -0.10906667495E+04  0.24183638552E+03 -0.15599987144E+04  0.19187586599E+04  0.10100000352E+00 0. -1.
</event>
<event>
 5   0  0.8024500E-09  0.3601704E+04  0.7818609E-02  0.8090101E-01
       -1   -1    0    0    0  501  0.00000000000E+00  0.00000000000E+00  0.15451879156E+04  0.15451879156E+04  0.50400001928E-02 0. -1.
        1   -1    0    0  501    0  0.00000000000E+00  0.00000000000E+00 -0.20988180460E+04  0.20988180460E+04  0.50400001928E-02 0.  1.
    10030    2    1    2    0    0  0.00000000000E+00  0.00000000000E+00 -0.55363013042E+03  0.36440059617E+04  0.36017041976E+04 0.  0.
        1    1    3    3  502    0  0.15400840643E+04  0.81364327259E+03 -0.73956421540E+03  0.18923079899E+04  0.50400001928E-02 0. -1.
       -1    1    3    3    0  502 -0.15400840643E+04 -0.81364327259E+03  0.18593408498E+03  0.17516979717E+04  0.50400001928E-02 0.  1.
</event>
<event>
 5   0  0.8063410E-09  0.3601910E+04  0.7818609E-02  0.8090054E-01
       -1   -1    0    0    0  501  0.00000000000E+00  0.00000000000E+00  0.14586351186E+04  0.14586351186E+04  0.50400001928E-02 0.  1.
        1   -1    0    0  501    0  0.00000000000E+00  0.00000000000E+00 -0.22236119224E+04  0.22236119224E+04  0.50400001928E-02 0. -1.
    10030    2    1    2    0    0  0.00000000000E+00  0.00000000000E+00 -0.76497680380E+03  0.36822470410E+04  0.36019097380E+04 0.  0.
        2    1    3    3  502    0 -0.35966623607E+03  0.17578340397E+04 -0.54118650918E+03  0.18740926205E+04  0.25500000920E-02 0. -1.
       -2    1    3    3    0  502  0.35966623607E+03 -0.17578340397E+04 -0.22379029461E+03  0.18081544205E+04  0.25500000920E-02 0.  1.
</event>
<event>
 5   0  0.8063410E-09  0.3601382E+04  0.7818609E-02  0.8090175E-01
       -1   -1    0    0    0  501  0.00000000000E+00  0.00000000000E+00  0.16469861095E+04  0.16469861095E+04  0.50400001928E-02 0. -1.
        1   -1    0    0  501    0  0.00000000000E+00  0.00000000000E+00 -0.19687398963E+04  0.19687398963E+04  0.50400001928E-02 0.  1.
    10030    2    1    2    0    0  0.00000000000E+00  0.00000000000E+00 -0.32175378676E+03  0.36157260058E+04  0.36013815474E+04 0.  0.
        2    1    3    3  502    0 -0.75978914869E+03 -0.29293578347E+03 -0.17733237775E+04  0.19513503385E+04  0.25500000920E-02 0.  1.
       -2    1    3    3    0  502  0.75978914869E+03  0.29293578347E+03  0.14515699908E+04  0.16643756673E+04  0.25500000920E-02 0. -1.
</event>
<event>
 5   0  0.2476968E-08  0.3599031E+04  0.7818609E-02  0.8090714E-01
        2   -1    0    0  501    0  0.00000000000E+00  0.00000000000E+00  0.23714052423E+04  0.23714052423E+04  0.25500000920E-02 0.  1.
       -2   -1    0    0    0  501  0.00000000000E+00  0.00000000000E+00 -0.13655430916E+04  0.13655430916E+04  0.25500000920E-02 0. -1.
    10030    2    1    2    0    0  0.00000000000E+00  0.00000000000E+00  0.10058621507E+04  0.37369483339E+04  0.35990310063E+04 0.  0.
        2    1    3    3  502    0 -0.26774903120E+02 -0.14235102489E+04 -0.63976794868E+03  0.15608976111E+04  0.25500000920E-02 0. -1.
       -2    1    3    3    0  502  0.26774903120E+02  0.14235102489E+04  0.16456300994E+04  0.21760507228E+04  0.25500000920E-02 0.  1.
</event>
<event>
 5   0  0.2590795E-08  0.3601879E+04  0.7818609E-02  0.8090061E-01
        2   -1    0    0  501    0  0.00000000000E+00  0.00000000000E+00  0.12291733643E+04  0.12291733643E+04  0.25500000920E-02 0. -1.
       -2   -1    0    0    0  501  0.00000000000E+00  0.00000000000E+00 -0.26386706852E+04  0.26386706852E+04  0.25500000920E-02 0.  1.
    10030    2    1    2    0    0  0.00000000000E+00  0.00000000000E+00 -0.14094973209E+04  0.38678440496E+04  0.36018793559E+04 0.  0.
        4    1    3    3  502    0 -0.90467471105E+03 -0.72378478888E+03 -0.21853568407E+04  0.24734766802E+04  0.12699999809E+01 0.  1.
       -4    1    3    3    0  502  0.90467471105E+03  0.72378478888E+03  0.77585951980E+03  0.13943673694E+04  0.12699999809E+01 0. -1.
</event>
<event>
 5   0  0.2482243E-08  0.3601122E+04  0.7818609E-02  0.8090235E-01
        2   -1    0    0  501    0  0.00000000000E+00  0.00000000000E+00  0.27381673970E+04  0.27381673970E+04  0.25500000920E-02 0. -1.
       -2   -1    0    0    0  501  0.00000000000E+00  0.00000000000E+00 -0.11840107936E+04  0.11840107936E+04  0.25500000920E-02 0.  1.
    10030    2    1    2    0    0  0.00000000000E+00  0.00000000000E+00  0.15541566034E+04  0.39221781906E+04  0.36011219100E+04 0.  0.
        5    1    3    3  502    0 -0.12751314471E+04 -0.11013884173E+04  0.85674462366E+02  0.16871214706E+04  0.46999998093E+01 0.  1.
       -5    1    3    3    0  502  0.12751314471E+04  0.11013884173E+04  0.14684821410E+04  0.22350567200E+04  0.46999998093E+01 0. -1.
</event>
<event>
 5   0  0.8024500E-09  0.3601911E+04  0.7818609E-02  0.8090054E-01
       -1   -1    0    0    0  501  0.00000000000E+00  0.00000000000E+00  0.14919435220E+04  0.14919435220E+04  0.50400001928E-02 0. -1.
        1   -1    0    0  501    0  0.00000000000E+00  0.00000000000E+00 -0.21739700099E+04  0.21739700099E+04  0.50400001928E-02 0.  1.
    10030    2    1    2    0    0  0.00000000000E+00  0.00000000000E+00 -0.68202648793E+03  0.36659135319E+04  0.36019108670E+04 0.  0.
        1    1    3    3  502    0  0.11224619269E+04 -0.28464584817E+03 -0.17448324556E+04  0.20941309258E+04  0.50400001928E-02 0.  1.
       -1    1    3    3    0  502 -0.11224619269E+04  0.28464584817E+03  0.10628059676E+04  0.15717826062E+04  0.50400001928E-02 0. -1.
</event>
<event>
 5   0  0.8146881E-09  0.3601977E+04  0.7818609E-02  0.8090039E-01
        1   -1    0    0  501    0  0.00000000000E+00  0.00000000000E+00  0.15479820337E+04  0.15479820337E+04  0.50400001928E-02 0. -1.
       -1   -1    0    0    0  501  0.00000000000E+00  0.00000000000E+00 -0.20953467338E+04  0.20953467338E+04  0.50400001928E-02 0.  1.
    10030    2    1    2    0    0  0.00000000000E+00  0.00000000000E+00 -0.54736470006E+03  0.36433287675E+04  0.36019767341E+04 0.  0.
        4    1    3    3  502    0 -0.54654245308E+02  0.15587016497E+04 -0.11845874332E+04  0.19585165098E+04  0.12699999809E+01 0. -1.
       -4    1    3    3    0  502  0.54654245308E+02 -0.15587016497E+04  0.63722273315E+03  0.16848122577E+04  0.12699999809E+01 0.  1.
</event>
<event>
 5   0  0.2476968E-08  0.3598832E+04  0.7818609E-02  0.8090759E-01
        2   -1    0    0  501    0  0.00000000000E+00  0.00000000000E+00  0.26282265609E+04  0.26282265609E+04  0.25500000920E-02 0.  1.
       -2   -1    0    0    0  501  0.00000000000E+00  0.00000000000E+00 -0.12319704480E+04  0.12319704480E+04  0.25500000920E-02 0. -1.
    10030    2    1    2    0    0  0.00000000000E+00  0.00000000000E+00  0.13962561129E+04  0.38601970089E+04  0.35988317291E+04 0.  0.
        2    1    3    3  502    0  0.24221175828E+03 -0.48257068083E+03  0.25392839940E+04  0.25960555079E+04  0.25500000920E-02 0.  1.
       -2    1    3    3    0  502 -0.24221175828E+03  0.48257068083E+03 -0.11430278810E+04  0.12641415010E+04  0.25500000920E-02 0. -1.
</event>
<event>
 5   0  0.2494592E-08  0.3575971E+04  0.7818609E-02  0.8096018E-01
        2   -1    0    0  501    0  0.00000000000E+00  0.00000000000E+00  0.17643196281E+04  0.17643196281E+04  0.25500000920E-02 0. -1.
       -2   -1    0    0    0  501  0.00000000000E+00  0.00000000000E+00 -0.18119683232E+04  0.18119683232E+04  0.25500000920E-02 0.  1.
    10030    2    1    2    0    0  0.00000000000E+00  0.00000000000E+00 -0.47648695105E+02  0.35762879513E+04  0.35759705134E+04 0.  0.
        1    1    3    3  502    0  0.15217963046E+04  0.62412173692E+03  0.67730802750E+03  0.17788024340E+04  0.50400001928E-02 0.  1.
       -1    1    3    3    0  502 -0.15217963046E+04 -0.62412173692E+03 -0.72495672260E+03  0.17974855173E+04  0.50400001928E-02 0. -1.
</event>
<event>
 5   0  0.2494592E-08  0.3603301E+04  0.7818609E-02  0.8089736E-01
       -2   -1    0    0    0  501  0.00000000000E+00  0.00000000000E+00  0.11157644922E+04  0.11157644922E+04  0.25500000920E-02 0.  1.
        2   -1    0    0  501    0  0.00000000000E+00  0.00000000000E+00 -0.29091659379E+04  0.29091659379E+04  0.25500000920E-02 0. -1.
    10030    2    1    2    0    0  0.00000000000E+00  0.00000000000E+00 -0.17934014458E+04  0.40249304301E+04  0.36033007398E+04 0.  0.
        1    1    3    3  502    0  0.10006605320E+04  0.34558267942E+03  0.73168496635E+03  0.12869000655E+04  0.50400001928E-02 0.  1.
       -1    1    3    3    0  502 -0.10006605320E+04 -0.34558267942E+03 -0.25250864121E+04  0.27380303646E+04  0.50400001928E-02 0. -1.
</event>
<event>
 5   0  0.8063410E-09  0.3599516E+04  0.7818609E-02  0.8090602E-01
        1   -1    0    0  501    0  0.00000000000E+00  0.00000000000E+00  0.18154984816E+04  0.18154984816E+04  0.50400001928E-02 0.  1.
       -1   -1    0    0    0  501  0.00000000000E+00  0.00000000000E+00 -0.17841543589E+04  0.17841543589E+04  0.50400001928E-02 0. -1.
    10030    2    1    2    0    0  0.00000000000E+00  0.00000000000E+00  0.31344122662E+02  0.35996528405E+04  0.35995163728E+04 0.  0.
        2    1    3    3  502    0 -0.76621895079E+02  0.14450355199E+04  0.10858205523E+04  0.18091447815E+04  0.25500000920E-02 0.  1.
       -2    1    3    3    0  502  0.76621895079E+02 -0.14450355199E+04 -0.10544764296E+04  0.17905080590E+04  0.25500000920E-02 0. -1.
</event>
<event>
 5   0  0.2482243E-08  0.3601236E+04  0.7818609E-02  0.8090209E-01
       -2   -1    0    0    0  501  0.00000000000E+00  0.00000000000E+00  0.14447674539E+04  0.14447674539E+04  0.25500000920E-02 0.  1.
        2   -1    0    0  501    0  0.00000000000E+00  0.00000000000E+00 -0.22441158199E+04  0.22441158199E+04  0.25500000920E-02 0. -1.
    10030    2    1    2    0    0  0.00000000000E+00  0.00000000000E+00 -0.79934836604E+03  0.36888832738E+04  0.36012361763E+04 0.  0.
        5    1    3    3  502    0 -0.97544183042E+03 -0.15133286259E+04 -0.42376496807E+03  0.18496618969E+04  0.46999998093E+01 0. -1.
       -5    1    3    3    0  502  0.97544183042E+03  0.15133286259E+04 -0.37558339797E+03  0.18392213769E+04  0.46999998093E+01 0.  1.
</event>
<event>
 5   0  0.8146881E-09  0.3601575E+04  0.7818609E-02  0.8090131E-01
       -1   -1    0    0    0  501  0.00000000000E+00  0.00000000000E+00  0.13484692688E+04  0.13484692688E+04  0.50400001928E-02 0. -1.
        1   -1    0    0  501    0  0.00000000000E+00  0.00000000000E+00 -0.24048270438E+04  0.24048270439E+04  0.50400001928E-02 0.  1.
    10030    2    1    2    0    0  0.00000000000E+00  0.00000000000E+00 -0.10563577750E+04  0.37532963127E+04  0.36015748586E+04 0.  0.
        4    1    3    3  502    0 -0.57447419801E+03  0.10204431340E+04  0.89748241450E+03  0.14753986211E+04  0.12699999809E+01 0. -1.
       -4    1    3    3    0  502  0.57447419801E+03 -0.10204431340E+04 -0.19538401895E+04  0.22778976915E+04  0.12699999809E+01 0.  1.
</event>
<event>
 5   0  0.8024500E-09  0.3607279E+04  0.7818609E-02  0.8088826E-01
        1   -1    0    0  501    0  0.00000000000E+00  0.00000000000E+00  0.22221860136E+04  0.22221860136E+04  0.50400001928E-02 0.  1.
       -1   -1    0    0    0  501  0.00000000000E+00  0.00000000000E+00 -0.14639260685E+04  0.14639260685E+04  0.50400001928E-02 0. -1.
    10030    2    1    2    0    0  0.00000000000E+00  0.00000000000E+00  0.75825994515E+03  0.36861120821E+04  0.36072793262E+04 0.  0.
        1    1    3    3  502    0  0.15487125172E+04  0.60421937738E+03 -0.33582054968E+03  0.16959855419E+04  0.50400001928E-02 0. -1.
       -1    1    3    3    0  502 -0.15487125172E+04 -0.60421937738E+03  0.10940804948E+04  0.19901265402E+04  0.50400001928E-02 0.  1.
</event>
<event>
 5   0  0.8024500E-09  0.3600069E+04  0.7818609E-02  0.8090476E-01
       -1   -1    0    0    0  501  0.00000000000E+00  0.00000000000E+00  0.18508706415E+04  0.18508706415E+04  0.50400001928E-02 0.  1.
        1   -1    0    0  501    0  0.00000000000E+00  0.00000000000E+00 -0.17505943361E+04  0.17505943361E+04  0.50400001928E-02 0. -1.
    10030    2    1    2    0    0  0.00000000000E+00  0.00000000000E+00  0.10027630542E+03  0.36014649776E+04  0.36000687003E+04 0.  0.
        1    1    3    3  502    0 -0.89189505658E+03  0.13263359556E+04  0.87839634252E+03  0.18237938462E+04  0.50400001928E-02 0.  1.
       -1    1    3    3    0  502  0.89189505658E+03 -0.13263359556E+04 -0.77812003710E+03  0.17776711313E+04  0.50400001928E-02 0. -1.
</event>
<event>
 5   0  0.8063410E-09  0.3601185E+04  0.7818609E-02  0.8090220E-01
       -1   -1    0    0    0  501  0.00000000000E+00  0.00000000000E+00  0.21119661071E+04  0.21119661071E+04  0.50400001928E-02 0. -1.
        1   -1    0    0  501    0  0.00000000000E+00  0.00000000000E+00 -0.15351260011E+04  0.15351260011E+04  0.50400001928E-02 0.  1.
    10030    2    1    2    0    0  0.00000000000E+00  0.00000000000E+00  0.57684010607E+03  0.36470921082E+04  0.36011854073E+04 0.  0.
        2    1    3    3  502    0 -0.98348355948E+03  0.34136989666E+03  0.17762841668E+04  0.20588731771E+04  0.25500000920E-02 0. -1.
       -2    1    3    3    0  502  0.98348355948E+03 -0.34136989666E+03 -0.11994440608E+04  0.15882189311E+04  0.25500000920E-02 0.  1.
</event>
<event>
 5   0  0.8247570E-09  0.3599356E+04  0.7818609E-02  0.8090639E-01
        1   -1    0    0  501    0  0.00000000000E+00  0.00000000000E+00  0.27597123189E+04  0.27597123189E+04  0.50400001928E-02 0. -1.
       -1   -1    0    0    0  501  0.00000000000E+00  0.00000000000E+00 -0.11736154082E+04  0.11736154082E+04  0.50400001928E-02 0.  1.
    10030    2    1    2    0    0  0.00000000000E+00  0.00000000000E+00  0.15860969107E+04  0.39333277270E+04  0.35993559977E+04 0.  0.
        3    1    3    3  502    0 -0.69319602883E+03 -0.15850582320E+04  0.13349544015E+04  0.21851850259E+04  0.10100000352E+00 0.  1.
       -3    1    3    3    0  502  0.69319602883E+03  0.15850582320E+04  0.25114250921E+03  0.17481427011E+04  0.10100000352E+00 0. -1.
</event>
<event>
 5   0  0.2608070E-08  0.3599650E+04  0.7818609E-02  0.8090572E-01
        2   -1    0    0  501    0  0.00000000000E+00  0.00000000000E+00  0.23082022130E+04  0.23082022130E+04  0.25500000920E-02 0. -1.
       -2   -1    0    0    0  501  0.00000000000E+00  0.00000000000E+00 -0.14034170291E+04  0.14034170291E+04  0.25500000920E-02 0.  1.
    10030    2    1    2    0    0  0.00000000000E+00  0.00000000000E+00  0.90478518383E+03  0.37116192421E+04  0.35996501454E+04 0.  0.
        3    1    3    3  502    0  0.13090519326E+04 -0.40204063409E+03  0.16566764884E+04  0.21493791268E+04  0.10100000352E+00 0. -1.
       -3    1    3    3    0  502 -0.13090519326E+04  0.40204063409E+03 -0.75189130454E+03  0.15622401152E+04  0.10100000352E+00 0.  1.
</event>
<event>
 5   0  0.8247570E-09  0.3598954E+04  0.7818609E-02  0.8090731E-01
        1   -1    0    0  501    0  0.00000000000E+00  0.00000000000E+00  0.24966694346E+04  0.24966694346E+04  0.50400001928E-02 0. -1.
       -1   -1    0    0    0  501  0.00000000000E+00  0.00000000000E+00 -0.12969749204E+04  0.12969749204E+04  0.50400001928E-02 0.  1.
    10030    2    1    2    0    0  0.00000000000E+00  0.00000000000E+00  0.11996945142E+04  0.37936443551E+04  0.35989540932E+04 0.  0.
        3    1    3    3  502    0  0.16904149664E+03 -0.20789893874E+02 -0.12884598830E+04  0.12996676989E+04  0.10100000352E+00 0.  1.
       -3    1    3    3    0  502 -0.16904149664E+03  0.20789893874E+02  0.24881543972E+04  0.24939766562E+04  0.10100000352E+00 0. -1.
</event>
<event>
 5   0  0.2590795E-08  0.3600411E+04  0.7818609E-02  0.8090397E-01
        2   -1    0    0  501    0  0.00000000000E+00  0.00000000000E+00  0.21437521646E+04  0.21437521646E+04  0.25500000920E-02 0. -1.
       -2   -1    0    0    0  501  0.00000000000E+00  0.00000000000E+00 -0.15117141946E+04  0.15117141946E+04  0.25500000920E-02 0.  1.
    10030    2    1    2    0    0  0.00000000000E+00  0.00000000000E+00  0.63203796999E+03  0.36554663591E+04  0.36004114081E+04 0.  0.
        4    1    3    3  502    0  0.11954312001E+04 -0.72566175210E+03  0.14669752607E+04  0.20267359870E+04  0.12699999809E+01 0. -1.
       -4    1    3    3    0  502 -0.11954312001E+04  0.72566175210E+03 -0.83493729071E+03  0.16287303721E+04  0.12699999809E+01 0.  1.
</event>
<event>
 5   0  0.2608070E-08  0.3600573E+04  0.7818609E-02  0.8090361E-01
       -2   -1    0    0    0  501  0.00000000000E+00  0.00000000000E+00  0.11763465642E+04  0.11763465642E+04  0.25500000920E-02 0.  1.
        2   -1    0    0  501    0  0.00000000000E+00  0.00000000000E+00 -0.27551668678E+04  0.27551668678E+04  0.25500000920E-02 0. -1.
    10030    2    1    2    0    0  0.00000000000E+00  0.00000000000E+00 -0.15788203036E+04  0.39315134321E+04  0.36005727760E+04 0.  0.
        3    1    3    3  502    0 -0.37214589555E+03 -0.13290895285E+04  0.47271108484E+03  0.14589130619E+04  0.10100000352E+00 0.  1.
       -3    1    3    3    0  502  0.37214589555E+03  0.13290895285E+04 -0.20515313885E+04  0.24726003701E+04  0.10100000352E+00 0. -1.
</event>
<event>
 5   0  0.2476968E-08  0.3602059E+04  0.7818609E-02  0.8090020E-01
       -2   -1    0    0    0  501  0.00000000000E+00  0.00000000000E+00  0.16215151567E+04  0.16215151567E+04  0.25500000920E-02 0.  1.
        2   -1    0    0  501    0  0.00000000000E+00  0.00000000000E+00 -0.20004170427E+04  0.20004170427E+04  0.25500000920E-02 0. -1.
    10030    2    1    2    0    0  0.00000000000E+00  0.00000000000E+00 -0.37890188601E+03  0.36219321994E+04  0.36020586083E+04 0.  0.
        2    1    3    3  502    0 -0.45934659298E+03  0.16401206931E+04  0.39919451928E+03  0.17493860193E+04  0.25500000920E-02 0.  1.
       -2    1    3    3    0  502  0.45934659298E+03 -0.16401206931E+04 -0.77809640530E+03  0.18725461800E+04  0.25500000920E-02 0. -1.
</event>
<event>
 5   0  0.8024500E-09  0.3599883E+04  0.7818609E-02  0.8090519E-01
        1   -1    0    0  501    0  0.00000000000E+00  0.00000000000E+00  0.16183787764E+04  0.16183787764E+04  0.50400001928E-02 0. -1.
       -1   -1    0    0    0  501  0.00000000000E+00  0.00000000000E+00 -0.20018733225E+04  0.20018733225E+04  0.50400001928E-02 0.  1.
    10030    2    1    2    0    0  0.00000000000E+00  0.00000000000E+00 -0.38349454604E+03  0.36202520989E+04  0.35998829416E+04 0.  0.
        5    1    3    3  502    0  0.13394365882E+03  0.15920472648E+04 -0.10254202852E+04  0.18984373175E+04  0.46999998093E+01 0.  1.
       -5    1    3    3    0  502 -0.13394365882E+03 -0.15920472648E+04  0.64192573915E+03  0.17218147815E+04  0.46999998093E+01 0. -1.
</event>
<event>
 5   0  0.8024500E-09  0.3599936E+04  0.7818609E-02  0.8090506E-01
        1   -1    0    0  501    0  0.00000000000E+00  0.00000000000E+00  0.17566847086E+04  0.17566847086E+04  0.50400001928E-02 0. -1.
       -1   -1    0    0    0  501  0.00000000000E+00  0.00000000000E+00 -0.18443180075E+04  0.18443180076E+04  0.50400001928E-02 0.  1.
    10030    2    1    2    0    0  0.00000000000E+00  0.00000000000E+00 -0.87633298955E+02  0.36010027161E+04  0.35999362448E+04 0.  0.
        1    1    3    3  502    0 -0.10675195678E+04 -0.57508047317E+03 -0.13744624623E+04  0.18328836947E+04  0.50400001928E-02 0.  1.
       -1    1    3    3    0  502  0.10675195678E+04  0.57508047317E+03  0.12868291633E+04  0.17681190214E+04  0.50400001928E-02 0. -1.
</event>
<event>
 5   0  0.2590795E-08  0.3601002E+04  0.7818609E-02  0.8090262E-01
       -2   -1    0    0    0  501  0.00000000000E+00  0.00000000000E+00  0.23076543405E+04  0.23076543405E+04  0.25500000920E-02 0. -1.
        2   -1    0    0  501    0  0.00000000000E+00  0.00000000000E+00 -0.14048050198E+04  0.14048050198E+04  0.25500000920E-02 0.  1.
    10030    2    1    2    0    0  0.00000000000E+00  0.00000000000E+00  0.90284932069E+03  0.37124593602E+04  0.36010023057E+04 0.  0.
        4    1    3    3  502    0  0.82041344503E+02  0.15849262824E+04 -0.42523634530E+03  0.16430306342E+04  0.12699999809E+01 0. -1.
       -4    1    3    3    0  502 -0.82041344503E+02 -0.15849262824E+04  0.13280856660E+04  0.20694287260E+04  0.12699999809E+01 0.  1.
</event>
<event>
 5   0  0.2590795E-08  0.3602224E+04  0.7818609E-02  0.8089982E-01
        2   -1    0    0  501    0  0.00000000000E+00  0.00000000000E+00  0.30173869963E+04  0.30173869963E+04  0.25500000920E-02 0.  1.
       -2   -1    0    0    0  501  0.00000000000E+00  0.00000000000E+00 -0.10751041551E+04  0.10751041551E+04  0.25500000920E-02 0. -1.
    10030    2    1    2    0    0  0.00000000000E+00  0.00000000000E+00  0.19422828412E+04  0.40924911514E+04  0.36022244779E+04 0.  0.
        4    1    3    3  502    0 -0.16601990138E+04 -0.53417764097E+03  0.46002575691E+03  0.18036717627E+04  0.12699999809E+01 0.  1.
       -4    1    3    3    0  502  0.16601990138E+04  0.53417764097E+03  0.14822570842E+04  0.22888193887E+04  0.12699999809E+01 0. -1.
</event>
<event>
 5   0  0.2482243E-08  0.3604124E+04  0.7818609E-02  0.8089548E-01
        2   -1    0    0  501    0  0.00000000000E+00  0.00000000000E+00  0.17580180229E+04  0.17580180229E+04  0.25500000920E-02 0.  1.
       -2   -1    0    0    0  501  0.00000000000E+00  0.00000000000E+00 -0.18472094973E+04  0.18472094973E+04  0.25500000920E-02 0. -1.
    10030    2    1    2    0    0  0.00000000000E+00  0.00000000000E+00 -0.89191474377E+02  0.36052275201E+04  0.36041240757E+04 0.  0.
        5    1    3    3  502    0  0.14063773105E+04 -0.76418361662E+03  0.78362620769E+03  0.17821239752E+04  0.46999998093E+01 0.  1.
       -5    1    3    3    0  502 -0.14063773105E+04  0.76418361662E+03 -0.87281768207E+03  0.18231035450E+04  0.46999998093E+01 0. -1.
</event>
<event>
 5   0  0.2608070E-08  0.3599545E+04  0.7818609E-02  0.8090596E-01
       -2   -1    0    0    0  501  0.00000000000E+00  0.00000000000E+00  0.25702438588E+04  0.25702438588E+04  0.25500000920E-02 0.  1.
        2   -1    0    0  501    0  0.00000000000E+00  0.00000000000E+00 -0.12602619439E+04  0.12602619439E+04  0.25500000920E-02 0. -1.
    10030    2    1    2    0    0  0.00000000000E+00  0.00000000000E+00  0.13099819149E+04  0.38305058027E+04  0.35995447055E+04 0.  0.
        3    1    3    3  502    0  0.15288753210E+04  0.29316750213E+03 -0.30616391258E+03  0.15865507502E+04  0.10100000352E+00 0.  1.
       -3    1    3    3    0  502 -0.15288753210E+04 -0.29316750213E+03  0.16161458275E+04  0.22439550524E+04  0.10100000352E+00 0. -1.
</event>
<event>
 5   0  0.2590795E-08  0.3600202E+04  0.7818609E-02  0.8090445E-01
        2   -1    0    0  501    0  0.00000000000E+00  0.00000000000E+00  0.19289480694E+04  0.19289480694E+04  0.25500000920E-02 0. -1.
       -2   -1    0    0    0  501  0.00000000000E+00  0.00000000000E+00 -0.16798608520E+04  0.16798608520E+04  0.25500000920E-02 0.  1.
    10030    2    1    2    0    0  0.00000000000E+00  0.00000000000E+00  0.24908721747E+03  0.36088089214E+04  0.36002024095E+04 0.  0.
        4    1    3    3  502    0 -0.15933568061E+04  0.18797279004E+03  0.94273200564E+03  0.18608774621E+04  0.12699999809E+01 0. -1.
       -4    1    3    3    0  502  0.15933568061E+04 -0.18797279004E+03 -0.69364478818E+03  0.17479314593E+04  0.12699999809E+01 0.  1.
</event>
<event>
 5   0  0.8024500E-09  0.3599850E+04  0.7818609E-02  0.8090526E-01
        1   -1    0    0  501    0  0.00000000000E+00  0.00000000000E+00  0.25734510825E+04  0.25734510825E+04  0.50400001928E-02 0. -1.
       -1   -1    0    0    0  501  0.00000000000E+00  0.00000000000E+00 -0.12589049929E+04  0.12589049929E+04  0.50400001928E-02 0.  1.
    10030    2    1    2    0    0  0.00000000000E+00  0.00000000000E+00  0.13145460897E+04  0.38323560754E+04  0.35998502284E+04 0.  0.
        5    1    3    3  502    0 -0.51426685555E+03 -0.16647192897E+04  0.17649930702E+03  0.17512666295E+04  0.46999998093E+01 0.  1.
       -5    1    3    3    0  502  0.51426685555E+03  0.16647192897E+04  0.11380467826E+04  0.20810894459E+04  0.46999998093E+01 0. -1.
</event>
<event>
 5   0  0.8063410E-09  0.3602532E+04  0.7818609E-02  0.8089912E-01
        1   -1    0    0  501    0  0.00000000000E+00  0.00000000000E+00  0.21371318746E+04  0.21371318746E+04  0.50400001928E-02 0. -1.
       -1   -1    0    0    0  501  0.00000000000E+00  0.00000000000E+00 -0.15181839165E+04  0.15181839165E+04  0.50400001928E-02 0.  1.
    10030    2    1    2    0    0  0.00000000000E+00  0.00000000000E+00  0.61894795811E+03  0.36553157911E+04  0.36025320204E+04 0.  0.
        2    1    3    3  502    0 -0.55569223462E+03 -0.99054942222E+03 -0.11090721717E+04  0.15874580623E+04  0.25500000920E-02 0.  1.
       -2    1    3    3    0  502  0.55569223462E+03  0.99054942222E+03  0.17280201298E+04  0.20678577288E+04  0.25500000920E-02 0. -1.
</event>
<event>
 5   0  0.2590795E-08  0.3591976E+04  0.7818609E-02  0.8092332E-01
       -2   -1    0    0    0  501  0.00000000000E+00  0.00000000000E+00  0.15310719232E+04  0.15310719232E+04  0.25500000920E-02 0. -1.
        2   -1    0    0  501    0  0.00000000000E+00  0.00000000000E+00 -0.21067415163E+04  0.21067415163E+04  0.25500000920E-02 0.  1.
    10030    2    1    2    0    0  0.00000000000E+00  0.00000000000E+00 -0.57566959312E+03  0.36378134395E+04  0.35919759382E+04 0.  0.
        4    1    3    3  502    0 -0.70270571492E+03 -0.11019237882E+04 -0.15354396383E+04  0.20163352530E+04  0.12699999809E+01 0.  1.
       -4    1    3    3    0  502  0.70270571492E+03  0.11019237882E+04  0.95977004520E+03  0.16214781865E+04  0.12699999809E+01 0. -1.
</event>
<event>
 5   0  0.2608070E-08  0.3604204E+04  0.7818609E-02  0.8089529E-01
        2   -1    0    0  501    0  0.00000000000E+00  0.00000000000E+00  0.23481735692E+04  0.23481735692E+04  0.25500000920E-02 0.  1.
       -2   -1    0    0    0  501  0.00000000000E+00  0.00000000000E+00 -0.13830203858E+04  0.13830203858E+04  0.25500000920E-02 0. -1.
    10030    2    1    2    0    0  0.00000000000E+00  0.00000000000E+00  0.96515318342E+03  0.37311939549E+04  0.36042041648E+04 0.  0.
        3    1    3    3  502    0 -0.15686729246E+04  0.39820195958E+03 -0.33798732973E+03  0.16533405548E+04  0.10100000352E+00 0. -1.
       -3    1    3    3    0  502  0.15686729246E+04 -0.39820195958E+03  0.13031405131E+04  0.20778534001E+04  0.10100000352E+00 0.  1.
</event>
<event>
 5   0  0.2476968E-08  0.3600271E+04  0.7818609E-02  0.8090430E-01
        2   -1    0    0  501    0  0.00000000000E+00  0.00000000000E+00  0.16094603124E+04  0.16094603124E+04  0.25500000920E-02 0. -1.
       -2   -1    0    0    0  501  0.00000000000E+00  0.00000000000E+00 -0.20134003752E+04  0.20134003752E+04  0.25500000920E-02 0.  1.
    10030    2    1    2    0    0  0.00000000000E+00  0.00000000000E+00 -0.40394006278E+03  0.36228606876E+04  0.36002710991E+04 0.  0.
        2    1    3    3  502    0 -0.91295859774E+03 -0.10692490462E+04 -0.13331679751E+04  0.19375561344E+04  0.25500000920E-02 0.  1.
       -2    1    3    3    0  502  0.91295859774E+03  0.10692490462E+04  0.92922791233E+03  0.16853045532E+04  0.25500000920E-02 0. -1.
</event>
<event>
 5   0  0.2590795E-08  0.3599505E+04  0.7818609E-02  0.8090605E-01
        2   -1    0    0  501    0  0.00000000000E+00  0.00000000000E+00  0.23964468627E+04  0.23964468627E+04  0.25500000920E-02 0.  1.
       -2   -1    0    0    0  501  0.00000000000E+00  0.00000000000E+00 -0.13516301631E+04  0.13516301631E+04  0.25500000920E-02 0. -1.
    10030    2    1    2    0    0  0.00000000000E+00  0.00000000000E+00  0.10448166997E+04  0.37480770258E+04  0.35995054460E+04 0.  0.
        4    1    3    3  502    0  0.11300851686E+04  0.98416099350E+03  0.15602644155E+04  0.21633520307E+04  0.12699999809E+01 0.  1.
       -4    1    3    3    0  502 -0.11300851686E+04 -0.98416099350E+03 -0.51544771584E+03  0.15847249951E+04  0.12699999809E+01 0. -1.
</event>
<event>
 5   0  0.8024500E-09  0.3599763E+04  0.7818609E-02  0.8090546E-01
       -1   -1    0    0    0  501  0.00000000000E+00  0.00000000000E+00  0.14079405522E+04  0.14079405522E+04  0.50400001928E-02 0.  1.
        1   -1    0    0  501    0  0.00000000000E+00  0.00000000000E+00 -0.23009299140E+04  0.23009299140E+04  0.50400001928E-02 0. -1.
    10030    2    1    2    0    0  0.00000000000E+00  0.00000000000E+00 -0.89298936184E+03  0.37088704662E+04  0.35997625108E+04 0.  0.
        1    1    3    3  502    0 -0.58937190149E+03 -0.51246601585E+03  0.12242573232E+04  0.14521661920E+04  0.50400001928E-02 0.  1.
       -1    1    3    3    0  502  0.58937190149E+03  0.51246601585E+03 -0.21172466851E+04  0.22567042742E+04  0.50400001928E-02 0. -1.
</event>
<event>
 5   0  0.2476968E-08  0.3601262E+04  0.7818609E-02  0.8090203E-01
       -2   -1    0    0    0  501  0.00000000000E+00  0.00000000000E+00  0.16016101305E+04  0.16016101305E+04  0.25500000920E-02 0. -1.
        2   -1    0    0  501    0  0.00000000000E+00  0.00000000000E+00 -0.20243824364E+04  0.20243824364E+04  0.25500000920E-02 0.  1.
    10030    2    1    2    0    0  0.00000000000E+00  0.00000000000E+00 -0.42277230587E+03  0.36259925669E+04  0.36012616779E+04 0.  0.
        2    1    3    3  502    0 -0.16240489394E+04 -0.70680029499E+03  0.11513984200E+03  0.17749250119E+04  0.25500000920E-02 0. -1.
       -2    1    3    3    0  502  0.16240489394E+04  0.70680029499E+03 -0.53791214787E+03  0.18510675550E+04  0.25500000920E-02 0.  1.
</event>
<event>
 5   0  0.8024500E-09  0.3599982E+04  0.7818609E-02  0.8090496E-01
       -1   -1    0    0    0  501  0.00000000000E+00  0.00000000000E+00  0.16809511306E+04  0.16809511306E+04  0.50400001928E-02 0. -1.
        1   -1    0    0  501    0  0.00000000000E+00  0.00000000000E+00 -0.19274608825E+04  0.19274608825E+04  0.50400001928E-02 0.  1.
    10030    2    1    2    0    0  0.00000000000E+00  0.00000000000E+00 -0.24650975195E+03  0.36084120131E+04  0.35999819720E+04 0.  0.
        5    1    3    3  502    0 -0.99164778396E+03  0.45864851669E+03 -0.15570666223E+04  0.19021572873E+04  0.46999998093E+01 0.  1.
       -5    1    3    3    0  502  0.99164778396E+03 -0.45864851669E+03  0.13105568703E+04  0.17062547259E+04  0.46999998093E+01 0. -1.
</event>
<event>
 5   0  0.8247570E-09  0.3599579E+04  0.7818609E-02  0.8090588E-01
        1   -1    0    0  501    0  0.00000000000E+00  0.00000000000E+00  0.20059747124E+04  0.20059747124E+04  0.50400001928E-02 0.  1.
       -1   -1    0    0    0  501  0.00000000000E+00  0.00000000000E+00 -0.16147968397E+04  0.16147968397E+04  0.50400001928E-02 0. -1.
    10030    2    1    2    0    0  0.00000000000E+00  0.00000000000E+00  0.39117787276E+03  0.36207715521E+04  0.35995786565E+04 0.  0.
        3    1    3    3  502    0 -0.47191732833E+03  0.41529645772E+03 -0.15007755716E+04  0.16271153736E+04  0.10100000352E+00 0. -1.
       -3    1    3    3    0  502  0.47191732833E+03 -0.41529645772E+03  0.18919534443E+04  0.19936561785E+04  0.10100000352E+00 0.  1.
</event>
<event>
 5   0  0.2482243E-08  0.3597324E+04  0.7818609E-02  0.8091105E-01
        2   -1    0    0  501    0  0.00000000000E+00  0.00000000000E+00  0.28671323118E+04  0.28671323118E+04  0.25500000920E-02 0.  1.
       -2   -1    0    0    0  501  0.00000000000E+00  0.00000000000E+00 -0.11283697182E+04  0.11283697183E+04  0.25500000920E-02 0. -1.
    10030    2    1    2    0    0  0.00000000000E+00  0.00000000000E+00  0.17387625936E+04  0.39955020301E+04  0.35973241605E+04 0.  0.
        5    1    3    3  502    0 -0.16459245551E+04  0.43314095415E+03  0.15155726608E+04  0.22789605761E+04  0.46999998093E+01 0.  1.
       -5    1    3    3    0  502  0.16459245551E+04 -0.43314095415E+03  0.22318993281E+03  0.17165414540E+04  0.46999998093E+01 0. -1.
</event>
<event>
 5   0  0.8024500E-09  0.3602459E+04  0.7818609E-02  0.8089929E-01
        1   -1    0    0  501    0  0.00000000000E+00  0.00000000000E+00  0.25996083697E+04  0.25996083697E+04  0.50400001928E-02 0.  1.
       -1   -1    0    0    0  501  0.00000000000E+00  0.00000000000E+00 -0.12480447136E+04  0.12480447137E+04  0.50400001928E-02 0. -1.
    10030    2    1    2    0    0  0.00000000000E+00  0.00000000000E+00  0.13515636560E+04  0.38476530833E+04  0.36024588732E+04 0.  0.
        5    1    3    3  502    0 -0.10876636474E+04 -0.12699388667E+04 -0.39619869380E+02  0.16725276556E+04  0.46999998093E+01 0. -1.
       -5    1    3    3    0  502  0.10876636474E+04  0.12699388667E+04  0.13911835254E+04  0.21751254277E+04  0.46999998093E+01 0.  1.
</event>
<event>
 5   0  0.2608070E-08  0.3598807E+04  0.7818609E-02  0.8090765E-01
        2   -1    0    0  501    0  0.00000000000E+00  0.00000000000E+00  0.18568544783E+04  0.18568544783E+04  0.25500000920E-02 0. -1.
       -2   -1    0    0    0  501  0.00000000000E+00  0.00000000000E+00 -0.17437298468E+04  0.17437298468E+04  0.25500000920E-02 0.  1.
    10030    2    1    2    0    0  0.00000000000E+00  0.00000000000E+00  0.11312463146E+03  0.36005843251E+04  0.35988067884E+04 0.  0.
        3    1    3    3  502    0  0.15458174534E+04 -0.91284171422E+03 -0.66058287926E+02  0.17964396183E+04  0.10100000352E+00 0.  1.
       -3    1    3    3    0  502 -0.15458174534E+04  0.91284171422E+03  0.17918291938E+03  0.18041447069E+04  0.10100000352E+00 0. -1.
</event>
<event>
 5   0  0.8024500E-09  0.3598358E+04  0.7818609E-02  0.8090868E-01
        1   -1    0    0  501    0  0.00000000000E+00  0.00000000000E+00  0.13195473055E+04  0.13195473055E+04  0.50400001928E-02 0.  1.
       -1   -1    0    0    0  501  0.00000000000E+00  0.00000000000E+00 -0.24531480671E+04  0.24531480671E+04  0.50400001928E-02 0. -1.
    10030    2    1    2    0    0  0.00000000000E+00  0.00000000000E+00 -0.11336007616E+04  0.37726953726E+04  0.35983579155E+04 0.  0.
        1    1    3    3  502    0  0.38667473340E+03  0.18515896138E+03 -0.23988115522E+04  0.24368213011E+04  0.50400001928E-02 0. -1.
       -1    1    3    3    0  502 -0.38667473340E+03 -0.18515896138E+03  0.12652107906E+04  0.13358740715E+04  0.50400001928E-02 0.  1.
</event>
<event>
 5   0  0.8024500E-09  0.3599033E+04  0.7818609E-02  0.8090713E-01
        1   -1    0    0  501    0  0.00000000000E+00  0.00000000000E+00  0.19267486917E+04  0.19267486917E+04  0.50400001928E-02 0.  1.
       -1   -1    0    0    0  501  0.00000000000E+00  0.00000000000E+00 -0.16806864416E+04  0.16806864416E+04  0.50400001928E-02 0. -1.
    10030    2    1    2    0    0  0.00000000000E+00  0.00000000000E+00  0.24606225013E+03  0.36074351333E+04  0.35990334272E+04 0.  0.
        5    1    3    3  502    0  0.15227109459E+04  0.85854103690E+03  0.55122503529E+03  0.18329245664E+04  0.46999998093E+01 0.  1.
       -5    1    3    3    0  502 -0.15227109459E+04 -0.85854103690E+03 -0.30516278515E+03  0.17745105669E+04  0.46999998093E+01 0. -1.
</event>
<event>
 5   0  0.2608070E-08  0.3601301E+04  0.7818609E-02  0.8090194E-01
       -2   -1    0    0    0  501  0.00000000000E+00  0.00000000000E+00  0.18386106303E+04  0.18386106303E+04  0.25500000920E-02 0. -1.
        2   -1    0    0  501    0  0.00000000000E+00  0.00000000000E+00 -0.17634740662E+04  0.17634740662E+04  0.25500000920E-02 0.  1.
    10030    2    1    2    0    0  0.00000000000E+00  0.00000000000E+00  0.75136564022E+02  0.36020846965E+04  0.36013009674E+04 0.  0.
        3    1    3    3  502    0  0.76958458327E+03  0.88787355799E+03  0.14023293177E+04  0.18295101561E+04  0.10100000352E+00 0. -1.
       -3    1    3    3    0  502 -0.76958458327E+03 -0.88787355799E+03 -0.13271927537E+04  0.17725745404E+04  0.10100000352E+00 0.  1.
</event>
<event>
 5   0  0.2482243E-08  0.3597637E+04  0.7818609E-02  0.8091033E-01
       -2   -1    0    0    0  501  0.00000000000E+00  0.00000000000E+00  0.15268239733E+04  0.15268239733E+04  0.25500000920E-02 0. -1.
        2   -1    0    0  501    0  0.00000000000E+00  0.00000000000E+00 -0.21192668542E+04  0.21192668542E+04  0.25500000920E-02 0.  1.
    10030    2    1    2    0    0  0.00000000000E+00  0.00000000000E+00 -0.59244288094E+03  0.36460908275E+04  0.35976366903E+04 0.  0.
        5    1    3    3  502    0  0.37836696324E+03  0.27703734629E+02  0.14858110399E+04  0.15334880476E+04  0.46999998093E+01 0. -1.
       -5    1    3    3    0  502 -0.37836696324E+03 -0.27703734629E+02 -0.20782539209E+04  0.21126027799E+04  0.46999998093E+01 0.  1.
</event>
<event>
 5   0  0.2482243E-08  0.3588231E+04  0.7818609E-02  0.8093193E-01
        2   -1    0    0  501    0  0.00000000000E+00  0.00000000000E+00  0.21459506832E+04  0.21459506832E+04  0.25500000920E-02 0.  1.
       -2   -1    0    0    0  501  0.00000000000E+00  0.00000000000E+00 -0.14999647114E+04  0.14999647114E+04  0.25500000920E-02 0. -1.
    10030    2    1    2    0    0  0.00000000000E+00  0.00000000000E+00  0.64598597176E+03  0.36459153946E+04  0.35882309275E+04 0.  0.
        5    1    3    3  502    0  0.47952972846E+02  0.50042868406E+03  0.20729165724E+04  0.21330104457E+04  0.46999998093E+01 0.  1.
       -5    1    3    3    0  502 -0.47952972846E+02 -0.50042868406E+03 -0.14269306006E+04  0.15129049489E+04  0.46999998093E+01 0. -1.
</event>
<event>
 5   0  0.8146881E-09  0.3601846E+04  0.7818609E-02  0.8090069E-01
        1   -1    0    0  501    0  0.00000000000E+00  0.00000000000E+00  0.99525195357E+03  0.99525195358E+03  0.50400001928E-02 0. -1.
       -1   -1    0    0    0  501  0.00000000000E+00  0.00000000000E+00 -0.32587969501E+04  0.32587969501E+04  0.50400001928E-02 0.  1.
    10030    2    1    2    0    0  0.00000000000E+00  0.00000000000E+00 -0.22635449965E+04  0.42540489036E+04  0.36018462104E+04 0.  0.
        4    1    3    3  502    0 -0.14476813189E+04  0.25914727347E+03  0.95854316014E+02  0.14738141583E+04  0.12699999809E+01 0. -1.
       -4    1    3    3    0  502  0.14476813189E+04 -0.25914727347E+03 -0.23593993125E+04  0.27802347453E+04  0.12699999809E+01 0.  1.
</event>
<event>
 5   0  0.8024500E-09  0.3601276E+04  0.7818609E-02  0.8090199E-01
        3   -1    0    0  501    0  0.00000000000E+00  0.00000000000E+00  0.18887684529E+04  0.18887684556E+04  0.10100000352E+00 0. -1.
       -3   -1    0    0    0  501  0.00000000000E+00  0.00000000000E+00 -0.17166198722E+04  0.17166198752E+04  0.10100000352E+00 0.  1.
    10030    2    1    2    0    0  0.00000000000E+00  0.00000000000E+00  0.17214858067E+03  0.36053883308E+04  0.36012761464E+04 0.  0.
        3    1    3    3  502    0 -0.20353654941E+03 -0.15866490324E+04 -0.74155896982E+03  0.17631766772E+04  0.10100000352E+00 0.  1.
       -3    1    3    3    0  502  0.20353654941E+03  0.15866490324E+04  0.91370755050E+03  0.18422116537E+04  0.10100000352E+00 0. -1.
</event>
<event>
 5   0  0.8146881E-09  0.3604807E+04  0.7818609E-02  0.8089392E-01
        1   -1    0    0  501    0  0.00000000000E+00  0.00000000000E+00  0.24541107302E+04  0.24541107302E+04  0.50400001928E-02 0.  1.
       -1   -1    0    0    0  501  0.00000000000E+00  0.00000000000E+00 -0.13237618098E+04  0.13237618098E+04  0.50400001928E-02 0. -1.
    10030    2    1    2    0    0  0.00000000000E+00  0.00000000000E+00  0.11303489204E+04  0.37778725400E+04  0.36048068251E+04 0.  0.
        4    1    3    3  502    0  0.71608385091E+03  0.11392576971E+04  0.18219003435E+04  0.22649518000E+04  0.12699999809E+01 0.  1.
       -4    1    3    3    0  502 -0.71608385091E+03 -0.11392576971E+04 -0.69155142303E+03  0.15129207400E+04  0.12699999809E+01 0. -1.
</event>
<event>
 5   0  0.8247570E-09  0.3600628E+04  0.7818609E-02  0.8090348E-01
        1   -1    0    0  501    0  0.00000000000E+00  0.00000000000E+00  0.12332581457E+04  0.12332581457E+04  0.50400001928E-02 0. -1.
       -1   -1    0    0    0  501  0.00000000000E+00  0.00000000000E+00 -0.26281040076E+04  0.26281040076E+04  0.50400001928E-02 0.  1.
    10030    2    1    2    0    0  0.00000000000E+00  0.00000000000E+00 -0.13948458619E+04  0.38613621533E+04  0.36006280981E+04 0.  0.
        3    1    3    3  502    0 -0.31162407618E+02  0.62983505907E+02 -0.26266327015E+04  0.26275725254E+04  0.10100000352E+00 0.  1.
       -3    1    3    3    0  502  0.31162407618E+02 -0.62983505907E+02  0.12317868395E+04  0.12337896279E+04  0.10100000352E+00 0. -1.
</event>
<event>
 5   0  0.8024500E-09  0.3604691E+04  0.7818609E-02  0.8089418E-01
       -1   -1    0    0    0  501  0.00000000000E+00  0.00000000000E+00  0.18347585372E+04  0.18347585372E+04  0.50400001928E-02 0.  1.
        1   -1    0    0  501    0  0.00000000000E+00  0.00000000000E+00 -0.17705054302E+04  0.17705054302E+04  0.50400001928E-02 0. -1.
    10030    2    1    2    0    0  0.00000000000E+00  0.00000000000E+00  0.64253106965E+02  0.36052639674E+04  0.36046913617E+04 0.  0.
        1    1    3    3  502    0 -0.77426899173E+03 -0.23926562877E+03  0.16422609866E+04  0.18313278409E+04  0.50400001928E-02 0.  1.
       -1    1    3    3    0  502  0.77426899173E+03  0.23926562877E+03 -0.15780078796E+04  0.17739361265E+04  0.50400001928E-02 0. -1.
</event>
<event>
 5   0  0.2608070E-08  0.3605720E+04  0.7818609E-02  0.8089183E-01
        2   -1    0    0  501    0  0.00000000000E+00  0.00000000000E+00  0.10911137904E+04  0.10911137904E+04  0.25500000920E-02 0. -1.
       -2   -1    0    0    0  501  0.00000000000E+00  0.00000000000E+00 -0.29788869055E+04  0.29788869055E+04  0.25500000920E-02 0.  1.
    10030    2    1    2    0    0  0.00000000000E+00  0.00000000000E+00 -0.18877731152E+04  0.40700006959E+04  0.36057202235E+04 0.  0.
        3    1    3    3  502    0  0.97013543363E+03 -0.80762346402E+03  0.50905716184E+03  0.13610869272E+04  0.10100000352E+00 0. -1.
       -3    1    3    3    0  502 -0.97013543363E+03  0.80762346402E+03 -0.23968302770E+04  0.27089137687E+04  0.10100000352E+00 0.  1.
</event>
<event>
 5   0  0.2482243E-08  0.3599982E+04  0.7818609E-02  0.8090496E-01
       -2   -1    0    0    0  501  0.00000000000E+00  0.00000000000E+00  0.16097505881E+04  0.16097505881E+04  0.25500000920E-02 0.  1.
        2   -1    0    0  501    0  0.00000000000E+00  0.00000000000E+00 -0.20127142998E+04  0.20127142998E+04  0.25500000920E-02 0. -1.
    10030    2    1    2    0    0  0.00000000000E+00  0.00000000000E+00 -0.40296371165E+03  0.36224648879E+04  0.35999822376E+04 0.  0.
        5    1    3    3  502    0 -0.10325071677E+04 -0.45668026576E+03  0.12091713004E+04  0.16543111074E+04  0.46999998093E+01 0.  1.
       -5    1    3    3    0  502  0.10325071677E+04  0.45668026576E+03 -0.16121350121E+04  0.19681537805E+04  0.46999998093E+01 0. -1.
</event>
<event>
 5   0  0.2482243E-08  0.3601562E+04  0.7818609E-02  0.8090134E-01
       -2   -1    0    0    0  501  0.00000000000E+00  0.00000000000E+00  0.31753538176E+04  0.31753538176E+04  0.25500000920E-02 0. -1.
        2   -1    0    0  501    0  0.00000000000E+00  0.00000000000E+00 -0.10212444789E+04  0.10212444789E+04  0.25500000920E-02 0.  1.
    10030    2    1    2    0    0  0.00000000000E+00  0.00000000000E+00  0.21541093387E+04  0.41965982965E+04  0.36015621915E+04 0.  0.
        5    1    3    3  502    0  0.25779272692E+03  0.16189461779E+04  0.19453921732E+04  0.25440158440E+04  0.46999998093E+01 0. -1.
       -5    1    3    3    0  502 -0.25779272692E+03 -0.16189461779E+04  0.20871716553E+03  0.16525824525E+04  0.46999998093E+01 0.  1.
</event>
<event>
 5   0  0.8024500E-09  0.3597012E+04  0.7818609E-02  0.8091176E-01
       -1   -1    0    0    0  501  0.00000000000E+00  0.00000000000E+00  0.12693140320E+04  0.12693140321E+04  0.50400001928E-02 0.  1.
        1   -1    0    0  501    0  0.00000000000E+00  0.00000000000E+00 -0.25483249595E+04  0.25483249595E+04  0.50400001928E-02 0. -1.
    10030    2    1    2    0    0  0.00000000000E+00  0.00000000000E+00 -0.12790109275E+04  0.38176389916E+04  0.35970124433E+04 0.  0.
        1    1    3    3  502    0  0.13241712096E+04 -0.11044846700E+04 -0.11820432331E+04  0.20905841250E+04  0.50400001928E-02 0. -1.
       -1    1    3    3    0  502 -0.13241712096E+04  0.11044846700E+04 -0.96967694358E+02  0.17270548666E+04  0.50400001928E-02 0.  1.
</event>
<event>
 5   0  0.2494592E-08  0.3600407E+04  0.7818609E-02  0.8090398E-01
       -2   -1    0    0    0  501  0.00000000000E+00  0.00000000000E+00  0.15632066734E+04  0.15632066734E+04  0.25500000920E-02 0. -1.
        2   -1    0    0  501    0  0.00000000000E+00  0.00000000000E+00 -0.20731312629E+04  0.20731312629E+04  0.25500000920E-02 0.  1.
    10030    2    1    2    0    0  0.00000000000E+00  0.00000000000E+00 -0.50992458953E+03  0.36363379364E+04  0.36004069909E+04 0.  0.
        1    1    3    3  502    0 -0.11866434094E+04 -0.54068531164E+03  0.99849917751E+03  0.16423957485E+04  0.50400001928E-02 0. -1.
       -1    1    3    3    0  502  0.11866434094E+04  0.54068531164E+03 -0.15084237670E+04  0.19939421878E+04  0.50400001928E-02 0.  1.
</event>
<event>
 5   0  0.2494592E-08  0.3600835E+04  0.7818609E-02  0.8090300E-01
        2   -1    0    0  501    0  0.00000000000E+00  0.00000000000E+00  0.27804409413E+04  0.27804409413E+04  0.25500000920E-02 0.  1.
       -2   -1    0    0    0  501  0.00000000000E+00  0.00000000000E+00 -0.11658235578E+04  0.11658235578E+04  0.25500000920E-02 0. -1.
    10030    2    1    2    0    0  0.00000000000E+00  0.00000000000E+00  0.16146173834E+04  0.39462644991E+04  0.36008352089E+04 0.  0.
        1    1    3    3  502    0  0.56310127154E+03 -0.17080767731E+04  0.71631184915E+03  0.19359008161E+04  0.50400001928E-02 0. -1.
       -1    1    3    3    0  502 -0.56310127154E+03  0.17080767731E+04  0.89830553429E+03  0.20103636829E+04  0.50400001928E-02 0.  1.
</event>
<event>
 5   0  0.8247570E-09  0.3605295E+04  0.7818609E-02  0.8089280E-01
       -1   -1    0    0    0  501  0.00000000000E+00  0.00000000000E+00  0.23013627269E+04  0.23013627269E+04  0.50400001928E-02 0. -1.
        1   -1    0    0  501    0  0.00000000000E+00  0.00000000000E+00 -0.14120060960E+04  0.14120060961E+04  0.50400001928E-02 0.  1.
    10030    2    1    2    0    0  0.00000000000E+00  0.00000000000E+00  0.88935663087E+03  0.37133688230E+04  0.36052951056E+04 0.  0.
        3    1    3    3  502    0  0.72723380732E+03  0.61221660794E+03 -0.11328541771E+04  0.14788633413E+04  0.10100000352E+00 0.  1.
       -3    1    3    3    0  502 -0.72723380732E+03 -0.61221660794E+03  0.20222108080E+04  0.22345054817E+04  0.10100000352E+00 0. -1.
</event>
<event>
 5   0  0.2590795E-08  0.3596806E+04  0.7818609E-02  0.8091224E-01
       -2   -1    0    0    0  501  0.00000000000E+00  0.00000000000E+00  0.12199099045E+04  0.12199099045E+04  0.25500000920E-02 0. -1.
        2   -1    0    0  501    0  0.00000000000E+00  0.00000000000E+00 -0.26512227085E+04  0.26512227085E+04  0.25500000920E-02 0.  1.
    10030    2    1    2    0    0  0.00000000000E+00  0.00000000000E+00 -0.14313128041E+04  0.38711326130E+04  0.35968057168E+04 0.  0.
        4    1    3    3  502    0 -0.70358882049E+03 -0.38364009640E+03  0.10171156694E+04  0.12948910571E+04  0.12699999809E+01 0. -1.
       -4    1    3    3    0  502  0.70358882049E+03  0.38364009640E+03 -0.24484284734E+04  0.25762415559E+04  0.12699999809E+01 0.  1.
</event>
<event>
 5   0  0.8063410E-09  0.3595890E+04  0.7818609E-02  0.8091434E-01
       -1   -1    0    0    0  501  0.00000000000E+00  0.00000000000E+00  0.18544948117E+04  0.18544948117E+04  0.50400001928E-02 0.  1.
        1   -1    0    0  501    0  0.00000000000E+00  0.00000000000E+00 -0.17431191745E+04  0.17431191745E+04  0.50400001928E-02 0. -1.
    10030    2    1    2    0    0  0.00000000000E+00  0.00000000000E+00  0.11137563723E+03  0.35976139862E+04  0.35958895786E+04 0.  0.
        2    1    3    3  502    0 -0.98463191497E+03 -0.96388432343E+03 -0.10998692959E+04  0.17630330300E+04  0.25500000920E-02 0. -1.
       -2    1    3    3    0  502  0.98463191497E+03  0.96388432343E+03  0.12112449331E+04  0.18345809562E+04  0.25500000920E-02 0.  1.
</event>
<event>
 5   0  0.2476968E-08  0.3599327E+04  0.7818609E-02  0.8090646E-01
        2   -1    0    0  501    0  0.00000000000E+00  0.00000000000E+00  0.14979089334E+04  0.14979089334E+04  0.25500000920E-02 0. -1.
       -2   -1    0    0    0  501  0.00000000000E+00  0.00000000000E+00 -0.21622061199E+04  0.21622061199E+04  0.25500000920E-02 0.  1.
    10030    2    1    2    0    0  0.00000000000E+00  0.00000000000E+00 -0.66429718649E+03  0.36601150532E+04  0.35993265274E+04 0.  0.
        2    1    3    3  502    0 -0.81996310811E+03 -0.48015150046E+01 -0.19612113120E+04  0.21257263143E+04  0.25500000920E-02 0.  1.
       -2    1    3    3    0  502  0.81996310811E+03  0.48015150046E+01  0.12969141255E+04  0.15343887389E+04  0.25500000920E-02 0. -1.
</event>
<event>
 5   0  0.8024500E-09  0.3598150E+04  0.7818609E-02  0.8090916E-01
        1   -1    0    0  501    0  0.00000000000E+00  0.00000000000E+00  0.20803406621E+04  0.20803406621E+04  0.50400001928E-02 0.  1.
       -1   -1    0    0    0  501  0.00000000000E+00  0.00000000000E+00 -0.15558366194E+04  0.15558366194E+04  0.50400001928E-02 0. -1.
    10030    2    1    2    0    0  0.00000000000E+00  0.00000000000E+00  0.52450404271E+03  0.36361772815E+04  0.35981496261E+04 0.  0.
        1    1    3    3  502    0  0.13675036092E+04 -0.82266749033E+03  0.11015852808E+04  0.19391591095E+04  0.50400001928E-02 0.  1.
       -1    1    3    3    0  502 -0.13675036092E+04  0.82266749033E+03 -0.57708123808E+03  0.16970181720E+04  0.50400001928E-02 0. -1.
</event>
<event>
 5   0  0.2476968E-08  0.3597949E+04  0.7818609E-02  0.8090962E-01
        2   -1    0    0  501    0  0.00000000000E+00  0.00000000000E+00  0.31173859260E+04  0.31173859260E+04  0.25500000920E-02 0.  1.
       -2   -1    0    0    0  501  0.00000000000E+00  0.00000000000E+00 -0.10381481537E+04  0.10381481537E+04  0.25500000920E-02 0. -1.
    10030    2    1    2    0    0  0.00000000000E+00  0.00000000000E+00  0.20792377723E+04  0.41555340797E+04  0.35979485507E+04 0.  0.
        2    1    3    3  502    0 -0.61469471117E+03  0.12454206699E+04 -0.28098888793E+03  0.14169957615E+04  0.25500000920E-02 0. -1.
       -2    1    3    3    0  502  0.61469471117E+03 -0.12454206699E+04  0.23602266602E+04  0.27385383182E+04  0.25500000920E-02 0.  1.
</event>
<event>
 5   0  0.2482243E-08  0.3601687E+04  0.7818609E-02  0.8090105E-01
        2   -1    0    0  501    0  0.00000000000E+00  0.00000000000E+00  0.15641868550E+04  0.15641868550E+04  0.25500000920E-02 0.  1.
       -2   -1    0    0    0  501  0.00000000000E+00  0.00000000000E+00 -0.20733050479E+04  0.20733050479E+04  0.25500000920E-02 0. -1.
    10030    2    1    2    0    0  0.00000000000E+00  0.00000000000E+00 -0.50911819290E+03  0.36374919028E+04  0.36016865506E+04 0.  0.
        5    1    3    3  502    0  0.14582727518E+03  0.12724340944E+04  0.10239883811E+04  0.16397952352E+04  0.46999998093E+01 0.  1.
       -5    1    3    3    0  502 -0.14582727518E+03 -0.12724340944E+04 -0.15331065740E+04  0.19976966676E+04  0.46999998093E+01 0. -1.
</event>
<event>
 5   0  0.2482243E-08  0.3574860E+04  0.7818609E-02  0.8096275E-01
        2   -1    0    0  501    0  0.00000000000E+00  0.00000000000E+00  0.20231036329E+04  0.20231036329E+04  0.25500000920E-02 0. -1.
       -2   -1    0    0    0  501  0.00000000000E+00  0.00000000000E+00 -0.15792106377E+04  0.15792106377E+04  0.25500000920E-02 0.  1.
    10030    2    1    2    0    0  0.00000000000E+00  0.00000000000E+00  0.44389299517E+03  0.36023142707E+04  0.35748604327E+04 0.  0.
        5    1    3    3  502    0  0.68721772775E+03 -0.15058910433E+04 -0.45770238060E+03  0.17174078138E+04  0.46999998093E+01 0.  1.
       -5    1    3    3    0  502 -0.68721772775E+03  0.15058910433E+04  0.90159537576E+03  0.18849064569E+04  0.46999998093E+01 0. -1.
</event>
<event>
 5   0  0.2482243E-08  0.3599509E+04  0.7818609E-02  0.8090604E-01
       -2   -1    0    0    0  501  0.00000000000E+00  0.00000000000E+00  0.16769337187E+04  0.16769337187E+04  0.25500000920E-02 0. -1.
        2   -1    0    0  501    0  0.00000000000E+00  0.00000000000E+00 -0.19315709846E+04  0.19315709846E+04  0.25500000920E-02 0.  1.
    10030    2    1    2    0    0  0.00000000000E+00  0.00000000000E+00 -0.25463726590E+03  0.36085047033E+04  0.35995091411E+04 0.  0.
        5    1    3    3  502    0 -0.10927117691E+04 -0.82570955894E+03 -0.12978320315E+04  0.18868506454E+04  0.46999998093E+01 0.  1.
       -5    1    3    3    0  502  0.10927117691E+04  0.82570955894E+03  0.10431947656E+04  0.17216540579E+04  0.46999998093E+01 0. -1.
</event>
<event>
 5   0  0.8247570E-09  0.3599105E+04  0.7818609E-02  0.8090697E-01
       -1   -1    0    0    0  501  0.00000000000E+00  0.00000000000E+00  0.23860337239E+04  0.23860337239E+04  0.50400001928E-02 0. -1.
        1   -1    0    0  501    0  0.00000000000E+00  0.00000000000E+00 -0.13572270272E+04  0.13572270272E+04  0.50400001928E-02 0.  1.
    10030    2    1    2    0    0  0.00000000000E+00  0.00000000000E+00  0.10288066967E+04  0.37432607511E+04  0.35991051432E+04 0.  0.
        3    1    3    3  502    0  0.94056026453E+03 -0.13911864364E+04 -0.15829170890E+03  0.16867452645E+04  0.10100000352E+00 0.  1.
       -3    1    3    3    0  502 -0.94056026453E+03  0.13911864364E+04  0.11870984056E+04  0.20565154866E+04  0.10100000352E+00 0. -1.
</event>
<event>
 5   0  0.8247570E-09  0.3600488E+04  0.7818609E-02  0.8090380E-01
        1   -1    0    0  501    0  0.00000000000E+00  0.00000000000E+00  0.17940361096E+04  0.17940361096E+04  0.50400001928E-02 0. -1.
       -1   -1    0    0    0  501  0.00000000000E+00  0.00000000000E+00 -0.18064736215E+04  0.18064736216E+04  0.50400001928E-02 0.  1.
    10030    2    1    2    0    0  0.00000000000E+00  0.00000000000E+00 -0.12437511938E+02  0.36005097312E+04  0.36004882492E+04 0.  0.
        3    1    3    3  502    0  0.10088846795E+04 -0.14731836763E+04 -0.23591657265E+03  0.18010483281E+04  0.10100000352E+00 0. -1.
       -3    1    3    3    0  502 -0.10088846795E+04  0.14731836763E+04  0.22347906071E+03  0.17994614031E+04  0.10100000352E+00 0.  1.
</event>
<event>
 5   0  0.8024500E-09  0.3599573E+04  0.7818609E-02  0.8090589E-01
        1   -1    0    0  501    0  0.00000000000E+00  0.00000000000E+00  0.18554318001E+04  0.18554318001E+04  0.50400001928E-02 0.  1.
       -1   -1    0    0    0  501  0.00000000000E+00  0.00000000000E+00 -0.17458101344E+04  0.17458101344E+04  0.50400001928E-02 0. -1.
    10030    2    1    2    0    0  0.00000000000E+00  0.00000000000E+00  0.10962166565E+03  0.36012419345E+04  0.35995731082E+04 0.  0.
        5    1    3    3  502    0  0.77087471274E+03  0.49338285625E+03 -0.14955963363E+04  0.17534266328E+04  0.46999998093E+01 0. -1.
       -5    1    3    3    0  502 -0.77087471274E+03 -0.49338285625E+03  0.16052180019E+04  0.18478153017E+04  0.46999998093E+01 0.  1.
</event>
<event>
 5   0  0.2494592E-08  0.3599655E+04  0.7818609E-02  0.8090571E-01
       -2   -1    0    0    0  501  0.00000000000E+00  0.00000000000E+00  0.25626392474E+04  0.25626392474E+04  0.25500000920E-02 0. -1.
        2   -1    0    0  501    0  0.00000000000E+00  0.00000000000E+00 -0.12640790942E+04  0.12640790942E+04  0.25500000920E-02 0.  1.
    10030    2    1    2    0    0  0.00000000000E+00  0.00000000000E+00  0.12985601532E+04  0.38267183415E+04  0.35996548159E+04 0.  0.
        1    1    3    3  502    0  0.12234564780E+04 -0.53076088494E+03  0.19341668563E+04  0.23493731714E+04  0.50400001928E-02 0. -1.
       -1    1    3    3    0  502 -0.12234564780E+04  0.53076088494E+03 -0.63560670312E+03  0.14773451701E+04  0.50400001928E-02 0.  1.
</event>
<event>
 5   0  0.8024500E-09  0.3600013E+04  0.7818609E-02  0.8090489E-01
       -1   -1    0    0    0  501  0.00000000000E+00  0.00000000000E+00  0.12344701174E+04  0.12344701174E+04  0.50400001928E-02 0. -1.
        1   -1    0    0  501    0  0.00000000000E+00  0.00000000000E+00 -0.26246274145E+04  0.26246274145E+04  0.50400001928E-02 0.  1.
    10030    2    1    2    0    0  0.00000000000E+00  0.00000000000E+00 -0.13901572971E+04  0.38590975318E+04  0.36000133957E+04 0.  0.
        5    1    3    3  502    0 -0.22716242463E+03 -0.10968768065E+04  0.81531583812E+03  0.13854614761E+04  0.46999998093E+01 0. -1.
       -5    1    3    3    0  502  0.22716242463E+03  0.10968768065E+04 -0.22054731352E+04  0.24736360557E+04  0.46999998093E+01 0.  1.
</event>
<event>
 5   0  0.2494592E-08  0.3597817E+04  0.7818609E-02  0.8090992E-01
        2   -1    0    0  501    0  0.00000000000E+00  0.00000000000E+00  0.18899336130E+04  0.18899336130E+04  0.25500000920E-02 0.  1.
       -2   -1    0    0    0  501  0.00000000000E+00  0.00000000000E+00 -0.17122670072E+04  0.17122670072E+04  0.25500000920E-02 0. -1.
    10030    2    1    2    0    0  0.00000000000E+00  0.00000000000E+00  0.17766660576E+03  0.36022006202E+04  0.35978165442E+04 0.  0.
        1    1    3    3  502    0  0.10099509241E+03  0.57819484796E+03 -0.16136980270E+04  0.17171285955E+04  0.50400001928E-02 0. -1.
       -1    1    3    3    0  502 -0.10099509241E+03 -0.57819484796E+03  0.17913646328E+04  0.18850720248E+04  0.50400001928E-02 0.  1.
</event>
<event>
 5   0  0.2608070E-08  0.3599950E+04  0.7818609E-02  0.8090503E-01
        2   -1    0    0  501    0  0.00000000000E+00  0.00000000000E+00  0.20249895608E+04  0.20249895608E+04  0.25500000920E-02 0. -1.
       -2   -1    0    0    0  501  0.00000000000E+00  0.00000000000E+00 -0.15999638096E+04  0.15999638096E+04  0.25500000920E-02 0.  1.
    10030    2    1    2    0    0  0.00000000000E+00  0.00000000000E+00  0.42502575117E+03  0.36249533704E+04  0.35999500064E+04 0.  0.
        3    1    3    3  502    0 -0.13910680509E+03 -0.17940700405E+04  0.25607986178E+03  0.18175849139E+04  0.10100000352E+00 0. -1.
       -3    1    3    3    0  502  0.13910680509E+03  0.17940700405E+04  0.16894588939E+03  0.18073684564E+04  0.10100000352E+00 0.  1.
</event>
<event>
 5   0  0.2476968E-08  0.3600156E+04  0.7818609E-02  0.8090456E-01
        2   -1    0    0  501    0  0.00000000000E+00  0.00000000000E+00  0.21521328628E+04  0.21521328628E+04  0.25500000920E-02 0. -1.
       -2   -1    0    0    0  501  0.00000000000E+00  0.00000000000E+00 -0.15056135931E+04  0.15056135931E+04  0.25500000920E-02 0.  1.
    10030    2    1    2    0    0  0.00000000000E+00  0.00000000000E+00  0.64651926970E+03  0.36577464558E+04  0.36001558257E+04 0.  0.
        2    1    3    3  502    0 -0.14995324423E+04  0.32047892562E+03 -0.63467829059E+03  0.16595544040E+04  0.25500000920E-02 0. -1.
       -2    1    3    3    0  502  0.14995324423E+04 -0.32047892562E+03  0.12811975603E+04  0.19981920518E+04  0.25500000920E-02 0.  1.
</event>
<event>
 5   0  0.8063410E-09  0.3600982E+04  0.7818609E-02  0.8090267E-01
       -1   -1    0    0    0  501  0.00000000000E+00  0.00000000000E+00  0.18603745175E+04  0.18603745175E+04  0.50400001928E-02 0. -1.
        1   -1    0    0  501    0  0.00000000000E+00  0.00000000000E+00 -0.17425353596E+04  0.17425353596E+04  0.50400001928E-02 0.  1.
    10030    2    1    2    0    0  0.00000000000E+00  0.00000000000E+00  0.11783915783E+03  0.36029098771E+04  0.36009822987E+04 0.  0.
        2    1    3    3  502    0  0.12645182869E+04 -0.10254923092E+04 -0.71034008216E+03  0.17762950223E+04  0.25500000920E-02 0.  1.
       -2    1    3    3    0  502 -0.12645182869E+04  0.10254923092E+04  0.82817923999E+03  0.18266148548E+04  0.25500000920E-02 0. -1.
</event>
<event>
 5   0  0.2482243E-08  0.3597389E+04  0.7818609E-02  0.8091090E-01
        2   -1    0    0  501    0  0.00000000000E+00  0.00000000000E+00  0.17953945640E+04  0.17953945640E+04  0.25500000920E-02 0.  1.
       -2   -1    0    0    0  501  0.00000000000E+00  0.00000000000E+00 -0.18020002740E+04  0.18020002741E+04  0.25500000920E-02 0. -1.
    10030    2    1    2    0    0  0.00000000000E+00  0.00000000000E+00 -0.66057100783E+01  0.35973948380E+04  0.35973887732E+04 0.  0.
        5    1    3    3  502    0  0.52305703399E+03 -0.16344501399E+04 -0.54206482876E+03  0.17996867198E+04  0.46999998093E+01 0.  1.
       -5    1    3    3    0  502 -0.52305703399E+03  0.16344501399E+04  0.53545911868E+03  0.17977081183E+04  0.46999998093E+01 0. -1.
</event>
<event>
 5   0  0.2482243E-08  0.3599732E+04  0.7818609E-02  0.8090553E-01
        2   -1    0    0  501    0  0.00000000000E+00  0.00000000000E+00  0.10460599318E+04  0.10460599318E+04  0.25500000920E-02 0.  1.
       -2   -1    0    0    0  501  0.00000000000E+00  0.00000000000E+00 -0.30968761580E+04  0.30968761580E+04  0.25500000920E-02 0. -1.
    10030    2    1    2    0    0  0.00000000000E+00  0.00000000000E+00 -0.20508162262E+04  0.41429360898E+04  0.35997322471E+04 0.  0.
        5    1    3    3  502    0 -0.16047670217E+04  0.98211215818E+01 -0.19633200752E+04  0.25357486973E+04  0.46999998093E+01 0. -1.
       -5    1    3    3    0  502  0.16047670217E+04 -0.98211215818E+01 -0.87496150960E+02  0.16071873925E+04  0.46999998093E+01 0.  1.
</event>
<event>
 5   0  0.2494592E-08  0.3598514E+04  0.7818609E-02  0.8090832E-01
       -2   -1    0    0    0  501  0.00000000000E+00  0.00000000000E+00  0.26736092123E+04  0.26736092123E+04  0.25500000920E-02 0.  1.
        2   -1    0    0  501    0  0.00000000000E+00  0.00000000000E+00 -0.12108446142E+04  0.12108446142E+04  0.25500000920E-02 0. -1.
    10030    2    1    2    0    0  0.00000000000E+00  0.00000000000E+00  0.14627645982E+04  0.38844538265E+04  0.35985137572E+04 0.  0.
        1    1    3    3  502    0  0.67891708886E+03 -0.46454393595E+03 -0.99595564560E+03  0.12917651218E+04  0.50400001928E-02 0. -1.
       -1    1    3    3    0  502 -0.67891708886E+03  0.46454393595E+03  0.24587202438E+04  0.25926887047E+04  0.50400001928E-02 0.  1.
</event>
<event>
 5   0  0.2590795E-08  0.3598695E+04  0.7818609E-02  0.8090791E-01
        2   -1    0    0  501    0  0.00000000000E+00  0.00000000000E+00  0.23652252440E+04  0.23652252440E+04  0.25500000920E-02 0.  1.
       -2   -1    0    0    0  501  0.00000000000E+00  0.00000000000E+00 -0.13688555786E+04  0.13688555787E+04  0.25500000920E-02 0. -1.
    10030    2    1    2    0    0  0.00000000000E+00  0.00000000000E+00  0.99636966532E+03  0.37340808226E+04  0.35986951913E+04 0.  0.
        4    1    3    3  502    0  0.51017947938E+03 -0.12629759375E+04  0.17181104125E+04  0.21925547479E+04  0.12699999809E+01 0.  1.
       -4    1    3    3    0  502 -0.51017947938E+03  0.12629759375E+04 -0.72174074720E+03  0.15415260747E+04  0.12699999809E+01 0. -1.
</event>
<event>
 5   0  0.8063410E-09  0.3598526E+04  0.7818609E-02  0.8090829E-01
       -1   -1    0    0    0  501  0.00000000000E+00  0.00000000000E+00  0.14938000295E+04  0.14938000295E+04  0.50400001928E-02 0. -1.
        1   -1    0    0  501    0  0.00000000000E+00  0.00000000000E+00 -0.21671894695E+04  0.21671894695E+04  0.50400001928E-02 0.  1.
    10030    2    1    2    0    0  0.00000000000E+00  0.00000000000E+00 -0.67338944003E+03  0.36609894990E+04  0.35985261947E+04 0.  0.
        2    1    3    3  502    0 -0.22288041335E+03  0.13587175235E+04 -0.15150565217E+04  0.20472384452E+04  0.25500000920E-02 0.  1.
       -2    1    3    3    0  502  0.22288041335E+03 -0.13587175235E+04  0.84166708166E+03  0.16137510539E+04  0.25500000920E-02 0. -1.
</event>
<event>
 5   0  0.8063410E-09  0.3598038E+04  0.7818609E-02  0.8090941E-01
        1   -1    0    0  501    0  0.00000000000E+00  0.00000000000E+00  0.21146884532E+04  0.21146884532E+04  0.50400001928E-02 0. -1.
       -1   -1    0    0    0  501  0.00000000000E+00  0.00000000000E+00 -0.15304705897E+04  0.15304705897E+04  0.50400001928E-02 0.  1.
    10030    2    1    2    0    0  0.00000000000E+00  0.00000000000E+00  0.58421786343E+03  0.36451590429E+04  0.35980375118E+04 0.  0.
        2    1    3    3  502    0 -0.10178839885E+04  0.40968371804E+03  0.17364519193E+04  0.20540676306E+04  0.25500000920E-02 0. -1.
       -2    1    3    3    0  502  0.10178839885E+04 -0.40968371804E+03 -0.11522340559E+04  0.15910914123E+04  0.25500000920E-02 0.  1.
</event>
<event>
 5   0  0.2482243E-08  0.3597873E+04  0.7818609E-02  0.8090979E-01
       -2   -1    0    0    0  501  0.00000000000E+00  0.00000000000E+00  0.23532068675E+04  0.23532068675E+04  0.25500000920E-02 0. -1.
        2   -1    0    0  501    0  0.00000000000E+00  0.00000000000E+00 -0.13752182930E+04  0.13752182930E+04  0.25500000920E-02 0.  1.
    10030    2    1    2    0    0  0.00000000000E+00  0.00000000000E+00  0.97798857455E+03  0.37284251605E+04  0.35978733337E+04 0.  0.
        5    1    3    3  502    0  0.11774517935E+04  0.11979323298E+04 -0.17835805791E+03  0.16891620051E+04  0.46999998093E+01 0.  1.
       -5    1    3    3    0  502 -0.11774517935E+04 -0.11979323298E+04  0.11563466325E+04  0.20392631554E+04  0.46999998093E+01 0. -1.
</event>
<event>
 5   0  0.2608070E-08  0.3603561E+04  0.7818609E-02  0.8089676E-01
        2   -1    0    0  501    0  0.00000000000E+00  0.00000000000E+00  0.22343818623E+04  0.22343818623E+04  0.25500000920E-02 0.  1.
       -2   -1    0    0    0  501  0.00000000000E+00  0.00000000000E+00 -0.14529357440E+04  0.14529357440E+04  0.25500000920E-02 0. -1.
    10030    2    1    2    0    0  0.00000000000E+00  0.00000000000E+00  0.78144611827E+03  0.36873176063E+04  0.36035611683E+04 0.  0.
        3    1    3    3  502    0  0.16572870728E+04 -0.41940204359E+03  0.97308637395E+03  0.19670779388E+04  0.10100000352E+00 0.  1.
       -3    1    3    3    0  502 -0.16572870728E+04  0.41940204359E+03 -0.19164025568E+03  0.17202396675E+04  0.10100000352E+00 0. -1.
</event>
<event>
 5   0  0.8063410E-09  0.3599605E+04  0.7818609E-02  0.8090582E-01
       -1   -1    0    0    0  501  0.00000000000E+00  0.00000000000E+00  0.15534551372E+04  0.15534551372E+04  0.50400001928E-02 0. -1.
        1   -1    0    0  501    0  0.00000000000E+00  0.00000000000E+00 -0.20852161105E+04  0.20852161106E+04  0.50400001928E-02 0.  1.
    10030    2    1    2    0    0  0.00000000000E+00  0.00000000000E+00 -0.53176097332E+03  0.36386712478E+04  0.35996053557E+04 0.  0.
        2    1    3    3  502    0  0.12930200397E+04  0.12056333912E+04 -0.60693956710E+03  0.18691785188E+04  0.25500000920E-02 0.  1.
       -2    1    3    3    0  502 -0.12930200397E+04 -0.12056333912E+04  0.75178593782E+02  0.17694927290E+04  0.25500000920E-02 0. -1.
</event>
<event>
 5   0  0.2590795E-08  0.3600413E+04  0.7818609E-02  0.8090397E-01
       -2   -1    0    0    0  501  0.00000000000E+00  0.00000000000E+00  0.18304599150E+04  0.18304599150E+04  0.25500000920E-02 0. -1.
        2   -1    0    0  501    0  0.00000000000E+00  0.00000000000E+00 -0.17704532700E+04  0.17704532700E+04  0.25500000920E-02 0.  1.
    10030    2    1    2    0    0  0.00000000000E+00  0.00000000000E+00  0.60006645040E+02  0.36009131850E+04  0.36004131664E+04 0.  0.
        4    1    3    3  502    0 -0.11630984820E+04  0.62128993923E+03  0.12557113077E+04  0.18208821402E+04  0.12699999809E+01 0. -1.
       -4    1    3    3    0  502  0.11630984820E+04 -0.62128993923E+03 -0.11957046627E+04  0.17800310448E+04  0.12699999809E+01 0.  1.
</event>
<event>
 5   0  0.8146881E-09  0.3599719E+04  0.7818609E-02  0.8090556E-01
        1   -1    0    0  501    0  0.00000000000E+00  0.00000000000E+00  0.16671736235E+04  0.16671736235E+04  0.50400001928E-02 0. -1.
       -1   -1    0    0    0  501  0.00000000000E+00  0.00000000000E+00 -0.19431049626E+04  0.19431049626E+04  0.50400001928E-02 0.  1.
    10030    2    1    2    0    0  0.00000000000E+00  0.00000000000E+00 -0.27593133907E+03  0.36102785861E+04  0.35997185120E+04 0.  0.
        4    1    3    3  502    0  0.16018434857E+04  0.19010983116E+03 -0.93871090001E+03  0.18663397513E+04  0.12699999809E+01 0.  1.
       -4    1    3    3    0  502 -0.16018434857E+04 -0.19010983116E+03  0.66277956094E+03  0.17439388349E+04  0.12699999809E+01 0. -1.
</event>
<event>
 5   0  0.8247570E-09  0.3601820E+04  0.7818609E-02  0.8090075E-01
       -1   -1    0    0    0  501  0.00000000000E+00  0.00000000000E+00  0.12586628915E+04  0.12586628915E+04  0.50400001928E-02 0. -1.
        1   -1    0    0  501    0  0.00000000000E+00  0.00000000000E+00 -0.25767641412E+04  0.25767641412E+04  0.50400001928E-02 0.  1.
    10030    2    1    2    0    0  0.00000000000E+00  0.00000000000E+00 -0.13181012497E+04  0.38354270328E+04  0.36018203202E+04 0.  0.
        3    1    3    3  502    0  0.35443769831E+03 -0.66926751180E+02 -0.25379055495E+04  0.25634098112E+04  0.10100000352E+00 0.  1.
       -3    1    3    3    0  502 -0.35443769831E+03  0.66926751180E+02  0.12198042997E+04  0.12720172215E+04  0.10100000352E+00 0. -1.
</event>
<event>
 5   0  0.2494592E-08  0.3595654E+04  0.7818609E-02  0.8091488E-01
        2   -1    0    0  501    0  0.00000000000E+00  0.00000000000E+00  0.13767454616E+04  0.13767454616E+04  0.25500000920E-02 0. -1.
       -2   -1    0    0    0  501  0.00000000000E+00  0.00000000000E+00 -0.23476981715E+04  0.23476981715E+04  0.25500000920E-02 0.  1.
    10030    2    1    2    0    0  0.00000000000E+00  0.00000000000E+00 -0.97095270988E+03  0.37244436331E+04  0.35956544900E+04 0.  0.
        1    1    3    3  502    0 -0.10359757039E+04 -0.65283656885E+03 -0.18489613044E+04  0.22176787752E+04  0.50400001928E-02 0.  1.
       -1    1    3    3    0  502  0.10359757039E+04  0.65283656885E+03  0.87800859457E+03  0.15067648579E+04  0.50400001928E-02 0. -1.
</event>
<event>
 5   0  0.8063410E-09  0.3603392E+04  0.7818609E-02  0.8089715E-01
       -1   -1    0    0    0  501  0.00000000000E+00  0.00000000000E+00  0.18804125433E+04  0.18804125433E+04  0.50400001928E-02 0. -1.
        1   -1    0    0  501    0  0.00000000000E+00  0.00000000000E+00 -0.17262749221E+04  0.17262749221E+04  0.50400001928E-02 0.  1.
    10030    2    1    2    0    0  0.00000000000E+00  0.00000000000E+00  0.15413762127E+03  0.36066874654E+04  0.36033922999E+04 0.  0.
        2    1    3    3  502    0 -0.30557679140E+03 -0.15778625647E+04 -0.73797404016E+03  0.17685115585E+04  0.25500000920E-02 0.  1.
       -2    1    3    3    0  502  0.30557679140E+03  0.15778625647E+04  0.89211166143E+03  0.18381759069E+04  0.25500000920E-02 0. -1.
</event>
<event>
 5   0  0.2494592E-08  0.3602659E+04  0.7818609E-02  0.8089883E-01
        2   -1    0    0  501    0  0.00000000000E+00  0.00000000000E+00  0.20220705529E+04  0.20220705529E+04  0.25500000920E-02 0. -1.
       -2   -1    0    0    0  501  0.00000000000E+00  0.00000000000E+00 -0.16046859986E+04  0.16046859986E+04  0.25500000920E-02 0.  1.
    10030    2    1    2    0    0  0.00000000000E+00  0.00000000000E+00  0.41738455427E+03  0.36267565515E+04  0.36026591870E+04 0.  0.
        1    1    3    3  502    0 -0.39919909915E+03 -0.12898723845E+04 -0.99161581080E+03  0.16752410589E+04  0.50400001928E-02 0.  1.
       -1    1    3    3    0  502  0.39919909915E+03  0.12898723845E+04  0.14090003651E+04  0.19515154926E+04  0.50400001928E-02 0. -1.
</event>
<event>
 5   0  0.2608070E-08  0.3598979E+04  0.7818609E-02  0.8090726E-01
       -2   -1    0    0    0  501  0.00000000000E+00  0.00000000000E+00  0.21206656972E+04  0.21206656972E+04  0.25500000920E-02 0.  1.
        2   -1    0    0  501    0  0.00000000000E+00  0.00000000000E+00 -0.15269559427E+04  0.15269559427E+04  0.25500000920E-02 0. -1.
    10030    2    1    2    0    0  0.00000000000E+00  0.00000000000E+00  0.59370975454E+03  0.36476216399E+04  0.35989793491E+04 0.  0.
        3    1    3    3  502    0  0.11520513409E+04 -0.65312732955E+03  0.15316669062E+04  0.20247965633E+04  0.10100000352E+00 0.  1.
       -3    1    3    3    0  502 -0.11520513409E+04  0.65312732955E+03 -0.93795715167E+03  0.16228250766E+04  0.10100000352E+00 0. -1.
</event>
<event>
 5   0  0.8024500E-09  0.3595500E+04  0.7818609E-02  0.8091523E-01
        1   -1    0    0  501    0  0.00000000000E+00  0.00000000000E+00  0.16195088019E+04  0.16195088019E+04  0.50400001928E-02 0.  1.
       -1   -1    0    0    0  501  0.00000000000E+00  0.00000000000E+00 -0.19956083714E+04  0.19956083715E+04  0.50400001928E-02 0. -1.
    10030    2    1    2    0    0  0.00000000000E+00  0.00000000000E+00 -0.37609956959E+03  0.36151171733E+04  0.35955001447E+04 0.  0.
        1    1    3    3  502    0  0.13557543656E+04 -0.10669098917E+04 -0.69631619937E+03  0.18604362032E+04  0.50400001928E-02 0. -1.
       -1    1    3    3    0  502 -0.13557543656E+04  0.10669098917E+04  0.32021662979E+03  0.17546809701E+04  0.50400001928E-02 0.  1.
</event>
<event>
 5   0  0.8024500E-09  0.3586544E+04  0.7818609E-02  0.8093581E-01
        1   -1    0    0  501    0  0.00000000000E+00  0.00000000000E+00  0.11231401950E+04  0.11231401950E+04  0.50400001928E-02 0.  1.
       -1   -1    0    0    0  501  0.00000000000E+00  0.00000000000E+00 -0.28632441470E+04  0.28632441470E+04  0.50400001928E-02 0. -1.
    10030    2    1    2    0    0  0.00000000000E+00  0.00000000000E+00 -0.17401039520E+04  0.39863843420E+04  0.35865440690E+04 0.  0.
        1    1    3    3  502    0  0.11107038154E+04  0.13175607062E+04 -0.31855520715E+03  0.17524573034E+04  0.50400001928E-02 0.  1.
       -1    1    3    3    0  502 -0.11107038154E+04 -0.13175607062E+04 -0.14215487448E+04  0.22339270387E+04  0.50400001928E-02 0. -1.
</event>
<event>
 5   0  0.2494592E-08  0.3603257E+04  0.7818609E-02  0.8089746E-01
       -2   -1    0    0    0  501  0.00000000000E+00  0.00000000000E+00  0.18811176680E+04  0.18811176681E+04  0.25500000920E-02 0.  1.
        2   -1    0    0  501    0  0.00000000000E+00  0.00000000000E+00 -0.17254985077E+04  0.17254985077E+04  0.25500000920E-02 0. -1.
    10030    2    1    2    0    0  0.00000000000E+00  0.00000000000E+00  0.15561916031E+03  0.36066161758E+04  0.36032572648E+04 0.  0.
        1    1    3    3  502    0  0.16148477024E+04  0.31100865393E+03 -0.65867945496E+03  0.17715298782E+04  0.50400001928E-02 0. -1.
       -1    1    3    3    0  502 -0.16148477024E+04 -0.31100865393E+03  0.81429861528E+03  0.18350862976E+04  0.50400001928E-02 0.  1.
</event>
<event>
 5   0  0.8063410E-09  0.3599543E+04  0.7818609E-02  0.8090596E-01
       -1   -1    0    0    0  501  0.00000000000E+00  0.00000000000E+00  0.28145136087E+04  0.28145136087E+04  0.50400001928E-02 0. -1.
        1   -1    0    0  501    0  0.00000000000E+00  0.00000000000E+00 -0.11508838205E+04  0.11508838205E+04  0.50400001928E-02 0.  1.
    10030    2    1    2    0    0  0.00000000000E+00  0.00000000000E+00  0.16636297882E+04  0.39653974293E+04  0.35995434016E+04 0.  0.
        2    1    3    3  502    0  0.36711865832E+03  0.78308634074E+02  0.27709091721E+04  0.27962199469E+04  0.25500000920E-02 0. -1.
       -2    1    3    3    0  502 -0.36711865832E+03 -0.78308634074E+02 -0.11072793839E+04  0.11691774824E+04  0.25500000920E-02 0.  1.
</event>
<event>
 5   0  0.8024500E-09  0.3599884E+04  0.7818609E-02  0.8090518E-01
       -1   -1    0    0    0  501  0.00000000000E+00  0.00000000000E+00  0.19556994705E+04  0.19556994705E+04  0.50400001928E-02 0.  1.
        1   -1    0    0  501    0  0.00000000000E+00  0.00000000000E+00 -0.16565893830E+04  0.16565893830E+04  0.50400001928E-02 0. -1.
    10030    2    1    2    0    0  0.00000000000E+00  0.00000000000E+00  0.29911008757E+03  0.36122888535E+04  0.35998838755E+04 0.  0.
        1    1    3    3  502    0 -0.14957637443E+04  0.94667223736E+03  0.47670531361E+03  0.18332336076E+04  0.50400001928E-02 0.  1.
       -1    1    3    3    0  502  0.14957637443E+04 -0.94667223736E+03 -0.17759522604E+03  0.17790552460E+04  0.50400001928E-02 0. -1.
</event>
<event>
 5   0  0.2608070E-08  0.3599942E+04  0.7818609E-02  0.8090505E-01
       -2   -1    0    0    0  501  0.00000000000E+00  0.00000000000E+00  0.19268395940E+04  0.19268395940E+04  0.25500000920E-02 0. -1.
        2   -1    0    0  501    0  0.00000000000E+00  0.00000000000E+00 -0.16814562574E+04  0.16814562574E+04  0.25500000920E-02 0.  1.
    10030    2    1    2    0    0  0.00000000000E+00  0.00000000000E+00  0.24538333665E+03  0.36082958514E+04  0.35999424952E+04 0.  0.
        3    1    3    3  502    0  0.35554352717E+03  0.17597308383E+04 -0.73501221667E+01  0.17953043913E+04  0.10100000352E+00 0.  1.
       -3    1    3    3    0  502 -0.35554352717E+03 -0.17597308383E+04  0.25273345881E+03  0.18129914601E+04  0.10100000352E+00 0. -1.
</event>
<event>
 5   0  0.8146881E-09  0.3601155E+04  0.7818609E-02  0.8090227E-01
       -1   -1    0    0    0  501  0.00000000000E+00  0.00000000000E+00  0.17822346120E+04  0.17822346120E+04  0.50400001928E-02 0. -1.
        1   -1    0    0  501    0  0.00000000000E+00  0.00000000000E+00 -0.18191090501E+04  0.18191090502E+04  0.50400001928E-02 0.  1.
    10030    2    1    2    0    0  0.00000000000E+00  0.00000000000E+00 -0.36874438113E+02  0.36013436622E+04  0.36011548771E+04 0.  0.
        4    1    3    3  502    0 -0.11104826211E+04 -0.12446830266E+04  0.65958800705E+03  0.17937294780E+04  0.12699999809E+01 0. -1.
       -4    1    3    3    0  502  0.11104826211E+04  0.12446830266E+04 -0.69646244517E+03  0.18076141842E+04  0.12699999809E+01 0.  1.
</event>
<event>
 5   0  0.8024500E-09  0.3597328E+04  0.7818609E-02  0.8091104E-01
       -1   -1    0    0    0  501  0.00000000000E+00  0.00000000000E+00  0.19237503556E+04  0.19237503556E+04  0.50400001928E-02 0.  1.
        1   -1    0    0  501    0  0.00000000000E+00  0.00000000000E+00 -0.16817110405E+04  0.16817110405E+04  0.50400001928E-02 0. -1.
    10030    2    1    2    0    0  0.00000000000E+00  0.00000000000E+00  0.24203931506E+03  0.36054613962E+04  0.35973280152E+04 0.  0.
        1    1    3    3  502    0 -0.11418027344E+04  0.11984940122E+03 -0.12667100183E+04  0.17095705992E+04  0.50400001928E-02 0.  1.
       -1    1    3    3    0  502  0.11418027344E+04 -0.11984940122E+03  0.15087493333E+04  0.18958907970E+04  0.50400001928E-02 0. -1.
</event>
<event>
 5   0  0.8024500E-09  0.3600388E+04  0.7818609E-02  0.8090403E-01
        1   -1    0    0  501    0  0.00000000000E+00  0.00000000000E+00  0.10851862273E+04  0.10851862273E+04  0.50400001928E-02 0.  1.
       -1   -1    0    0    0  501  0.00000000000E+00  0.00000000000E+00 -0.29863055597E+04  0.29863055597E+04  0.50400001928E-02 0. -1.
    10030    2    1    2    0    0  0.00000000000E+00  0.00000000000E+00 -0.19011193324E+04  0.40714917870E+04  0.36003875702E+04 0.  0.
        1    1    3    3  502    0 -0.16455233165E+04  0.69009216548E+03 -0.12198902984E+04  0.21615056146E+04  0.50400001928E-02 0.  1.
       -1    1    3    3    0  502  0.16455233165E+04 -0.69009216548E+03 -0.68122903402E+03  0.19099861724E+04  0.50400001928E-02 0. -1.
</event>
<event>
 5   0  0.2476968E-08  0.3597541E+04  0.7818609E-02  0.8091055E-01
       -2   -1    0    0    0  501  0.00000000000E+00  0.00000000000E+00  0.10563876597E+04  0.10563876597E+04  0.25500000920E-02 0.  1.
        2   -1    0    0  501    0  0.00000000000E+00  0.00000000000E+00 -0.30628676364E+04  0.30628676364E+04  0.25500000920E-02 0. -1.
    10030    2    1    2    0    0  0.00000000000E+00  0.00000000000E+00 -0.20064799767E+04  0.41192552961E+04  0.35975411460E+04 0.  0.
        2    1    3    3  502    0 -0.17310646262E+04  0.48401748352E+03 -0.92459197490E+03  0.20213183778E+04  0.25500000920E-02 0.  1.
       -2    1    3    3    0  502  0.17310646262E+04 -0.48401748352E+03 -0.10818880018E+04  0.20979369182E+04  0.25500000920E-02 0. -1.
</event>
<event>
 5   0  0.2590795E-08  0.3600940E+04  0.7818609E-02  0.8090276E-01
        2   -1    0    0  501    0  0.00000000000E+00  0.00000000000E+00  0.17100352416E+04  0.17100352416E+04  0.25500000920E-02 0.  1.
       -2   -1    0    0    0  501  0.00000000000E+00  0.00000000000E+00 -0.18956872633E+04  0.18956872633E+04  0.25500000920E-02 0. -1.
    10030    2    1    2    0    0  0.00000000000E+00  0.00000000000E+00 -0.18565202173E+03  0.36057225049E+04  0.36009398925E+04 0.  0.
        4    1    3    3  502    0  0.20039813590E+03 -0.15520347834E+04  0.79870421360E+03  0.17569580005E+04  0.12699999809E+01 0.  1.
       -4    1    3    3    0  502 -0.20039813590E+03  0.15520347834E+04 -0.98435623533E+03  0.18487645044E+04  0.12699999809E+01 0. -1.
</event>
<event>
 5   0  0.2608070E-08  0.3599933E+04  0.7818609E-02  0.8090507E-01
       -2   -1    0    0    0  501  0.00000000000E+00  0.00000000000E+00  0.23642385100E+04  0.23642385100E+04  0.25500000920E-02 0. -1.
        2   -1    0    0  501    0  0.00000000000E+00  0.00000000000E+00 -0.13703687871E+04  0.13703687871E+04  0.25500000920E-02 0.  1.
    10030    2    1    2    0    0  0.00000000000E+00  0.00000000000E+00  0.99386972284E+03  0.37346072971E+04  0.35999325880E+04 0.  0.
        3    1    3    3  502    0  0.15106382905E+04 -0.38910638867E+03  0.14285540835E+04  0.21152301545E+04  0.10100000352E+00 0. -1.
       -3    1    3    3    0  502 -0.15106382905E+04  0.38910638867E+03 -0.43468436069E+03  0.16193771427E+04  0.10100000352E+00 0.  1.
</event>
<event>
 5   0  0.8247570E-09  0.3600983E+04  0.7818609E-02  0.8090267E-01
       -1   -1    0    0    0  501  0.00000000000E+00  0.00000000000E+00  0.21977360960E+04  0.21977360960E+04  0.50400001928E-02 0. -1.
        1   -1    0    0  501    0  0.00000000000E+00  0.00000000000E+00 -0.14750493820E+04  0.14750493820E+04  0.50400001928E-02 0.  1.
    10030    2    1    2    0    0  0.00000000000E+00  0.00000000000E+00  0.72268671403E+03  0.36727854780E+04  0.36009827937E+04 0.  0.
        3    1    3    3  502    0 -0.64156964734E+03  0.15323482367E+03  0.20700626138E+04  0.21726140381E+04  0.10100000352E+00 0. -1.
       -3    1    3    3    0  502  0.64156964734E+03 -0.15323482367E+03 -0.13473758997E+04  0.15001714398E+04  0.10100000352E+00 0.  1.
</event>
<event>
 5   0  0.2482243E-08  0.3596999E+04  0.7818609E-02  0.8091179E-01
       -2   -1    0    0    0  501  0.00000000000E+00  0.00000000000E+00  0.25186546030E+04  0.25186546030E+04  0.25500000920E-02 0. -1.
        2   -1    0    0  501    0  0.00000000000E+00  0.00000000000E+00 -0.12842575725E+04  0.12842575725E+04  0.25500000920E-02 0.  1.
    10030    2    1    2    0    0  0.00000000000E+00  0.00000000000E+00  0.12343970305E+04  0.38029121755E+04  0.35969994420E+04 0.  0.
        5    1    3    3  502    0 -0.12890241729E+04  0.26312588895E+03 -0.67927985906E+03  0.14806288423E+04  0.46999998093E+01 0.  1.
       -5    1    3    3    0  502  0.12890241729E+04 -0.26312588895E+03  0.19136768895E+04  0.23222833331E+04  0.46999998093E+01 0. -1.
</event>
<event>
 5   0  0.2476968E-08  0.3604631E+04  0.7818609E-02  0.8089432E-01
       -2   -1    0    0    0  501  0.00000000000E+00  0.00000000000E+00  0.13554443512E+04  0.13554443513E+04  0.25500000920E-02 0. -1.
        2   -1    0    0  501    0  0.00000000000E+00  0.00000000000E+00 -0.23965139597E+04  0.23965139597E+04  0.25500000920E-02 0.  1.
    10030    2    1    2    0    0  0.00000000000E+00  0.00000000000E+00 -0.10410696085E+04  0.37519583110E+04  0.36046310820E+04 0.  0.
        2    1    3    3  502    0  0.73217068134E+03 -0.11423651952E+04  0.71423433526E+03  0.15333632419E+04  0.25500000920E-02 0. -1.
       -2    1    3    3    0  502 -0.73217068134E+03  0.11423651952E+04 -0.17553039437E+04  0.22185950691E+04  0.25500000920E-02 0.  1.
</event>
<event>
 5   0  0.8247570E-09  0.3601103E+04  0.7818609E-02  0.8090239E-01
        1   -1    0    0  501    0  0.00000000000E+00  0.00000000000E+00  0.16033726616E+04  0.16033726616E+04  0.50400001928E-02 0.  1.
       -1   -1    0    0    0  501  0.00000000000E+00  0.00000000000E+00 -0.20219784584E+04  0.20219784584E+04  0.50400001928E-02 0. -1.
    10030    2    1    2    0    0  0.00000000000E+00  0.00000000000E+00 -0.41860579680E+03  0.36253511201E+04  0.36011025993E+04 0.  0.
        3    1    3    3  502    0 -0.15439213904E+04 -0.18795728367E+03  0.70397918664E+03  0.17072222778E+04  0.10100000352E+00 0.  1.
       -3    1    3    3    0  502  0.15439213904E+04  0.18795728367E+03 -0.11225849834E+04  0.19181288423E+04  0.10100000352E+00 0. -1.
</event>
<event>
 5   0  0.2482243E-08  0.3598958E+04  0.7818609E-02  0.8090730E-01
       -2   -1    0    0    0  501  0.00000000000E+00  0.00000000000E+00  0.19211243030E+04  0.19211243030E+04  0.25500000920E-02 0.  1.
        2   -1    0    0  501    0  0.00000000000E+00  0.00000000000E+00 -0.16855363231E+04  0.16855363231E+04  0.25500000920E-02 0. -1.
    10030    2    1    2    0    0  0.00000000000E+00  0.00000000000E+00  0.23558797986E+03  0.36066606261E+04  0.35989580681E+04 0.  0.
        5    1    3    3  502    0 -0.60001117607E+03 -0.14562638868E+04  0.98993514377E+03  0.18602987928E+04  0.46999998093E+01 0. -1.
       -5    1    3    3    0  502  0.60001117607E+03  0.14562638868E+04 -0.75434716391E+03  0.17463618334E+04  0.46999998093E+01 0.  1.
</event>
<event>
 5   0  0.8024500E-09  0.3600257E+04  0.7818609E-02  0.8090433E-01
       -3   -1    0    0    0  501  0.00000000000E+00  0.00000000000E+00  0.17012186060E+04  0.17012186090E+04  0.10100000352E+00 0.  1.
        3   -1    0    0  501    0  0.00000000000E+00  0.00000000000E+00 -0.19047887045E+04  0.19047887072E+04  0.10100000352E+00 0. -1.
    10030    2    1    2    0    0  0.00000000000E+00  0.00000000000E+00 -0.20357009852E+03  0.36060073162E+04  0.36002566546E+04 0.  0.
        5    1    3    3  502    0 -0.16675732860E+04 -0.58146626188E+03  0.24739226203E+03  0.17832915351E+04  0.46999998093E+01 0.  1.
       -5    1    3    3    0  502  0.16675732860E+04  0.58146626188E+03 -0.45096236055E+03  0.18227157811E+04  0.46999998093E+01 0. -1.
</event>
<event>
 5   0  0.2482243E-08  0.3594299E+04  0.7818609E-02  0.8091799E-01
       -2   -1    0    0    0  501  0.00000000000E+00  0.00000000000E+00  0.16042943436E+04  0.16042943436E+04  0.25500000920E-02 0. -1.
        2   -1    0    0  501    0  0.00000000000E+00  0.00000000000E+00 -0.20131886600E+04  0.20131886600E+04  0.25500000920E-02 0.  1.
    10030    2    1    2    0    0  0.00000000000E+00  0.00000000000E+00 -0.40889431641E+03  0.36174830036E+04  0.35942994755E+04 0.  0.
        5    1    3    3  502    0  0.13516522009E+04  0.59734054817E+03 -0.12337586145E+04  0.19250874816E+04  0.46999998093E+01 0.  1.
       -5    1    3    3    0  502 -0.13516522009E+04 -0.59734054817E+03  0.82486429814E+03  0.16923955220E+04  0.46999998093E+01 0. -1.
</event>
<event>
 5   0  0.2494592E-08  0.3601789E+04  0.7818609E-02  0.8090082E-01
        2   -1    0    0  501    0  0.00000000000E+00  0.00000000000E+00  0.20043124164E+04  0.20043124164E+04  0.25500000920E-02 0. -1.
       -2   -1    0    0    0  501  0.00000000000E+00  0.00000000000E+00 -0.16181211941E+04  0.16181211941E+04  0.25500000920E-02 0.  1.
    10030    2    1    2    0    0  0.00000000000E+00  0.00000000000E+00  0.38619122226E+03  0.36224336105E+04  0.36017886670E+04 0.  0.
        1    1    3    3  502    0  0.11428665672E+04 -0.11977014307E+04  0.90609331679E+03  0.18872301943E+04  0.50400001928E-02 0. -1.
       -1    1    3    3    0  502 -0.11428665672E+04  0.11977014307E+04 -0.51990209454E+03  0.17352034162E+04  0.50400001928E-02 0.  1.
</event>
<event>
 5   0  0.2590795E-08  0.3603230E+04  0.7818609E-02  0.8089752E-01
        2   -1    0    0  501    0  0.00000000000E+00  0.00000000000E+00  0.21850781541E+04  0.21850781541E+04  0.25500000920E-02 0. -1.
       -2   -1    0    0    0  501  0.00000000000E+00  0.00000000000E+00 -0.14854463453E+04  0.14854463453E+04  0.25500000920E-02 0.  1.
    10030    2    1    2    0    0  0.00000000000E+00  0.00000000000E+00  0.69963180877E+03  0.36705244994E+04  0.36032298613E+04 0.  0.
        4    1    3    3  502    0  0.11814348065E+04  0.13592235127E+04  0.40113520925E+03  0.18450441264E+04  0.12699999809E+01 0. -1.
       -4    1    3    3    0  502 -0.11814348065E+04 -0.13592235127E+04  0.29849659952E+03  0.18254803730E+04  0.12699999809E+01 0.  1.
</event>
<event>
 5   0  0.8247570E-09  0.3592614E+04  0.7818609E-02  0.8092186E-01
       -1   -1    0    0    0  501  0.00000000000E+00  0.00000000000E+00  0.17994765118E+04  0.17994765118E+04  0.50400001928E-02 0. -1.
        1   -1    0    0  501    0  0.00000000000E+00  0.00000000000E+00 -0.17931431992E+04  0.17931431992E+04  0.50400001928E-02 0.  1.
    10030    2    1    2    0    0  0.00000000000E+00  0.00000000000E+00  0.63333126270E+01  0.35926197110E+04  0.35926141286E+04 0.  0.
        3    1    3    3  502    0  0.48256518508E+02  0.13589336031E+04  0.11769188070E+04  0.17983790251E+04  0.10100000352E+00 0. -1.
       -3    1    3    3    0  502 -0.48256518508E+02 -0.13589336031E+04 -0.11705854944E+04  0.17942406860E+04  0.10100000352E+00 0.  1.
</event>
<event>
 5   0  0.8146881E-09  0.3599668E+04  0.7818609E-02  0.8090568E-01
       -1   -1    0    0    0  501  0.00000000000E+00  0.00000000000E+00  0.10952751421E+04  0.10952751421E+04  0.50400001928E-02 0. -1.
        1   -1    0    0  501    0  0.00000000000E+00  0.00000000000E+00 -0.29576145315E+04  0.29576145315E+04  0.50400001928E-02 0.  1.
    10030    2    1    2    0    0  0.00000000000E+00  0.00000000000E+00 -0.18623393894E+04  0.40528896736E+04  0.35996675825E+04 0.  0.
        4    1    3    3  502    0 -0.14866087294E+04  0.23233726109E+03 -0.20431494103E+04  0.25374095537E+04  0.12699999809E+01 0.  1.
       -4    1    3    3    0  502  0.14866087294E+04 -0.23233726109E+03  0.18081002096E+03  0.15154801199E+04  0.12699999809E+01 0. -1.
</event>
<event>
 5   0  0.2494592E-08  0.3601046E+04  0.7818609E-02  0.8090252E-01
        2   -1    0    0  501    0  0.00000000000E+00  0.00000000000E+00  0.19512140065E+04  0.19512140065E+04  0.25500000920E-02 0.  1.
       -2   -1    0    0    0  501  0.00000000000E+00  0.00000000000E+00 -0.16614693134E+04  0.16614693134E+04  0.25500000920E-02 0. -1.
    10030    2    1    2    0    0  0.00000000000E+00  0.00000000000E+00  0.28974469313E+03  0.36126833199E+04  0.36010455124E+04 0.  0.
        1    1    3    3  502    0 -0.58977213814E+03 -0.11180685413E+04  0.14311914632E+04  0.19095071203E+04  0.50400001928E-02 0.  1.
       -1    1    3    3    0  502  0.58977213814E+03  0.11180685413E+04 -0.11414467701E+04  0.17031761996E+04  0.50400001928E-02 0. -1.
</event>
<event>
 5   0  0.8024500E-09  0.3598189E+04  0.7818609E-02  0.8090907E-01
       -1   -1    0    0    0  501  0.00000000000E+00  0.00000000000E+00  0.12112998991E+04  0.12112998991E+04  0.50400001928E-02 0.  1.
        1   -1    0    0  501    0  0.00000000000E+00  0.00000000000E+00 -0.26721219952E+04  0.26721219952E+04  0.50400001928E-02 0. -1.
    10030    2    1    2    0    0  0.00000000000E+00  0.00000000000E+00 -0.14608220962E+04  0.38834218943E+04  0.35981890463E+04 0.  0.
        1    1    3    3  502    0  0.30290263196E+03  0.12302943384E+04  0.64808785892E+03  0.14231626880E+04  0.50400001928E-02 0.  1.
       -1    1    3    3    0  502 -0.30290263196E+03 -0.12302943384E+04 -0.21089099551E+04  0.24602592063E+04  0.50400001928E-02 0. -1.
</event>
<event>
 5   0  0.2590795E-08  0.3607030E+04  0.7818609E-02  0.8088883E-01
        2   -1    0    0  501    0  0.00000000000E+00  0.00000000000E+00  0.14555077822E+04  0.14555077822E+04  0.25500000920E-02 0. -1.
       -2   -1    0    0    0  501  0.00000000000E+00  0.00000000000E+00 -0.22347291797E+04  0.22347291797E+04  0.25500000920E-02 0.  1.
    10030    2    1    2    0    0  0.00000000000E+00  0.00000000000E+00 -0.77922139749E+03  0.36902369619E+04  0.36070296434E+04 0.  0.
        4    1    3    3  502    0 -0.51339775977E+03  0.16447938159E+04  0.15534968771E+03  0.17300459806E+04  0.12699999809E+01 0. -1.
       -4    1    3    3    0  502  0.51339775977E+03 -0.16447938159E+04 -0.93457108520E+03  0.19601909812E+04  0.12699999809E+01 0.  1.
</event>
<event>
 5   0  0.2482243E-08  0.3598525E+04  0.7818609E-02  0.8090830E-01
        2   -1    0    0  501    0  0.00000000000E+00  0.00000000000E+00  0.19749727966E+04  0.19749727966E+04  0.25500000920E-02 0.  1.
       -2   -1    0    0    0  501  0.00000000000E+00  0.00000000000E+00 -0.16391849293E+04  0.16391849293E+04  0.25500000920E-02 0. -1.
    10030    2    1    2    0    0  0.00000000000E+00  0.00000000000E+00  0.33578786727E+03  0.36141577259E+04  0.35985250557E+04 0.  0.
        5    1    3    3  502    0  0.33193881562E+03  0.16460210903E+04  0.81704125233E+03  0.18673905069E+04  0.46999998093E+01 0.  1.
       -5    1    3    3    0  502 -0.33193881562E+03 -0.16460210903E+04 -0.48125338506E+03  0.17467672191E+04  0.46999998093E+01 0. -1.
</event>
<event>
 5   0  0.2482243E-08  0.3599438E+04  0.7818609E-02  0.8090621E-01
       -2   -1    0    0    0  501  0.00000000000E+00  0.00000000000E+00  0.16973945938E+04  0.16973945938E+04  0.25500000920E-02 0.  1.
        2   -1    0    0  501    0  0.00000000000E+00  0.00000000000E+00 -0.19082115015E+04  0.19082115015E+04  0.25500000920E-02 0. -1.
    10030    2    1    2    0    0  0.00000000000E+00  0.00000000000E+00 -0.21081690768E+03  0.36056060954E+04  0.35994376709E+04 0.  0.
        5    1    3    3  502    0  0.17245333465E+04 -0.27768492165E+02  0.40945626516E+03  0.17726993189E+04  0.46999998093E+01 0.  1.
       -5    1    3    3    0  502 -0.17245333465E+04  0.27768492165E+02 -0.62027317284E+03  0.18329067765E+04  0.46999998093E+01 0. -1.
</event>
<event>
 5   0  0.8146881E-09  0.3599852E+04  0.7818609E-02  0.8090526E-01
       -1   -1    0    0    0  501  0.00000000000E+00  0.00000000000E+00  0.20087517044E+04  0.20087517044E+04  0.50400001928E-02 0. -1.
        1   -1    0    0  501    0  0.00000000000E+00  0.00000000000E+00 -0.16128095307E+04  0.16128095307E+04  0.50400001928E-02 0.  1.
    10030    2    1    2    0    0  0.00000000000E+00  0.00000000000E+00  0.39594217369E+03  0.36215612351E+04  0.35998521601E+04 0.  0.
        4    1    3    3  502    0 -0.13510996971E+04  0.76199345962E+03 -0.72056722830E+03  0.17103576139E+04  0.12699999809E+01 0.  1.
       -4    1    3    3    0  502  0.13510996971E+04 -0.76199345962E+03  0.11165094020E+04  0.19112036212E+04  0.12699999809E+01 0. -1.
</event>
<event>
 5   0  0.8146881E-09  0.3599787E+04  0.7818609E-02  0.8090540E-01
       -1   -1    0    0    0  501  0.00000000000E+00  0.00000000000E+00  0.12124567723E+04  0.12124567723E+04  0.50400001928E-02 0.  1.
        1   -1    0    0  501    0  0.00000000000E+00  0.00000000000E+00 -0.26719441904E+04  0.26719441904E+04  0.50400001928E-02 0. -1.
    10030    2    1    2    0    0  0.00000000000E+00  0.00000000000E+00 -0.14594874181E+04  0.38844009627E+04  0.35997871208E+04 0.  0.
        4    1    3    3  502    0  0.16193266736E+04  0.18274683823E+03  0.94875852714E+02  0.16323658668E+04  0.12699999809E+01 0. -1.
       -4    1    3    3    0  502 -0.16193266736E+04 -0.18274683823E+03 -0.15543632708E+04  0.22520350959E+04  0.12699999809E+01 0.  1.
</event>
<event>
 5   0  0.8024500E-09  0.3595959E+04  0.7818609E-02  0.8091418E-01
        1   -1    0    0  501    0  0.00000000000E+00  0.00000000000E+00  0.34656120977E+04  0.34656120977E+04  0.50400001928E-02 0. -1.
       -1   -1    0    0    0  501  0.00000000000E+00  0.00000000000E+00 -0.93280222787E+03  0.93280222789E+03  0.50400001928E-02 0.  1.
    10030    2    1    2    0    0  0.00000000000E+00  0.00000000000E+00  0.25328098698E+04  0.43984143256E+04  0.35959592243E+04 0.  0.
        1    1    3    3  502    0  0.14512787208E+03 -0.12284212729E+04  0.28624459204E+04  0.31182811885E+04  0.50400001928E-02 0. -1.
       -1    1    3    3    0  502 -0.14512787208E+03  0.12284212729E+04 -0.32963605063E+03  0.12801331371E+04  0.50400001928E-02 0.  1.
</event>
<event>
 5   0  0.2482243E-08  0.3598044E+04  0.7818609E-02  0.8090940E-01
       -2   -1    0    0    0  501  0.00000000000E+00  0.00000000000E+00  0.18573567659E+04  0.18573567659E+04  0.25500000920E-02 0. -1.
        2   -1    0    0  501    0  0.00000000000E+00  0.00000000000E+00 -0.17425192450E+04  0.17425192450E+04  0.25500000920E-02 0.  1.
    10030    2    1    2    0    0  0.00000000000E+00  0.00000000000E+00  0.11483752092E+03  0.35998760109E+04  0.35980438626E+04 0.  0.
        5    1    3    3  502    0 -0.15140283985E+03 -0.16573749613E+04 -0.62604198743E+03  0.17781353273E+04  0.46999998093E+01 0.  1.
       -5    1    3    3    0  502  0.15140283985E+03  0.16573749613E+04  0.74087950835E+03  0.18217406836E+04  0.46999998093E+01 0. -1.
</event>
<event>
 5   0  0.2590795E-08  0.3600620E+04  0.7818609E-02  0.8090350E-01
       -2   -1    0    0    0  501  0.00000000000E+00  0.00000000000E+00  0.20833373473E+04  0.20833373473E+04  0.25500000920E-02 0. -1.
        2   -1    0    0  501    0  0.00000000000E+00  0.00000000000E+00 -0.15557331524E+04  0.15557331524E+04  0.25500000920E-02 0.  1.
    10030    2    1    2    0    0  0.00000000000E+00  0.00000000000E+00  0.52760419488E+03  0.36390704997E+04  0.36006204903E+04 0.  0.
        4    1    3    3  502    0  0.54112342843E+03 -0.17101134636E+04  0.10784044377E+03  0.17969234255E+04  0.12699999809E+01 0.  1.
       -4    1    3    3    0  502 -0.54112342843E+03  0.17101134636E+04  0.41976375111E+03  0.18421470741E+04  0.12699999809E+01 0. -1.
</event>
<event>
 5   0  0.2494592E-08  0.3599631E+04  0.7818609E-02  0.8090576E-01
       -2   -1    0    0    0  501  0.00000000000E+00  0.00000000000E+00  0.16488082407E+04  0.16488082407E+04  0.25500000920E-02 0. -1.
        2   -1    0    0  501    0  0.00000000000E+00  0.00000000000E+00 -0.19646532479E+04  0.19646532479E+04  0.25500000920E-02 0.  1.
    10030    2    1    2    0    0  0.00000000000E+00  0.00000000000E+00 -0.31584500724E+03  0.36134614886E+04  0.35996313507E+04 0.  0.
        1    1    3    3  502    0  0.81988494806E+03  0.49416063620E+03 -0.16878945778E+04  0.19404623594E+04  0.50400001928E-02 0.  1.
       -1    1    3    3    0  502 -0.81988494806E+03 -0.49416063620E+03  0.13720495705E+04  0.16729991292E+04  0.50400001928E-02 0. -1.
</event>
<event>
 5   0  0.2494592E-08  0.3595058E+04  0.7818609E-02  0.8091625E-01
        2   -1    0    0  501    0  0.00000000000E+00  0.00000000000E+00  0.22655391718E+04  0.22655391718E+04  0.25500000920E-02 0.  1.
       -2   -1    0    0    0  501  0.00000000000E+00  0.00000000000E+00 -0.14261996432E+04  0.14261996432E+04  0.25500000920E-02 0. -1.
    10030    2    1    2    0    0  0.00000000000E+00  0.00000000000E+00  0.83933952865E+03  0.36917388150E+04  0.35950583631E+04 0.  0.
        1    1    3    3  502    0  0.14291540383E+04  0.88132050223E+03 -0.23938736411E+03  0.16960287153E+04  0.50400001928E-02 0. -1.
       -1    1    3    3    0  502 -0.14291540383E+04 -0.88132050223E+03  0.10787268928E+04  0.19957100997E+04  0.50400001928E-02 0.  1.
</event>
<event>
 5   0  0.8063410E-09  0.3600031E+04  0.7818609E-02  0.8090485E-01
        1   -1    0    0  501    0  0.00000000000E+00  0.00000000000E+00  0.21134450224E+04  0.21134450224E+04  0.50400001928E-02 0. -1.
       -1   -1    0    0    0  501  0.00000000000E+00  0.00000000000E+00 -0.15330687158E+04  0.15330687158E+04  0.50400001928E-02 0.  1.
    10030    2    1    2    0    0  0.00000000000E+00  0.00000000000E+00  0.58037630665E+03  0.36465137382E+04  0.36000313589E+04 0.  0.
        2    1    3    3  502    0 -0.75261452868E+03 -0.51479999082E+03 -0.12818196716E+04  0.15730573193E+04  0.25500000920E-02 0.  1.
       -2    1    3    3    0  502  0.75261452868E+03  0.51479999082E+03  0.18621959783E+04  0.20734564188E+04  0.25500000920E-02 0. -1.
</event>
<event>
 5   0  0.8024500E-09  0.3601582E+04  0.7818609E-02  0.8090129E-01
       -1   -1    0    0    0  501  0.00000000000E+00  0.00000000000E+00  0.15882199499E+04  0.15882199499E+04  0.50400001928E-02 0.  1.
        1   -1    0    0  501    0  0.00000000000E+00  0.00000000000E+00 -0.20418130908E+04  0.20418130908E+04  0.50400001928E-02 0. -1.
    10030    2    1    2    0    0  0.00000000000E+00  0.00000000000E+00 -0.45359314094E+03  0.36300330407E+04  0.36015820328E+04 0.  0.
        5    1    3    3  502    0 -0.98285972158E+03 -0.76042783585E+03  0.10867879706E+04  0.16508767092E+04  0.46999998093E+01 0.  1.
       -5    1    3    3    0  502  0.98285972158E+03  0.76042783585E+03 -0.15403811115E+04  0.19791563315E+04  0.46999998093E+01 0. -1.
</event>
<event>
 5   0  0.2482243E-08  0.3598382E+04  0.7818609E-02  0.8090862E-01
       -2   -1    0    0    0  501  0.00000000000E+00  0.00000000000E+00  0.17789408561E+04  0.17789408561E+04  0.25500000920E-02 0.  1.
        2   -1    0    0  501    0  0.00000000000E+00  0.00000000000E+00 -0.18196721547E+04  0.18196721547E+04  0.25500000920E-02 0. -1.
    10030    2    1    2    0    0  0.00000000000E+00  0.00000000000E+00 -0.40731298584E+02  0.35986130108E+04  0.35983824925E+04 0.  0.
        5    1    3    3  502    0 -0.39893790922E+03  0.43606975318E+03 -0.17198151974E+04  0.18185419127E+04  0.46999998093E+01 0. -1.
       -5    1    3    3    0  502  0.39893790922E+03 -0.43606975318E+03  0.16790838988E+04  0.17800710981E+04  0.46999998093E+01 0.  1.
</event>
<event>
 5   0  0.8146881E-09  0.3600841E+04  0.7818609E-02  0.8090299E-01
        1   -1    0    0  501    0  0.00000000000E+00  0.00000000000E+00  0.26986550337E+04  0.26986550337E+04  0.50400001928E-02 0. -1.
       -1   -1    0    0    0  501  0.00000000000E+00  0.00000000000E+00 -0.12011587733E+04  0.12011587733E+04  0.50400001928E-02 0.  1.
    10030    2    1    2    0    0  0.00000000000E+00  0.00000000000E+00  0.14974962604E+04  0.38998138070E+04  0.36008405518E+04 0.  0.
        4    1    3    3  502    0 -0.10470541713E+04  0.13032209343E+04  0.14726816090E+04  0.22278913743E+04  0.12699999809E+01 0.  1.
       -4    1    3    3    0  502  0.10470541713E+04 -0.13032209343E+04  0.24814651385E+02  0.16719224327E+04  0.12699999809E+01 0. -1.
</event>
<event>
 5   0  0.2476968E-08  0.3600766E+04  0.7818609E-02  0.8090316E-01
        2   -1    0    0  501    0  0.00000000000E+00  0.00000000000E+00  0.30146592627E+04  0.30146592627E+04  0.25500000920E-02 0. -1.
       -2   -1    0    0    0  501  0.00000000000E+00  0.00000000000E+00 -0.10752060072E+04  0.10752060072E+04  0.25500000920E-02 0.  1.
    10030    2    1    2    0    0  0.00000000000E+00  0.00000000000E+00  0.19394532555E+04  0.40898652699E+04  0.36007664456E+04 0.  0.
        2    1    3    3  502    0  0.22675289472E+03 -0.68278057127E+03 -0.90483424969E+03  0.11559979253E+04  0.25500000920E-02 0.  1.
       -2    1    3    3    0  502 -0.22675289472E+03  0.68278057127E+03  0.28442875052E+04  0.29338673446E+04  0.25500000920E-02 0. -1.
</event>
<event>
 5   0  0.8024500E-09  0.3599497E+04  0.7818609E-02  0.8090607E-01
        1   -1    0    0  501    0  0.00000000000E+00  0.00000000000E+00  0.19726604008E+04  0.19726604008E+04  0.50400001928E-02 0. -1.
       -1   -1    0    0    0  501  0.00000000000E+00  0.00000000000E+00 -0.16419934245E+04  0.16419934245E+04  0.50400001928E-02 0.  1.
    10030    2    1    2    0    0  0.00000000000E+00  0.00000000000E+00  0.33066697631E+03  0.36146538253E+04  0.35994974132E+04 0.  0.
        1    1    3    3  502    0  0.19494041899E+03  0.59122380546E+03  0.18610966349E+04  0.19624545955E+04  0.50400001928E-02 0. -1.
       -1    1    3    3    0  502 -0.19494041899E+03 -0.59122380546E+03 -0.15304296586E+04  0.16521992298E+04  0.50400001928E-02 0.  1.
</event>
<event>
 5   0  0.2608070E-08  0.3599647E+04  0.7818609E-02  0.8090573E-01
        2   -1    0    0  501    0  0.00000000000E+00  0.00000000000E+00  0.25474858901E+04  0.25474858901E+04  0.25500000920E-02 0.  1.
       -2   -1    0    0    0  501  0.00000000000E+00  0.00000000000E+00 -0.12715926235E+04  0.12715926235E+04  0.25500000920E-02 0. -1.
    10030    2    1    2    0    0  0.00000000000E+00  0.00000000000E+00  0.12758932666E+04  0.38190785136E+04  0.35996467973E+04 0.  0.
        3    1    3    3  502    0  0.89250806911E+03 -0.13654769270E+04  0.14447406402E+04  0.21790762766E+04  0.10100000352E+00 0.  1.
       -3    1    3    3    0  502 -0.89250806911E+03  0.13654769270E+04 -0.16884737358E+03  0.16400022370E+04  0.10100000352E+00 0. -1.
</event>
<event>
 5   0  0.2482243E-08  0.3599793E+04  0.7818609E-02  0.8090539E-01
        2   -1    0    0  501    0  0.00000000000E+00  0.00000000000E+00  0.29311147765E+04  0.29311147765E+04  0.25500000920E-02 0. -1.
       -2   -1    0    0    0  501  0.00000000000E+00  0.00000000000E+00 -0.11052543348E+04  0.11052543348E+04  0.25500000920E-02 0.  1.
    10030    2    1    2    0    0  0.00000000000E+00  0.00000000000E+00  0.18258604416E+04  0.40363691113E+04  0.35997929455E+04 0.  0.
        5    1    3    3  502    0  0.12590301067E+04 -0.12452979533E+04  0.12739772881E+04  0.21815049903E+04  0.46999998093E+01 0.  1.
       -5    1    3    3    0  502 -0.12590301067E+04  0.12452979533E+04  0.55188315354E+03  0.18548641210E+04  0.46999998093E+01 0. -1.
</event>
<event>
 5   0  0.8024500E-09  0.3602206E+04  0.7818609E-02  0.8089987E-01
       -1   -1    0    0    0  501  0.00000000000E+00  0.00000000000E+00  0.17593991246E+04  0.17593991246E+04  0.50400001928E-02 0. -1.
        1   -1    0    0  501    0  0.00000000000E+00  0.00000000000E+00 -0.18437957116E+04  0.18437957116E+04  0.50400001928E-02 0.  1.
    10030    2    1    2    0    0  0.00000000000E+00  0.00000000000E+00 -0.84396587060E+02  0.36031948362E+04  0.36022063022E+04 0.  0.
        1    1    3    3  502    0 -0.96512394553E+02 -0.53921474296E+03  0.16740538329E+04  0.17613981426E+04  0.50400001928E-02 0. -1.
       -1    1    3    3    0  502  0.96512394553E+02  0.53921474296E+03 -0.17584504199E+04  0.18417966936E+04  0.50400001928E-02 0.  1.
</event>
<event>
 5   0  0.8146881E-09  0.3601709E+04  0.7818609E-02  0.8090100E-01
        1   -1    0    0  501    0  0.00000000000E+00  0.00000000000E+00  0.21375901237E+04  0.21375901237E+04  0.50400001928E-02 0. -1.
       -1   -1    0    0    0  501  0.00000000000E+00  0.00000000000E+00 -0.15171651764E+04  0.15171651764E+04  0.50400001928E-02 0.  1.
    10030    2    1    2    0    0  0.00000000000E+00  0.00000000000E+00  0.62042494734E+03  0.36547553001E+04  0.36017092037E+04 0.  0.
        4    1    3    3  502    0  0.13059509111E+04 -0.31101121597E+03  0.15282411862E+04  0.20341481005E+04  0.12699999809E+01 0. -1.
       -4    1    3    3    0  502 -0.13059509111E+04  0.31101121597E+03 -0.90781623888E+03  0.16206071995E+04  0.12699999809E+01 0.  1.
</event>
<event>
 5   0  0.8024500E-09  0.3601396E+04  0.7818609E-02  0.8090172E-01
       -3   -1    0    0    0  501  0.00000000000E+00  0.00000000000E+00  0.19328260634E+04  0.19328260661E+04  0.10100000352E+00 0. -1.
        3   -1    0    0  501    0  0.00000000000E+00  0.00000000000E+00 -0.16776022666E+04  0.16776022696E+04  0.10100000352E+00 0.  1.
    10030    2    1    2    0    0  0.00000000000E+00  0.00000000000E+00  0.25522379684E+03  0.36104283357E+04  0.36013960600E+04 0.  0.
        3    1    3    3  502    0  0.54625406549E+03 -0.71640851560E+02  0.18462590044E+04  0.19267065779E+04  0.10100000352E+00 0. -1.
       -3    1    3    3    0  502 -0.54625406549E+03  0.71640851560E+02 -0.15910352076E+04  0.16837217578E+04  0.10100000352E+00 0.  1.
</event>
<event>
 5   0  0.8024500E-09  0.3608487E+04  0.7818609E-02  0.8088550E-01
        1   -1    0    0  501    0  0.00000000000E+00  0.00000000000E+00  0.21343253495E+04  0.21343253495E+04  0.50400001928E-02 0. -1.
       -1   -1    0    0    0  501  0.00000000000E+00  0.00000000000E+00 -0.15252101631E+04  0.15252101631E+04  0.50400001928E-02 0.  1.
    10030    2    1    2    0    0  0.00000000000E+00  0.00000000000E+00  0.60911518639E+03  0.36595355126E+04  0.36084870594E+04 0.  0.
        5    1    3    3  502    0 -0.67627264396E+02  0.17577070950E+04  0.71169040707E+03  0.18975334001E+04  0.46999998093E+01 0.  1.
       -5    1    3    3    0  502  0.67627264396E+02 -0.17577070950E+04 -0.10257522068E+03  0.17620021126E+04  0.46999998093E+01 0. -1.
</event>
<event>
 5   0  0.2482243E-08  0.3597942E+04  0.7818609E-02  0.8090963E-01
       -2   -1    0    0    0  501  0.00000000000E+00  0.00000000000E+00  0.19914569927E+04  0.19914569927E+04  0.25500000920E-02 0.  1.
        2   -1    0    0  501    0  0.00000000000E+00  0.00000000000E+00 -0.16250895355E+04  0.16250895355E+04  0.25500000920E-02 0. -1.
    10030    2    1    2    0    0  0.00000000000E+00  0.00000000000E+00  0.36636745725E+03  0.36165465282E+04  0.35979415888E+04 0.  0.
        5    1    3    3  502    0  0.91861411239E+03 -0.44530459902E+03 -0.13057340170E+04  0.16574412468E+04  0.46999998093E+01 0. -1.
       -5    1    3    3    0  502 -0.91861411239E+03  0.44530459902E+03  0.16721014742E+04  0.19591052814E+04  0.46999998093E+01 0.  1.
</event>
<event>
 5   0  0.2482243E-08  0.3594072E+04  0.7818609E-02  0.8091851E-01
       -2   -1    0    0    0  501  0.00000000000E+00  0.00000000000E+00  0.11824906931E+04  0.11824906931E+04  0.25500000920E-02 0.  1.
        2   -1    0    0  501    0  0.00000000000E+00  0.00000000000E+00 -0.27309629157E+04  0.27309629157E+04  0.25500000920E-02 0. -1.
    10030    2    1    2    0    0  0.00000000000E+00  0.00000000000E+00 -0.15484722226E+04  0.39134536088E+04  0.35940719142E+04 0.  0.
        5    1    3    3  502    0 -0.77088081458E+03 -0.99261393007E+03 -0.21728118278E+04  0.25101141356E+04  0.46999998093E+01 0. -1.
       -5    1    3    3    0  502  0.77088081458E+03  0.99261393007E+03  0.62433960526E+03  0.14033394732E+04  0.46999998093E+01 0.  1.
</event>
<event>
 5   0  0.2608070E-08  0.3601773E+04  0.7818609E-02  0.8090086E-01
        2   -1    0    0  501    0  0.00000000000E+00  0.00000000000E+00  0.22340816437E+04  0.22340816437E+04  0.25500000920E-02 0.  1.
       -2   -1    0    0    0  501  0.00000000000E+00  0.00000000000E+00 -0.14516889398E+04  0.14516889398E+04  0.25500000920E-02 0. -1.
    10030    2    1    2    0    0  0.00000000000E+00  0.00000000000E+00  0.78239270389E+03  0.36857705835E+04  0.36017726817E+04 0.  0.
        3    1    3    3  502    0 -0.17390526830E+04  0.43876677507E+03  0.55737529826E+03  0.18781607361E+04  0.10100000352E+00 0.  1.
       -3    1    3    3    0  502  0.17390526830E+04 -0.43876677507E+03  0.22501740563E+03  0.18076098474E+04  0.10100000352E+00 0. -1.
</event>
<event>
 5   0  0.2482243E-08  0.3605447E+04  0.7818609E-02  0.8089245E-01
        2   -1    0    0  501    0  0.00000000000E+00  0.00000000000E+00  0.21557541458E+04  0.21557541458E+04  0.25500000920E-02 0.  1.
       -2   -1    0    0    0  501  0.00000000000E+00  0.00000000000E+00 -0.15075058819E+04  0.15075058819E+04  0.25500000920E-02 0. -1.
    10030    2    1    2    0    0  0.00000000000E+00  0.00000000000E+00  0.64824826389E+03  0.36632600277E+04  0.36054470206E+04 0.  0.
        5    1    3    3  502    0  0.43348819261E+03 -0.61888076767E+03 -0.13388443039E+04  0.15373521320E+04  0.46999998093E+01 0. -1.
       -5    1    3    3    0  502 -0.43348819261E+03  0.61888076767E+03  0.19870925678E+04  0.21259078956E+04  0.46999998093E+01 0.  1.
</event>
<event>
 5   0  0.8063410E-09  0.3596628E+04  0.7818609E-02  0.8091265E-01
       -1   -1    0    0    0  501  0.00000000000E+00  0.00000000000E+00  0.12518569450E+04  0.12518569450E+04  0.50400001928E-02 0. -1.
        1   -1    0    0  501    0  0.00000000000E+00  0.00000000000E+00 -0.25833085094E+04  0.25833085094E+04  0.50400001928E-02 0.  1.
    10030    2    1    2    0    0  0.00000000000E+00  0.00000000000E+00 -0.13314515644E+04  0.38351654545E+04  0.35966276976E+04 0.  0.
        2    1    3    3  502    0  0.55980507108E+03 -0.14863182892E+03 -0.24811254141E+04  0.25478336795E+04  0.25500000920E-02 0.  1.
       -2    1    3    3    0  502 -0.55980507108E+03  0.14863182892E+03  0.11496738497E+04  0.12873317750E+04  0.25500000920E-02 0. -1.
</event>
<event>
 5   0  0.2608070E-08  0.3595813E+04  0.7818609E-02  0.8091452E-01
       -2   -1    0    0    0  501  0.00000000000E+00  0.00000000000E+00  0.31169395945E+04  0.31169395945E+04  0.25500000920E-02 0. -1.
        2   -1    0    0  501    0  0.00000000000E+00  0.00000000000E+00 -0.10370643432E+04  0.10370643432E+04  0.25500000920E-02 0.  1.
    10030    2    1    2    0    0  0.00000000000E+00  0.00000000000E+00  0.20798752513E+04  0.41540039377E+04  0.35958125164E+04 0.  0.
        3    1    3    3  502    0 -0.16206820964E+04  0.26037705103E+03  0.19254376476E+03  0.16527189046E+04  0.10100000352E+00 0.  1.
       -3    1    3    3    0  502  0.16206820964E+04 -0.26037705103E+03  0.18873314865E+04  0.25012850330E+04  0.10100000352E+00 0. -1.
</event>
<event>
 5   0  0.2476968E-08  0.3601491E+04  0.7818609E-02  0.8090150E-01
        2   -1    0    0  501    0  0.00000000000E+00  0.00000000000E+00  0.20086714990E+04  0.20086714990E+04  0.25500000920E-02 0. -1.
       -2   -1    0    0    0  501  0.00000000000E+00  0.00000000000E+00 -0.16143423921E+04  0.16143423921E+04  0.25500000920E-02 0.  1.
    10030    2    1    2    0    0  0.00000000000E+00  0.00000000000E+00  0.39432910695E+03  0.36230138911E+04  0.36014905540E+04 0.  0.
        2    1    3    3  502    0 -0.13714428440E+04 -0.47669824394E+03  0.12687001290E+04  0.19281329589E+04  0.25500000920E-02 0. -1.
       -2    1    3    3    0  502  0.13714428440E+04  0.47669824394E+03 -0.87437102205E+03  0.16948809322E+04  0.25500000920E-02 0.  1.
</event>
<event>
 5   0  0.2608070E-08  0.3599869E+04  0.7818609E-02  0.8090522E-01
        2   -1    0    0  501    0  0.00000000000E+00  0.00000000000E+00  0.18399639419E+04  0.18399639419E+04  0.25500000920E-02 0. -1.
       -2   -1    0    0    0  501  0.00000000000E+00  0.00000000000E+00 -0.17607759042E+04  0.17607759042E+04  0.25500000920E-02 0.  1.
    10030    2    1    2    0    0  0.00000000000E+00  0.00000000000E+00  0.79188037752E+02  0.36007398461E+04  0.35998689829E+04 0.  0.
        3    1    3    3  502    0  0.17506787084E+04  0.15018502914E+03  0.42998663205E+03  0.18089554989E+04  0.10100000352E+00 0. -1.
       -3    1    3    3    0  502 -0.17506787084E+04 -0.15018502914E+03 -0.35079859429E+03  0.17917843472E+04  0.10100000352E+00 0.  1.
</event>
<event>
 5   0  0.8063410E-09  0.3600217E+04  0.7818609E-02  0.8090442E-01
        1   -1    0    0  501    0  0.00000000000E+00  0.00000000000E+00  0.24121210016E+04  0.24121210016E+04  0.50400001928E-02 0.  1.
       -1   -1    0    0    0  501  0.00000000000E+00  0.00000000000E+00 -0.13433782013E+04  0.13433782013E+04  0.50400001928E-02 0. -1.
    10030    2    1    2    0    0  0.00000000000E+00  0.00000000000E+00  0.10687428003E+04  0.37554992030E+04  0.36002170893E+04 0.  0.
        2    1    3    3  502    0 -0.13301946329E+04  0.43193544653E+03 -0.64782584195E+03  0.15413190172E+04  0.25500000920E-02 0.  1.
       -2    1    3    3    0  502  0.13301946329E+04 -0.43193544653E+03  0.17165686422E+04  0.22141801857E+04  0.25500000920E-02 0. -1.
</event>
<event>
 5   0  0.2476968E-08  0.3598815E+04  0.7818609E-02  0.8090763E-01
        2   -1    0    0  501    0  0.00000000000E+00  0.00000000000E+00  0.22874296696E+04  0.22874296696E+04  0.25500000920E-02 0.  1.
       -2   -1    0    0    0  501  0.00000000000E+00  0.00000000000E+00 -0.14155048543E+04  0.14155048543E+04  0.25500000920E-02 0. -1.
    10030    2    1    2    0    0  0.00000000000E+00  0.00000000000E+00  0.87192481522E+03  0.37029345239E+04  0.35988152502E+04 0.  0.
        2    1    3    3  502    0 -0.74706973995E+02 -0.17964331295E+04  0.36237631537E+03  0.18341400477E+04  0.25500000920E-02 0.  1.
       -2    1    3    3    0  502  0.74706973995E+02  0.17964331295E+04  0.50954849985E+03  0.18687944762E+04  0.25500000920E-02 0. -1.
</event>
<event>
 5   0  0.8146881E-09  0.3599817E+04  0.7818609E-02  0.8090534E-01
       -1   -1    0    0    0  501  0.00000000000E+00  0.00000000000E+00  0.11409423794E+04  0.11409423794E+04  0.50400001928E-02 0.  1.
        1   -1    0    0  501    0  0.00000000000E+00  0.00000000000E+00 -0.28394685122E+04  0.28394685122E+04  0.50400001928E-02 0. -1.
    10030    2    1    2    0    0  0.00000000000E+00  0.00000000000E+00 -0.16985261328E+04  0.39804108916E+04  0.35998166401E+04 0.  0.
        4    1    3    3  502    0 -0.14976928514E+04 -0.64448694636E+03 -0.16922448539E+04  0.23499237348E+04  0.12699999809E+01 0. -1.
       -4    1    3    3    0  502  0.14976928514E+04  0.64448694636E+03 -0.62812788453E+01  0.16304871568E+04  0.12699999809E+01 0.  1.
</event>
<event>
 5   0  0.8146881E-09  0.3600796E+04  0.7818609E-02  0.8090309E-01
        1   -1    0    0  501    0  0.00000000000E+00  0.00000000000E+00  0.24999534980E+04  0.24999534980E+04  0.50400001928E-02 0.  1.
       -1   -1    0    0    0  501  0.00000000000E+00  0.00000000000E+00 -0.12965974937E+04  0.12965974937E+04  0.50400001928E-02 0. -1.
    10030    2    1    2    0    0  0.00000000000E+00  0.00000000000E+00  0.12033560043E+04  0.37965509916E+04  0.36007962674E+04 0.  0.
        4    1    3    3  502    0  0.80900672073E+03  0.15678513469E+04  0.98004953125E+03  0.20182042555E+04  0.12699999809E+01 0. -1.
       -4    1    3    3    0  502 -0.80900672073E+03 -0.15678513469E+04  0.22330647307E+03  0.17783467362E+04  0.12699999809E+01 0.  1.
</event>
<event>
 5   0  0.2590795E-08  0.3600519E+04  0.7818609E-02  0.8090373E-01
       -2   -1    0    0    0  501  0.00000000000E+00  0.00000000000E+00  0.14431258788E+04  0.14431258788E+04  0.25500000920E-02 0. -1.
        2   -1    0    0  501    0  0.00000000000E+00  0.00000000000E+00 -0.22457736136E+04  0.22457736136E+04  0.25500000920E-02 0.  1.
    10030    2    1    2    0    0  0.00000000000E+00  0.00000000000E+00 -0.80264773486E+03  0.36888994924E+04  0.36005188624E+04 0.  0.
        4    1    3    3  502    0 -0.52070917535E+03  0.14589340315E+04  0.53841824098E+03  0.16399763318E+04  0.12699999809E+01 0. -1.
       -4    1    3    3    0  502  0.52070917535E+03 -0.14589340315E+04 -0.13410659758E+04  0.20489231606E+04  0.12699999809E+01 0.  1.
</event>
<event>
 5   0  0.8024500E-09  0.3603749E+04  0.7818609E-02  0.8089633E-01
        1   -1    0    0  501    0  0.00000000000E+00  0.00000000000E+00  0.23986978499E+04  0.23986978499E+04  0.50400001928E-02 0.  1.
       -1   -1    0    0    0  501  0.00000000000E+00  0.00000000000E+00 -0.13535479728E+04  0.13535479728E+04  0.50400001928E-02 0. -1.
    10030    2    1    2    0    0  0.00000000000E+00  0.00000000000E+00  0.10451498770E+04  0.37522458227E+04  0.36037494986E+04 0.  0.
        5    1    3    3  502    0  0.13454915350E+03 -0.81970364944E+03  0.21874347715E+04  0.23398526700E+04  0.46999998093E+01 0.  1.
       -5    1    3    3    0  502 -0.13454915350E+03  0.81970364944E+03 -0.11422848945E+04  0.14123931527E+04  0.46999998093E+01 0. -1.
</event>
<event>
 5   0  0.8063410E-09  0.3600733E+04  0.7818609E-02  0.8090324E-01
       -1   -1    0    0    0  501  0.00000000000E+00  0.00000000000E+00  0.14504136911E+04  0.14504136911E+04  0.50400001928E-02 0. -1.
        1   -1    0    0  501    0  0.00000000000E+00  0.00000000000E+00 -0.22347552765E+04  0.22347552766E+04  0.50400001928E-02 0.  1.
    10030    2    1    2    0    0  0.00000000000E+00  0.00000000000E+00 -0.78434158547E+03  0.36851689676E+04  0.36007330639E+04 0.  0.
        2    1    3    3  502    0  0.49223951763E+03 -0.17315544889E+04 -0.41999203652E+03  0.18485058835E+04  0.25500000920E-02 0. -1.
       -2    1    3    3    0  502 -0.49223951763E+03  0.17315544889E+04 -0.36434954895E+03  0.18366630841E+04  0.25500000920E-02 0.  1.
</event>
<event>
 5   0  0.2494592E-08  0.3598899E+04  0.7818609E-02  0.8090744E-01
        2   -1    0    0  501    0  0.00000000000E+00  0.00000000000E+00  0.15018468648E+04  0.15018468648E+04  0.25500000920E-02 0. -1.
       -2   -1    0    0    0  501  0.00000000000E+00  0.00000000000E+00 -0.21560240241E+04  0.21560240241E+04  0.25500000920E-02 0.  1.
    10030    2    1    2    0    0  0.00000000000E+00  0.00000000000E+00 -0.65417715924E+03  0.36578708889E+04  0.35988986766E+04 0.  0.
        1    1    3    3  502    0  0.51972133886E+03 -0.44006657189E+03 -0.20199892484E+04  0.21316954335E+04  0.50400001928E-02 0.  1.
       -1    1    3    3    0  502 -0.51972133886E+03  0.44006657189E+03  0.13658120891E+04  0.15261754554E+04  0.50400001928E-02 0. -1.
</event>
<event>
 5   0  0.2608070E-08  0.3600068E+04  0.7818609E-02  0.8090476E-01
       -2   -1    0    0    0  501  0.00000000000E+00  0.00000000000E+00  0.20292384211E+04  0.20292384211E+04  0.25500000920E-02 0.  1.
        2   -1    0    0  501    0  0.00000000000E+00  0.00000000000E+00 -0.15967180213E+04  0.15967180213E+04  0.25500000920E-02 0. -1.
    10030    2    1    2    0    0  0.00000000000E+00  0.00000000000E+00  0.43252039982E+03  0.36259564424E+04  0.36000675307E+04 0.  0.
        3    1    3    3  502    0  0.47304756720E+03  0.20354454873E+03 -0.15209380128E+04  0.16057574017E+04  0.10100000352E+00 0. -1.
       -3    1    3    3    0  502 -0.47304756720E+03 -0.20354454873E+03  0.19534584126E+04  0.20201990407E+04  0.10100000352E+00 0.  1.
</event>
<event>
 5   0  0.2476968E-08  0.3599710E+04  0.7818609E-02  0.8090558E-01
        2   -1    0    0  501    0  0.00000000000E+00  0.00000000000E+00  0.22001076973E+04  0.22001076973E+04  0.25500000920E-02 0.  1.
       -2   -1    0    0    0  501  0.00000000000E+00  0.00000000000E+00 -0.14724177860E+04  0.14724177860E+04  0.25500000920E-02 0. -1.
    10030    2    1    2    0    0  0.00000000000E+00  0.00000000000E+00  0.72768991132E+03  0.36725254833E+04  0.35997098242E+04 0.  0.
        2    1    3    3  502    0 -0.68628618139E+03  0.10286131551E+04 -0.97044970900E+03  0.15718798883E+04  0.25500000920E-02 0. -1.
       -2    1    3    3    0  502  0.68628618139E+03 -0.10286131551E+04  0.16981396203E+04  0.21006455950E+04  0.25500000920E-02 0.  1.
</event>
<event>
 5   0  0.8024500E-09  0.3597996E+04  0.7818609E-02  0.8090951E-01
       -1   -1    0    0    0  501  0.00000000000E+00  0.00000000000E+00  0.17612160684E+04  0.17612160685E+04  0.50400001928E-02 0. -1.
        1   -1    0    0  501    0  0.00000000000E+00  0.00000000000E+00 -0.18375899704E+04  0.18375899704E+04  0.50400001928E-02 0.  1.
    10030    2    1    2    0    0  0.00000000000E+00  0.00000000000E+00 -0.76373901930E+02  0.35988060388E+04  0.35979955437E+04 0.  0.
        1    1    3    3  502    0  0.25995985091E+03 -0.13864410111E+03 -0.18132956250E+04  0.18370743955E+04  0.50400001928E-02 0.  1.
       -1    1    3    3    0  502 -0.25995985091E+03  0.13864410111E+03  0.17369217231E+04  0.17617316433E+04  0.50400001928E-02 0. -1.
</event>
<event>
 5   0  0.2590795E-08  0.3599186E+04  0.7818609E-02  0.8090678E-01
        2   -1    0    0  501    0  0.00000000000E+00  0.00000000000E+00  0.24911188531E+04  0.24911188531E+04  0.25500000920E-02 0.  1.
       -2   -1    0    0    0  501  0.00000000000E+00  0.00000000000E+00 -0.13000325438E+04  0.13000325438E+04  0.25500000920E-02 0. -1.
    10030    2    1    2    0    0  0.00000000000E+00  0.00000000000E+00  0.11910863093E+04  0.37911513969E+04  0.35991863411E+04 0.  0.
        4    1    3    3  502    0  0.11440039522E+04 -0.84470271011E+03  0.17572087437E+04  0.22605423891E+04  0.12699999809E+01 0.  1.
       -4    1    3    3    0  502 -0.11440039522E+04  0.84470271011E+03 -0.56612243435E+03  0.15306090078E+04  0.12699999809E+01 0. -1.
</event>
<event>
 5   0  0.8247570E-09  0.3599272E+04  0.7818609E-02  0.8090658E-01
        1   -1    0    0  501    0  0.00000000000E+00  0.00000000000E+00  0.27398539205E+04  0.27398539205E+04  0.50400001928E-02 0.  1.
       -1   -1    0    0    0  501  0.00000000000E+00  0.00000000000E+00 -0.11820665650E+04  0.11820665650E+04  0.50400001928E-02 0. -1.
    10030    2    1    2    0    0  0.00000000000E+00  0.00000000000E+00  0.15577873555E+04  0.39219204855E+04  0.35992719889E+04 0.  0.
        3    1    3    3  502    0  0.36201719271E+03 -0.17609072650E+04  0.68878306900E+03  0.19251682966E+04  0.10100000352E+00 0. -1.
       -3    1    3    3    0  502 -0.36201719271E+03  0.17609072650E+04  0.86900428650E+03  0.19967521889E+04  0.10100000352E+00 0.  1.
</event>
<event>
 5   0  0.2608070E-08  0.3600487E+04  0.7818609E-02  0.8090380E-01
       -2   -1    0    0    0  501  0.00000000000E+00  0.00000000000E+00  0.11459523882E+04  0.11459523882E+04  0.25500000920E-02 0.  1.
        2   -1    0    0  501    0  0.00000000000E+00  0.00000000000E+00 -0.28281069229E+04  0.28281069229E+04  0.25500000920E-02 0. -1.
    10030    2    1    2    0    0  0.00000000000E+00  0.00000000000E+00 -0.16821545347E+04  0.39740593110E+04  0.36004865684E+04 0.  0.
        3    1    3    3  502    0  0.12646213158E+04 -0.95431164140E+03  0.10255234908E+03  0.15876066187E+04  0.10100000352E+00 0.  1.
       -3    1    3    3    0  502 -0.12646213158E+04  0.95431164140E+03 -0.17847068838E+04  0.23864526923E+04  0.10100000352E+00 0. -1.
</event>
<event>
 5   0  0.2608070E-08  0.3599702E+04  0.7818609E-02  0.8090560E-01
        2   -1    0    0  501    0  0.00000000000E+00  0.00000000000E+00  0.13728292251E+04  0.13728292252E+04  0.25500000920E-02 0. -1.
       -2   -1    0    0    0  501  0.00000000000E+00  0.00000000000E+00 -0.23596987770E+04  0.23596987770E+04  0.25500000920E-02 0.  1.
    10030    2    1    2    0    0  0.00000000000E+00  0.00000000000E+00 -0.98686955187E+03  0.37325280022E+04  0.35997019008E+04 0.  0.
        3    1    3    3  502    0  0.78654050611E+03 -0.11327963388E+04  0.70578292687E+03  0.15491943271E+04  0.10100000352E+00 0. -1.
       -3    1    3    3    0  502 -0.78654050611E+03  0.11327963388E+04 -0.16926524787E+04  0.21833336751E+04  0.10100000352E+00 0.  1.
</event>
<event>
 5   0  0.8024500E-09  0.3600484E+04  0.7818609E-02  0.8090381E-01
       -1   -1    0    0    0  501  0.00000000000E+00  0.00000000000E+00  0.17745699268E+04  0.17745699268E+04  0.50400001928E-02 0. -1.
        1   -1    0    0  501    0  0.00000000000E+00  0.00000000000E+00 -0.18262849709E+04  0.18262849709E+04  0.50400001928E-02 0.  1.
    10030    2    1    2    0    0  0.00000000000E+00  0.00000000000E+00 -0.51715044118E+02  0.36008548977E+04  0.36004835160E+04 0.  0.
        1    1    3    3  502    0  0.48613395518E+03  0.13048833963E+04  0.11152349637E+04  0.17840392161E+04  0.50400001928E-02 0. -1.
       -1    1    3    3    0  502 -0.48613395518E+03 -0.13048833963E+04 -0.11669500078E+04  0.18168156816E+04  0.50400001928E-02 0.  1.
</event>
<event>
 5   0  0.8024500E-09  0.3599476E+04  0.7818609E-02  0.8090612E-01
       -1   -1    0    0    0  501  0.00000000000E+00  0.00000000000E+00  0.13913665492E+04  0.13913665492E+04  0.50400001928E-02 0. -1.
        1   -1    0    0  501    0  0.00000000000E+00  0.00000000000E+00 -0.23279683730E+04  0.23279683730E+04  0.50400001928E-02 0.  1.
    10030    2    1    2    0    0  0.00000000000E+00  0.00000000000E+00 -0.93660182377E+03  0.37193349222E+04  0.35994762517E+04 0.  0.
        1    1    3    3  502    0  0.10396273747E+03  0.17963415657E+04 -0.50704687020E+03  0.18694244569E+04  0.50400001928E-02 0.  1.
       -1    1    3    3    0  502 -0.10396273747E+03 -0.17963415657E+04 -0.42955495357E+03  0.18499104653E+04  0.50400001928E-02 0. -1.
</event>
<event>
 5   0  0.2494592E-08  0.3605208E+04  0.7818609E-02  0.8089300E-01
       -2   -1    0    0    0  501  0.00000000000E+00  0.00000000000E+00  0.12149851104E+04  0.12149851104E+04  0.25500000920E-02 0.  1.
        2   -1    0    0  501    0  0.00000000000E+00  0.00000000000E+00 -0.26744207440E+04  0.26744207440E+04  0.25500000920E-02 0. -1.
    10030    2    1    2    0    0  0.00000000000E+00  0.00000000000E+00 -0.14594356336E+04  0.38894058544E+04  0.36052081121E+04 0.  0.
        1    1    3    3  502    0  0.15286743619E+04  0.24170423062E+03  0.26731886077E+03  0.15705812979E+04  0.50400001928E-02 0.  1.
       -1    1    3    3    0  502 -0.15286743619E+04 -0.24170423062E+03 -0.17267544943E+04  0.23188245565E+04  0.50400001928E-02 0. -1.
</event>
<event>
 5   0  0.8146881E-09  0.3600288E+04  0.7818609E-02  0.8090426E-01
       -1   -1    0    0    0  501  0.00000000000E+00  0.00000000000E+00  0.15243478379E+04  0.15243478379E+04  0.50400001928E-02 0. -1.
        1   -1    0    0  501    0  0.00000000000E+00  0.00000000000E+00 -0.21258394140E+04  0.21258394140E+04  0.50400001928E-02 0.  1.
    10030    2    1    2    0    0  0.00000000000E+00  0.00000000000E+00 -0.60149157604E+03  0.36501872519E+04  0.36002881632E+04 0.  0.
        4    1    3    3  502    0  0.55957535068E+03  0.37037522974E+03  0.13927990287E+04  0.15460249452E+04  0.12699999809E+01 0. -1.
       -4    1    3    3    0  502 -0.55957535068E+03 -0.37037522974E+03 -0.19942906048E+04  0.21041623067E+04  0.12699999809E+01 0.  1.
</event>
<event>
 5   0  0.2482243E-08  0.3599178E+04  0.7818609E-02  0.8090680E-01
       -2   -1    0    0    0  501  0.00000000000E+00  0.00000000000E+00  0.15007123889E+04  0.15007123889E+04  0.25500000920E-02 0.  1.
        2   -1    0    0  501    0  0.00000000000E+00  0.00000000000E+00 -0.21579886084E+04  0.21579886084E+04  0.25500000920E-02 0. -1.
    10030    2    1    2    0    0  0.00000000000E+00  0.00000000000E+00 -0.65727621946E+03  0.36587009973E+04  0.35991778170E+04 0.  0.
        5    1    3    3  502    0  0.87252606773E+03  0.13626876326E+04  0.47196466997E+03  0.16855242694E+04  0.46999998093E+01 0.  1.
       -5    1    3    3    0  502 -0.87252606773E+03 -0.13626876326E+04 -0.11292408894E+04  0.19731767279E+04  0.46999998093E+01 0. -1.
</event>
<event>
 5   0  0.8063410E-09  0.3598390E+04  0.7818609E-02  0.8090861E-01
       -1   -1    0    0    0  501  0.00000000000E+00  0.00000000000E+00  0.18701850003E+04  0.18701850003E+04  0.50400001928E-02 0.  1.
        1   -1    0    0  501    0  0.00000000000E+00  0.00000000000E+00 -0.17308992773E+04  0.17308992773E+04  0.50400001928E-02 0. -1.
    10030    2    1    2    0    0  0.00000000000E+00  0.00000000000E+00  0.13928572295E+03  0.36010842776E+04  0.35983895650E+04 0.  0.
        2    1    3    3  502    0 -0.14554696334E+04  0.79433851136E+03 -0.62926136166E+03  0.17735093419E+04  0.25500000920E-02 0. -1.
       -2    1    3    3    0  502  0.14554696334E+04 -0.79433851136E+03  0.76854708461E+03  0.18275749357E+04  0.25500000920E-02 0.  1.
</event>
<event>
 5   0  0.8024500E-09  0.3599614E+04  0.7818609E-02  0.8090580E-01
       -1   -1    0    0    0  501  0.00000000000E+00  0.00000000000E+00  0.11273138782E+04  0.11273138782E+04  0.50400001928E-02 0.  1.
        1   -1    0    0  501    0  0.00000000000E+00  0.00000000000E+00 -0.28734724481E+04  0.28734724481E+04  0.50400001928E-02 0. -1.
    10030    2    1    2    0    0  0.00000000000E+00  0.00000000000E+00 -0.17461585699E+04  0.40007863263E+04  0.35996140734E+04 0.  0.
        5    1    3    3  502    0  0.17002410334E+04  0.22581003955E+03 -0.14792760055E+04  0.22649700519E+04  0.46999998093E+01 0.  1.
       -5    1    3    3    0  502 -0.17002410334E+04 -0.22581003955E+03 -0.26688256439E+03  0.17358162744E+04  0.46999998093E+01 0. -1.
</event>
<event>
 5   0  0.8247570E-09  0.3600952E+04  0.7818609E-02  0.8090274E-01
       -1   -1    0    0    0  501  0.00000000000E+00  0.00000000000E+00  0.18643472924E+04  0.18643472924E+04  0.50400001928E-02 0.  1.
        1   -1    0    0  501    0  0.00000000000E+00  0.00000000000E+00 -0.17387929266E+04  0.17387929266E+04  0.50400001928E-02 0. -1.
    10030    2    1    2    0    0  0.00000000000E+00  0.00000000000E+00  0.12555436581E+03  0.36031402190E+04  0.36009520323E+04 0.  0.
        3    1    3    3  502    0  0.96562924250E+03  0.14176440480E+04  0.61042996538E+03  0.18206535183E+04  0.10100000352E+00 0.  1.
       -3    1    3    3    0  502 -0.96562924250E+03 -0.14176440480E+04 -0.48487559957E+03  0.17824867007E+04  0.10100000352E+00 0. -1.
</event>
<event>
 5   0  0.2482243E-08  0.3601274E+04  0.7818609E-02  0.8090200E-01
       -2   -1    0    0    0  501  0.00000000000E+00  0.00000000000E+00  0.14443601566E+04  0.14443601566E+04  0.25500000920E-02 0. -1.
        2   -1    0    0  501    0  0.00000000000E+00  0.00000000000E+00 -0.22447964037E+04  0.22447964037E+04  0.25500000920E-02 0.  1.
    10030    2    1    2    0    0  0.00000000000E+00  0.00000000000E+00 -0.80043624711E+03  0.36891565603E+04  0.36012744884E+04 0.  0.
        5    1    3    3  502    0  0.12465811189E+04  0.10951597342E+04 -0.11165191378E+04  0.19999941012E+04  0.46999998093E+01 0.  1.
       -5    1    3    3    0  502 -0.12465811189E+04 -0.10951597342E+04  0.31608289069E+03  0.16891624591E+04  0.46999998093E+01 0. -1.
</event>
<event>
 5   0  0.8063410E-09  0.3600350E+04  0.7818609E-02  0.8090411E-01
        1   -1    0    0  501    0  0.00000000000E+00  0.00000000000E+00  0.19476502527E+04  0.19476502527E+04  0.50400001928E-02 0.  1.
       -1   -1    0    0    0  501  0.00000000000E+00  0.00000000000E+00 -0.16638669106E+04  0.16638669106E+04  0.50400001928E-02 0. -1.
    10030    2    1    2    0    0  0.00000000000E+00  0.00000000000E+00  0.28378334209E+03  0.36115171634E+04  0.36003504324E+04 0.  0.
        2    1    3    3  502    0  0.12688797877E+04 -0.96182824914E+03 -0.70063083366E+03  0.17395554207E+04  0.25500000920E-02 0.  1.
       -2    1    3    3    0  502 -0.12688797877E+04  0.96182824914E+03  0.98441417575E+03  0.18719617427E+04  0.25500000920E-02 0. -1.
</event>
<event>
 5   0  0.8247570E-09  0.3604934E+04  0.7818609E-02  0.8089362E-01
        1   -1    0    0  501    0  0.00000000000E+00  0.00000000000E+00  0.19900542665E+04  0.19900542665E+04  0.50400001928E-02 0. -1.
       -1   -1    0    0    0  501  0.00000000000E+00  0.00000000000E+00 -0.16325622891E+04  0.16325622891E+04  0.50400001928E-02 0.  1.
    10030    2    1    2    0    0  0.00000000000E+00  0.00000000000E+00  0.35749197745E+03  0.36226165556E+04  0.36049341457E+04 0.  0.
        3    1    3    3  502    0 -0.68378402640E+03 -0.14380741050E+04 -0.66994961772E+03  0.17275561429E+04  0.10100000352E+00 0.  1.
       -3    1    3    3    0  502  0.68378402640E+03  0.14380741050E+04  0.10274415952E+04  0.18950604127E+04  0.10100000352E+00 0. -1.
</event>
<event>
 5   0  0.2608070E-08  0.3601852E+04  0.7818609E-02  0.8090068E-01
        2   -1    0    0  501    0  0.00000000000E+00  0.00000000000E+00  0.18282384304E+04  0.18282384304E+04  0.25500000920E-02 0. -1.
       -2   -1    0    0    0  501  0.00000000000E+00  0.00000000000E+00 -0.17740220242E+04  0.17740220242E+04  0.25500000920E-02 0.  1.
    10030    2    1    2    0    0  0.00000000000E+00  0.00000000000E+00  0.54216406225E+02  0.36022604547E+04  0.36018524351E+04 0.  0.
        3    1    3    3  502    0 -0.12906533311E+04 -0.27584820027E+03  0.12525865469E+04  0.18195744882E+04  0.10100000352E+00 0. -1.
       -3    1    3    3    0  502  0.12906533311E+04  0.27584820027E+03 -0.11983701406E+04  0.17826859664E+04  0.10100000352E+00 0.  1.
</event>
<event>
 5   0  0.2482243E-08  0.3601242E+04  0.7818609E-02  0.8090207E-01
        2   -1    0    0  501    0  0.00000000000E+00  0.00000000000E+00  0.14325762722E+04  0.14325762722E+04  0.25500000920E-02 0. -1.
       -2   -1    0    0    0  501  0.00000000000E+00  0.00000000000E+00 -0.22632201588E+04  0.22632201588E+04  0.25500000920E-02 0.  1.
    10030    2    1    2    0    0  0.00000000000E+00  0.00000000000E+00 -0.83064388662E+03  0.36957964310E+04  0.36012417293E+04 0.  0.
        5    1    3    3  502    0 -0.70832848118E+02 -0.12457484718E+04 -0.17476011883E+04  0.21473328924E+04  0.46999998093E+01 0.  1.
       -5    1    3    3    0  502  0.70832848118E+02  0.12457484718E+04  0.91695730163E+03  0.15484635386E+04  0.46999998093E+01 0. -1.
</event>
<event>
 5   0  0.2494592E-08  0.3596531E+04  0.7818609E-02  0.8091287E-01
       -2   -1    0    0    0  501  0.00000000000E+00  0.00000000000E+00  0.16518557356E+04  0.16518557356E+04  0.25500000920E-02 0.  1.
        2   -1    0    0  501    0  0.00000000000E+00  0.00000000000E+00 -0.19576519067E+04  0.19576519067E+04  0.25500000920E-02 0. -1.
    10030    2    1    2    0    0  0.00000000000E+00  0.00000000000E+00 -0.30579617108E+03  0.36095076424E+04  0.35965308454E+04 0.  0.
        1    1    3    3  502    0 -0.87489451224E+03 -0.68316385226E+03  0.12669876449E+04  0.16844616199E+04  0.50400001928E-02 0.  1.
       -1    1    3    3    0  502  0.87489451224E+03  0.68316385226E+03 -0.15727838160E+04  0.19250460224E+04  0.50400001928E-02 0. -1.
</event>
<event>
 5   0  0.8146881E-09  0.3598943E+04  0.7818609E-02  0.8090734E-01
       -1   -1    0    0    0  501  0.00000000000E+00  0.00000000000E+00  0.15293133434E+04  0.15293133434E+04  0.50400001928E-02 0. -1.
        1   -1    0    0  501    0  0.00000000000E+00  0.00000000000E+00 -0.21173543648E+04  0.21173543648E+04  0.50400001928E-02 0.  1.
    10030    2    1    2    0    0  0.00000000000E+00  0.00000000000E+00 -0.58804102134E+03  0.36466677082E+04  0.35989433354E+04 0.  0.
        4    1    3    3  502    0 -0.10976454689E+04  0.18829628832E+03  0.11381637042E+04  0.15923879232E+04  0.12699999809E+01 0. -1.
       -4    1    3    3    0  502  0.10976454689E+04 -0.18829628832E+03 -0.17262047256E+04  0.20542797850E+04  0.12699999809E+01 0.  1.
</event>
<event>
 5   0  0.8024500E-09  0.3599715E+04  0.7818609E-02  0.8090557E-01
       -1   -1    0    0    0  501  0.00000000000E+00  0.00000000000E+00  0.18615007183E+04  0.18615007183E+04  0.50400001928E-02 0. -1.
        1   -1    0    0  501    0  0.00000000000E+00  0.00000000000E+00 -0.17402556633E+04  0.17402556633E+04  0.50400001928E-02 0.  1.
    10030    2    1    2    0    0  0.00000000000E+00  0.00000000000E+00  0.12124505492E+03  0.36017563816E+04  0.35997150817E+04 0.  0.
        5    1    3    3  502    0  0.49378250573E+03  0.16699190701E+04  0.51586868561E+03  0.18162030322E+04  0.46999998093E+01 0. -1.
       -5    1    3    3    0  502 -0.49378250573E+03 -0.16699190701E+04 -0.39462363069E+03  0.17855533494E+04  0.46999998093E+01 0.  1.
</event>
<event>
 5   0  0.8247570E-09  0.3585585E+04  0.7818609E-02  0.8093802E-01
       -1   -1    0    0    0  501  0.00000000000E+00  0.00000000000E+00  0.15897445421E+04  0.15897445422E+04  0.50400001928E-02 0. -1.
        1   -1    0    0  501    0  0.00000000000E+00  0.00000000000E+00 -0.20217742690E+04  0.20217742690E+04  0.50400001928E-02 0.  1.
    10030    2    1    2    0    0  0.00000000000E+00  0.00000000000E+00 -0.43202972688E+03  0.36115188112E+04  0.35855848112E+04 0.  0.
        3    1    3    3  502    0 -0.17076200284E+04 -0.50524697439E+03 -0.74813360419E+01  0.17808134791E+04  0.10100000352E+00 0. -1.
       -3    1    3    3    0  502  0.17076200284E+04  0.50524697439E+03 -0.42454839084E+03  0.18307053321E+04  0.10100000352E+00 0.  1.
</event>
<event>
 5   0  0.2476968E-08  0.3600422E+04  0.7818609E-02  0.8090395E-01
       -2   -1    0    0    0  501  0.00000000000E+00  0.00000000000E+00  0.12066063753E+04  0.12066063753E+04  0.25500000920E-02 0. -1.
        2   -1    0    0  501    0  0.00000000000E+00  0.00000000000E+00 -0.26858470647E+04  0.26858470647E+04  0.25500000920E-02 0.  1.
    10030    2    1    2    0    0  0.00000000000E+00  0.00000000000E+00 -0.14792406895E+04  0.38924534400E+04  0.36004223037E+04 0.  0.
        2    1    3    3  502    0 -0.16603961262E+04 -0.65341681765E+03 -0.48175490923E+03  0.18482306745E+04  0.25500000920E-02 0. -1.
       -2    1    3    3    0  502  0.16603961262E+04  0.65341681765E+03 -0.99748578022E+03  0.20442227655E+04  0.25500000920E-02 0.  1.
</event>
<event>
 5   0  0.8247570E-09  0.3599484E+04  0.7818609E-02  0.8090610E-01
       -1   -1    0    0    0  501  0.00000000000E+00  0.00000000000E+00  0.13714213598E+04  0.13714213598E+04  0.50400001928E-02 0.  1.
        1   -1    0    0  501    0  0.00000000000E+00  0.00000000000E+00 -0.23618356774E+04  0.23618356774E+04  0.50400001928E-02 0. -1.
    10030    2    1    2    0    0  0.00000000000E+00  0.00000000000E+00 -0.99041431755E+03  0.37332570372E+04  0.35994843500E+04 0.  0.
        3    1    3    3  502    0 -0.14755642123E+04 -0.69160825435E+03 -0.12874406676E+04  0.20768040844E+04  0.10100000352E+00 0.  1.
       -3    1    3    3    0  502  0.14755642123E+04  0.69160825435E+03  0.29702635003E+03  0.16564529528E+04  0.10100000352E+00 0. -1.
</event>
<event>
 5   0  0.8063410E-09  0.3598115E+04  0.7818609E-02  0.8090924E-01
        1   -1    0    0  501    0  0.00000000000E+00  0.00000000000E+00  0.12509640182E+04  0.12509640182E+04  0.50400001928E-02 0.  1.
       -1   -1    0    0    0  501  0.00000000000E+00  0.00000000000E+00 -0.25872904077E+04  0.25872904077E+04  0.50400001928E-02 0. -1.
    10030    2    1    2    0    0  0.00000000000E+00  0.00000000000E+00 -0.13363263895E+04  0.38382544259E+04  0.35981146200E+04 0.  0.
        2    1    3    3  502    0  0.17798903845E+03  0.17804235313E+04 -0.86778666662E+03  0.19886281068E+04  0.25500000920E-02 0. -1.
       -2    1    3    3    0  502 -0.17798903845E+03 -0.17804235313E+04 -0.46853972293E+03  0.18496263191E+04  0.25500000920E-02 0.  1.
</event>
<event>
 5   0  0.8146881E-09  0.3600177E+04  0.7818609E-02  0.8090451E-01
        1   -1    0    0  501    0  0.00000000000E+00  0.00000000000E+00  0.18528264855E+04  0.18528264855E+04  0.50400001928E-02 0. -1.
       -1   -1    0    0    0  501  0.00000000000E+00  0.00000000000E+00 -0.17488512849E+04  0.17488512849E+04  0.50400001928E-02 0.  1.
    10030    2    1    2    0    0  0.00000000000E+00  0.00000000000E+00  0.10397520062E+03  0.36016777703E+04  0.36001766511E+04 0.  0.
        4    1    3    3  502    0  0.38210363097E+03  0.16955957549E+04 -0.41646848853E+03  0.17873152390E+04  0.12699999809E+01 0.  1.
       -4    1    3    3    0  502 -0.38210363097E+03 -0.16955957549E+04  0.52044368915E+03  0.18143625314E+04  0.12699999809E+01 0. -1.
</event>
<event>
 5   0  0.2494592E-08  0.3608303E+04  0.7818609E-02  0.8088592E-01
        2   -1    0    0  501    0  0.00000000000E+00  0.00000000000E+00  0.15117010165E+04  0.15117010165E+04  0.25500000920E-02 0. -1.
       -2   -1    0    0    0  501  0.00000000000E+00  0.00000000000E+00 -0.21531788032E+04  0.21531788032E+04  0.25500000920E-02 0.  1.
    10030    2    1    2    0    0  0.00000000000E+00  0.00000000000E+00 -0.64147778668E+03  0.36648798197E+04  0.36083029726E+04 0.  0.
        1    1    3    3  502    0 -0.76804359058E+03  0.14587570183E+04 -0.10651008211E+04  0.19627283955E+04  0.50400001928E-02 0.  1.
       -1    1    3    3    0  502  0.76804359058E+03 -0.14587570183E+04  0.42362303439E+03  0.17021514242E+04  0.50400001928E-02 0. -1.
</event>
<event>
 5   0  0.2608070E-08  0.3597179E+04  0.7818609E-02  0.8091138E-01
       -2   -1    0    0    0  501  0.00000000000E+00  0.00000000000E+00  0.14243434662E+04  0.14243434662E+04  0.25500000920E-02 0.  1.
        2   -1    0    0  501    0  0.00000000000E+00  0.00000000000E+00 -0.22711684662E+04  0.22711684662E+04  0.25500000920E-02 0. -1.
    10030    2    1    2    0    0  0.00000000000E+00  0.00000000000E+00 -0.84682499998E+03  0.36955119325E+04  0.35971788755E+04 0.  0.
        3    1    3    3  502    0 -0.32469153777E+03  0.33230694773E+03 -0.22084579172E+04  0.22567983704E+04  0.10100000352E+00 0. -1.
       -3    1    3    3    0  502  0.32469153777E+03 -0.33230694773E+03  0.13616329172E+04  0.14387135621E+04  0.10100000352E+00 0.  1.
</event>
<event>
 5   0  0.8063410E-09  0.3599305E+04  0.7818609E-02  0.8090651E-01
        1   -1    0    0  501    0  0.00000000000E+00  0.00000000000E+00  0.29507739031E+04  0.29507739031E+04  0.50400001928E-02 0.  1.
       -1   -1    0    0    0  501  0.00000000000E+00  0.00000000000E+00 -0.10975933594E+04  0.10975933594E+04  0.50400001928E-02 0. -1.
    10030    2    1    2    0    0  0.00000000000E+00  0.00000000000E+00  0.18531805436E+04  0.40483672625E+04  0.35993054003E+04 0.  0.
        2    1    3    3  502    0  0.56261099611E+02  0.16406871043E+04  0.97211345831E+02  0.16445271452E+04  0.25500000920E-02 0.  1.
       -2    1    3    3    0  502 -0.56261099611E+02 -0.16406871043E+04  0.17559691978E+04  0.24038401173E+04  0.25500000920E-02 0. -1.
</event>
<event>
 5   0  0.8024500E-09  0.3602059E+04  0.7818609E-02  0.8090020E-01
        1   -1    0    0  501    0  0.00000000000E+00  0.00000000000E+00  0.19621684458E+04  0.19621684458E+04  0.50400001928E-02 0. -1.
       -1   -1    0    0    0  501  0.00000000000E+00  0.00000000000E+00 -0.16531238119E+04  0.16531238119E+04  0.50400001928E-02 0.  1.
    10030    2    1    2    0    0  0.00000000000E+00  0.00000000000E+00  0.30904463392E+03  0.36152922578E+04  0.36020590672E+04 0.  0.
        5    1    3    3  502    0 -0.72894372353E+03  0.51521864896E+03 -0.14154737660E+04  0.16734387592E+04  0.46999998093E+01 0.  1.
       -5    1    3    3    0  502  0.72894372353E+03 -0.51521864896E+03  0.17245184000E+04  0.19418534986E+04  0.46999998093E+01 0. -1.
</event>
<event>
 5   0  0.2482243E-08  0.3600988E+04  0.7818609E-02  0.8090265E-01
        2   -1    0    0  501    0  0.00000000000E+00  0.00000000000E+00  0.10415643825E+04  0.10415643825E+04  0.25500000920E-02 0. -1.
       -2   -1    0    0    0  501  0.00000000000E+00  0.00000000000E+00 -0.31124139779E+04  0.31124139779E+04  0.25500000920E-02 0.  1.
    10030    2    1    2    0    0  0.00000000000E+00  0.00000000000E+00 -0.20708495954E+04  0.41539783603E+04  0.36009884992E+04 0.  0.
        5    1    3    3  502    0  0.49459139003E+02  0.12181479949E+04 -0.25638135973E+04  0.28389246196E+04  0.46999998093E+01 0.  1.
       -5    1    3    3    0  502 -0.49459139003E+02 -0.12181479949E+04  0.49296400187E+03  0.13150537408E+04  0.46999998093E+01 0. -1.
</event>
<event>
 5   0  0.2494592E-08  0.3600928E+04  0.7818609E-02  0.8090279E-01
       -2   -1    0    0    0  501  0.00000000000E+00  0.00000000000E+00  0.10857460012E+04  0.10857460012E+04  0.25500000920E-02 0. -1.
        2   -1    0    0  501    0  0.00000000000E+00  0.00000000000E+00 -0.29856619703E+04  0.29856619703E+04  0.25500000920E-02 0.  1.
    10030    2    1    2    0    0  0.00000000000E+00  0.00000000000E+00 -0.18999159692E+04  0.40714079715E+04  0.36009279610E+04 0.  0.
        1    1    3    3  502    0  0.15453999760E+04  0.78839748749E+02  0.90732448038E+02  0.15500674723E+04  0.50400001928E-02 0. -1.
       -1    1    3    3    0  502 -0.15453999760E+04 -0.78839748749E+02 -0.19906484172E+04  0.25213404991E+04  0.50400001928E-02 0.  1.
</event>
<event>
 5   0  0.8024500E-09  0.3600079E+04  0.7818609E-02  0.8090474E-01
       -3   -1    0    0    0  501  0.00000000000E+00  0.00000000000E+00  0.19628403072E+04  0.19628403098E+04  0.10100000352E+00 0. -1.
        3   -1    0    0  501    0  0.00000000000E+00  0.00000000000E+00 -0.16507416645E+04  0.16507416676E+04  0.10100000352E+00 0.  1.
    10030    2    1    2    0    0  0.00000000000E+00  0.00000000000E+00  0.31209864267E+03  0.36135819774E+04  0.36000790470E+04 0.  0.
        3    1    3    3  502    0  0.17537607267E+04  0.10252974236E+03 -0.23779110542E+03  0.17727756922E+04  0.10100000352E+00 0.  1.
       -3    1    3    3    0  502 -0.17537607267E+04 -0.10252974236E+03  0.54988974809E+03  0.18408062853E+04  0.10100000352E+00 0. -1.
</event>
<event>
 5   0  0.8146881E-09  0.3594301E+04  0.7818609E-02  0.8091798E-01
        1   -1    0    0  501    0  0.00000000000E+00  0.00000000000E+00  0.29878776823E+04  0.29878776823E+04  0.50400001928E-02 0.  1.
       -1   -1    0    0    0  501  0.00000000000E+00  0.00000000000E+00 -0.10809509434E+04  0.10809509434E+04  0.50400001928E-02 0. -1.
    10030    2    1    2    0    0  0.00000000000E+00  0.00000000000E+00  0.19069267389E+04  0.40688286257E+04  0.35943005992E+04 0.  0.
        4    1    3    3  502    0  0.99466027975E+03  0.65384314790E+02  0.26462525972E+04  0.28277691918E+04  0.12699999809E+01 0.  1.
       -4    1    3    3    0  502 -0.99466027975E+03 -0.65384314790E+02 -0.73932585832E+03  0.12410594339E+04  0.12699999809E+01 0. -1.
</event>
<event>
 5   0  0.2590795E-08  0.3600982E+04  0.7818609E-02  0.8090267E-01
        2   -1    0    0  501    0  0.00000000000E+00  0.00000000000E+00  0.18344443714E+04  0.18344443714E+04  0.25500000920E-02 0. -1.
       -2   -1    0    0    0  501  0.00000000000E+00  0.00000000000E+00 -0.17671660071E+04  0.17671660071E+04  0.25500000920E-02 0.  1.
    10030    2    1    2    0    0  0.00000000000E+00  0.00000000000E+00  0.67278364239E+02  0.36016103785E+04  0.36009819411E+04 0.  0.
        4    1    3    3  502    0  0.17549677534E+04 -0.19731561395E+03 -0.31702271015E+03  0.17942547976E+04  0.12699999809E+01 0.  1.
       -4    1    3    3    0  502 -0.17549677534E+04  0.19731561395E+03  0.38430107438E+03  0.18073555809E+04  0.12699999809E+01 0. -1.
</event>
<event>
 5   0  0.2494592E-08  0.3600541E+04  0.7818609E-02  0.8090368E-01
        2   -1    0    0  501    0  0.00000000000E+00  0.00000000000E+00  0.25537284081E+04  0.25537284081E+04  0.25500000920E-02 0.  1.
       -2   -1    0    0    0  501  0.00000000000E+00  0.00000000000E+00 -0.12691147065E+04  0.12691147065E+04  0.25500000920E-02 0. -1.
    10030    2    1    2    0    0  0.00000000000E+00  0.00000000000E+00  0.12846137015E+04  0.38228431146E+04  0.36005412255E+04 0.  0.
        1    1    3    3  502    0  0.43582036813E+03 -0.89924258477E+03  0.22322258652E+04  0.24456919129E+04  0.50400001928E-02 0.  1.
       -1    1    3    3    0  502 -0.43582036813E+03  0.89924258477E+03 -0.94761216367E+03  0.13771512017E+04  0.50400001928E-02 0. -1.
</event>
<event>
 5   0  0.2482243E-08  0.3600887E+04  0.7818609E-02  0.8090289E-01
       -2   -1    0    0    0  501  0.00000000000E+00  0.00000000000E+00  0.33670272713E+04  0.33670272713E+04  0.25500000920E-02 0. -1.
        2   -1    0    0  501    0  0.00000000000E+00  0.00000000000E+00 -0.96274728740E+03  0.96274728740E+03  0.25500000920E-02 0.  1.
    10030    2    1    2    0    0  0.00000000000E+00  0.00000000000E+00  0.24042799839E+04  0.43297745587E+04  0.36008867642E+04 0.  0.
        5    1    3    3  502    0  0.21381614563E+02  0.59991678333E+03  0.32431437349E+04  0.32982359976E+04  0.46999998093E+01 0. -1.
       -5    1    3    3    0  502 -0.21381614563E+02 -0.59991678333E+03 -0.83886375101E+03  0.10315385611E+04  0.46999998093E+01 0.  1.
</event>
<event>
 5   0  0.2482243E-08  0.3597492E+04  0.7818609E-02  0.8091066E-01
       -2   -1    0    0    0  501  0.00000000000E+00  0.00000000000E+00  0.16968088216E+04  0.16968088216E+04  0.25500000920E-02 0. -1.
        2   -1    0    0  501    0  0.00000000000E+00  0.00000000000E+00 -0.19068070093E+04  0.19068070093E+04  0.25500000920E-02 0.  1.
    10030    2    1    2    0    0  0.00000000000E+00  0.00000000000E+00 -0.20999818771E+03  0.36036158308E+04  0.35974918787E+04 0.  0.
        5    1    3    3  502    0  0.12998811780E+04  0.39858437987E+03 -0.12846728232E+04  0.18705525755E+04  0.46999998093E+01 0.  1.
       -5    1    3    3    0  502 -0.12998811780E+04 -0.39858437987E+03  0.10746746355E+04  0.17330632554E+04  0.46999998093E+01 0. -1.
</event>
<event>
 5   0  0.2482243E-08  0.3600026E+04  0.7818609E-02  0.8090486E-01
       -2   -1    0    0    0  501  0.00000000000E+00  0.00000000000E+00  0.14335114176E+04  0.14335114176E+04  0.25500000920E-02 0. -1.
        2   -1    0    0  501    0  0.00000000000E+00  0.00000000000E+00 -0.22602168505E+04  0.22602168505E+04  0.25500000920E-02 0.  1.
    10030    2    1    2    0    0  0.00000000000E+00  0.00000000000E+00 -0.82670543286E+03  0.36937282682E+04  0.36000259230E+04 0.  0.
        5    1    3    3  502    0  0.68267925386E+02  0.60200973143E+03 -0.21524473855E+04  0.22360966132E+04  0.46999998093E+01 0.  1.
       -5    1    3    3    0  502 -0.68267925386E+02 -0.60200973143E+03  0.13257419527E+04  0.14576316549E+04  0.46999998093E+01 0. -1.
</event>
<event>
 5   0  0.8024500E-09  0.3599643E+04  0.7818609E-02  0.8090573E-01
       -1   -1    0    0    0  501  0.00000000000E+00  0.00000000000E+00  0.22144107046E+04  0.22144107046E+04  0.50400001928E-02 0. -1.
        1   -1    0    0  501    0  0.00000000000E+00  0.00000000000E+00 -0.14628533896E+04  0.14628533896E+04  0.50400001928E-02 0.  1.
    10030    2    1    2    0    0  0.00000000000E+00  0.00000000000E+00  0.75155731503E+03  0.36772640942E+04  0.35996434297E+04 0.  0.
        5    1    3    3  502    0  0.23654976550E+03 -0.63200159104E+03 -0.13287189272E+04  0.14902677210E+04  0.46999998093E+01 0.  1.
       -5    1    3    3    0  502 -0.23654976550E+03  0.63200159104E+03  0.20802762422E+04  0.21869963732E+04  0.46999998093E+01 0. -1.
</event>
<event>
 5   0  0.2494592E-08  0.3599503E+04  0.7818609E-02  0.8090605E-01
       -2   -1    0    0    0  501  0.00000000000E+00  0.00000000000E+00  0.10312406215E+04  0.10312406215E+04  0.25500000920E-02 0. -1.
        2   -1    0    0  501    0  0.00000000000E+00  0.00000000000E+00 -0.31409800506E+04  0.31409800506E+04  0.25500000920E-02 0.  1.
    10030    2    1    2    0    0  0.00000000000E+00  0.00000000000E+00 -0.21097394291E+04  0.41722206721E+04  0.35995034211E+04 0.  0.
        1    1    3    3  502    0 -0.13505536705E+04 -0.11526224640E+04 -0.71382246237E+03  0.19136552116E+04  0.50400001928E-02 0. -1.
       -1    1    3    3    0  502  0.13505536705E+04  0.11526224640E+04 -0.13959169667E+04  0.22585654605E+04  0.50400001928E-02 0.  1.
</event>
<event>
 5   0  0.8063410E-09  0.3600558E+04  0.7818609E-02  0.8090364E-01
       -1   -1    0    0    0  501  0.00000000000E+00  0.00000000000E+00  0.15593057675E+04  0.15593057675E+04  0.50400001928E-02 0.  1.
        1   -1    0    0  501    0  0.00000000000E+00  0.00000000000E+00 -0.20784920069E+04  0.20784920069E+04  0.50400001928E-02 0. -1.
    10030    2    1    2    0    0  0.00000000000E+00  0.00000000000E+00 -0.51918623933E+03  0.36377977744E+04  0.36005580535E+04 0.  0.
        2    1    3    3  502    0 -0.13136772214E+04 -0.10183892233E+04 -0.95822166937E+03  0.19186071041E+04  0.25500000920E-02 0. -1.
       -2    1    3    3    0  502  0.13136772214E+04  0.10183892233E+04  0.43903543004E+03  0.17191906703E+04  0.25500000920E-02 0.  1.
</event>
<event>
 5   0  0.8146881E-09  0.3600092E+04  0.7818609E-02  0.8090471E-01
        1   -1    0    0  501    0  0.00000000000E+00  0.00000000000E+00  0.20174776051E+04  0.20174776051E+04  0.50400001928E-02 0.  1.
       -1   -1    0    0    0  501  0.00000000000E+00  0.00000000000E+00 -0.16060482171E+04  0.16060482171E+04  0.50400001928E-02 0. -1.
    10030    2    1    2    0    0  0.00000000000E+00  0.00000000000E+00  0.41142938803E+03  0.36235258222E+04  0.36000923936E+04 0.  0.
        4    1    3    3  502    0  0.11700193137E+04 -0.19602277584E+03 -0.11569048356E+04  0.16570457249E+04  0.12699999809E+01 0. -1.
       -4    1    3    3    0  502 -0.11700193137E+04  0.19602277584E+03  0.15683342236E+04  0.19664800972E+04  0.12699999809E+01 0.  1.
</event>
<event>
 5   0  0.8247570E-09  0.3600756E+04  0.7818609E-02  0.8090319E-01
       -1   -1    0    0    0  501  0.00000000000E+00  0.00000000000E+00  0.17890751710E+04  0.17890751710E+04  0.50400001928E-02 0.  1.
        1   -1    0    0  501    0  0.00000000000E+00  0.00000000000E+00 -0.18117521423E+04  0.18117521423E+04  0.50400001928E-02 0. -1.
    10030    2    1    2    0    0  0.00000000000E+00  0.00000000000E+00 -0.22676971316E+02  0.36008273132E+04  0.36007559060E+04 0.  0.
        3    1    3    3  502    0 -0.86032474381E+03 -0.40968479399E+03 -0.15389028921E+04  0.18100338164E+04  0.10100000352E+00 0. -1.
       -3    1    3    3    0  502  0.86032474381E+03  0.40968479399E+03  0.15162259208E+04  0.17907934968E+04  0.10100000352E+00 0.  1.
</event>
<event>
 5   0  0.2494592E-08  0.3600170E+04  0.7818609E-02  0.8090453E-01
        2   -1    0    0  501    0  0.00000000000E+00  0.00000000000E+00  0.20113714279E+04  0.20113714279E+04  0.25500000920E-02 0.  1.
       -2   -1    0    0    0  501  0.00000000000E+00  0.00000000000E+00 -0.16109937215E+04  0.16109937215E+04  0.25500000920E-02 0. -1.
    10030    2    1    2    0    0  0.00000000000E+00  0.00000000000E+00  0.40037770648E+03  0.36223651494E+04  0.36001704081E+04 0.  0.
        1    1    3    3  502    0 -0.36141973049E+01  0.92012443590E+03  0.17568741620E+04  0.19832420077E+04  0.50400001928E-02 0.  1.
       -1    1    3    3    0  502  0.36141973049E+01 -0.92012443590E+03 -0.13564964555E+04  0.16391231417E+04  0.50400001928E-02 0. -1.
</event>
<event>
 5   0  0.8146881E-09  0.3599324E+04  0.7818609E-02  0.8090647E-01
       -1   -1    0    0    0  501  0.00000000000E+00  0.00000000000E+00  0.13895472536E+04  0.13895472536E+04  0.50400001928E-02 0. -1.
        1   -1    0    0  501    0  0.00000000000E+00  0.00000000000E+00 -0.23308193177E+04  0.23308193177E+04  0.50400001928E-02 0.  1.
    10030    2    1    2    0    0  0.00000000000E+00  0.00000000000E+00 -0.94127206409E+03  0.37203665713E+04  0.35993241485E+04 0.  0.
        4    1    3    3  502    0 -0.77190228057E+03  0.43342385284E+03  0.11489301959E+04  0.14504246188E+04  0.12699999809E+01 0. -1.
       -4    1    3    3    0  502  0.77190228057E+03 -0.43342385284E+03 -0.20902022600E+04  0.22699419524E+04  0.12699999809E+01 0.  1.
</event>
<event>
 5   0  0.8146881E-09  0.3599771E+04  0.7818609E-02  0.8090544E-01
       -1   -1    0    0    0  501  0.00000000000E+00  0.00000000000E+00  0.20572090145E+04  0.20572090145E+04  0.50400001928E-02 0. -1.
        1   -1    0    0  501    0  0.00000000000E+00  0.00000000000E+00 -0.15747486526E+04  0.15747486526E+04  0.50400001928E-02 0.  1.
    10030    2    1    2    0    0  0.00000000000E+00  0.00000000000E+00  0.48246036194E+03  0.36319576671E+04  0.35997706170E+04 0.  0.
        4    1    3    3  502    0  0.11791672701E+02  0.54430187049E+03  0.19721402535E+04  0.20459086887E+04  0.12699999809E+01 0. -1.
       -4    1    3    3    0  502 -0.11791672701E+02 -0.54430187049E+03 -0.14896798916E+04  0.15860489785E+04  0.12699999809E+01 0.  1.
</event>
<event>
 5   0  0.8024500E-09  0.3599322E+04  0.7818609E-02  0.8090647E-01
       -1   -1    0    0    0  501  0.00000000000E+00  0.00000000000E+00  0.18148814389E+04  0.18148814389E+04  0.50400001928E-02 0. -1.
        1   -1    0    0  501    0  0.00000000000E+00  0.00000000000E+00 -0.17845678543E+04  0.17845678543E+04  0.50400001928E-02 0.  1.
    10030    2    1    2    0    0  0.00000000000E+00  0.00000000000E+00  0.30313584642E+02  0.35994492932E+04  0.35993216445E+04 0.  0.
        5    1    3    3  502    0 -0.10241614935E+04 -0.14643861483E+04  0.22829208044E+03  0.18015196141E+04  0.46999998093E+01 0. -1.
       -5    1    3    3    0  502  0.10241614935E+04  0.14643861483E+04 -0.19797849580E+03  0.17979296791E+04  0.46999998093E+01 0.  1.
</event>
<event>
 5   0  0.2476968E-08  0.3600122E+04  0.7818609E-02  0.8090464E-01
       -2   -1    0    0    0  501  0.00000000000E+00  0.00000000000E+00  0.15405768208E+04  0.15405768208E+04  0.25500000920E-02 0. -1.
        2   -1    0    0  501    0  0.00000000000E+00  0.00000000000E+00 -0.21032514841E+04  0.21032514841E+04  0.25500000920E-02 0.  1.
    10030    2    1    2    0    0  0.00000000000E+00  0.00000000000E+00 -0.56267466324E+03  0.36438283049E+04  0.36001224894E+04 0.  0.
        2    1    3    3  502    0  0.16504372625E+04 -0.70089506040E+03 -0.12122892024E+03  0.17971904446E+04  0.25500000920E-02 0.  1.
       -2    1    3    3    0  502 -0.16504372625E+04  0.70089506040E+03 -0.44144574300E+03  0.18466378603E+04  0.25500000920E-02 0. -1.
</event>
<event>
 5   0  0.2590795E-08  0.3599899E+04  0.7818609E-02  0.8090515E-01
        2   -1    0    0  501    0  0.00000000000E+00  0.00000000000E+00  0.22709399074E+04  0.22709399074E+04  0.25500000920E-02 0.  1.
       -2   -1    0    0    0  501  0.00000000000E+00  0.00000000000E+00 -0.14266417126E+04  0.14266417126E+04  0.25500000920E-02 0. -1.
    10030    2    1    2    0    0  0.00000000000E+00  0.00000000000E+00  0.84429819483E+03  0.36975816200E+04  0.35998986646E+04 0.  0.
        4    1    3    3  502    0  0.14004509621E+04 -0.75623855956E+03 -0.44128982155E+03  0.16516349402E+04  0.12699999809E+01 0. -1.
       -4    1    3    3    0  502 -0.14004509621E+04  0.75623855956E+03  0.12855880164E+04  0.20459466799E+04  0.12699999809E+01 0.  1.
</event>
<event>
 5   0  0.2482243E-08  0.3599908E+04  0.7818609E-02  0.8090513E-01
        2   -1    0    0  501    0  0.00000000000E+00  0.00000000000E+00  0.16171845846E+04  0.16171845846E+04  0.25500000920E-02 0. -1.
       -2   -1    0    0    0  501  0.00000000000E+00  0.00000000000E+00 -0.20033791685E+04  0.20033791685E+04  0.25500000920E-02 0.  1.
    10030    2    1    2    0    0  0.00000000000E+00  0.00000000000E+00 -0.38619458389E+03  0.36205637530E+04  0.35999077256E+04 0.  0.
        5    1    3    3  502    0 -0.97752978218E+03  0.14918501290E+04 -0.43662409213E+03  0.18362581437E+04  0.46999998093E+01 0. -1.
       -5    1    3    3    0  502  0.97752978218E+03 -0.14918501290E+04  0.50429508238E+02  0.17843056094E+04  0.46999998093E+01 0.  1.
</event>
<event>
 5   0  0.2608070E-08  0.3601251E+04  0.7818609E-02  0.8090205E-01
        2   -1    0    0  501    0  0.00000000000E+00  0.00000000000E+00  0.27194939447E+04  0.27194939447E+04  0.25500000920E-02 0.  1.
       -2   -1    0    0    0  501  0.00000000000E+00  0.00000000000E+00 -0.11922260626E+04  0.11922260626E+04  0.25500000920E-02 0. -1.
    10030    2    1    2    0    0  0.00000000000E+00  0.00000000000E+00  0.15272678821E+04  0.39117200072E+04  0.36012506482E+04 0.  0.
        3    1    3    3  502    0 -0.65727061441E+03 -0.11382341177E+03 -0.10530661797E+04  0.12465587907E+04  0.10100000352E+00 0. -1.
       -3    1    3    3    0  502  0.65727061441E+03  0.11382341177E+03  0.25803340618E+04  0.26651612166E+04  0.10100000352E+00 0.  1.
</event>
<event>
 5   0  0.2482243E-08  0.3600439E+04  0.7818609E-02  0.8090391E-01
        2   -1    0    0  501    0  0.00000000000E+00  0.00000000000E+00  0.24891578361E+04  0.24891578361E+04  0.25500000920E-02 0. -1.
       -2   -1    0    0    0  501  0.00000000000E+00  0.00000000000E+00 -0.13019625158E+04  0.13019625158E+04  0.25500000920E-02 0.  1.
    10030    2    1    2    0    0  0.00000000000E+00  0.00000000000E+00  0.11871953203E+04  0.37911203519E+04  0.36004389725E+04 0.  0.
        5    1    3    3  502    0  0.17253366141E+04 -0.35287907576E+01  0.11345870725E+04  0.20649718641E+04  0.46999998093E+01 0.  1.
       -5    1    3    3    0  502 -0.17253366141E+04  0.35287907576E+01  0.52608247775E+02  0.17261484878E+04  0.46999998093E+01 0. -1.
</event>
<event>
 5   0  0.2476968E-08  0.3601426E+04  0.7818609E-02  0.8090165E-01
       -2   -1    0    0    0  501  0.00000000000E+00  0.00000000000E+00  0.14920360355E+04  0.14920360355E+04  0.25500000920E-02 0. -1.
        2   -1    0    0  501    0  0.00000000000E+00  0.00000000000E+00 -0.21732499878E+04  0.21732499878E+04  0.25500000920E-02 0.  1.
    10030    2    1    2    0    0  0.00000000000E+00  0.00000000000E+00 -0.68121395225E+03  0.36652860233E+04  0.36014259931E+04 0.  0.
        2    1    3    3  502    0 -0.84051641961E+03 -0.75201463607E+03  0.10880556627E+04  0.15671180522E+04  0.25500000920E-02 0. -1.
       -2    1    3    3    0  502  0.84051641961E+03  0.75201463607E+03 -0.17692696149E+04  0.20981679711E+04  0.25500000920E-02 0.  1.
</event>
<event>
 5   0  0.8024500E-09  0.3601269E+04  0.7818609E-02  0.8090201E-01
       -1   -1    0    0    0  501  0.00000000000E+00  0.00000000000E+00  0.12160285159E+04  0.12160285159E+04  0.50400001928E-02 0.  1.
        1   -1    0    0  501    0  0.00000000000E+00  0.00000000000E+00 -0.26662892681E+04  0.26662892681E+04  0.50400001928E-02 0. -1.
    10030    2    1    2    0    0  0.00000000000E+00  0.00000000000E+00 -0.14502607523E+04  0.38823177840E+04  0.36012685441E+04 0.  0.
        1    1    3    3  502    0 -0.13444794531E+04 -0.11525181178E+04 -0.10767121151E+04  0.20724941473E+04  0.50400001928E-02 0. -1.
       -1    1    3    3    0  502  0.13444794531E+04  0.11525181178E+04 -0.37354863717E+03  0.18098236367E+04  0.50400001928E-02 0.  1.
</event>
<event>
 5   0  0.8146881E-09  0.3600381E+04  0.7818609E-02  0.8090404E-01
        1   -1    0    0  501    0  0.00000000000E+00  0.00000000000E+00  0.13955850753E+04  0.13955850753E+04  0.50400001928E-02 0.  1.
       -1   -1    0    0    0  501  0.00000000000E+00  0.00000000000E+00 -0.23220989451E+04  0.23220989451E+04  0.50400001928E-02 0. -1.
    10030    2    1    2    0    0  0.00000000000E+00  0.00000000000E+00 -0.92651386977E+03  0.37176840204E+04  0.36003814415E+04 0.  0.
        4    1    3    3  502    0  0.15942983820E+04  0.27236011108E+03  0.35288529628E+03  0.16554446551E+04  0.12699999809E+01 0.  1.
       -4    1    3    3    0  502 -0.15942983820E+04 -0.27236011108E+03 -0.12793991661E+04  0.20622393653E+04  0.12699999809E+01 0. -1.
</event>
<event>
 5   0  0.2590795E-08  0.3599548E+04  0.7818609E-02  0.8090595E-01
        2   -1    0    0  501    0  0.00000000000E+00  0.00000000000E+00  0.15835724364E+04  0.15835724365E+04  0.25500000920E-02 0.  1.
       -2   -1    0    0    0  501  0.00000000000E+00  0.00000000000E+00 -0.20454932535E+04  0.20454932535E+04  0.25500000920E-02 0. -1.
    10030    2    1    2    0    0  0.00000000000E+00  0.00000000000E+00 -0.46192081701E+03  0.36290656899E+04  0.35995481578E+04 0.  0.
        4    1    3    3  502    0 -0.68650570275E+03 -0.14077637819E+04 -0.11248516523E+04  0.19283106073E+04  0.12699999809E+01 0. -1.
       -4    1    3    3    0  502  0.68650570275E+03  0.14077637819E+04  0.66293083532E+03  0.17007550826E+04  0.12699999809E+01 0.  1.
</event>
<event>
 5   0  0.2590795E-08  0.3600390E+04  0.7818609E-02  0.8090402E-01
       -2   -1    0    0    0  501  0.00000000000E+00  0.00000000000E+00  0.21439978993E+04  0.21439978993E+04  0.25500000920E-02 0.  1.
        2   -1    0    0  501    0  0.00000000000E+00  0.00000000000E+00 -0.15115230179E+04  0.15115230179E+04  0.25500000920E-02 0. -1.
    10030    2    1    2    0    0  0.00000000000E+00  0.00000000000E+00  0.63247488145E+03  0.36555209172E+04  0.36003900761E+04 0.  0.
        4    1    3    3  502    0 -0.88199520859E+02  0.44624811715E+03 -0.14522095542E+04  0.15217853790E+04  0.12699999809E+01 0. -1.
       -4    1    3    3    0  502  0.88199520859E+02 -0.44624811715E+03  0.20846844357E+04  0.21337355382E+04  0.12699999809E+01 0.  1.
</event>
<event>
 5   0  0.8063410E-09  0.3600277E+04  0.7818609E-02  0.8090428E-01
       -1   -1    0    0    0  501  0.00000000000E+00  0.00000000000E+00  0.17718546508E+04  0.17718546508E+04  0.50400001928E-02 0.  1.
        1   -1    0    0  501    0  0.00000000000E+00  0.00000000000E+00 -0.18288736548E+04  0.18288736548E+04  0.50400001928E-02 0. -1.
    10030    2    1    2    0    0  0.00000000000E+00  0.00000000000E+00 -0.57019004018E+02  0.36007283056E+04  0.36002768177E+04 0.  0.
        2    1    3    3  502    0 -0.11246281914E+04 -0.10654609989E+04 -0.94541374959E+03  0.18148837062E+04  0.25500000920E-02 0. -1.
       -2    1    3    3    0  502  0.11246281914E+04  0.10654609989E+04  0.88839474557E+03  0.17858445994E+04  0.25500000920E-02 0.  1.
</event>
<event>
 5   0  0.8063410E-09  0.3598809E+04  0.7818609E-02  0.8090765E-01
        1   -1    0    0  501    0  0.00000000000E+00  0.00000000000E+00  0.15000515042E+04  0.15000515042E+04  0.50400001928E-02 0.  1.
       -1   -1    0    0    0  501  0.00000000000E+00  0.00000000000E+00 -0.21584963301E+04  0.21584963301E+04  0.50400001928E-02 0. -1.
    10030    2    1    2    0    0  0.00000000000E+00  0.00000000000E+00 -0.65844482588E+03  0.36585478344E+04  0.35988085067E+04 0.  0.
        2    1    3    3  502    0 -0.50112669298E+02 -0.10246166385E+04  0.11736631570E+04  0.15587930400E+04  0.25500000920E-02 0.  1.
       -2    1    3    3    0  502  0.50112669298E+02  0.10246166385E+04 -0.18321079829E+04  0.20997547944E+04  0.25500000920E-02 0. -1.
</event>
<event>
 5   0  0.2476968E-08  0.3599555E+04  0.7818609E-02  0.8090594E-01
       -2   -1    0    0    0  501  0.00000000000E+00  0.00000000000E+00  0.12055166533E+04  0.12055166533E+04  0.25500000920E-02 0. -1.
        2   -1    0    0  501    0  0.00000000000E+00  0.00000000000E+00 -0.26869791959E+04  0.26869791959E+04  0.25500000920E-02 0.  1.
    10030    2    1    2    0    0  0.00000000000E+00  0.00000000000E+00 -0.14814625426E+04  0.38924958492E+04  0.35995545101E+04 0.  0.
        2    1    3    3  502    0  0.15893721160E+04 -0.79984081420E+03 -0.10336025933E+04  0.20577131413E+04  0.25500000920E-02 0. -1.
       -2    1    3    3    0  502 -0.15893721160E+04  0.79984081420E+03 -0.44785994923E+03  0.18347827079E+04  0.25500000920E-02 0.  1.
</event>
<event>
 5   0  0.2608070E-08  0.3614148E+04  0.7818609E-02  0.8087259E-01
        2   -1    0    0  501    0  0.00000000000E+00  0.00000000000E+00  0.15864023255E+04  0.15864023255E+04  0.25500000920E-02 0.  1.
       -2   -1    0    0    0  501  0.00000000000E+00  0.00000000000E+00 -0.20584419880E+04  0.20584419880E+04  0.25500000920E-02 0. -1.
    10030    2    1    2    0    0  0.00000000000E+00  0.00000000000E+00 -0.47203966256E+03  0.36448443135E+04  0.36141483958E+04 0.  0.
        3    1    3    3  502    0  0.11814961246E+04 -0.10410301225E+04 -0.11300252700E+04  0.19382037895E+04  0.10100000352E+00 0. -1.
       -3    1    3    3    0  502 -0.11814961246E+04  0.10410301225E+04  0.65798560748E+03  0.17066405240E+04  0.10100000352E+00 0.  1.
</event>
<event>
 5   0  0.2476968E-08  0.3609684E+04  0.7818609E-02  0.8088277E-01
        2   -1    0    0  501    0  0.00000000000E+00  0.00000000000E+00  0.26684644162E+04  0.26684644162E+04  0.25500000920E-02 0. -1.
       -2   -1    0    0    0  501  0.00000000000E+00  0.00000000000E+00 -0.12207228063E+04  0.12207228063E+04  0.25500000920E-02 0.  1.
    10030    2    1    2    0    0  0.00000000000E+00  0.00000000000E+00  0.14477416099E+04  0.38891872225E+04  0.36096844021E+04 0.  0.
        2    1    3    3  502    0 -0.41719157120E+03 -0.67681068367E+03  0.24696201491E+04  0.25944450638E+04  0.25500000920E-02 0. -1.
       -2    1    3    3    0  502  0.41719157120E+03  0.67681068367E+03 -0.10218785392E+04  0.12947421587E+04  0.25500000920E-02 0.  1.
</event>
<event>
 5   0  0.2494592E-08  0.3599991E+04  0.7818609E-02  0.8090494E-01
       -2   -1    0    0    0  501  0.00000000000E+00  0.00000000000E+00  0.12960520460E+04  0.12960520460E+04  0.25500000920E-02 0.  1.
        2   -1    0    0  501    0  0.00000000000E+00  0.00000000000E+00 -0.24998865813E+04  0.24998865813E+04  0.25500000920E-02 0. -1.
    10030    2    1    2    0    0  0.00000000000E+00  0.00000000000E+00 -0.12038345353E+04  0.37959386273E+04  0.35999906213E+04 0.  0.
        1    1    3    3  502    0 -0.10634406415E+04  0.13171260720E+04  0.43145857775E+02  0.16933955984E+04  0.50400001928E-02 0.  1.
       -1    1    3    3    0  502  0.10634406415E+04 -0.13171260720E+04 -0.12469803931E+04  0.21025430289E+04  0.50400001928E-02 0. -1.
</event>
<event>
 5   0  0.8024500E-09  0.3599825E+04  0.7818609E-02  0.8090532E-01
       -1   -1    0    0    0  501  0.00000000000E+00  0.00000000000E+00  0.36062732208E+04  0.36062732208E+04  0.50400001928E-02 0.  1.
        1   -1    0    0  501    0  0.00000000000E+00  0.00000000000E+00 -0.89834704307E+03  0.89834704308E+03  0.50400001928E-02 0. -1.
    10030    2    1    2    0    0  0.00000000000E+00  0.00000000000E+00  0.27079261777E+04  0.45046202639E+04  0.35998249315E+04 0.  0.
        5    1    3    3  502    0  0.17335742539E+04 -0.14347004282E+03  0.77536086993E+03  0.19044867854E+04  0.46999998093E+01 0. -1.
       -5    1    3    3    0  502 -0.17335742539E+04  0.14347004282E+03  0.19325653078E+04  0.26001334785E+04  0.46999998093E+01 0.  1.
</event>
<event>
 5   0  0.2482243E-08  0.3599582E+04  0.7818609E-02  0.8090587E-01
        2   -1    0    0  501    0  0.00000000000E+00  0.00000000000E+00  0.19420151459E+04  0.19420151459E+04  0.25500000920E-02 0. -1.
       -2   -1    0    0    0  501  0.00000000000E+00  0.00000000000E+00 -0.16679828237E+04  0.16679828237E+04  0.25500000920E-02 0.  1.
    10030    2    1    2    0    0  0.00000000000E+00  0.00000000000E+00  0.27403232218E+03  0.36099979696E+04  0.35995821461E+04 0.  0.
        5    1    3    3  502    0 -0.13293802877E+03  0.11392205730E+04  0.15280154340E+04  0.19105887286E+04  0.46999998093E+01 0. -1.
       -5    1    3    3    0  502  0.13293802877E+03 -0.11392205730E+04 -0.12539831118E+04  0.16994092409E+04  0.46999998093E+01 0.  1.
</event>
<event>
 5   0  0.2590795E-08  0.3600970E+04  0.7818609E-02  0.8090269E-01
       -2   -1    0    0    0  501  0.00000000000E+00  0.00000000000E+00  0.17920303931E+04  0.17920303931E+04  0.25500000920E-02 0. -1.
        2   -1    0    0  501    0  0.00000000000E+00  0.00000000000E+00 -0.18089799113E+04  0.18089799113E+04  0.25500000920E-02 0.  1.
    10030    2    1    2    0    0  0.00000000000E+00  0.00000000000E+00 -0.16949518253E+02  0.36010103044E+04  0.36009704145E+04 0.  0.
        4    1    3    3  502    0 -0.12063935265E+04  0.13169606740E+04  0.21950717528E+03  0.17994320689E+04  0.12699999809E+01 0. -1.
       -4    1    3    3    0  502  0.12063935265E+04 -0.13169606740E+04 -0.23645669353E+03  0.18015782355E+04  0.12699999809E+01 0.  1.
</event>
<event>
 5   0  0.2476968E-08  0.3597965E+04  0.7818609E-02  0.8090958E-01
        2   -1    0    0  501    0  0.00000000000E+00  0.00000000000E+00  0.16666982802E+04  0.16666982802E+04  0.25500000920E-02 0. -1.
       -2   -1    0    0    0  501  0.00000000000E+00  0.00000000000E+00 -0.19417664796E+04  0.19417664796E+04  0.25500000920E-02 0.  1.
    10030    2    1    2    0    0  0.00000000000E+00  0.00000000000E+00 -0.27506819935E+03  0.36084647598E+04  0.35979654540E+04 0.  0.
        2    1    3    3  502    0  0.15184858972E+04  0.65718959108E+03 -0.84574008154E+03  0.18582179270E+04  0.25500000920E-02 0.  1.
       -2    1    3    3    0  502 -0.15184858972E+04 -0.65718959108E+03  0.57067188219E+03  0.17502468328E+04  0.25500000920E-02 0. -1.
</event>
<event>
 5   0  0.8024500E-09  0.3599603E+04  0.7818609E-02  0.8090583E-01
        1   -1    0    0  501    0  0.00000000000E+00  0.00000000000E+00  0.16889660964E+04  0.16889660964E+04  0.50400001928E-02 0. -1.
       -1   -1    0    0    0  501  0.00000000000E+00  0.00000000000E+00 -0.19179101153E+04  0.19179101153E+04  0.50400001928E-02 0.  1.
    10030    2    1    2    0    0  0.00000000000E+00  0.00000000000E+00 -0.22894401893E+03  0.36068762117E+04  0.35996028451E+04 0.  0.
        5    1    3    3  502    0 -0.43774914380E+03 -0.79367898964E+03 -0.16725133317E+04  0.19023337211E+04  0.46999998093E+01 0.  1.
       -5    1    3    3    0  502  0.43774914380E+03  0.79367898964E+03  0.14435693128E+04  0.17045424906E+04  0.46999998093E+01 0. -1.
</event>
<event>
 5   0  0.8024500E-09  0.3599374E+04  0.7818609E-02  0.8090635E-01
        1   -1    0    0  501    0  0.00000000000E+00  0.00000000000E+00  0.17821061998E+04  0.17821061998E+04  0.50400001928E-02 0. -1.
       -1   -1    0    0    0  501  0.00000000000E+00  0.00000000000E+00 -0.18174415006E+04  0.18174415006E+04  0.50400001928E-02 0.  1.
    10030    2    1    2    0    0  0.00000000000E+00  0.00000000000E+00 -0.35335300798E+02  0.35995477004E+04  0.35993742600E+04 0.  0.
        5    1    3    3  502    0 -0.12908915224E+04 -0.74085844293E+03 -0.10294374701E+04  0.18097059844E+04  0.46999998093E+01 0.  1.
       -5    1    3    3    0  502  0.12908915224E+04  0.74085844293E+03  0.99410216935E+03  0.17898417160E+04  0.46999998093E+01 0. -1.
</event>
<event>
 5   0  0.2494592E-08  0.3600575E+04  0.7818609E-02  0.8090360E-01
       -2   -1    0    0    0  501  0.00000000000E+00  0.00000000000E+00  0.13264986709E+04  0.13264986709E+04  0.25500000920E-02 0.  1.
        2   -1    0    0  501    0  0.00000000000E+00  0.00000000000E+00 -0.24432999964E+04  0.24432999964E+04  0.25500000920E-02 0. -1.
    10030    2    1    2    0    0  0.00000000000E+00  0.00000000000E+00 -0.11168013255E+04  0.37697986673E+04  0.36005745085E+04 0.  0.
        1    1    3    3  502    0 -0.17164174527E+04  0.54437440897E+02  0.73490114535E+01  0.17172962222E+04  0.50400001928E-02 0.  1.
       -1    1    3    3    0  502  0.17164174527E+04 -0.54437440897E+02 -0.11241503369E+04  0.20525024451E+04  0.50400001928E-02 0. -1.
</event>
<event>
 5   0  0.2482243E-08  0.3597346E+04  0.7818609E-02  0.8091100E-01
        2   -1    0    0  501    0  0.00000000000E+00  0.00000000000E+00  0.16208907818E+04  0.16208907818E+04  0.25500000920E-02 0.  1.
       -2   -1    0    0    0  501  0.00000000000E+00  0.00000000000E+00 -0.19959547323E+04  0.19959547323E+04  0.25500000920E-02 0. -1.
    10030    2    1    2    0    0  0.00000000000E+00  0.00000000000E+00 -0.37506395053E+03  0.36168455141E+04  0.35973460365E+04 0.  0.
        5    1    3    3  502    0  0.84939250280E+03  0.50691874158E+03  0.13228654279E+04  0.16517957696E+04  0.46999998093E+01 0.  1.
       -5    1    3    3    0  502 -0.84939250280E+03 -0.50691874158E+03 -0.16979293784E+04  0.19650497445E+04  0.46999998093E+01 0. -1.
</event>
<event>
 5   0  0.2482243E-08  0.3601060E+04  0.7818609E-02  0.8090249E-01
        2   -1    0    0  501    0  0.00000000000E+00  0.00000000000E+00  0.16337950993E+04  0.16337950993E+04  0.25500000920E-02 0.  1.
       -2   -1    0    0    0  501  0.00000000000E+00  0.00000000000E+00 -0.19842809691E+04  0.19842809691E+04  0.25500000920E-02 0. -1.
    10030    2    1    2    0    0  0.00000000000E+00  0.00000000000E+00 -0.35048586977E+03  0.36180760685E+04  0.36010601345E+04 0.  0.
        5    1    3    3  502    0 -0.58742764547E+03 -0.82938427210E+03  0.13180292551E+04  0.16643835846E+04  0.46999998093E+01 0.  1.
       -5    1    3    3    0  502  0.58742764547E+03  0.82938427210E+03 -0.16685151249E+04  0.19536924838E+04  0.46999998093E+01 0. -1.
</event>
<event>
 5   0  0.8146881E-09  0.3603069E+04  0.7818609E-02  0.8089789E-01
        1   -1    0    0  501    0  0.00000000000E+00  0.00000000000E+00  0.20105415005E+04  0.20105415005E+04  0.50400001928E-02 0. -1.
       -1   -1    0    0    0  501  0.00000000000E+00  0.00000000000E+00 -0.16142551566E+04  0.16142551566E+04  0.50400001928E-02 0.  1.
    10030    2    1    2    0    0  0.00000000000E+00  0.00000000000E+00  0.39628634392E+03  0.36247966571E+04  0.36030692387E+04 0.  0.
        4    1    3    3  502    0  0.42867412657E+03 -0.27258670413E+03 -0.15407068135E+04  0.16222959398E+04  0.12699999809E+01 0.  1.
       -4    1    3    3    0  502 -0.42867412657E+03  0.27258670413E+03  0.19369931574E+04  0.20025007173E+04  0.12699999809E+01 0. -1.
</event>
<event>
 5   0  0.8146881E-09  0.3599707E+04  0.7818609E-02  0.8090559E-01
       -1   -1    0    0    0  501  0.00000000000E+00  0.00000000000E+00  0.14587795749E+04  0.14587795749E+04  0.50400001928E-02 0.  1.
        1   -1    0    0  501    0  0.00000000000E+00  0.00000000000E+00 -0.22206734614E+04  0.22206734614E+04  0.50400001928E-02 0. -1.
    10030    2    1    2    0    0  0.00000000000E+00  0.00000000000E+00 -0.76189388656E+03  0.36794530363E+04  0.35997072592E+04 0.  0.
        4    1    3    3  502    0  0.10360283613E+04 -0.78033306775E+03 -0.16564686718E+04  0.21038451786E+04  0.12699999809E+01 0. -1.
       -4    1    3    3    0  502 -0.10360283613E+04  0.78033306775E+03  0.89457478520E+03  0.15756078577E+04  0.12699999809E+01 0.  1.
</event>
<event>
 5   0  0.8063410E-09  0.3591852E+04  0.7818609E-02  0.8092361E-01
       -1   -1    0    0    0  501  0.00000000000E+00  0.00000000000E+00  0.13145582699E+04  0.13145582699E+04  0.50400001928E-02 0.  1.
        1   -1    0    0  501    0  0.00000000000E+00  0.00000000000E+00 -0.24535623715E+04  0.24535623715E+04  0.50400001928E-02 0. -1.
    10030    2    1    2    0    0  0.00000000000E+00  0.00000000000E+00 -0.11390041017E+04  0.37681206414E+04  0.35918522832E+04 0.  0.
        2    1    3    3  502    0 -0.13383251591E+04 -0.23610934142E+03 -0.18012106132E+04  0.22563735341E+04  0.25500000920E-02 0. -1.
       -2    1    3    3    0  502  0.13383251591E+04  0.23610934142E+03  0.66220651149E+03  0.15117471073E+04  0.25500000920E-02 0.  1.
</event>
<event>
 5   0  0.2494592E-08  0.3599241E+04  0.7818609E-02  0.8090666E-01
        2   -1    0    0  501    0  0.00000000000E+00  0.00000000000E+00  0.19129841379E+04  0.19129841379E+04  0.25500000920E-02 0.  1.
       -2   -1    0    0    0  501  0.00000000000E+00  0.00000000000E+00 -0.16929749505E+04  0.16929749505E+04  0.25500000920E-02 0. -1.
    10030    2    1    2    0    0  0.00000000000E+00  0.00000000000E+00  0.22000918736E+03  0.36059590884E+04  0.35992411568E+04 0.  0.
        1    1    3    3  502    0  0.15985743512E+04 -0.21018218595E+03 -0.69087328682E+03  0.17541158474E+04  0.50400001928E-02 0. -1.
       -1    1    3    3    0  502 -0.15985743512E+04  0.21018218595E+03  0.91088247418E+03  0.18518432410E+04  0.50400001928E-02 0.  1.
</event>
<event>
 5   0  0.2482243E-08  0.3601014E+04  0.7818609E-02  0.8090259E-01
       -2   -1    0    0    0  501  0.00000000000E+00  0.00000000000E+00  0.15675784243E+04  0.15675784243E+04  0.25500000920E-02 0. -1.
        2   -1    0    0  501    0  0.00000000000E+00  0.00000000000E+00 -0.20680467520E+04  0.20680467520E+04  0.25500000920E-02 0.  1.
    10030    2    1    2    0    0  0.00000000000E+00  0.00000000000E+00 -0.50046832765E+03  0.36356251763E+04  0.36010140065E+04 0.  0.
        5    1    3    3  502    0  0.68468073299E+03 -0.15137149156E+04 -0.95093860976E+03  0.19142692813E+04  0.46999998093E+01 0. -1.
       -5    1    3    3    0  502 -0.68468073299E+03  0.15137149156E+04  0.45047028211E+03  0.17213558949E+04  0.46999998093E+01 0.  1.
</event>
<event>
 5   0  0.2608070E-08  0.3599263E+04  0.7818609E-02  0.8090660E-01
       -2   -1    0    0    0  501  0.00000000000E+00  0.00000000000E+00  0.12711683115E+04  0.12711683115E+04  0.25500000920E-02 0. -1.
        2   -1    0    0  501    0  0.00000000000E+00  0.00000000000E+00 -0.25477931813E+04  0.25477931813E+04  0.25500000920E-02 0.  1.
    10030    2    1    2    0    0  0.00000000000E+00  0.00000000000E+00 -0.12766248698E+04  0.38189614929E+04  0.35992632338E+04 0.  0.
        3    1    3    3  502    0 -0.26118626798E+03 -0.12177807763E+04 -0.20166295251E+04  0.23702326757E+04  0.10100000352E+00 0.  1.
       -3    1    3    3    0  502  0.26118626798E+03  0.12177807763E+04  0.74000465526E+03  0.14487288171E+04  0.10100000352E+00 0. -1.
</event>
<event>
 5   0  0.8024500E-09  0.3599601E+04  0.7818609E-02  0.8090583E-01
        1   -1    0    0  501    0  0.00000000000E+00  0.00000000000E+00  0.25509741021E+04  0.25509741021E+04  0.50400001928E-02 0. -1.
       -1   -1    0    0    0  501  0.00000000000E+00  0.00000000000E+00 -0.12698217380E+04  0.12698217380E+04  0.50400001928E-02 0.  1.
    10030    2    1    2    0    0  0.00000000000E+00  0.00000000000E+00  0.12811523640E+04  0.38207958401E+04  0.35996012934E+04 0.  0.
        1    1    3    3  502    0  0.32939901232E+03 -0.48592529375E+03  0.24464934803E+04  0.25159406689E+04  0.50400001928E-02 0. -1.
       -1    1    3    3    0  502 -0.32939901232E+03  0.48592529375E+03 -0.11653411163E+04  0.13048551712E+04  0.50400001928E-02 0.  1.
</event>
<event>
 5   0  0.2494592E-08  0.3599518E+04  0.7818609E-02  0.8090602E-01
        2   -1    0    0  501    0  0.00000000000E+00  0.00000000000E+00  0.17145436310E+04  0.17145436310E+04  0.25500000920E-02 0.  1.
       -2   -1    0    0    0  501  0.00000000000E+00  0.00000000000E+00 -0.18892093421E+04  0.18892093421E+04  0.25500000920E-02 0. -1.
    10030    2    1    2    0    0  0.00000000000E+00  0.00000000000E+00 -0.17466571113E+03  0.36037529731E+04  0.35995176594E+04 0.  0.
        1    1    3    3  502    0  0.65421420330E+02  0.60443552615E+03  0.16086230028E+04  0.17196773630E+04  0.50400001928E-02 0.  1.
       -1    1    3    3    0  502 -0.65421420330E+02 -0.60443552615E+03 -0.17832887139E+04  0.18840756102E+04  0.50400001928E-02 0. -1.
</event>
<event>
 5   0  0.8146881E-09  0.3599304E+04  0.7818609E-02  0.8090651E-01
       -1   -1    0    0    0  501  0.00000000000E+00  0.00000000000E+00  0.21389318970E+04  0.21389318970E+04  0.50400001928E-02 0.  1.
        1   -1    0    0  501    0  0.00000000000E+00  0.00000000000E+00 -0.15141888202E+04  0.15141888202E+04  0.50400001928E-02 0. -1.
    10030    2    1    2    0    0  0.00000000000E+00  0.00000000000E+00  0.62474307676E+03  0.36531207172E+04  0.35993036913E+04 0.  0.
        4    1    3    3  502    0  0.11766117068E+04 -0.85241552453E+03  0.13901903345E+04  0.20108849082E+04  0.12699999809E+01 0.  1.
       -4    1    3    3    0  502 -0.11766117068E+04  0.85241552453E+03 -0.76544725772E+03  0.16422358090E+04  0.12699999809E+01 0. -1.
</event>
<event>
 5   0  0.2608070E-08  0.3600833E+04  0.7818609E-02  0.8090301E-01
       -2   -1    0    0    0  501  0.00000000000E+00  0.00000000000E+00  0.13613594145E+04  0.13613594145E+04  0.25500000920E-02 0. -1.
        2   -1    0    0  501    0  0.00000000000E+00  0.00000000000E+00 -0.23810755423E+04  0.23810755423E+04  0.25500000920E-02 0.  1.
    10030    2    1    2    0    0  0.00000000000E+00  0.00000000000E+00 -0.10197161279E+04  0.37424349568E+04  0.36008330181E+04 0.  0.
        3    1    3    3  502    0 -0.38264928308E+03 -0.67727064257E+03 -0.21974039067E+04  0.23310298017E+04  0.10100000352E+00 0.  1.
       -3    1    3    3    0  502  0.38264928308E+03  0.67727064257E+03  0.11776877788E+04  0.14114051551E+04  0.10100000352E+00 0. -1.
</event>
<event>
 5   0  0.2590795E-08  0.3592289E+04  0.7818609E-02  0.8092260E-01
       -2   -1    0    0    0  501  0.00000000000E+00  0.00000000000E+00  0.17086913348E+04  0.17086913348E+04  0.25500000920E-02 0.  1.
        2   -1    0    0  501    0  0.00000000000E+00  0.00000000000E+00 -0.18880735902E+04  0.18880735902E+04  0.25500000920E-02 0. -1.
    10030    2    1    2    0    0  0.00000000000E+00  0.00000000000E+00 -0.17938225538E+03  0.35967649249E+04  0.35922889544E+04 0.  0.
        4    1    3    3  502    0  0.71370546819E+03  0.39663651000E+03  0.15121264070E+04  0.17184946610E+04  0.12699999809E+01 0.  1.
       -4    1    3    3    0  502 -0.71370546819E+03 -0.39663651000E+03 -0.16915086624E+04  0.18782702639E+04  0.12699999809E+01 0. -1.
</event>
<event>
 5   0  0.8024500E-09  0.3598685E+04  0.7818609E-02  0.8090793E-01
       -1   -1    0    0    0  501  0.00000000000E+00  0.00000000000E+00  0.16082083228E+04  0.16082083228E+04  0.50400001928E-02 0. -1.
        1   -1    0    0  501    0  0.00000000000E+00  0.00000000000E+00 -0.20131930042E+04  0.20131930042E+04  0.50400001928E-02 0.  1.
    10030    2    1    2    0    0  0.00000000000E+00  0.00000000000E+00 -0.40498468140E+03  0.36214013270E+04  0.35986851737E+04 0.  0.
        1    1    3    3  502    0  0.13052475799E+04 -0.52343401051E+03  0.92708120608E+03  0.16843794023E+04  0.50400001928E-02 0. -1.
       -1    1    3    3    0  502 -0.13052475799E+04  0.52343401051E+03 -0.13320658875E+04  0.19370219247E+04  0.50400001928E-02 0.  1.
</event>
<event>
 5   0  0.2494592E-08  0.3598820E+04  0.7818609E-02  0.8090762E-01
       -2   -1    0    0    0  501  0.00000000000E+00  0.00000000000E+00  0.10377378698E+04  0.10377378698E+04  0.25500000920E-02 0.  1.
        2   -1    0    0  501    0  0.00000000000E+00  0.00000000000E+00 -0.31201287710E+04  0.31201287710E+04  0.25500000920E-02 0. -1.
    10030    2    1    2    0    0  0.00000000000E+00  0.00000000000E+00 -0.20823909013E+04  0.41578666408E+04  0.35988196867E+04 0.  0.
        1    1    3    3  502    0 -0.50276027893E+03 -0.12370100066E+04  0.35237570608E+03  0.13809888822E+04  0.50400001928E-02 0.  1.
       -1    1    3    3    0  502  0.50276027893E+03  0.12370100066E+04 -0.24347666073E+04  0.27768777587E+04  0.50400001928E-02 0. -1.
</event>
<event>
 5   0  0.8024500E-09  0.3598594E+04  0.7818609E-02  0.8090814E-01
        1   -1    0    0  501    0  0.00000000000E+00  0.00000000000E+00  0.20940674933E+04  0.20940674933E+04  0.50400001928E-02 0.  1.
       -1   -1    0    0    0  501  0.00000000000E+00  0.00000000000E+00 -0.15460196591E+04  0.15460196592E+04  0.50400001928E-02 0. -1.
    10030    2    1    2    0    0  0.00000000000E+00  0.00000000000E+00  0.54804783416E+03  0.36400871525E+04  0.35985938989E+04 0.  0.
        5    1    3    3  502    0  0.88423415134E+02  0.50303557263E+02  0.20911498987E+04  0.20936282232E+04  0.46999998093E+01 0.  1.
       -5    1    3    3    0  502 -0.88423415134E+02 -0.50303557263E+02 -0.15431020646E+04  0.15464589292E+04  0.46999998093E+01 0. -1.
</event>
<event>
 5   0  0.8024500E-09  0.3599211E+04  0.7818609E-02  0.8090672E-01
       -1   -1    0    0    0  501  0.00000000000E+00  0.00000000000E+00  0.14935824207E+04  0.14935824207E+04  0.50400001928E-02 0.  1.
        1   -1    0    0  501    0  0.00000000000E+00  0.00000000000E+00 -0.21683304439E+04  0.21683304439E+04  0.50400001928E-02 0. -1.
    10030    2    1    2    0    0  0.00000000000E+00  0.00000000000E+00 -0.67474802320E+03  0.36619128645E+04  0.35992111542E+04 0.  0.
        5    1    3    3  502    0  0.14999051335E+04  0.97154985558E+03 -0.55304232632E+03  0.18706957091E+04  0.46999998093E+01 0.  1.
       -5    1    3    3    0  502 -0.14999051335E+04 -0.97154985558E+03 -0.12170569688E+03  0.17912171554E+04  0.46999998093E+01 0. -1.
</event>
<event>
 5   0  0.8024500E-09  0.3601504E+04  0.7818609E-02  0.8090147E-01
        1   -1    0    0  501    0  0.00000000000E+00  0.00000000000E+00  0.20698817191E+04  0.20698817191E+04  0.50400001928E-02 0.  1.
       -1   -1    0    0    0  501  0.00000000000E+00  0.00000000000E+00 -0.15666153421E+04  0.15666153421E+04  0.50400001928E-02 0. -1.
    10030    2    1    2    0    0  0.00000000000E+00  0.00000000000E+00  0.50326637700E+03  0.36364970612E+04  0.36015043843E+04 0.  0.
        1    1    3    3  502    0 -0.52139956068E+03 -0.10281753279E+04 -0.11451755828E+04  0.16249397288E+04  0.50400001928E-02 0. -1.
       -1    1    3    3    0  502  0.52139956068E+03  0.10281753279E+04  0.16484419598E+04  0.20115573324E+04  0.50400001928E-02 0.  1.
</event>
<event>
 5   0  0.8247570E-09  0.3600134E+04  0.7818609E-02  0.8090461E-01
        1   -1    0    0  501    0  0.00000000000E+00  0.00000000000E+00  0.94983420908E+03  0.94983420910E+03  0.50400001928E-02 0.  1.
       -1   -1    0    0    0  501  0.00000000000E+00  0.00000000000E+00 -0.34113748467E+04  0.34113748467E+04  0.50400001928E-02 0. -1.
    10030    2    1    2    0    0  0.00000000000E+00  0.00000000000E+00 -0.24615406376E+04  0.43612090558E+04  0.36001336250E+04 0.  0.
        3    1    3    3  502    0  0.14697807637E+03 -0.13269244043E+04 -0.26934646588E+04  0.30061741147E+04  0.10100000352E+00 0. -1.
       -3    1    3    3    0  502 -0.14697807637E+03  0.13269244043E+04  0.23192402117E+03  0.13550349411E+04  0.10100000352E+00 0.  1.
</event>
<event>
 5   0  0.8247570E-09  0.3600652E+04  0.7818609E-02  0.8090342E-01
       -1   -1    0    0    0  501  0.00000000000E+00  0.00000000000E+00  0.13168217246E+04  0.13168217246E+04  0.50400001928E-02 0. -1.
        1   -1    0    0  501    0  0.00000000000E+00  0.00000000000E+00 -0.24613615954E+04  0.24613615954E+04  0.50400001928E-02 0.  1.
    10030    2    1    2    0    0  0.00000000000E+00  0.00000000000E+00 -0.11445398707E+04  0.37781833200E+04  0.36006523970E+04 0.  0.
        3    1    3    3  502    0 -0.38329213632E+03 -0.42747345331E+03  0.12181805472E+04  0.13467034829E+04  0.10100000352E+00 0. -1.
       -3    1    3    3    0  502  0.38329213632E+03  0.42747345331E+03 -0.23627204179E+04  0.24314798371E+04  0.10100000352E+00 0.  1.
</event>
<event>
 5   0  0.8146881E-09  0.3598030E+04  0.7818609E-02  0.8090943E-01
        1   -1    0    0  501    0  0.00000000000E+00  0.00000000000E+00  0.10126438215E+04  0.10126438215E+04  0.50400001928E-02 0. -1.
       -1   -1    0    0    0  501  0.00000000000E+00  0.00000000000E+00 -0.31960442608E+04  0.31960442608E+04  0.50400001928E-02 0.  1.
    10030    2    1    2    0    0  0.00000000000E+00  0.00000000000E+00 -0.21834004394E+04  0.42086880823E+04  0.35980297241E+04 0.  0.
        4    1    3    3  502    0 -0.99984173698E+03  0.13499124715E+04 -0.33860960196E+03  0.17136526063E+04  0.12699999809E+01 0. -1.
       -4    1    3    3    0  502  0.99984173698E+03 -0.13499124715E+04 -0.18447908374E+04  0.24950354760E+04  0.12699999809E+01 0.  1.
</event>
<event>
 5   0  0.8247570E-09  0.3599860E+04  0.7818609E-02  0.8090524E-01
       -1   -1    0    0    0  501  0.00000000000E+00  0.00000000000E+00  0.12206094740E+04  0.12206094740E+04  0.50400001928E-02 0. -1.
        1   -1    0    0  501    0  0.00000000000E+00  0.00000000000E+00 -0.26542059295E+04  0.26542059295E+04  0.50400001928E-02 0.  1.
    10030    2    1    2    0    0  0.00000000000E+00  0.00000000000E+00 -0.14335964555E+04  0.38748154036E+04  0.35998604993E+04 0.  0.
        3    1    3    3  502    0  0.11429942423E+04 -0.12688994036E+04 -0.10486227993E+03  0.17110048633E+04  0.10100000352E+00 0. -1.
       -3    1    3    3    0  502 -0.11429942423E+04  0.12688994036E+04 -0.13287341756E+04  0.21638105402E+04  0.10100000352E+00 0.  1.
</event>
<event>
 5   0  0.8024500E-09  0.3600199E+04  0.7818609E-02  0.8090446E-01
        1   -1    0    0  501    0  0.00000000000E+00  0.00000000000E+00  0.27258075132E+04  0.27258075132E+04  0.50400001928E-02 0. -1.
       -1   -1    0    0    0  501  0.00000000000E+00  0.00000000000E+00 -0.11887697729E+04  0.11887697729E+04  0.50400001928E-02 0.  1.
    10030    2    1    2    0    0  0.00000000000E+00  0.00000000000E+00  0.15370377402E+04  0.39145772861E+04  0.36001986492E+04 0.  0.
        1    1    3    3  502    0 -0.32966713261E+03  0.17016488811E+04  0.24022302686E+03  0.17498561185E+04  0.50400001928E-02 0.  1.
       -1    1    3    3    0  502  0.32966713261E+03 -0.17016488811E+04  0.12968147134E+04  0.21647211676E+04  0.50400001928E-02 0. -1.
</event>
<event>
 5   0  0.8024500E-09  0.3599280E+04  0.7818609E-02  0.8090657E-01
        1   -1    0    0  501    0  0.00000000000E+00  0.00000000000E+00  0.16263213410E+04  0.16263213410E+04  0.50400001928E-02 0. -1.
       -1   -1    0    0    0  501  0.00000000000E+00  0.00000000000E+00 -0.19914298111E+04  0.19914298111E+04  0.50400001928E-02 0.  1.
    10030    2    1    2    0    0  0.00000000000E+00  0.00000000000E+00 -0.36510847014E+03  0.36177511521E+04  0.35992803730E+04 0.  0.
        5    1    3    3  502    0  0.10390884751E+04  0.13393097050E+04 -0.78999602674E+03  0.18701794452E+04  0.46999998093E+01 0.  1.
       -5    1    3    3    0  502 -0.10390884751E+04 -0.13393097050E+04  0.42488755660E+03  0.17475717069E+04  0.46999998093E+01 0. -1.
</event>
<event>
 5   0  0.2608070E-08  0.3600320E+04  0.7818609E-02  0.8090418E-01
        2   -1    0    0  501    0  0.00000000000E+00  0.00000000000E+00  0.15026770776E+04  0.15026770776E+04  0.25500000920E-02 0. -1.
       -2   -1    0    0    0  501  0.00000000000E+00  0.00000000000E+00 -0.21565357900E+04  0.21565357900E+04  0.25500000920E-02 0.  1.
    10030    2    1    2    0    0  0.00000000000E+00  0.00000000000E+00 -0.65385871236E+03  0.36592128676E+04  0.36003204850E+04 0.  0.
        3    1    3    3  502    0  0.17512907435E+04 -0.31598070894E+03 -0.60287335102E+03  0.18789144112E+04  0.10100000352E+00 0.  1.
       -3    1    3    3    0  502 -0.17512907435E+04  0.31598070894E+03 -0.50985361340E+02  0.17802984565E+04  0.10100000352E+00 0. -1.
</event>
<event>
 5   0  0.2476968E-08  0.3599751E+04  0.7818609E-02  0.8090549E-01
       -2   -1    0    0    0  501  0.00000000000E+00  0.00000000000E+00  0.19877366179E+04  0.19877366179E+04  0.25500000920E-02 0.  1.
        2   -1    0    0  501    0  0.00000000000E+00  0.00000000000E+00 -0.16297693171E+04  0.16297693172E+04  0.25500000920E-02 0. -1.
    10030    2    1    2    0    0  0.00000000000E+00  0.00000000000E+00  0.35796730077E+03  0.36175059351E+04  0.35997511861E+04 0.  0.
        2    1    3    3  502    0 -0.55396142991E+03 -0.11973943848E+04  0.14093283517E+04  0.19305007075E+04  0.25500000920E-02 0.  1.
       -2    1    3    3    0  502  0.55396142991E+03  0.11973943848E+04 -0.10513610509E+04  0.16870052276E+04  0.25500000920E-02 0. -1.
</event>
<event>
 5   0  0.8024500E-09  0.3599389E+04  0.7818609E-02  0.8090632E-01
       -1   -1    0    0    0  501  0.00000000000E+00  0.00000000000E+00  0.12601665527E+04  0.12601665527E+04  0.50400001928E-02 0.  1.
        1   -1    0    0  501    0  0.00000000000E+00  0.00000000000E+00 -0.25702160258E+04  0.25702160258E+04  0.50400001928E-02 0. -1.
    10030    2    1    2    0    0  0.00000000000E+00  0.00000000000E+00 -0.13100494731E+04  0.38303825786E+04  0.35993889865E+04 0.  0.
        5    1    3    3  502    0 -0.76103723572E+03  0.13074623367E+03  0.10749094149E+04  0.13235273295E+04  0.46999998093E+01 0.  1.
       -5    1    3    3    0  502  0.76103723572E+03 -0.13074623367E+03 -0.23849588881E+04  0.25068552490E+04  0.46999998093E+01 0. -1.
</event>
<event>
 5   0  0.2608070E-08  0.3599116E+04  0.7818609E-02  0.8090694E-01
        2   -1    0    0  501    0  0.00000000000E+00  0.00000000000E+00  0.21047533166E+04  0.21047533166E+04  0.25500000920E-02 0.  1.
       -2   -1    0    0    0  501  0.00000000000E+00  0.00000000000E+00 -0.15386166427E+04  0.15386166427E+04  0.25500000920E-02 0. -1.
    10030    2    1    2    0    0  0.00000000000E+00  0.00000000000E+00  0.56613667385E+03  0.36433699593E+04  0.35991157146E+04 0.  0.
        3    1    3    3  502    0  0.15731439488E+04  0.36759085393E+03 -0.51946176548E+03  0.16969812773E+04  0.10100000352E+00 0. -1.
       -3    1    3    3    0  502 -0.15731439488E+04 -0.36759085393E+03  0.10855984393E+04  0.19463886820E+04  0.10100000352E+00 0.  1.
</event>
<event>
 5   0  0.2494592E-08  0.3601483E+04  0.7818609E-02  0.8090152E-01
        2   -1    0    0  501    0  0.00000000000E+00  0.00000000000E+00  0.25331977021E+04  0.25331977021E+04  0.25500000920E-02 0. -1.
       -2   -1    0    0    0  501  0.00000000000E+00  0.00000000000E+00 -0.12800699758E+04  0.12800699758E+04  0.25500000920E-02 0.  1.
    10030    2    1    2    0    0  0.00000000000E+00  0.00000000000E+00  0.12531277262E+04  0.38132676779E+04  0.36014832063E+04 0.  0.
        1    1    3    3  502    0 -0.16451520411E+04 -0.71148477073E+03  0.44337379194E+03  0.18464333556E+04  0.50400001928E-02 0. -1.
       -1    1    3    3    0  502  0.16451520411E+04  0.71148477073E+03  0.80975393430E+03  0.19668343223E+04  0.50400001928E-02 0.  1.
</event>
<event>
 5   0  0.2590795E-08  0.3600638E+04  0.7818609E-02  0.8090345E-01
       -2   -1    0    0    0  501  0.00000000000E+00  0.00000000000E+00  0.26893741758E+04  0.26893741758E+04  0.25500000920E-02 0.  1.
        2   -1    0    0  501    0  0.00000000000E+00  0.00000000000E+00 -0.12051686200E+04  0.12051686200E+04  0.25500000920E-02 0. -1.
    10030    2    1    2    0    0  0.00000000000E+00  0.00000000000E+00  0.14842055558E+04  0.38945427959E+04  0.36006384791E+04 0.  0.
        4    1    3    3  502    0  0.40307741239E+02 -0.72658101282E+03 -0.10390042634E+04  0.12684936557E+04  0.12699999809E+01 0. -1.
       -4    1    3    3    0  502 -0.40307741239E+02  0.72658101282E+03  0.25232098192E+04  0.26260491402E+04  0.12699999809E+01 0.  1.
</event>
<event>
 5   0  0.2476968E-08  0.3600823E+04  0.7818609E-02  0.8090303E-01
       -2   -1    0    0    0  501  0.00000000000E+00  0.00000000000E+00  0.13733149411E+04  0.13733149411E+04  0.25500000920E-02 0. -1.
        2   -1    0    0  501    0  0.00000000000E+00  0.00000000000E+00 -0.23603335165E+04  0.23603335165E+04  0.25500000920E-02 0.  1.
    10030    2    1    2    0    0  0.00000000000E+00  0.00000000000E+00 -0.98701857538E+03  0.37336484575E+04  0.36008228416E+04 0.  0.
        2    1    3    3  502    0 -0.11202432467E+04  0.12159327984E+04  0.24555503836E+03  0.16714469118E+04  0.25500000920E-02 0. -1.
       -2    1    3    3    0  502  0.11202432467E+04 -0.12159327984E+04 -0.12325736137E+04  0.20622015458E+04  0.25500000920E-02 0.  1.
</event>
<event>
 5   0  0.8024500E-09  0.3599943E+04  0.7818609E-02  0.8090505E-01
       -1   -1    0    0    0  501  0.00000000000E+00  0.00000000000E+00  0.16335890512E+04  0.16335890512E+04  0.50400001928E-02 0.  1.
        1   -1    0    0  501    0  0.00000000000E+00  0.00000000000E+00 -0.19832995999E+04  0.19832995999E+04  0.50400001928E-02 0. -1.
    10030    2    1    2    0    0  0.00000000000E+00  0.00000000000E+00 -0.34971054872E+03  0.36168886512E+04  0.35999425061E+04 0.  0.
        5    1    3    3  502    0  0.13021542393E+04  0.10411019369E+04  0.50684847609E+03  0.17425315990E+04  0.46999998093E+01 0.  1.
       -5    1    3    3    0  502 -0.13021542393E+04 -0.10411019369E+04 -0.85655902481E+03  0.18743570521E+04  0.46999998093E+01 0. -1.
</event>
<event>
 5   0  0.2476968E-08  0.3596687E+04  0.7818609E-02  0.8091251E-01
       -2   -1    0    0    0  501  0.00000000000E+00  0.00000000000E+00  0.18318331967E+04  0.18318331967E+04  0.25500000920E-02 0. -1.
        2   -1    0    0  501    0  0.00000000000E+00  0.00000000000E+00 -0.17654663049E+04  0.17654663049E+04  0.25500000920E-02 0.  1.
    10030    2    1    2    0    0  0.00000000000E+00  0.00000000000E+00  0.66366891778E+02  0.35972995017E+04  0.35966872453E+04 0.  0.
        2    1    3    3  502    0 -0.14590571431E+04 -0.36647366984E+03  0.10186882204E+04  0.18168314142E+04  0.25500000920E-02 0. -1.
       -2    1    3    3    0  502  0.14590571431E+04  0.36647366984E+03 -0.95232132862E+03  0.17804680874E+04  0.25500000920E-02 0.  1.
</event>
<event>
 5   0  0.8024500E-09  0.3596214E+04  0.7818609E-02  0.8091359E-01
        1   -1    0    0  501    0  0.00000000000E+00  0.00000000000E+00  0.17478988533E+04  0.17478988533E+04  0.50400001928E-02 0.  1.
       -1   -1    0    0    0  501  0.00000000000E+00  0.00000000000E+00 -0.18497574752E+04  0.18497574752E+04  0.50400001928E-02 0. -1.
    10030    2    1    2    0    0  0.00000000000E+00  0.00000000000E+00 -0.10185862193E+03  0.35976563285E+04  0.35962141036E+04 0.  0.
        5    1    3    3  502    0  0.89417588120E+03 -0.10764155845E+03  0.15059819640E+04  0.17547481237E+04  0.46999998093E+01 0.  1.
       -5    1    3    3    0  502 -0.89417588120E+03  0.10764155845E+03 -0.16078405859E+04  0.18429082048E+04  0.46999998093E+01 0. -1.
</event>
<event>
 5   0  0.8146881E-09  0.3600385E+04  0.7818609E-02  0.8090404E-01
        1   -1    0    0  501    0  0.00000000000E+00  0.00000000000E+00  0.24280034486E+04  0.24280034486E+04  0.50400001928E-02 0.  1.
       -1   -1    0    0    0  501  0.00000000000E+00  0.00000000000E+00 -0.13347149721E+04  0.13347149721E+04  0.50400001928E-02 0. -1.
    10030    2    1    2    0    0  0.00000000000E+00  0.00000000000E+00  0.10932884765E+04  0.37627184207E+04  0.36003847323E+04 0.  0.
        4    1    3    3  502    0 -0.18707878276E+03 -0.11590336040E+04 -0.87955941569E+03  0.14669641253E+04  0.12699999809E+01 0. -1.
       -4    1    3    3    0  502  0.18707878276E+03  0.11590336040E+04  0.19728478922E+04  0.22957542954E+04  0.12699999809E+01 0.  1.
</event>
<event>
 5   0  0.8063410E-09  0.3599099E+04  0.7818609E-02  0.8090698E-01
       -1   -1    0    0    0  501  0.00000000000E+00  0.00000000000E+00  0.18306457215E+04  0.18306457215E+04  0.50400001928E-02 0. -1.
        1   -1    0    0  501    0  0.00000000000E+00  0.00000000000E+00 -0.17689815782E+04  0.17689815782E+04  0.50400001928E-02 0.  1.
    10030    2    1    2    0    0  0.00000000000E+00  0.00000000000E+00  0.61664143289E+02  0.35996272996E+04  0.35990990859E+04 0.  0.
        2    1    3    3  502    0 -0.12076893604E+04 -0.10816538712E+04 -0.75023700374E+03  0.17864333881E+04  0.25500000920E-02 0.  1.
       -2    1    3    3    0  502  0.12076893604E+04  0.10816538712E+04  0.81190114703E+03  0.18131939115E+04  0.25500000920E-02 0. -1.
</event>
<event>
 5   0  0.8146881E-09  0.3598800E+04  0.7818609E-02  0.8090767E-01
       -1   -1    0    0    0  501  0.00000000000E+00  0.00000000000E+00  0.21883286421E+04  0.21883286421E+04  0.50400001928E-02 0.  1.
        1   -1    0    0  501    0  0.00000000000E+00  0.00000000000E+00 -0.14795948521E+04  0.14795948521E+04  0.50400001928E-02 0. -1.
    10030    2    1    2    0    0  0.00000000000E+00  0.00000000000E+00  0.70873378998E+03  0.36679234941E+04  0.35987996851E+04 0.  0.
        4    1    3    3  502    0  0.51351273859E+03 -0.52263888803E+03 -0.13206693107E+04  0.15103032083E+04  0.12699999809E+01 0. -1.
       -4    1    3    3    0  502 -0.51351273859E+03  0.52263888803E+03  0.20294031007E+04  0.21576202858E+04  0.12699999809E+01 0.  1.
</event>
<event>
 5   0  0.2494592E-08  0.3600375E+04  0.7818609E-02  0.8090406E-01
       -2   -1    0    0    0  501  0.00000000000E+00  0.00000000000E+00  0.11941119662E+04  0.11941119663E+04  0.25500000920E-02 0. -1.
        2   -1    0    0  501    0  0.00000000000E+00  0.00000000000E+00 -0.27138782517E+04  0.27138782517E+04  0.25500000920E-02 0.  1.
    10030    2    1    2    0    0  0.00000000000E+00  0.00000000000E+00 -0.15197662855E+04  0.39079902180E+04  0.36003747001E+04 0.  0.
        1    1    3    3  502    0  0.62569217523E+03  0.92064381775E+03  0.77577404968E+03  0.13567981108E+04  0.50400001928E-02 0. -1.
       -1    1    3    3    0  502 -0.62569217523E+03 -0.92064381775E+03 -0.22955403352E+04  0.25511921072E+04  0.50400001928E-02 0.  1.
</event>
<event>
 5   0  0.2590795E-08  0.3594214E+04  0.7818609E-02  0.8091818E-01
        2   -1    0    0  501    0  0.00000000000E+00  0.00000000000E+00  0.15210216819E+04  0.15210216819E+04  0.25500000920E-02 0.  1.
       -2   -1    0    0    0  501  0.00000000000E+00  0.00000000000E+00 -0.21233051375E+04  0.21233051375E+04  0.25500000920E-02 0. -1.
    10030    2    1    2    0    0  0.00000000000E+00  0.00000000000E+00 -0.60228345554E+03  0.36443268194E+04  0.35942137674E+04 0.  0.
        4    1    3    3  502    0 -0.74645614568E+03  0.51374954009E+03 -0.18746998444E+04  0.20822191256E+04  0.12699999809E+01 0. -1.
       -4    1    3    3    0  502  0.74645614568E+03 -0.51374954009E+03  0.12724163889E+04  0.15621076938E+04  0.12699999809E+01 0.  1.
</event>
<event>
 5   0  0.8247570E-09  0.3599696E+04  0.7818609E-02  0.8090561E-01
        1   -1    0    0  501    0  0.00000000000E+00  0.00000000000E+00  0.16018093497E+04  0.16018093497E+04  0.50400001928E-02 0.  1.
       -1   -1    0    0    0  501  0.00000000000E+00  0.00000000000E+00 -0.20223708905E+04  0.20223708905E+04  0.50400001928E-02 0. -1.
    10030    2    1    2    0    0  0.00000000000E+00  0.00000000000E+00 -0.42056154085E+03  0.36241802402E+04  0.35996958766E+04 0.  0.
        3    1    3    3  502    0 -0.10574818981E+04  0.89369431005E+03 -0.13681006830E+04  0.19464472696E+04  0.10100000352E+00 0. -1.
       -3    1    3    3    0  502  0.10574818981E+04 -0.89369431005E+03  0.94753914214E+03  0.16777329706E+04  0.10100000352E+00 0.  1.
</event>
<event>
 5   0  0.2608070E-08  0.3598619E+04  0.7818609E-02  0.8090808E-01
       -2   -1    0    0    0  501  0.00000000000E+00  0.00000000000E+00  0.13259603904E+04  0.13259603904E+04  0.25500000920E-02 0.  1.
        2   -1    0    0  501    0  0.00000000000E+00  0.00000000000E+00 -0.24416376059E+04  0.24416376059E+04  0.25500000920E-02 0. -1.
    10030    2    1    2    0    0  0.00000000000E+00  0.00000000000E+00 -0.11156772155E+04  0.37675979962E+04  0.35986190424E+04 0.  0.
        3    1    3    3  502    0 -0.64159880933E+03  0.46844222792E+02  0.12014445928E+04  0.13628325403E+04  0.10100000352E+00 0.  1.
       -3    1    3    3    0  502  0.64159880933E+03 -0.46844222792E+02 -0.23171218082E+04  0.24047654559E+04  0.10100000352E+00 0. -1.
</event>
<event>
 5   0  0.8247570E-09  0.3600087E+04  0.7818609E-02  0.8090472E-01
        1   -1    0    0  501    0  0.00000000000E+00  0.00000000000E+00  0.14965929144E+04  0.14965929144E+04  0.50400001928E-02 0. -1.
       -1   -1    0    0    0  501  0.00000000000E+00  0.00000000000E+00 -0.21650217753E+04  0.21650217753E+04  0.50400001928E-02 0.  1.
    10030    2    1    2    0    0  0.00000000000E+00  0.00000000000E+00 -0.66842886091E+03  0.36616146897E+04  0.36000868037E+04 0.  0.
        3    1    3    3  502    0 -0.99256313150E+03  0.79056857296E+03  0.96431044653E+03  0.15937612387E+04  0.10100000352E+00 0. -1.
       -3    1    3    3    0  502  0.99256313150E+03 -0.79056857296E+03 -0.16327393074E+04  0.20678534510E+04  0.10100000352E+00 0.  1.
</event>
<event>
 5   0  0.8063410E-09  0.3597237E+04  0.7818609E-02  0.8091125E-01
        1   -1    0    0  501    0  0.00000000000E+00  0.00000000000E+00  0.19569793395E+04  0.19569793395E+04  0.50400001928E-02 0.  1.
       -1   -1    0    0    0  501  0.00000000000E+00  0.00000000000E+00 -0.16530720037E+04  0.16530720037E+04  0.50400001928E-02 0. -1.
    10030    2    1    2    0    0  0.00000000000E+00  0.00000000000E+00  0.30390733579E+03  0.36100513432E+04  0.35972365826E+04 0.  0.
        2    1    3    3  502    0  0.11683519390E+04  0.50582233822E+03 -0.11230545827E+04  0.16976908102E+04  0.25500000920E-02 0. -1.
       -2    1    3    3    0  502 -0.11683519390E+04 -0.50582233822E+03  0.14269619185E+04  0.19123605330E+04  0.25500000920E-02 0.  1.
</event>
<event>
 5   0  0.2476968E-08  0.3584724E+04  0.7818609E-02  0.8094000E-01
        2   -1    0    0  501    0  0.00000000000E+00  0.00000000000E+00  0.23172526873E+04  0.23172526873E+04  0.25500000920E-02 0. -1.
       -2   -1    0    0    0  501  0.00000000000E+00  0.00000000000E+00 -0.13863666661E+04  0.13863666661E+04  0.25500000920E-02 0.  1.
    10030    2    1    2    0    0  0.00000000000E+00  0.00000000000E+00  0.93088602121E+03  0.37036193534E+04  0.35847241916E+04 0.  0.
        2    1    3    3  502    0  0.64440112079E+03  0.58595589664E+03 -0.11530273836E+04  0.14450153164E+04  0.25500000920E-02 0.  1.
       -2    1    3    3    0  502 -0.64440112079E+03 -0.58595589664E+03  0.20839134048E+04  0.22586040370E+04  0.25500000920E-02 0. -1.
</event>
<event>
 5   0  0.8024500E-09  0.3600949E+04  0.7818609E-02  0.8090274E-01
        3   -1    0    0  501    0  0.00000000000E+00  0.00000000000E+00  0.24733043647E+04  0.24733043667E+04  0.10100000352E+00 0. -1.
       -3   -1    0    0    0  501  0.00000000000E+00  0.00000000000E+00 -0.13106792789E+04  0.13106792828E+04  0.10100000352E+00 0.  1.
    10030    2    1    2    0    0  0.00000000000E+00  0.00000000000E+00  0.11626250857E+04  0.37839836496E+04  0.36009492040E+04 0.  0.
        1    1    3    3  502    0  0.27795903994E+03  0.14568193410E+04 -0.49142173342E+03  0.15623953213E+04  0.50400001928E-02 0.  1.
       -1    1    3    3    0  502 -0.27795903994E+03 -0.14568193410E+04  0.16540468192E+04  0.22215883282E+04  0.50400001928E-02 0. -1.
</event>
<event>
 5   0  0.8024500E-09  0.3599707E+04  0.7818609E-02  0.8090559E-01
        1   -1    0    0  501    0  0.00000000000E+00  0.00000000000E+00  0.23475442933E+04  0.23475442933E+04  0.50400001928E-02 0.  1.
       -1   -1    0    0    0  501  0.00000000000E+00  0.00000000000E+00 -0.13799411011E+04  0.13799411012E+04  0.50400001928E-02 0. -1.
    10030    2    1    2    0    0  0.00000000000E+00  0.00000000000E+00  0.96760319211E+03  0.37274853944E+04  0.35997071309E+04 0.  0.
        1    1    3    3  502    0  0.15459803709E+04 -0.26994945113E+03 -0.42869667902E+03  0.16268708787E+04  0.50400001928E-02 0. -1.
       -1    1    3    3    0  502 -0.15459803709E+04  0.26994945113E+03  0.13962998711E+04  0.21006145157E+04  0.50400001928E-02 0.  1.
</event>
<event>
 5   0  0.2590795E-08  0.3597610E+04  0.7818609E-02  0.8091039E-01
        2   -1    0    0  501    0  0.00000000000E+00  0.00000000000E+00  0.17426171565E+04  0.17426171565E+04  0.25500000920E-02 0. -1.
       -2   -1    0    0    0  501  0.00000000000E+00  0.00000000000E+00 -0.18568041840E+04  0.18568041840E+04  0.25500000920E-02 0.  1.
    10030    2    1    2    0    0  0.00000000000E+00  0.00000000000E+00 -0.11418702755E+03  0.35994213405E+04  0.35976096660E+04 0.  0.
        4    1    3    3  502    0  0.12434344547E+04  0.26611893731E+03  0.12158477351E+04  0.17593282410E+04  0.12699999809E+01 0. -1.
       -4    1    3    3    0  502 -0.12434344547E+04 -0.26611893731E+03 -0.13300347626E+04  0.18400930994E+04  0.12699999809E+01 0.  1.
</event>
<event>
 5   0  0.8024500E-09  0.3603411E+04  0.7818609E-02  0.8089711E-01
        1   -1    0    0  501    0  0.00000000000E+00  0.00000000000E+00  0.17832026726E+04  0.17832026726E+04  0.50400001928E-02 0. -1.
       -1   -1    0    0    0  501  0.00000000000E+00  0.00000000000E+00 -0.18204004467E+04  0.18204004467E+04  0.50400001928E-02 0.  1.
    10030    2    1    2    0    0  0.00000000000E+00  0.00000000000E+00 -0.37197774110E+02  0.36036031192E+04  0.36034111293E+04 0.  0.
        1    1    3    3  502    0  0.93307417505E+03 -0.15195711150E+04  0.23913397789E+03  0.17991411421E+04  0.50400001928E-02 0.  1.
       -1    1    3    3    0  502 -0.93307417505E+03  0.15195711150E+04 -0.27633175200E+03  0.18044619771E+04  0.50400001928E-02 0. -1.
</event>
<event>
 5   0  0.2590795E-08  0.3600595E+04  0.7818609E-02  0.8090355E-01
       -2   -1    0    0    0  501  0.00000000000E+00  0.00000000000E+00  0.13079195661E+04  0.13079195661E+04  0.25500000920E-02 0. -1.
        2   -1    0    0  501    0  0.00000000000E+00  0.00000000000E+00 -0.24780361637E+04  0.24780361637E+04  0.25500000920E-02 0.  1.
    10030    2    1    2    0    0  0.00000000000E+00  0.00000000000E+00 -0.11701165975E+04  0.37859557298E+04  0.36005954974E+04 0.  0.
        4    1    3    3  502    0  0.55535816760E+03  0.10889061307E+04  0.80469939632E+03  0.14634486623E+04  0.12699999809E+01 0. -1.
       -4    1    3    3    0  502 -0.55535816760E+03 -0.10889061307E+04 -0.19748159939E+04  0.23225070675E+04  0.12699999809E+01 0.  1.
</event>
<event>
 5   0  0.2482243E-08  0.3600425E+04  0.7818609E-02  0.8090394E-01
       -2   -1    0    0    0  501  0.00000000000E+00  0.00000000000E+00  0.29482715986E+04  0.29482715986E+04  0.25500000920E-02 0.  1.
        2   -1    0    0  501    0  0.00000000000E+00  0.00000000000E+00 -0.10992086899E+04  0.10992086899E+04  0.25500000920E-02 0. -1.
    10030    2    1    2    0    0  0.00000000000E+00  0.00000000000E+00  0.18490629087E+04  0.40474802884E+04  0.36004253978E+04 0.  0.
        5    1    3    3  502    0  0.17935410952E+04  0.13666139831E+03  0.10061995038E+04  0.20610496183E+04  0.46999998093E+01 0.  1.
       -5    1    3    3    0  502 -0.17935410952E+04 -0.13666139831E+03  0.84286340489E+03  0.19864306701E+04  0.46999998093E+01 0. -1.
</event>
<event>
 5   0  0.8146881E-09  0.3612494E+04  0.7818609E-02  0.8087636E-01
        1   -1    0    0  501    0  0.00000000000E+00  0.00000000000E+00  0.17676029595E+04  0.17676029595E+04  0.50400001928E-02 0.  1.
       -1   -1    0    0    0  501  0.00000000000E+00  0.00000000000E+00 -0.18457361890E+04  0.18457361890E+04  0.50400001928E-02 0. -1.
    10030    2    1    2    0    0  0.00000000000E+00  0.00000000000E+00 -0.78133229469E+02  0.36133391485E+04  0.36124942908E+04 0.  0.
        4    1    3    3  502    0  0.49276299737E+03  0.69780469741E+03 -0.16309099476E+04  0.18410908825E+04  0.12699999809E+01 0. -1.
       -4    1    3    3    0  502 -0.49276299737E+03 -0.69780469741E+03  0.15527767182E+04  0.17722482661E+04  0.12699999809E+01 0.  1.
</event>
<event>
 5   0  0.2482243E-08  0.3600867E+04  0.7818609E-02  0.8090293E-01
        2   -1    0    0  501    0  0.00000000000E+00  0.00000000000E+00  0.19247909112E+04  0.19247909112E+04  0.25500000920E-02 0. -1.
       -2   -1    0    0    0  501  0.00000000000E+00  0.00000000000E+00 -0.16841104404E+04  0.16841104404E+04  0.25500000920E-02 0.  1.
    10030    2    1    2    0    0  0.00000000000E+00  0.00000000000E+00  0.24068047084E+03  0.36089013516E+04  0.36008668229E+04 0.  0.
        5    1    3    3  502    0 -0.11903789849E+04  0.53602217358E+03 -0.11222715476E+04  0.17215799182E+04  0.46999998093E+01 0.  1.
       -5    1    3    3    0  502  0.11903789849E+04 -0.53602217358E+03  0.13629520184E+04  0.18873214334E+04  0.46999998093E+01 0. -1.
</event>
<event>
 5   0  0.8063410E-09  0.3603446E+04  0.7818609E-02  0.8089703E-01
        1   -1    0    0  501    0  0.00000000000E+00  0.00000000000E+00  0.23510098567E+04  0.23510098567E+04  0.50400001928E-02 0.  1.
       -1   -1    0    0    0  501  0.00000000000E+00  0.00000000000E+00 -0.13807704559E+04  0.13807704559E+04  0.50400001928E-02 0. -1.
    10030    2    1    2    0    0  0.00000000000E+00  0.00000000000E+00  0.97023940081E+03  0.37317803125E+04  0.36034455464E+04 0.  0.
        2    1    3    3  502    0  0.72224617777E+03  0.14783665432E+04  0.12454312566E+04  0.20635663770E+04  0.25500000920E-02 0. -1.
       -2    1    3    3    0  502 -0.72224617777E+03 -0.14783665432E+04 -0.27519185579E+03  0.16682139356E+04  0.25500000920E-02 0.  1.
</event>
<event>
 5   0  0.2476968E-08  0.3605974E+04  0.7818609E-02  0.8089125E-01
        2   -1    0    0  501    0  0.00000000000E+00  0.00000000000E+00  0.25147015426E+04  0.25147015426E+04  0.25500000920E-02 0. -1.
       -2   -1    0    0    0  501  0.00000000000E+00  0.00000000000E+00 -0.12927030993E+04  0.12927030993E+04  0.25500000920E-02 0.  1.
    10030    2    1    2    0    0  0.00000000000E+00  0.00000000000E+00  0.12219984433E+04  0.38074046419E+04  0.36059741973E+04 0.  0.
        2    1    3    3  502    0  0.24383221412E+03 -0.32023007108E+03  0.24666599422E+04  0.24992824405E+04  0.25500000920E-02 0. -1.
       -2    1    3    3    0  502 -0.24383221412E+03  0.32023007108E+03 -0.12446614989E+04  0.13081222014E+04  0.25500000920E-02 0.  1.
</event>
<event>
 5   0  0.8024500E-09  0.3596693E+04  0.7818609E-02  0.8091250E-01
        1   -1    0    0  501    0  0.00000000000E+00  0.00000000000E+00  0.15565618661E+04  0.15565618661E+04  0.50400001928E-02 0.  1.
       -1   -1    0    0    0  501  0.00000000000E+00  0.00000000000E+00 -0.20776877163E+04  0.20776877163E+04  0.50400001928E-02 0. -1.
    10030    2    1    2    0    0  0.00000000000E+00  0.00000000000E+00 -0.52112585022E+03  0.36342495825E+04  0.35966926302E+04 0.  0.
        5    1    3    3  502    0  0.34297287090E+03 -0.21517181150E+03 -0.20310287549E+04  0.20709971492E+04  0.46999998093E+01 0. -1.
       -5    1    3    3    0  502 -0.34297287090E+03  0.21517181150E+03  0.15099029047E+04  0.15632524333E+04  0.46999998093E+01 0.  1.
</event>
</LesHouchesEvents>
